Generated by CHARMM-GUI FF-Converter
44415
    1GLY      N    1   2.149   3.923   4.838
    1GLY    HT1    2   2.083   3.942   4.917
    1GLY    HT2    3   2.215   3.847   4.868
    1GLY    HT3    4   2.098   3.881   4.757
    1GLY     CA    5   2.227   4.040   4.799
    1GLY    HA1    6   2.277   4.076   4.888
    1GLY    HA2    7   2.156   4.110   4.758
    1GLY      C    8   2.335   4.009   4.697
    1GLY      O    9   2.364   3.892   4.671
    2PRO      N   10   2.405   4.100   4.629
    2PRO     CD   11   2.352   4.225   4.625
    2PRO    HD1   12   2.368   4.273   4.725
    2PRO    HD2   13   2.244   4.227   4.597
    2PRO     CA   14   2.518   4.077   4.538
    2PRO     HA   15   2.484   4.007   4.463
    2PRO     CB   16   2.550   4.217   4.485
    2PRO    HB1   17   2.567   4.216   4.375
    2PRO    HB2   18   2.640   4.260   4.534
    2PRO     CG   19   2.431   4.300   4.522
    2PRO    HG1   20   2.462   4.401   4.558
    2PRO    HG2   21   2.368   4.316   4.432
    2PRO      C   22   2.639   4.016   4.608
    2PRO      O   23   2.653   4.029   4.730
    3GLY      N   24   2.717   3.944   4.526
    3GLY     HN   25   2.687   3.923   4.433
    3GLY     CA   26   2.839   3.886   4.579
    3GLY    HA1   27   2.884   3.826   4.500
    3GLY    HA2   28   2.815   3.826   4.666
    3GLY      C   29   2.942   3.989   4.619
    3GLY      O   30   2.927   4.108   4.587
    4ASP      N   31   3.036   3.940   4.701
    4ASP     HN   32   3.027   3.853   4.749
    4ASP     CA   33   3.148   4.026   4.734
    4ASP     HA   34   3.102   4.111   4.783
    4ASP     CB   35   3.242   3.957   4.834
    4ASP    HB1   36   3.337   4.012   4.848
    4ASP    HB2   37   3.267   3.855   4.796
    4ASP     CG   38   3.180   3.940   4.972
    4ASP    OD1   39   3.088   4.017   5.006
    4ASP    OD2   40   3.225   3.851   5.046
    4ASP      C   41   3.226   4.066   4.609
    4ASP      O   42   3.236   3.988   4.514
    5PRO      N   43   3.281   4.170   4.599
    5PRO     CD   44   3.274   4.261   4.698
    5PRO    HD1   45   3.330   4.226   4.788
    5PRO    HD2   46   3.169   4.288   4.725
    5PRO     CA   47   3.368   4.204   4.486
    5PRO     HA   48   3.309   4.204   4.396
    5PRO     CB   49   3.418   4.345   4.521
    5PRO    HB1   50   3.401   4.416   4.437
    5PRO    HB2   51   3.527   4.345   4.545
    5PRO     CG   52   3.341   4.384   4.643
    5PRO    HG1   53   3.400   4.439   4.717
    5PRO    HG2   54   3.259   4.453   4.609
    5PRO      C   55   3.485   4.107   4.470
    5PRO      O   56   3.524   4.041   4.567
    6GLY      N   57   3.524   4.106   4.342
    6GLY     HN   58   3.494   4.172   4.274
    6GLY     CA   59   3.641   4.024   4.316
    6GLY    HA1   60   3.661   4.029   4.210
    6GLY    HA2   61   3.621   3.922   4.349
    6GLY      C   62   3.766   4.073   4.387
    6GLY      O   63   3.769   4.186   4.436
    7SER      N   64   3.862   3.990   4.387
    7SER     HN   65   3.857   3.900   4.347
    7SER     CA   66   3.990   4.030   4.445
    7SER     HA   67   3.971   4.074   4.542
    7SER     CB   68   4.081   3.909   4.464
    7SER    HB1   69   4.170   3.933   4.524
    7SER    HB2   70   4.116   3.875   4.364
    7SER     OG   71   4.009   3.801   4.522
    7SER    HG1   72   3.990   3.826   4.614
    7SER      C   73   4.060   4.134   4.359
    7SER      O   74   4.030   4.147   4.240
    8ASP      N   75   4.153   4.193   4.424
    8ASP     HN   76   4.162   4.193   4.523
    8ASP     CA   77   4.236   4.285   4.348
    8ASP     HA   78   4.172   4.355   4.294
    8ASP     CB   79   4.328   4.364   4.441
    8ASP    HB1   80   4.402   4.424   4.383
    8ASP    HB2   81   4.385   4.294   4.506
    8ASP     CG   82   4.253   4.461   4.530
    8ASP    OD1   83   4.132   4.483   4.509
    8ASP    OD2   84   4.316   4.517   4.623
    8ASP      C   85   4.319   4.211   4.243
    8ASP      O   86   4.353   4.094   4.261
    9GLY      N   87   4.350   4.287   4.131
    9GLY     HN   88   4.318   4.380   4.120
    9GLY     CA   89   4.434   4.228   4.028
    9GLY    HA1   90   4.439   4.298   3.947
    9GLY    HA2   91   4.392   4.132   3.999
    9GLY      C   92   4.577   4.204   4.075
    9GLY      O   93   4.617   4.251   4.181
   10SER      N   94   4.645   4.140   3.987
   10SER     HN   95   4.607   4.103   3.903
   10SER     CA   96   4.787   4.120   4.014
   10SER     HA   97   4.799   4.082   4.115
   10SER     CB   98   4.846   4.017   3.917
   10SER    HB1   99   4.953   3.996   3.941
   10SER    HB2  100   4.843   4.058   3.813
   10SER     OG  101   4.772   3.897   3.920
   10SER    HG1  102   4.806   3.850   3.999
   10SER      C  103   4.865   4.251   4.004
   10SER      O  104   4.825   4.342   3.932
   11GLY      N  105   4.965   4.273   4.088
   11GLY     HN  106   4.994   4.203   4.152
   11GLY     CA  107   5.049   4.392   4.080
   11GLY    HA1  108   5.119   4.383   4.162
   11GLY    HA2  109   4.982   4.476   4.085
   11GLY      C  110   5.129   4.400   3.951
   11GLY      O  111   5.123   4.310   3.868
   12PRO      N  112   5.191   4.490   3.920
   12PRO     CD  113   5.207   4.594   4.018
   12PRO    HD1  114   5.255   4.557   4.112
   12PRO    HD2  115   5.110   4.646   4.039
   12PRO     CA  116   5.278   4.507   3.803
   12PRO     HA  117   5.223   4.481   3.714
   12PRO     CB  118   5.316   4.655   3.809
   12PRO    HB1  119   5.242   4.713   3.748
   12PRO    HB2  120   5.418   4.677   3.769
   12PRO     CG  121   5.299   4.693   3.953
   12PRO    HG1  122   5.399   4.683   4.003
   12PRO    HG2  123   5.267   4.798   3.966
   12PRO      C  124   5.402   4.418   3.807
   12PRO      O  125   5.443   4.375   3.915
   13GLY      N  126   5.458   4.381   3.699
   13GLY     HN  127   5.419   4.413   3.613
   13GLY     CA  128   5.581   4.305   3.689
   13GLY    HA1  129   5.600   4.285   3.584
   13GLY    HA2  130   5.570   4.216   3.749
   13GLY      C  131   5.702   4.379   3.743
   13GLY      O  132   5.696   4.501   3.765
   14ASP      N  133   5.800   4.332   3.774
   14ASP     HN  134   5.807   4.234   3.769
   14ASP     CA  135   5.927   4.389   3.817
   14ASP     HA  136   5.905   4.454   3.900
   14ASP     CB  137   6.021   4.279   3.867
   14ASP    HB1  138   6.122   4.321   3.888
   14ASP    HB2  139   6.032   4.200   3.790
   14ASP     CG  140   5.975   4.216   3.997
   14ASP    OD1  141   5.902   4.283   4.075
   14ASP    OD2  142   6.011   4.100   4.023
   14ASP      C  143   5.994   4.467   3.704
   14ASP      O  144   5.981   4.431   3.587
   15PRO      N  145   6.034   4.608   3.725
   15PRO     CD  146   6.016   4.669   3.851
   15PRO    HD1  147   6.084   4.620   3.924
   15PRO    HD2  148   5.910   4.661   3.883
   15PRO     CA  149   6.103   4.689   3.625
   15PRO     HA  150   6.037   4.705   3.541
   15PRO     CB  151   6.139   4.817   3.701
   15PRO    HB1  152   6.121   4.907   3.639
   15PRO    HB2  153   6.247   4.816   3.730
   15PRO     CG  154   6.055   4.812   3.825
   15PRO    HG1  155   6.109   4.856   3.912
   15PRO    HG2  156   5.964   4.871   3.808
   15PRO      C  157   6.228   4.621   3.570
   15PRO    OT1  158   6.258   4.507   3.614
   15PRO    OT2  159   6.295   4.683   3.483
   16SOD    SOD  160   6.993   4.083   1.455
   17SOD    SOD  161   5.566   7.537   1.924
   18SOD    SOD  162   3.474   7.229   8.184
   19SOD    SOD  163   3.462   6.867   4.936
   20SOD    SOD  164   3.798   0.922   4.256
   21SOD    SOD  165   5.622   1.768   3.748
   22SOD    SOD  166   3.892   6.002   0.783
   23SOD    SOD  167   8.131   6.151   4.284
   24SOD    SOD  168   5.999   3.025   5.510
   25SOD    SOD  169   6.508   6.515   3.268
   26SOD    SOD  170   1.725   1.718   2.354
   27SOD    SOD  171   0.373   6.586   3.053
   28SOD    SOD  172   1.019   6.119   6.846
   29SOD    SOD  173   3.524   0.713   5.017
   30SOD    SOD  174   4.583   4.466   5.318
   31SOD    SOD  175   2.881   0.059   3.097
   32SOD    SOD  176   5.028   7.104   4.801
   33SOD    SOD  177   1.177   2.705   3.634
   34SOD    SOD  178   6.182   8.356   4.247
   35SOD    SOD  179   4.520   2.409   3.784
   36SOD    SOD  180   5.656   0.203   3.495
   37SOD    SOD  181   2.740   2.782   0.631
   38SOD    SOD  182   7.893   3.619   6.915
   39SOD    SOD  183   1.451   5.383   0.542
   40SOD    SOD  184   8.587   4.421   5.402
   41SOD    SOD  185   1.079   5.754   3.904
   42SOD    SOD  186   4.407   0.691   7.594
   43SOD    SOD  187   7.525   4.639   4.755
   44SOD    SOD  188   6.299   1.798   2.288
   45SOD    SOD  189   2.693   2.009   6.449
   46SOD    SOD  190  -0.109   4.834   3.710
   47SOD    SOD  191   3.401   4.751   6.856
   48SOD    SOD  192   1.500   4.744   2.644
   49SOD    SOD  193   1.751   0.797   6.108
   50SOD    SOD  194   2.246   2.644   1.574
   51SOD    SOD  195   5.486   3.226   2.310
   52SOD    SOD  196   3.881   1.208   3.388
   53SOD    SOD  197   1.033   4.144   5.166
   54SOD    SOD  198   6.583   3.474   2.130
   55SOD    SOD  199   6.158   4.624   2.177
   56SOD    SOD  200   5.568   3.587   3.348
   57SOD    SOD  201   3.020   1.341   7.787
   58SOD    SOD  202   5.335   7.057   0.776
   59SOD    SOD  203   0.303   2.875   2.723
   60SOD    SOD  204   4.481   4.044   7.313
   61CLA    CLA  205   4.748   6.623   7.254
   62CLA    CLA  206   6.159   6.763   7.089
   63CLA    CLA  207   6.386   8.149   2.631
   64CLA    CLA  208   3.934   1.216   4.191
   65CLA    CLA  209   2.298   4.474   7.614
   66CLA    CLA  210   0.904   4.671   5.743
   67CLA    CLA  211   3.168   6.409   1.438
   68CLA    CLA  212   6.499   2.115   6.464
   69CLA    CLA  213   2.542   1.930   2.307
   70CLA    CLA  214   5.620   4.395   8.913
   71CLA    CLA  215   3.913   5.423   0.148
   72CLA    CLA  216   4.801   2.338   4.936
   73CLA    CLA  217   6.969   7.705   2.279
   74CLA    CLA  218   1.047   3.974   4.973
   75CLA    CLA  219   2.876   5.200   6.573
   76CLA    CLA  220   3.325   5.511   1.059
   77CLA    CLA  221   3.660   7.926   2.061
   78CLA    CLA  222   7.779   7.077   2.913
   79CLA    CLA  223   6.679   4.973   2.146
   80CLA    CLA  224   0.774   2.586   3.880
   81CLA    CLA  225   6.121   7.281   5.805
   82CLA    CLA  226   1.000   4.237   2.773
   83CLA    CLA  227   6.277   3.214   5.028
   84CLA    CLA  228   5.557   7.397   1.247
   85CLA    CLA  229   1.013   0.939   5.159
   86CLA    CLA  230   2.050   2.596   1.429
   87CLA    CLA  231   1.564   7.160   6.931
   88CLA    CLA  232   2.223   2.958   4.776
   89CLA    CLA  233   5.361   7.976   4.882
   90CLA    CLA  234   5.673   3.843   1.964
   91CLA    CLA  235   3.842   1.774   3.532
   92CLA    CLA  236   5.456   7.639   1.718
   93CLA    CLA  237   1.422   4.745   4.651
   94CLA    CLA  238   7.999   2.802   6.417
   95CLA    CLA  239   5.603   6.192   5.524
   96CLA    CLA  240   7.508   3.676   7.735
   97CLA    CLA  241   4.578   7.109   5.347
   98CLA    CLA  242   5.727   6.929   6.994
   99CLA    CLA  243   0.741   5.999   4.321
  100CLA    CLA  244   4.848   6.900   3.160
  101CLA    CLA  245   0.575   3.753   4.450
  102CLA    CLA  246   6.142   0.190   3.191
  103TIP3   OH2  247   3.281   0.369   2.243
  103TIP3    H1  248   3.275   0.273   2.252
  103TIP3    H2  249   3.197   0.397   2.286
  104TIP3   OH2  250   2.970   0.712   2.341
  104TIP3    H1  251   2.962   0.749   2.251
  104TIP3    H2  252   3.046   0.764   2.374
  105TIP3   OH2  253   3.278   0.055   2.258
  105TIP3    H1  254   3.183   0.075   2.252
  105TIP3    H2  255   3.295   0.027   2.167
  106TIP3   OH2  256   2.740   0.264   2.503
  106TIP3    H1  257   2.726   0.209   2.583
  106TIP3    H2  258   2.797   0.334   2.540
  107TIP3   OH2  259   3.077   0.500   2.029
  107TIP3    H1  260   3.067   0.433   1.958
  107TIP3    H2  261   3.160   0.470   2.069
  108TIP3   OH2  262   3.154   0.171   2.569
  108TIP3    H1  263   3.081   0.181   2.633
  108TIP3    H2  264   3.195   0.260   2.575
  109TIP3   OH2  265   3.191  -0.162   2.417
  109TIP3    H1  266   3.255  -0.235   2.407
  109TIP3    H2  267   3.220  -0.099   2.350
  110TIP3   OH2  268   3.369  -0.363   2.423
  110TIP3    H1  269   3.334  -0.445   2.464
  110TIP3    H2  270   3.464  -0.372   2.438
  111TIP3   OH2  271   2.582   0.644   2.265
  111TIP3    H1  272   2.593   0.549   2.275
  111TIP3    H2  273   2.618   0.679   2.348
  112TIP3   OH2  274   3.034   0.445   2.343
  112TIP3    H1  275   2.955   0.409   2.300
  112TIP3    H2  276   3.015   0.541   2.340
  113TIP3   OH2  277   4.236  -0.178   1.487
  113TIP3    H1  278   4.280  -0.196   1.573
  113TIP3    H2  279   4.206  -0.267   1.462
  114TIP3   OH2  280   4.502   0.127   1.195
  114TIP3    H1  281   4.527   0.067   1.267
  114TIP3    H2  282   4.534   0.211   1.232
  115TIP3   OH2  283   4.176   0.585   1.178
  115TIP3    H1  284   4.234   0.520   1.132
  115TIP3    H2  285   4.178   0.553   1.269
  116TIP3   OH2  286   4.095   0.060   1.533
  116TIP3    H1  287   4.128  -0.026   1.501
  116TIP3    H2  288   4.182   0.101   1.554
  117TIP3   OH2  289   3.938  -0.031   1.746
  117TIP3    H1  290   3.880   0.031   1.796
  117TIP3    H2  291   3.994   0.032   1.694
  118TIP3   OH2  292   3.766   0.160   1.846
  118TIP3    H1  293   3.751   0.252   1.817
  118TIP3    H2  294   3.692   0.153   1.911
  119TIP3   OH2  295   4.606   0.364   1.326
  119TIP3    H1  296   4.518   0.361   1.371
  119TIP3    H2  297   4.600   0.452   1.282
  120TIP3   OH2  298   4.316   0.406   1.029
  120TIP3    H1  299   4.373   0.332   1.007
  120TIP3    H2  300   4.354   0.476   0.970
  121TIP3   OH2  301   4.831   0.310   1.704
  121TIP3    H1  302   4.827   0.230   1.647
  121TIP3    H2  303   4.814   0.381   1.638
  122TIP3   OH2  304   4.724  -0.212   1.843
  122TIP3    H1  305   4.702  -0.128   1.888
  122TIP3    H2  306   4.666  -0.211   1.766
  123TIP3   OH2  307   3.884   0.214   1.429
  123TIP3    H1  308   3.824   0.142   1.453
  123TIP3    H2  309   3.970   0.177   1.459
  124TIP3   OH2  310   4.371   0.362   1.454
  124TIP3    H1  311   4.353   0.444   1.503
  124TIP3    H2  312   4.348   0.292   1.518
  125TIP3   OH2  313   3.977   0.278   1.997
  125TIP3    H1  314   3.920   0.342   2.045
  125TIP3    H2  315   3.910   0.228   1.948
  126TIP3   OH2  316   3.722  -0.149   2.080
  126TIP3    H1  317   3.736  -0.073   2.141
  126TIP3    H2  318   3.628  -0.165   2.093
  127TIP3   OH2  319   4.089   0.250   1.103
  127TIP3    H1  320   4.166   0.310   1.099
  127TIP3    H2  321   4.015   0.309   1.119
  128TIP3   OH2  322   3.776   0.447   2.089
  128TIP3    H1  323   3.742   0.450   1.997
  128TIP3    H2  324   3.695   0.425   2.140
  129TIP3   OH2  325   5.065   0.623   1.717
  129TIP3    H1  326   5.070   0.528   1.739
  129TIP3    H2  327   4.984   0.648   1.767
  130TIP3   OH2  328   4.176   0.410   1.857
  130TIP3    H1  329   4.173   0.503   1.890
  130TIP3    H2  330   4.103   0.370   1.910
  131TIP3   OH2  331   4.221   0.485   0.764
  131TIP3    H1  332   4.134   0.454   0.733
  131TIP3    H2  333   4.278   0.408   0.750
  132TIP3   OH2  334   4.962  -0.257   1.987
  132TIP3    H1  335   4.879  -0.237   1.940
  132TIP3    H2  336   4.969  -0.353   1.978
  133TIP3   OH2  337   3.570   0.177   2.033
  133TIP3    H1  338   3.612   0.146   2.116
  133TIP3    H2  339   3.501   0.112   2.015
  134TIP3   OH2  340   4.701  -0.475   1.928
  134TIP3    H1  341   4.706  -0.450   2.020
  134TIP3    H2  342   4.708  -0.389   1.883
  135TIP3   OH2  343   4.445  -0.218   2.140
  135TIP3    H1  344   4.421  -0.302   2.186
  135TIP3    H2  345   4.541  -0.214   2.162
  136TIP3   OH2  346   4.402  -0.250   1.708
  136TIP3    H1  347   4.474  -0.301   1.666
  136TIP3    H2  348   4.394  -0.298   1.793
  137TIP3   OH2  349   4.763   0.974   1.821
  137TIP3    H1  350   4.760   0.999   1.727
  137TIP3    H2  351   4.842   1.022   1.852
  138TIP3   OH2  352   3.721   0.076   2.248
  138TIP3    H1  353   3.801   0.108   2.293
  138TIP3    H2  354   3.657   0.081   2.321
  139TIP3   OH2  355   4.146  -0.583   1.856
  139TIP3    H1  356   4.101  -0.559   1.774
  139TIP3    H2  357   4.219  -0.520   1.860
  140TIP3   OH2  358   4.802   0.106   1.534
  140TIP3    H1  359   4.844   0.157   1.460
  140TIP3    H2  360   4.710   0.094   1.503
  141TIP3   OH2  361   4.290   0.147   1.878
  141TIP3    H1  362   4.319   0.118   1.965
  141TIP3    H2  363   4.257   0.237   1.893
  142TIP3   OH2  364   4.196  -0.115   2.192
  142TIP3    H1  365   4.143  -0.164   2.127
  142TIP3    H2  366   4.287  -0.142   2.166
  143TIP3   OH2  367   4.452   0.399   1.778
  143TIP3    H1  368   4.356   0.402   1.791
  143TIP3    H2  369   4.483   0.454   1.853
  144TIP3   OH2  370   5.089   0.341   1.775
  144TIP3    H1  371   4.991   0.336   1.768
  144TIP3    H2  372   5.116   0.311   1.685
  145TIP3   OH2  373   4.570  -0.010   1.443
  145TIP3    H1  374   4.492  -0.043   1.490
  145TIP3    H2  375   4.622  -0.091   1.432
  146TIP3   OH2  376   3.961   0.501   1.651
  146TIP3    H1  377   4.003   0.572   1.598
  146TIP3    H2  378   4.038   0.465   1.698
  147TIP3   OH2  379   4.348   0.128   1.615
  147TIP3    H1  380   4.325   0.126   1.711
  147TIP3    H2  381   4.444   0.118   1.620
  148TIP3   OH2  382   4.594   0.661   1.658
  148TIP3    H1  383   4.512   0.607   1.650
  148TIP3    H2  384   4.579   0.727   1.586
  149TIP3   OH2  385   3.434   0.379   1.800
  149TIP3    H1  386   3.464   0.294   1.833
  149TIP3    H2  387   3.439   0.435   1.878
  150TIP3   OH2  388   4.376  -0.412   1.930
  150TIP3    H1  389   4.361  -0.349   2.003
  150TIP3    H2  390   4.423  -0.482   1.978
  151TIP3   OH2  391   4.616   0.633   1.251
  151TIP3    H1  392   4.573   0.685   1.179
  151TIP3    H2  393   4.710   0.654   1.232
  152TIP3   OH2  394   3.389   0.669   2.234
  152TIP3    H1  395   3.476   0.670   2.280
  152TIP3    H2  396   3.370   0.573   2.231
  153TIP3   OH2  397   3.867   0.628   2.280
  153TIP3    H1  398   3.962   0.610   2.284
  153TIP3    H2  399   3.840   0.568   2.207
  154TIP3   OH2  400   4.508   0.536   2.010
  154TIP3    H1  401   4.499   0.467   2.080
  154TIP3    H2  402   4.585   0.587   2.041
  155TIP3   OH2  403   3.512   0.069   2.430
  155TIP3    H1  404   3.531  -0.026   2.439
  155TIP3    H2  405   3.425   0.068   2.385
  156TIP3   OH2  406   4.123   0.159   2.207
  156TIP3    H1  407   4.084   0.175   2.120
  156TIP3    H2  408   4.155   0.066   2.200
  157TIP3   OH2  409   4.613   0.169   1.803
  157TIP3    H1  410   4.690   0.223   1.778
  157TIP3    H2  411   4.542   0.237   1.800
  158TIP3   OH2  412   3.635  -0.198   2.421
  158TIP3    H1  413   3.718  -0.239   2.390
  158TIP3    H2  414   3.665  -0.160   2.506
  159TIP3   OH2  415   3.960  -0.286   2.067
  159TIP3    H1  416   3.877  -0.232   2.063
  159TIP3    H2  417   4.012  -0.252   1.992
  160TIP3   OH2  418   4.493   0.096   2.210
  160TIP3    H1  419   4.568   0.062   2.160
  160TIP3    H2  420   4.481   0.026   2.278
  161TIP3   OH2  421   4.059  -0.494   2.198
  161TIP3    H1  422   4.014  -0.543   2.128
  161TIP3    H2  423   4.035  -0.404   2.166
  162TIP3   OH2  424   4.130  -0.178   1.891
  162TIP3    H1  425   4.197  -0.207   1.827
  162TIP3    H2  426   4.070  -0.126   1.834
  163TIP3   OH2  427   4.699  -0.230   2.239
  163TIP3    H1  428   4.728  -0.288   2.313
  163TIP3    H2  429   4.779  -0.180   2.220
  164TIP3   OH2  430   4.748   0.034   1.999
  164TIP3    H1  431   4.691   0.084   1.936
  164TIP3    H2  432   4.836   0.048   1.958
  165TIP3   OH2  433   3.936  -0.373   2.427
  165TIP3    H1  434   3.903  -0.453   2.469
  165TIP3    H2  435   3.998  -0.410   2.362
  166TIP3   OH2  436   4.343  -0.447   2.230
  166TIP3    H1  437   4.377  -0.483   2.314
  166TIP3    H2  438   4.247  -0.463   2.242
  167TIP3   OH2  439   4.872   0.725   1.221
  167TIP3    H1  440   4.893   0.760   1.310
  167TIP3    H2  441   4.926   0.782   1.165
  168TIP3   OH2  442   4.900   0.750   1.501
  168TIP3    H1  443   4.856   0.663   1.493
  168TIP3    H2  444   4.973   0.724   1.561
  169TIP3   OH2  445   4.944   0.424   2.068
  169TIP3    H1  446   4.872   0.434   2.133
  169TIP3    H2  447   4.986   0.513   2.072
  170TIP3   OH2  448   4.956   0.228   1.350
  170TIP3    H1  449   5.021   0.185   1.289
  170TIP3    H2  450   4.938   0.309   1.298
  171TIP3   OH2  451   4.771   0.501   1.513
  171TIP3    H1  452   4.699   0.546   1.563
  171TIP3    H2  453   4.721   0.454   1.443
  172TIP3   OH2  454   5.001   0.080   1.891
  172TIP3    H1  455   5.074   0.015   1.884
  172TIP3    H2  456   5.031   0.150   1.830
  173TIP3   OH2  457   5.190  -0.123   1.923
  173TIP3    H1  458   5.114  -0.179   1.954
  173TIP3    H2  459   5.265  -0.183   1.931
  174TIP3   OH2  460   3.561  -0.583   2.482
  174TIP3    H1  461   3.626  -0.601   2.412
  174TIP3    H2  462   3.602  -0.626   2.559
  175TIP3   OH2  463   4.470   0.591   0.894
  175TIP3    H1  464   4.533   0.542   0.837
  175TIP3    H2  465   4.519   0.673   0.909
  176TIP3   OH2  466   3.557   0.401   2.256
  176TIP3    H1  467   3.465   0.376   2.237
  176TIP3    H2  468   3.563   0.388   2.351
  177TIP3   OH2  469   3.742   0.428   1.803
  177TIP3    H1  470   3.678   0.492   1.766
  177TIP3    H2  471   3.822   0.458   1.756
  178TIP3   OH2  472   4.175   0.675   1.938
  178TIP3    H1  473   4.217   0.676   2.027
  178TIP3    H2  474   4.241   0.727   1.887
  179TIP3   OH2  475   4.355   0.828   1.799
  179TIP3    H1  476   4.427   0.779   1.757
  179TIP3    H2  477   4.406   0.886   1.859
  180TIP3   OH2  478   3.422   0.697   1.827
  180TIP3    H1  479   3.328   0.715   1.804
  180TIP3    H2  480   3.426   0.740   1.913
  181TIP3   OH2  481   3.650   0.666   1.683
  181TIP3    H1  482   3.564   0.678   1.730
  181TIP3    H2  483   3.628   0.700   1.594
  182TIP3   OH2  484   4.071   0.695   1.479
  182TIP3    H1  485   4.002   0.713   1.413
  182TIP3    H2  486   4.082   0.783   1.520
  183TIP3   OH2  487   4.338   0.632   1.530
  183TIP3    H1  488   4.244   0.652   1.512
  183TIP3    H2  489   4.382   0.707   1.487
  184TIP3   OH2  490   4.546   0.825   1.444
  184TIP3    H1  491   4.530   0.910   1.398
  184TIP3    H2  492   4.570   0.767   1.368
  185TIP3   OH2  493   3.356   0.493   1.563
  185TIP3    H1  494   3.382   0.460   1.652
  185TIP3    H2  495   3.337   0.410   1.517
  186TIP3   OH2  496   3.785   0.473   1.429
  186TIP3    H1  497   3.820   0.384   1.408
  186TIP3    H2  498   3.829   0.488   1.514
  187TIP3   OH2  499   4.822   0.704   1.824
  187TIP3    H1  500   4.743   0.674   1.773
  187TIP3    H2  501   4.803   0.800   1.828
  188TIP3   OH2  502   5.547   0.421   1.313
  188TIP3    H1  503   5.532   0.517   1.303
  188TIP3    H2  504   5.482   0.401   1.383
  189TIP3   OH2  505   5.760   0.529   1.492
  189TIP3    H1  506   5.696   0.597   1.522
  189TIP3    H2  507   5.700   0.464   1.452
  190TIP3   OH2  508   5.561   0.714   1.573
  190TIP3    H1  509   5.526   0.714   1.482
  190TIP3    H2  510   5.481   0.691   1.626
  191TIP3   OH2  511   5.158   0.247   1.533
  191TIP3    H1  512   5.083   0.226   1.474
  191TIP3    H2  513   5.185   0.159   1.568
  192TIP3   OH2  514   4.989   0.438   1.171
  192TIP3    H1  515   5.085   0.435   1.160
  192TIP3    H2  516   4.977   0.524   1.215
  193TIP3   OH2  517   5.932   0.724   1.301
  193TIP3    H1  518   5.953   0.810   1.343
  193TIP3    H2  519   5.955   0.665   1.375
  194TIP3   OH2  520   5.353   0.432   1.505
  194TIP3    H1  521   5.409   0.418   1.585
  194TIP3    H2  522   5.286   0.362   1.517
  195TIP3   OH2  523   6.545   1.239   1.331
  195TIP3    H1  524   6.527   1.246   1.236
  195TIP3    H2  525   6.636   1.272   1.337
  196TIP3   OH2  526   5.498   0.380   1.733
  196TIP3    H1  527   5.588   0.376   1.769
  196TIP3    H2  528   5.445   0.355   1.810
  197TIP3   OH2  529   5.230   0.034   1.679
  197TIP3    H1  530   5.295   0.050   1.750
  197TIP3    H2  531   5.219  -0.062   1.684
  198TIP3   OH2  532   5.722   0.791   1.150
  198TIP3    H1  533   5.757   0.847   1.078
  198TIP3    H2  534   5.802   0.777   1.205
  199TIP3   OH2  535   5.204   0.602   1.305
  199TIP3    H1  536   5.252   0.539   1.362
  199TIP3    H2  537   5.224   0.686   1.350
  200TIP3   OH2  538   5.184   0.926   1.721
  200TIP3    H1  539   5.272   0.925   1.766
  200TIP3    H2  540   5.166   0.830   1.716
  201TIP3   OH2  541   5.664   0.885   1.766
  201TIP3    H1  542   5.759   0.866   1.767
  201TIP3    H2  543   5.634   0.828   1.692
  202TIP3   OH2  544   6.294   0.818   1.514
  202TIP3    H1  545   6.282   0.736   1.566
  202TIP3    H2  546   6.357   0.869   1.567
  203TIP3   OH2  547   5.309   0.342   1.934
  203TIP3    H1  548   5.332   0.246   1.930
  203TIP3    H2  549   5.224   0.342   1.884
  204TIP3   OH2  550   5.915   0.420   1.710
  204TIP3    H1  551   5.884   0.453   1.623
  204TIP3    H2  552   5.925   0.325   1.691
  205TIP3   OH2  553   5.406   0.091   1.909
  205TIP3    H1  554   5.422  -0.006   1.900
  205TIP3    H2  555   5.453   0.111   1.992
  206TIP3   OH2  556   4.731   0.709   0.721
  206TIP3    H1  557   4.758   0.676   0.633
  206TIP3    H2  558   4.778   0.651   0.783
  207TIP3   OH2  559   4.891   0.602   0.935
  207TIP3    H1  560   4.887   0.511   0.968
  207TIP3    H2  561   4.929   0.646   1.013
  208TIP3   OH2  562   5.343   0.670   1.741
  208TIP3    H1  563   5.257   0.630   1.721
  208TIP3    H2  564   5.364   0.630   1.827
  209TIP3   OH2  565   5.516   0.695   1.292
  209TIP3    H1  566   5.467   0.769   1.251
  209TIP3    H2  567   5.602   0.715   1.248
  210TIP3   OH2  568   5.967   0.957   1.440
  210TIP3    H1  569   6.011   0.950   1.527
  210TIP3    H2  570   6.032   1.010   1.389
  211TIP3   OH2  571   6.129   1.110   1.284
  211TIP3    H1  572   6.199   1.065   1.232
  211TIP3    H2  573   6.184   1.160   1.347
  212TIP3   OH2  574   5.198   0.940   1.314
  212TIP3    H1  575   5.109   0.974   1.292
  212TIP3    H2  576   5.214   0.985   1.398
  213TIP3   OH2  577   5.434   0.929   1.170
  213TIP3    H1  578   5.345   0.942   1.210
  213TIP3    H2  579   5.421   0.963   1.079
  214TIP3   OH2  580   5.831   0.948   0.953
  214TIP3    H1  581   5.780   1.001   0.892
  214TIP3    H2  582   5.874   1.017   1.008
  215TIP3   OH2  583   5.111   0.743   1.073
  215TIP3    H1  584   5.151   0.709   1.155
  215TIP3    H2  585   5.169   0.704   1.005
  216TIP3   OH2  586   0.810   2.263   2.487
  216TIP3    H1  587   0.801   2.255   2.392
  216TIP3    H2  588   0.891   2.315   2.498
  217TIP3   OH2  589   1.026   1.721   2.772
  217TIP3    H1  590   0.966   1.729   2.848
  217TIP3    H2  591   1.062   1.812   2.767
  218TIP3   OH2  592   2.329   1.679   1.379
  218TIP3    H1  593   2.334   1.659   1.474
  218TIP3    H2  594   2.364   1.770   1.378
  219TIP3   OH2  595   2.022   2.101   1.327
  219TIP3    H1  596   2.104   2.052   1.314
  219TIP3    H2  597   2.018   2.113   1.422
  220TIP3   OH2  598   2.997   0.944   1.723
  220TIP3    H1  599   2.998   1.032   1.765
  220TIP3    H2  600   2.998   0.967   1.629
  221TIP3   OH2  601   3.035   1.173   1.866
  221TIP3    H1  602   2.948   1.214   1.846
  221TIP3    H2  603   3.045   1.198   1.960
  222TIP3   OH2  604   2.444   1.924   1.484
  222TIP3    H1  605   2.354   1.921   1.523
  222TIP3    H2  606   2.443   2.012   1.441
  223TIP3   OH2  607   2.674   1.847   1.832
  223TIP3    H1  608   2.671   1.765   1.778
  223TIP3    H2  609   2.660   1.916   1.764
  224TIP3   OH2  610   2.877   1.469   1.671
  224TIP3    H1  611   2.794   1.521   1.684
  224TIP3    H2  612   2.902   1.502   1.582
  225TIP3   OH2  613   2.568   1.356   1.977
  225TIP3    H1  614   2.563   1.439   2.030
  225TIP3    H2  615   2.478   1.356   1.937
  226TIP3   OH2  616   2.202   1.924   1.604
  226TIP3    H1  617   2.197   2.005   1.658
  226TIP3    H2  618   2.209   1.853   1.672
  227TIP3   OH2  619   1.777   1.820   2.159
  227TIP3    H1  620   1.746   1.911   2.181
  227TIP3    H2  621   1.700   1.791   2.105
  228TIP3   OH2  622   1.618   2.018   2.249
  228TIP3    H1  623   1.586   2.024   2.156
  228TIP3    H2  624   1.534   2.002   2.298
  229TIP3   OH2  625   2.915   2.181   1.872
  229TIP3    H1  626   2.914   2.085   1.890
  229TIP3    H2  627   2.831   2.207   1.917
  230TIP3   OH2  628   2.025   1.963   2.019
  230TIP3    H1  629   2.027   2.058   2.046
  230TIP3    H2  630   1.941   1.934   2.057
  231TIP3   OH2  631   2.805   1.310   2.145
  231TIP3    H1  632   2.724   1.333   2.097
  231TIP3    H2  633   2.806   1.213   2.137
  232TIP3   OH2  634   2.586   1.095   2.075
  232TIP3    H1  635   2.524   1.081   2.150
  232TIP3    H2  636   2.555   1.179   2.037
  233TIP3   OH2  637   2.274   1.312   2.311
  233TIP3    H1  638   2.271   1.238   2.375
  233TIP3    H2  639   2.364   1.347   2.327
  234TIP3   OH2  640   2.316   1.309   1.893
  234TIP3    H1  641   2.320   1.240   1.826
  234TIP3    H2  642   2.260   1.267   1.961
  235TIP3   OH2  643   2.607   2.532   1.980
  235TIP3    H1  644   2.609   2.563   1.889
  235TIP3    H2  645   2.687   2.574   2.018
  236TIP3   OH2  646   2.661   1.632   1.670
  236TIP3    H1  647   2.673   1.678   1.584
  236TIP3    H2  648   2.567   1.602   1.664
  237TIP3   OH2  649   2.136   1.701   2.030
  237TIP3    H1  650   2.180   1.680   2.113
  237TIP3    H2  651   2.100   1.790   2.045
  238TIP3   OH2  652   2.022   1.426   2.349
  238TIP3    H1  653   1.982   1.394   2.267
  238TIP3    H2  654   2.117   1.418   2.327
  239TIP3   OH2  655   2.293   1.993   1.916
  239TIP3    H1  656   2.202   1.963   1.932
  239TIP3    H2  657   2.317   2.022   2.007
  240TIP3   OH2  658   2.928   1.892   1.912
  240TIP3    H1  659   2.829   1.890   1.911
  240TIP3    H2  660   2.948   1.861   1.822
  241TIP3   OH2  661   2.410   1.531   1.644
  241TIP3    H1  662   2.322   1.503   1.611
  241TIP3    H2  663   2.455   1.444   1.643
  242TIP3   OH2  664   1.825   2.056   1.788
  242TIP3    H1  665   1.844   2.133   1.731
  242TIP3    H2  666   1.903   2.053   1.845
  243TIP3   OH2  667   2.215   1.704   1.766
  243TIP3    H1  668   2.185   1.684   1.858
  243TIP3    H2  669   2.291   1.644   1.758
  244TIP3   OH2  670   2.430   2.210   1.815
  244TIP3    H1  671   2.371   2.136   1.845
  244TIP3    H2  672   2.388   2.232   1.731
  245TIP3   OH2  673   2.203   1.162   2.098
  245TIP3    H1  674   2.227   1.226   2.169
  245TIP3    H2  675   2.262   1.088   2.120
  246TIP3   OH2  676   2.843   1.027   2.052
  246TIP3    H1  677   2.746   1.036   2.069
  246TIP3    H2  678   2.844   1.036   1.956
  247TIP3   OH2  679   2.460   2.184   1.413
  247TIP3    H1  680   2.418   2.243   1.347
  247TIP3    H2  681   2.553   2.206   1.395
  248TIP3   OH2  682   1.228   2.248   2.372
  248TIP3    H1  683   1.304   2.208   2.417
  248TIP3    H2  684   1.171   2.171   2.349
  249TIP3   OH2  685   1.715   2.181   2.443
  249TIP3    H1  686   1.810   2.172   2.430
  249TIP3    H2  687   1.680   2.131   2.366
  250TIP3   OH2  688   2.335   2.104   2.168
  250TIP3    H1  689   2.385   2.032   2.215
  250TIP3    H2  690   2.403   2.174   2.173
  251TIP3   OH2  691   1.365   1.640   2.599
  251TIP3    H1  692   1.398   1.559   2.554
  251TIP3    H2  693   1.275   1.643   2.565
  252TIP3   OH2  694   2.461   1.724   1.963
  252TIP3    H1  695   2.537   1.774   1.929
  252TIP3    H2  696   2.388   1.784   1.944
  253TIP3   OH2  697   1.523   1.388   2.564
  253TIP3    H1  698   1.527   1.292   2.567
  253TIP3    H2  699   1.529   1.413   2.658
  254TIP3   OH2  700   2.309   1.633   2.341
  254TIP3    H1  701   2.379   1.699   2.332
  254TIP3    H2  702   2.329   1.592   2.426
  255TIP3   OH2  703   2.547   1.331   2.419
  255TIP3    H1  704   2.601   1.252   2.411
  255TIP3    H2  705   2.605   1.400   2.382
  256TIP3   OH2  706   2.593   1.571   2.147
  256TIP3    H1  707   2.530   1.630   2.099
  256TIP3    H2  708   2.678   1.602   2.108
  257TIP3   OH2  709   1.831   1.134   2.593
  257TIP3    H1  710   1.753   1.117   2.649
  257TIP3    H2  711   1.822   1.064   2.525
  258TIP3   OH2  712   2.207   1.077   2.451
  258TIP3    H1  713   2.210   1.084   2.548
  258TIP3    H2  714   2.112   1.075   2.434
  259TIP3   OH2  715   2.435   1.043   2.295
  259TIP3    H1  716   2.364   1.043   2.361
  259TIP3    H2  717   2.511   1.010   2.346
  260TIP3   OH2  718   2.670   0.985   2.450
  260TIP3    H1  719   2.680   0.890   2.469
  260TIP3    H2  720   2.661   1.024   2.540
  261TIP3   OH2  721   2.241   0.806   2.649
  261TIP3    H1  722   2.220   0.735   2.585
  261TIP3    H2  723   2.160   0.861   2.651
  262TIP3   OH2  724   2.715   2.273   1.364
  262TIP3    H1  725   2.741   2.303   1.453
  262TIP3    H2  726   2.767   2.329   1.305
  263TIP3   OH2  727   2.751   2.304   1.634
  263TIP3    H1  728   2.697   2.222   1.635
  263TIP3    H2  729   2.811   2.285   1.707
  264TIP3   OH2  730   2.820   1.980   2.193
  264TIP3    H1  731   2.728   1.966   2.226
  264TIP3    H2  732   2.837   2.073   2.219
  265TIP3   OH2  733   2.774   1.758   1.457
  265TIP3    H1  734   2.838   1.694   1.421
  265TIP3    H2  735   2.784   1.835   1.398
  266TIP3   OH2  736   2.617   2.057   1.663
  266TIP3    H1  737   2.545   2.088   1.721
  266TIP3    H2  738   2.567   2.011   1.592
  267TIP3   OH2  739   2.832   1.645   2.039
  267TIP3    H1  740   2.905   1.581   2.031
  267TIP3    H2  741   2.863   1.721   1.988
  268TIP3   OH2  742   3.019   1.448   2.050
  268TIP3    H1  743   2.943   1.402   2.093
  268TIP3    H2  744   3.091   1.388   2.077
  269TIP3   OH2  745   2.758   1.066   1.581
  269TIP3    H1  746   2.828   1.125   1.546
  269TIP3    H2  747   2.713   1.127   1.642
  270TIP3   OH2  748   2.779   1.256   1.818
  270TIP3    H1  749   2.697   1.288   1.862
  270TIP3    H2  750   2.800   1.332   1.761
  271TIP3   OH2  751   3.224   0.846   2.364
  271TIP3    H1  752   3.282   0.782   2.318
  271TIP3    H2  753   3.191   0.900   2.289
  272TIP3   OH2  754   3.095   0.991   2.175
  272TIP3    H1  755   3.011   1.033   2.202
  272TIP3    H2  756   3.059   0.923   2.114
  273TIP3   OH2  757   2.322   2.226   0.964
  273TIP3    H1  758   2.333   2.133   0.939
  273TIP3    H2  759   2.326   2.219   1.061
  274TIP3   OH2  760   1.419   1.941   2.422
  274TIP3    H1  761   1.359   1.913   2.349
  274TIP3    H2  762   1.362   1.928   2.499
  275TIP3   OH2  763   1.611   1.987   1.970
  275TIP3    H1  764   1.516   1.992   1.944
  275TIP3    H2  765   1.652   2.049   1.907
  276TIP3   OH2  766   2.020   2.232   2.081
  276TIP3    H1  767   2.058   2.234   2.171
  276TIP3    H2  768   2.086   2.286   2.032
  277TIP3   OH2  769   2.206   2.381   1.951
  277TIP3    H1  770   2.278   2.328   1.913
  277TIP3    H2  771   2.256   2.438   2.013
  278TIP3   OH2  772   3.001   0.759   2.063
  278TIP3    H1  773   2.911   0.765   2.027
  278TIP3    H2  774   3.024   0.663   2.055
  279TIP3   OH2  775   1.264   2.270   1.978
  279TIP3    H1  776   1.212   2.242   1.901
  279TIP3    H2  777   1.229   2.214   2.048
  280TIP3   OH2  778   1.489   2.254   1.817
  280TIP3    H1  779   1.424   2.262   1.890
  280TIP3    H2  780   1.430   2.222   1.748
  281TIP3   OH2  781   1.920   2.256   1.625
  281TIP3    H1  782   1.838   2.256   1.570
  281TIP3    H2  783   1.929   2.352   1.645
  282TIP3   OH2  784   2.187   2.207   1.664
  282TIP3    H1  785   2.090   2.212   1.678
  282TIP3    H2  786   2.194   2.256   1.582
  283TIP3   OH2  787   2.730   0.716   2.490
  283TIP3    H1  788   2.749   0.685   2.582
  283TIP3    H2  789   2.817   0.706   2.447
  284TIP3   OH2  790   2.669   2.263   1.965
  284TIP3    H1  791   2.588   2.230   1.921
  284TIP3    H2  792   2.645   2.357   1.979
  285TIP3   OH2  793   3.932   1.635   0.739
  285TIP3    H1  794   3.900   1.725   0.718
  285TIP3    H2  795   3.859   1.582   0.702
  286TIP3   OH2  796   3.931   1.637   1.122
  286TIP3    H1  797   3.965   1.609   1.209
  286TIP3    H2  798   3.892   1.555   1.088
  287TIP3   OH2  799   3.232   1.527   1.482
  287TIP3    H1  800   3.260   1.459   1.546
  287TIP3    H2  801   3.306   1.589   1.490
  288TIP3   OH2  802   4.176   1.938   0.802
  288TIP3    H1  803   4.159   1.869   0.867
  288TIP3    H2  804   4.204   2.013   0.858
  289TIP3   OH2  805   3.203   1.942   1.209
  289TIP3    H1  806   3.195   1.844   1.211
  289TIP3    H2  807   3.300   1.952   1.206
  290TIP3   OH2  808   2.994   1.458   1.176
  290TIP3    H1  809   3.058   1.388   1.204
  290TIP3    H2  810   3.046   1.512   1.116
  291TIP3   OH2  811   3.828   2.402   0.821
  291TIP3    H1  812   3.869   2.330   0.769
  291TIP3    H2  813   3.815   2.359   0.906
  292TIP3   OH2  814   3.729   1.861   1.168
  292TIP3    H1  815   3.770   1.784   1.125
  292TIP3    H2  816   3.811   1.908   1.193
  293TIP3   OH2  817   4.744   1.180   1.167
  293TIP3    H1  818   4.773   1.265   1.206
  293TIP3    H2  819   4.763   1.195   1.073
  294TIP3   OH2  820   4.141   1.360   1.199
  294TIP3    H1  821   4.184   1.275   1.220
  294TIP3    H2  822   4.111   1.343   1.108
  295TIP3   OH2  823   3.482   1.011   1.185
  295TIP3    H1  824   3.457   1.078   1.120
  295TIP3    H2  825   3.417   0.941   1.169
  296TIP3   OH2  826   4.174   1.117   0.787
  296TIP3    H1  827   4.245   1.101   0.853
  296TIP3    H2  828   4.227   1.150   0.712
  297TIP3   OH2  829   3.120   1.230   1.260
  297TIP3    H1  830   3.203   1.210   1.306
  297TIP3    H2  831   3.101   1.145   1.216
  298TIP3   OH2  832   3.568   1.443   1.067
  298TIP3    H1  833   3.660   1.414   1.083
  298TIP3    H2  834   3.527   1.359   1.036
  299TIP3   OH2  835   4.819   1.390   1.336
  299TIP3    H1  836   4.735   1.436   1.315
  299TIP3    H2  837   4.830   1.416   1.428
  300TIP3   OH2  838   3.480   1.014   1.603
  300TIP3    H1  839   3.420   1.057   1.539
  300TIP3    H2  840   3.427   1.023   1.685
  301TIP3   OH2  841   3.815   1.852   0.610
  301TIP3    H1  842   3.789   1.848   0.517
  301TIP3    H2  843   3.774   1.937   0.638
  302TIP3   OH2  844   3.583   1.782   1.393
  302TIP3    H1  845   3.521   1.849   1.431
  302TIP3    H2  846   3.624   1.832   1.320
  303TIP3   OH2  847   4.377   1.123   0.960
  303TIP3    H1  848   4.379   1.061   1.035
  303TIP3    H2  849   4.436   1.194   0.990
  304TIP3   OH2  850   3.352   1.137   1.387
  304TIP3    H1  851   3.410   1.212   1.414
  304TIP3    H2  852   3.413   1.090   1.326
  305TIP3   OH2  853   3.412   1.976   1.492
  305TIP3    H1  854   3.386   2.063   1.456
  305TIP3    H2  855   3.333   1.958   1.548
  306TIP3   OH2  856   4.245   2.182   0.968
  306TIP3    H1  857   4.155   2.172   1.008
  306TIP3    H2  858   4.235   2.268   0.923
  307TIP3   OH2  859   4.536   1.081   1.334
  307TIP3    H1  860   4.448   1.104   1.300
  307TIP3    H2  861   4.595   1.112   1.262
  308TIP3   OH2  862   3.831   0.726   1.320
  308TIP3    H1  863   3.814   0.632   1.343
  308TIP3    H2  864   3.757   0.768   1.369
  309TIP3   OH2  865   3.943   2.228   0.640
  309TIP3    H1  866   3.993   2.144   0.622
  309TIP3    H2  867   4.007   2.292   0.600
  310TIP3   OH2  868   4.086   2.011   0.551
  310TIP3    H1  869   4.062   1.930   0.505
  310TIP3    H2  870   4.123   1.976   0.635
  311TIP3   OH2  871   4.471   2.093   1.312
  311TIP3    H1  872   4.458   2.015   1.253
  311TIP3    H2  873   4.452   2.167   1.251
  312TIP3   OH2  874   3.769   1.481   0.567
  312TIP3    H1  875   3.690   1.535   0.544
  312TIP3    H2  876   3.812   1.468   0.481
  313TIP3   OH2  877   4.666   1.733   1.159
  313TIP3    H1  878   4.581   1.783   1.163
  313TIP3    H2  879   4.695   1.755   1.068
  314TIP3   OH2  880   4.116   1.576   0.546
  314TIP3    H1  881   4.059   1.596   0.624
  314TIP3    H2  882   4.198   1.547   0.590
  315TIP3   OH2  883   4.344   1.608   1.455
  315TIP3    H1  884   4.340   1.691   1.505
  315TIP3    H2  885   4.258   1.611   1.409
  316TIP3   OH2  886   3.344   1.567   0.959
  316TIP3    H1  887   3.322   1.514   0.881
  316TIP3    H2  888   3.425   1.523   0.993
  317TIP3   OH2  889   3.473   1.981   1.106
  317TIP3    H1  890   3.451   1.943   1.020
  317TIP3    H2  891   3.562   1.944   1.123
  318TIP3   OH2  892   3.482   1.540   1.312
  318TIP3    H1  893   3.519   1.521   1.223
  318TIP3    H2  894   3.523   1.626   1.334
  319TIP3   OH2  895   4.005   2.176   1.090
  319TIP3    H1  896   3.991   2.256   1.144
  319TIP3    H2  897   3.988   2.103   1.153
  320TIP3   OH2  898   3.617   2.094   1.637
  320TIP3    H1  899   3.556   2.156   1.683
  320TIP3    H2  900   3.551   2.041   1.587
  321TIP3   OH2  901   3.968   1.424   0.372
  321TIP3    H1  902   4.022   1.488   0.424
  321TIP3    H2  903   3.989   1.451   0.280
  322TIP3   OH2  904   3.369   1.649   1.736
  322TIP3    H1  905   3.376   1.736   1.780
  322TIP3    H2  906   3.275   1.628   1.756
  323TIP3   OH2  907   3.696   2.103   0.651
  323TIP3    H1  908   3.775   2.160   0.657
  323TIP3    H2  909   3.636   2.155   0.596
  324TIP3   OH2  910   3.410   2.261   1.725
  324TIP3    H1  911   3.374   2.262   1.634
  324TIP3    H2  912   3.331   2.240   1.779
  325TIP3   OH2  913   4.262   2.040  -0.044
  325TIP3    H1  914   4.276   2.136  -0.057
  325TIP3    H2  915   4.353   2.006  -0.048
  326TIP3   OH2  916   2.990   1.790   1.669
  326TIP3    H1  917   2.923   1.764   1.604
  326TIP3    H2  918   3.028   1.704   1.697
  327TIP3   OH2  919   2.846   1.982   1.303
  327TIP3    H1  920   2.943   1.990   1.298
  327TIP3    H2  921   2.822   2.063   1.351
  328TIP3   OH2  922   4.708   2.440   1.359
  328TIP3    H1  923   4.707   2.343   1.373
  328TIP3    H2  924   4.625   2.465   1.405
  329TIP3   OH2  925   3.813   2.223   1.494
  329TIP3    H1  926   3.811   2.315   1.526
  329TIP3    H2  927   3.741   2.183   1.548
  330TIP3   OH2  928   3.576   2.353   0.445
  330TIP3    H1  929   3.533   2.336   0.359
  330TIP3    H2  930   3.543   2.442   0.468
  331TIP3   OH2  931   3.023   2.222   0.829
  331TIP3    H1  932   3.060   2.202   0.918
  331TIP3    H2  933   2.965   2.142   0.816
  332TIP3   OH2  934   3.769   2.253   0.095
  332TIP3    H1  935   3.827   2.193   0.044
  332TIP3    H2  936   3.812   2.254   0.182
  333TIP3   OH2  937   3.831   2.305   0.363
  333TIP3    H1  938   3.740   2.313   0.399
  333TIP3    H2  939   3.876   2.260   0.437
  334TIP3   OH2  940   4.597   1.568   1.633
  334TIP3    H1  941   4.515   1.580   1.584
  334TIP3    H2  942   4.613   1.472   1.623
  335TIP3   OH2  943   3.194   1.975   1.656
  335TIP3    H1  944   3.242   1.960   1.740
  335TIP3    H2  945   3.119   1.913   1.665
  336TIP3   OH2  946   3.603   0.813   1.451
  336TIP3    H1  947   3.513   0.783   1.428
  336TIP3    H2  948   3.579   0.892   1.503
  337TIP3   OH2  949   4.128   0.914   1.638
  337TIP3    H1  950   4.196   0.887   1.703
  337TIP3    H2  951   4.044   0.895   1.684
  338TIP3   OH2  952   4.367   1.345   1.558
  338TIP3    H1  953   4.314   1.341   1.641
  338TIP3    H2  954   4.341   1.431   1.520
  339TIP3   OH2  955   4.040   1.487   0.114
  339TIP3    H1  956   4.017   1.467   0.023
  339TIP3    H2  957   4.120   1.541   0.101
  340TIP3   OH2  958   3.531   1.324   1.467
  340TIP3    H1  959   3.481   1.343   1.549
  340TIP3    H2  960   3.514   1.405   1.414
  341TIP3   OH2  961   3.422   1.231   0.970
  341TIP3    H1  962   3.344   1.176   0.985
  341TIP3    H2  963   3.470   1.174   0.908
  342TIP3   OH2  964   3.903   1.284   0.705
  342TIP3    H1  965   3.854   1.356   0.659
  342TIP3    H2  966   3.956   1.247   0.631
  343TIP3   OH2  967   4.074   1.564   1.789
  343TIP3    H1  968   4.051   1.491   1.851
  343TIP3    H2  969   4.168   1.578   1.811
  344TIP3   OH2  970   4.054   1.314   0.942
  344TIP3    H1  971   3.994   1.340   0.869
  344TIP3    H2  972   4.092   1.234   0.900
  345TIP3   OH2  973   3.346   1.344   1.670
  345TIP3    H1  974   3.362   1.410   1.739
  345TIP3    H2  975   3.329   1.263   1.723
  346TIP3   OH2  976   4.067   1.560   1.363
  346TIP3    H1  977   4.100   1.488   1.305
  346TIP3    H2  978   4.036   1.507   1.440
  347TIP3   OH2  979   3.738   1.016   1.041
  347TIP3    H1  980   3.669   1.019   1.109
  347TIP3    H2  981   3.819   1.019   1.095
  348TIP3   OH2  982   4.228   1.099   1.245
  348TIP3    H1  983   4.191   1.113   1.334
  348TIP3    H2  984   4.165   1.035   1.208
  349TIP3   OH2  985   4.401   2.788   1.459
  349TIP3    H1  986   4.397   2.813   1.365
  349TIP3    H2  987   4.478   2.838   1.490
  350TIP3   OH2  988   3.358   1.897   1.876
  350TIP3    H1  989   3.435   1.929   1.928
  350TIP3    H2  990   3.290   1.894   1.948
  351TIP3   OH2  991   3.820   1.350   1.133
  351TIP3    H1  992   3.897   1.316   1.084
  351TIP3    H2  993   3.830   1.307   1.220
  352TIP3   OH2  994   3.795   1.251   1.424
  352TIP3    H1  995   3.706   1.288   1.440
  352TIP3    H2  996   3.854   1.311   1.474
  353TIP3   OH2  997   3.528   1.625   0.533
  353TIP3    H1  998   3.432   1.619   0.529
  353TIP3    H2  999   3.535   1.670   0.621
  354TIP3   OH2 1000   4.431   1.876   1.147
  354TIP3    H1 1001   4.455   1.926   1.066
  354TIP3    H2 1002   4.347   1.833   1.121
  355TIP3   OH2 1003   3.933   1.959   1.516
  355TIP3    H1 1004   3.956   1.938   1.607
  355TIP3    H2 1005   3.892   2.047   1.523
  356TIP3   OH2 1006   4.054   1.187   0.487
  356TIP3    H1 1007   4.150   1.199   0.498
  356TIP3    H2 1008   4.029   1.268   0.436
  357TIP3   OH2 1009   3.228   1.665   1.195
  357TIP3    H1 1010   3.271   1.634   1.112
  357TIP3    H2 1011   3.269   1.607   1.261
  358TIP3   OH2 1012   3.661   1.788   0.352
  358TIP3    H1 1013   3.626   1.879   0.367
  358TIP3    H2 1014   3.612   1.737   0.419
  359TIP3   OH2 1015   3.108   1.577   1.805
  359TIP3    H1 1016   3.120   1.565   1.902
  359TIP3    H2 1017   3.035   1.514   1.788
  360TIP3   OH2 1018   3.832   1.697   1.827
  360TIP3    H1 1019   3.770   1.637   1.783
  360TIP3    H2 1020   3.918   1.661   1.798
  361TIP3   OH2 1021   4.091   2.219   1.411
  361TIP3    H1 1022   3.995   2.216   1.425
  361TIP3    H2 1023   4.119   2.270   1.490
  362TIP3   OH2 1024   4.483   1.293   0.325
  362TIP3    H1 1025   4.443   1.236   0.256
  362TIP3    H2 1026   4.473   1.381   0.282
  363TIP3   OH2 1027   4.721   2.150   1.400
  363TIP3    H1 1028   4.623   2.143   1.392
  363TIP3    H2 1029   4.747   2.119   1.310
  364TIP3   OH2 1030   4.212   2.107   0.227
  364TIP3    H1 1031   4.170   2.043   0.286
  364TIP3    H2 1032   4.208   2.062   0.140
  365TIP3   OH2 1033   4.199   1.738   1.064
  365TIP3    H1 1034   4.105   1.714   1.078
  365TIP3    H2 1035   4.232   1.657   1.020
  366TIP3   OH2 1036   3.324   1.966   0.815
  366TIP3    H1 1037   3.323   2.050   0.765
  366TIP3    H2 1038   3.230   1.949   0.825
  367TIP3   OH2 1039   3.463   1.735   0.768
  367TIP3    H1 1040   3.428   1.826   0.782
  367TIP3    H2 1041   3.428   1.690   0.847
  368TIP3   OH2 1042   3.596   2.309   1.288
  368TIP3    H1 1043   3.639   2.382   1.238
  368TIP3    H2 1044   3.672   2.273   1.337
  369TIP3   OH2 1045   3.247   2.206   0.669
  369TIP3    H1 1046   3.162   2.215   0.718
  369TIP3    H2 1047   3.277   2.299   0.671
  370TIP3   OH2 1048   3.982   1.944   1.248
  370TIP3    H1 1049   3.971   1.942   1.346
  370TIP3    H2 1050   4.061   1.889   1.236
  371TIP3   OH2 1051   3.969   1.855   0.124
  371TIP3    H1 1052   4.006   1.823   0.209
  371TIP3    H2 1053   3.891   1.797   0.113
  372TIP3   OH2 1054   4.232   2.475   1.298
  372TIP3    H1 1055   4.152   2.419   1.292
  372TIP3    H2 1056   4.215   2.539   1.225
  373TIP3   OH2 1057   4.299   2.318  -0.056
  373TIP3    H1 1058   4.344   2.398  -0.087
  373TIP3    H2 1059   4.217   2.357  -0.020
  374TIP3   OH2 1060   3.311   1.089   1.815
  374TIP3    H1 1061   3.217   1.106   1.834
  374TIP3    H2 1062   3.335   1.029   1.887
  375TIP3   OH2 1063   4.119   1.772   0.353
  375TIP3    H1 1064   4.111   1.705   0.424
  375TIP3    H2 1065   4.215   1.769   0.338
  376TIP3   OH2 1066   3.039   2.170   1.444
  376TIP3    H1 1067   3.088   2.096   1.483
  376TIP3    H2 1068   3.055   2.239   1.510
  377TIP3   OH2 1069   3.303   1.824   0.395
  377TIP3    H1 1070   3.306   1.811   0.490
  377TIP3    H2 1071   3.282   1.920   0.393
  378TIP3   OH2 1072   4.152   1.155   1.503
  378TIP3    H1 1073   4.236   1.189   1.538
  378TIP3    H2 1074   4.140   1.072   1.554
  379TIP3   OH2 1075   4.022   0.931   0.653
  379TIP3    H1 1076   4.024   0.968   0.564
  379TIP3    H2 1077   4.068   1.002   0.703
  380TIP3   OH2 1078   3.543   2.029   0.376
  380TIP3    H1 1079   3.454   2.058   0.403
  380TIP3    H2 1080   3.540   2.043   0.279
  381TIP3   OH2 1081   3.716   1.084   0.753
  381TIP3    H1 1082   3.784   1.155   0.744
  381TIP3    H2 1083   3.720   1.066   0.848
  382TIP3   OH2 1084   3.993   1.399   1.570
  382TIP3    H1 1085   4.016   1.451   1.650
  382TIP3    H2 1086   4.046   1.319   1.581
  383TIP3   OH2 1087   3.928   0.843   0.898
  383TIP3    H1 1088   3.865   0.914   0.916
  383TIP3    H2 1089   3.952   0.860   0.805
  384TIP3   OH2 1090   3.275   2.093   0.418
  384TIP3    H1 1091   3.249   2.166   0.357
  384TIP3    H2 1092   3.259   2.133   0.506
  385TIP3   OH2 1093   4.633   1.301   1.553
  385TIP3    H1 1094   4.535   1.301   1.562
  385TIP3    H2 1095   4.641   1.256   1.468
  386TIP3   OH2 1096   4.283   1.495   0.942
  386TIP3    H1 1097   4.207   1.434   0.953
  386TIP3    H2 1098   4.355   1.447   0.990
  387TIP3   OH2 1099   4.252   2.454   0.890
  387TIP3    H1 1100   4.209   2.500   0.815
  387TIP3    H2 1101   4.346   2.472   0.868
  388TIP3   OH2 1102   3.334   0.749   1.480
  388TIP3    H1 1103   3.327   0.701   1.396
  388TIP3    H2 1104   3.333   0.671   1.541
  389TIP3   OH2 1105   2.888   1.987   0.782
  389TIP3    H1 1106   2.811   1.935   0.810
  389TIP3    H2 1107   2.921   1.931   0.709
  390TIP3   OH2 1108   3.026   2.483   1.869
  390TIP3    H1 1109   3.112   2.482   1.917
  390TIP3    H2 1110   3.003   2.389   1.868
  391TIP3   OH2 1111   3.505   2.443   1.914
  391TIP3    H1 1112   3.599   2.423   1.920
  391TIP3    H2 1113   3.477   2.382   1.842
  392TIP3   OH2 1114   3.491   2.025   0.103
  392TIP3    H1 1115   3.430   1.949   0.107
  392TIP3    H2 1116   3.523   2.013   0.012
  393TIP3   OH2 1117   4.145   2.351   1.647
  393TIP3    H1 1118   4.137   2.281   1.716
  393TIP3    H2 1119   4.221   2.403   1.679
  394TIP3   OH2 1120   3.936   2.071  -0.039
  394TIP3    H1 1121   3.943   1.993   0.021
  394TIP3    H2 1122   4.022   2.069  -0.081
  395TIP3   OH2 1123   3.158   1.891   2.068
  395TIP3    H1 1124   3.166   1.795   2.083
  395TIP3    H2 1125   3.067   1.895   2.030
  396TIP3   OH2 1126   3.763   1.974   1.843
  396TIP3    H1 1127   3.719   1.992   1.758
  396TIP3    H2 1128   3.792   1.880   1.834
  397TIP3   OH2 1129   3.741   1.699   0.099
  397TIP3    H1 1130   3.708   1.731   0.185
  397TIP3    H2 1131   3.660   1.670   0.057
  398TIP3   OH2 1132   4.255   1.982   1.451
  398TIP3    H1 1133   4.329   2.027   1.407
  398TIP3    H2 1134   4.183   2.047   1.437
  399TIP3   OH2 1135   3.277   1.623   2.053
  399TIP3    H1 1136   3.349   1.562   2.035
  399TIP3    H2 1137   3.301   1.657   2.141
  400TIP3   OH2 1138   3.611   1.508   1.716
  400TIP3    H1 1139   3.531   1.564   1.715
  400TIP3    H2 1140   3.660   1.542   1.637
  401TIP3   OH2 1141   4.127   1.908   1.848
  401TIP3    H1 1142   4.204   1.878   1.799
  401TIP3    H2 1143   4.120   1.842   1.919
  402TIP3   OH2 1144   4.268   1.574  -0.032
  402TIP3    H1 1145   4.287   1.532  -0.117
  402TIP3    H2 1146   4.265   1.668  -0.054
  403TIP3   OH2 1147   3.735   1.296   1.838
  403TIP3    H1 1148   3.734   1.216   1.781
  403TIP3    H2 1149   3.689   1.362   1.781
  404TIP3   OH2 1150   3.739   1.081   1.648
  404TIP3    H1 1151   3.766   1.123   1.564
  404TIP3    H2 1152   3.644   1.062   1.631
  405TIP3   OH2 1153   3.760   1.615   1.519
  405TIP3    H1 1154   3.845   1.628   1.475
  405TIP3    H2 1155   3.703   1.682   1.474
  406TIP3   OH2 1156   4.343   1.582   1.900
  406TIP3    H1 1157   4.391   1.498   1.909
  406TIP3    H2 1158   4.411   1.640   1.864
  407TIP3   OH2 1159   4.384   1.836   1.638
  407TIP3    H1 1160   4.326   1.890   1.579
  407TIP3    H2 1161   4.472   1.857   1.598
  408TIP3   OH2 1162   3.614   1.402   2.072
  408TIP3    H1 1163   3.544   1.335   2.087
  408TIP3    H2 1164   3.645   1.378   1.983
  409TIP3   OH2 1165   3.868   0.843   1.716
  409TIP3    H1 1166   3.818   0.925   1.693
  409TIP3    H2 1167   3.799   0.774   1.705
  410TIP3   OH2 1168   3.993   1.346   1.931
  410TIP3    H1 1169   3.977   1.333   2.027
  410TIP3    H2 1170   3.904   1.323   1.897
  411TIP3   OH2 1171   4.232   1.299   1.787
  411TIP3    H1 1172   4.156   1.299   1.849
  411TIP3    H2 1173   4.306   1.267   1.844
  412TIP3   OH2 1174   4.463   1.239   1.937
  412TIP3    H1 1175   4.475   1.143   1.953
  412TIP3    H2 1176   4.458   1.276   2.027
  413TIP3   OH2 1177   3.453   1.183   2.124
  413TIP3    H1 1178   3.454   1.091   2.091
  413TIP3    H2 1179   3.487   1.171   2.215
  414TIP3   OH2 1180   3.961   0.853   1.975
  414TIP3    H1 1181   4.027   0.781   1.967
  414TIP3    H2 1182   3.921   0.849   1.885
  415TIP3   OH2 1183   4.027   1.068   2.132
  415TIP3    H1 1184   4.005   0.997   2.068
  415TIP3    H2 1185   3.949   1.127   2.126
  416TIP3   OH2 1186   3.240   2.287   0.226
  416TIP3    H1 1187   3.335   2.300   0.204
  416TIP3    H2 1188   3.195   2.339   0.159
  417TIP3   OH2 1189   2.636   2.290   0.851
  417TIP3    H1 1190   2.564   2.229   0.830
  417TIP3    H2 1191   2.685   2.239   0.920
  418TIP3   OH2 1192   2.766   2.159   1.054
  418TIP3    H1 1193   2.760   2.079   1.107
  418TIP3    H2 1194   2.822   2.215   1.111
  419TIP3   OH2 1195   4.507   2.542   0.849
  419TIP3    H1 1196   4.531   2.572   0.938
  419TIP3    H2 1197   4.571   2.589   0.793
  420TIP3   OH2 1198   4.535   2.562   1.130
  420TIP3    H1 1199   4.489   2.475   1.126
  420TIP3    H2 1200   4.609   2.538   1.189
  421TIP3   OH2 1201   4.582   2.239   1.704
  421TIP3    H1 1202   4.509   2.248   1.769
  421TIP3    H2 1203   4.623   2.327   1.708
  422TIP3   OH2 1204   4.398   1.750   0.320
  422TIP3    H1 1205   4.464   1.817   0.293
  422TIP3    H2 1206   4.440   1.715   0.402
  423TIP3   OH2 1207   4.521   1.627   0.530
  423TIP3    H1 1208   4.457   1.580   0.588
  423TIP3    H2 1209   4.587   1.660   0.593
  424TIP3   OH2 1210   4.582   2.013   0.959
  424TIP3    H1 1211   4.634   1.945   0.912
  424TIP3    H2 1212   4.574   2.084   0.893
  425TIP3   OH2 1213   4.410   2.313   1.153
  425TIP3    H1 1214   4.338   2.354   1.205
  425TIP3    H2 1215   4.360   2.266   1.083
  426TIP3   OH2 1216   4.450   1.524   0.173
  426TIP3    H1 1217   4.385   1.538   0.101
  426TIP3    H2 1218   4.431   1.602   0.229
  427TIP3   OH2 1219   4.329   1.180   0.107
  427TIP3    H1 1220   4.288   1.263   0.081
  427TIP3    H2 1221   4.251   1.126   0.131
  428TIP3   OH2 1222   4.341   1.477   0.674
  428TIP3    H1 1223   4.345   1.380   0.664
  428TIP3    H2 1224   4.326   1.488   0.770
  429TIP3   OH2 1225   2.968   1.564   1.429
  429TIP3    H1 1226   2.966   1.532   1.337
  429TIP3    H2 1227   3.065   1.561   1.447
  430TIP3   OH2 1228   4.629   1.902   1.531
  430TIP3    H1 1229   4.700   1.835   1.520
  430TIP3    H2 1230   4.653   1.969   1.466
  431TIP3   OH2 1231   4.813   1.704   1.542
  431TIP3    H1 1232   4.738   1.655   1.582
  431TIP3    H2 1233   4.885   1.640   1.559
  432TIP3   OH2 1234   4.332   1.200   0.565
  432TIP3    H1 1235   4.374   1.112   0.581
  432TIP3    H2 1236   4.391   1.234   0.495
  433TIP3   OH2 1237   4.497   1.367   1.063
  433TIP3    H1 1238   4.583   1.391   1.022
  433TIP3    H2 1239   4.512   1.403   1.153
  434TIP3   OH2 1240   4.568   1.511   1.295
  434TIP3    H1 1241   4.490   1.544   1.342
  434TIP3    H2 1242   4.600   1.592   1.249
  435TIP3   OH2 1243   3.187   1.242   2.110
  435TIP3    H1 1244   3.285   1.232   2.108
  435TIP3    H2 1245   3.162   1.154   2.144
  436TIP3   OH2 1246   5.018   1.103   1.850
  436TIP3    H1 1247   5.077   1.037   1.808
  436TIP3    H2 1248   4.988   1.155   1.772
  437TIP3   OH2 1249   4.444   0.954   0.607
  437TIP3    H1 1250   4.485   0.940   0.695
  437TIP3    H2 1251   4.385   0.874   0.604
  438TIP3   OH2 1252   3.159   0.947   1.446
  438TIP3    H1 1253   3.223   0.884   1.487
  438TIP3    H2 1254   3.209   1.030   1.452
  439TIP3   OH2 1255   2.970   1.215   1.498
  439TIP3    H1 1256   3.010   1.229   1.410
  439TIP3    H2 1257   2.978   1.302   1.539
  440TIP3   OH2 1258   4.887   1.240   1.653
  440TIP3    H1 1259   4.801   1.282   1.672
  440TIP3    H2 1260   4.857   1.167   1.596
  441TIP3   OH2 1261   4.094   2.409   0.507
  441TIP3    H1 1262   4.143   2.397   0.423
  441TIP3    H2 1263   4.146   2.476   0.553
  442TIP3   OH2 1264   3.166   0.771   1.833
  442TIP3    H1 1265   3.118   0.773   1.918
  442TIP3    H2 1266   3.105   0.827   1.779
  443TIP3   OH2 1267   3.191   2.214   1.891
  443TIP3    H1 1268   3.098   2.189   1.873
  443TIP3    H2 1269   3.199   2.192   1.984
  444TIP3   OH2 1270   3.371   2.246   1.438
  444TIP3    H1 1271   3.320   2.321   1.399
  444TIP3    H2 1272   3.456   2.262   1.392
  445TIP3   OH2 1273   3.812   2.489   1.574
  445TIP3    H1 1274   3.853   2.490   1.663
  445TIP3    H2 1275   3.877   2.542   1.523
  446TIP3   OH2 1276   3.991   2.643   1.435
  446TIP3    H1 1277   4.062   2.592   1.394
  446TIP3    H2 1278   4.043   2.700   1.496
  447TIP3   OH2 1279   4.787   1.004   1.535
  447TIP3    H1 1280   4.697   0.995   1.498
  447TIP3    H2 1281   4.821   0.912   1.526
  448TIP3   OH2 1282   3.050   2.508   1.460
  448TIP3    H1 1283   2.959   2.540   1.440
  448TIP3    H2 1284   3.059   2.539   1.551
  449TIP3   OH2 1285   3.283   2.482   1.319
  449TIP3    H1 1286   3.197   2.494   1.364
  449TIP3    H2 1287   3.261   2.512   1.228
  450TIP3   OH2 1288   3.707   2.509   1.117
  450TIP3    H1 1289   3.636   2.528   1.053
  450TIP3    H2 1290   3.718   2.596   1.161
  451TIP3   OH2 1291   3.976   2.448   1.170
  451TIP3    H1 1292   3.882   2.465   1.150
  451TIP3    H2 1293   4.019   2.524   1.127
  452TIP3   OH2 1294   4.184   2.640   1.083
  452TIP3    H1 1295   4.169   2.724   1.035
  452TIP3    H2 1296   4.209   2.579   1.010
  453TIP3   OH2 1297   2.959   2.298   1.207
  453TIP3    H1 1298   2.984   2.268   1.297
  453TIP3    H2 1299   3.029   2.252   1.156
  454TIP3   OH2 1300   3.152   2.169   1.066
  454TIP3    H1 1301   3.166   2.085   1.116
  454TIP3    H2 1302   3.243   2.204   1.062
  455TIP3   OH2 1303   3.421   2.264   1.067
  455TIP3    H1 1304   3.449   2.171   1.056
  455TIP3    H2 1305   3.465   2.284   1.152
  456TIP3   OH2 1306   3.993   0.930   1.170
  456TIP3    H1 1307   3.951   0.855   1.216
  456TIP3    H2 1308   4.030   0.886   1.091
  457TIP3   OH2 1309   4.517   0.816   1.076
  457TIP3    H1 1310   4.549   0.862   0.995
  457TIP3    H2 1311   4.421   0.814   1.059
  458TIP3   OH2 1312   4.595   0.913   0.836
  458TIP3    H1 1313   4.655   0.850   0.790
  458TIP3    H2 1314   4.639   0.999   0.820
  459TIP3   OH2 1315   3.692   0.665   1.086
  459TIP3    H1 1316   3.706   0.734   1.020
  459TIP3    H2 1317   3.736   0.702   1.164
  460TIP3   OH2 1318   4.245   0.806   1.031
  460TIP3    H1 1319   4.220   0.778   0.943
  460TIP3    H2 1320   4.215   0.731   1.086
  461TIP3   OH2 1321   4.269   0.739   0.635
  461TIP3    H1 1322   4.181   0.780   0.626
  461TIP3    H2 1323   4.257   0.671   0.704
  462TIP3   OH2 1324   3.510   2.290   0.173
  462TIP3    H1 1325   3.602   2.304   0.141
  462TIP3    H2 1326   3.501   2.196   0.145
  463TIP3   OH2 1327   4.240   2.375   0.272
  463TIP3    H1 1328   4.233   2.277   0.262
  463TIP3    H2 1329   4.189   2.405   0.194
  464TIP3   OH2 1330   3.448   0.909   2.062
  464TIP3    H1 1331   3.412   0.839   2.119
  464TIP3    H2 1332   3.542   0.908   2.090
  465TIP3   OH2 1333   3.699   0.905   2.180
  465TIP3    H1 1334   3.783   0.880   2.139
  465TIP3    H2 1335   3.687   0.833   2.245
  466TIP3   OH2 1336   4.524   0.968   1.967
  466TIP3    H1 1337   4.542   0.937   2.058
  466TIP3    H2 1338   4.613   0.963   1.926
  467TIP3   OH2 1339   4.461   2.519   1.459
  467TIP3    H1 1340   4.382   2.487   1.410
  467TIP3    H2 1341   4.441   2.614   1.465
  468TIP3   OH2 1342   5.683   1.913   0.268
  468TIP3    H1 1343   5.674   1.993   0.214
  468TIP3    H2 1344   5.632   1.849   0.217
  469TIP3   OH2 1345   5.731   1.902   0.608
  469TIP3    H1 1346   5.750   1.856   0.691
  469TIP3    H2 1347   5.689   1.834   0.554
  470TIP3   OH2 1348   5.025   1.786   0.973
  470TIP3    H1 1349   5.055   1.717   1.035
  470TIP3    H2 1350   5.106   1.837   0.960
  471TIP3   OH2 1351   5.973   2.204   0.288
  471TIP3    H1 1352   5.951   2.131   0.347
  471TIP3    H2 1353   6.004   2.273   0.350
  472TIP3   OH2 1354   4.999   2.198   0.695
  472TIP3    H1 1355   4.990   2.100   0.696
  472TIP3    H2 1356   5.095   2.206   0.689
  473TIP3   OH2 1357   4.704   1.423   0.496
  473TIP3    H1 1358   4.639   1.496   0.501
  473TIP3    H2 1359   4.652   1.355   0.449
  474TIP3   OH2 1360   4.762   1.689   0.657
  474TIP3    H1 1361   4.807   1.608   0.689
  474TIP3    H2 1362   4.820   1.717   0.585
  475TIP3   OH2 1363   5.623   2.658   0.309
  475TIP3    H1 1364   5.661   2.582   0.261
  475TIP3    H2 1365   5.612   2.620   0.397
  476TIP3   OH2 1366   5.524   2.121   0.656
  476TIP3    H1 1367   5.560   2.046   0.605
  476TIP3    H2 1368   5.608   2.163   0.681
  477TIP3   OH2 1369   5.939   1.629   0.689
  477TIP3    H1 1370   5.970   1.541   0.720
  477TIP3    H2 1371   5.887   1.599   0.612
  478TIP3   OH2 1372   5.255   1.307   0.673
  478TIP3    H1 1373   5.227   1.368   0.602
  478TIP3    H2 1374   5.247   1.219   0.630
  479TIP3   OH2 1375   4.906   1.478   0.756
  479TIP3    H1 1376   4.986   1.461   0.809
  479TIP3    H2 1377   4.920   1.418   0.680
  480TIP3   OH2 1378   5.350   1.690   0.560
  480TIP3    H1 1379   5.444   1.662   0.570
  480TIP3    H2 1380   5.307   1.606   0.533
  481TIP3   OH2 1381   6.586   1.617   0.858
  481TIP3    H1 1382   6.526   1.683   0.818
  481TIP3    H2 1383   6.659   1.672   0.891
  482TIP3   OH2 1384   5.271   1.264   1.092
  482TIP3    H1 1385   5.211   1.304   1.026
  482TIP3    H2 1386   5.220   1.281   1.174
  483TIP3   OH2 1387   5.633   2.129   0.085
  483TIP3    H1 1388   5.579   2.087   0.016
  483TIP3    H2 1389   5.573   2.201   0.114
  484TIP3   OH2 1390   5.381   2.038   0.880
  484TIP3    H1 1391   5.319   2.106   0.916
  484TIP3    H2 1392   5.423   2.086   0.806
  485TIP3   OH2 1393   5.131   1.390   0.893
  485TIP3    H1 1394   5.194   1.462   0.916
  485TIP3    H2 1395   5.176   1.354   0.813
  486TIP3   OH2 1396   5.209   2.233   0.980
  486TIP3    H1 1397   5.182   2.320   0.942
  486TIP3    H2 1398   5.129   2.215   1.035
  487TIP3   OH2 1399   4.600   1.922   0.218
  487TIP3    H1 1400   4.561   1.945   0.132
  487TIP3    H2 1401   4.631   2.009   0.251
  488TIP3   OH2 1402   6.040   2.441   0.456
  488TIP3    H1 1403   5.950   2.431   0.495
  488TIP3    H2 1404   6.031   2.526   0.409
  489TIP3   OH2 1405   5.733   2.470   0.140
  489TIP3    H1 1406   5.783   2.387   0.123
  489TIP3    H2 1407   5.798   2.534   0.102
  490TIP3   OH2 1408   5.880   2.258   0.037
  490TIP3    H1 1409   5.806   2.195   0.039
  490TIP3    H2 1410   5.929   2.232   0.117
  491TIP3   OH2 1411   6.266   2.350   0.799
  491TIP3    H1 1412   6.255   2.272   0.740
  491TIP3    H2 1413   6.249   2.424   0.737
  492TIP3   OH2 1414   6.460   1.994   0.659
  492TIP3    H1 1415   6.374   2.042   0.653
  492TIP3    H2 1416   6.492   2.004   0.567
  493TIP3   OH2 1417   6.132   1.871   0.946
  493TIP3    H1 1418   6.128   1.952   0.999
  493TIP3    H2 1419   6.044   1.873   0.903
  494TIP3   OH2 1420   5.135   1.821   0.443
  494TIP3    H1 1421   5.102   1.762   0.373
  494TIP3    H2 1422   5.214   1.773   0.476
  495TIP3   OH2 1423   5.269   2.239   0.591
  495TIP3    H1 1424   5.248   2.198   0.506
  495TIP3    H2 1425   5.358   2.202   0.610
  496TIP3   OH2 1426   5.273   1.795   0.804
  496TIP3    H1 1427   5.305   1.770   0.714
  496TIP3    H2 1428   5.317   1.881   0.819
  497TIP3   OH2 1429   5.798   2.434   0.575
  497TIP3    H1 1430   5.787   2.512   0.633
  497TIP3    H2 1431   5.784   2.359   0.637
  498TIP3   OH2 1432   5.413   2.352   1.124
  498TIP3    H1 1433   5.351   2.413   1.170
  498TIP3    H2 1434   5.349   2.298   1.073
  499TIP3   OH2 1435   5.168   1.906   1.228
  499TIP3    H1 1436   5.172   1.994   1.270
  499TIP3    H2 1437   5.073   1.886   1.237
  500TIP3   OH2 1438   5.483   2.360   0.136
  500TIP3    H1 1439   5.569   2.406   0.145
  500TIP3    H2 1440   5.430   2.424   0.088
  501TIP3   OH2 1441   5.206   2.519   1.211
  501TIP3    H1 1442   5.171   2.519   1.120
  501TIP3    H2 1443   5.126   2.497   1.264
  502TIP3   OH2 1444   5.008   1.663   0.233
  502TIP3    H1 1445   4.935   1.710   0.186
  502TIP3    H2 1446   4.961   1.587   0.270
  503TIP3   OH2 1447   4.786   2.051   1.157
  503TIP3    H1 1448   4.718   2.030   1.089
  503TIP3    H2 1449   4.823   1.963   1.179
  504TIP3   OH2 1450   4.639   2.245   0.786
  504TIP3    H1 1451   4.736   2.237   0.781
  504TIP3    H2 1452   4.629   2.322   0.844
  505TIP3   OH2 1453   6.503   2.696   0.847
  505TIP3    H1 1454   6.502   2.599   0.860
  505TIP3    H2 1455   6.420   2.721   0.892
  506TIP3   OH2 1456   5.609   2.480   0.981
  506TIP3    H1 1457   5.607   2.573   1.013
  506TIP3    H2 1458   5.537   2.440   1.035
  507TIP3   OH2 1459   5.373   2.619  -0.063
  507TIP3    H1 1460   5.312   2.584  -0.130
  507TIP3    H2 1461   5.339   2.708  -0.045
  508TIP3   OH2 1462   4.810   2.459   0.317
  508TIP3    H1 1463   4.855   2.449   0.404
  508TIP3    H2 1464   4.759   2.375   0.314
  509TIP3   OH2 1465   5.607   2.513  -0.160
  509TIP3    H1 1466   5.526   2.550  -0.119
  509TIP3    H2 1467   5.668   2.512  -0.085
  510TIP3   OH2 1468   6.393   1.824   1.132
  510TIP3    H1 1469   6.322   1.833   1.066
  510TIP3    H2 1470   6.411   1.728   1.127
  511TIP3   OH2 1471   4.990   2.234   1.143
  511TIP3    H1 1472   5.039   2.217   1.226
  511TIP3    H2 1473   4.915   2.170   1.151
  512TIP3   OH2 1474   5.377   1.060   0.937
  512TIP3    H1 1475   5.290   1.029   0.905
  512TIP3    H2 1476   5.350   1.140   0.987
  513TIP3   OH2 1477   5.918   1.163   1.113
  513TIP3    H1 1478   5.986   1.144   1.182
  513TIP3    H2 1479   5.834   1.146   1.162
  514TIP3   OH2 1480   6.157   1.599   1.036
  514TIP3    H1 1481   6.114   1.599   1.124
  514TIP3    H2 1482   6.139   1.689   1.003
  515TIP3   OH2 1483   5.327   1.575   0.953
  515TIP3    H1 1484   5.277   1.597   1.034
  515TIP3    H2 1485   5.310   1.655   0.897
  516TIP3   OH2 1486   5.190   1.481   0.474
  516TIP3    H1 1487   5.103   1.436   0.471
  516TIP3    H2 1488   5.230   1.454   0.388
  517TIP3   OH2 1489   5.870   1.821   1.277
  517TIP3    H1 1490   5.848   1.748   1.338
  517TIP3    H2 1491   5.965   1.833   1.296
  518TIP3   OH2 1492   5.819   1.551   0.460
  518TIP3    H1 1493   5.830   1.603   0.377
  518TIP3    H2 1494   5.832   1.460   0.425
  519TIP3   OH2 1495   5.142   1.601   1.156
  519TIP3    H1 1496   5.167   1.664   1.226
  519TIP3    H2 1497   5.128   1.519   1.207
  520TIP3   OH2 1498   4.720   1.141   0.764
  520TIP3    H1 1499   4.805   1.164   0.807
  520TIP3    H2 1500   4.747   1.112   0.675
  521TIP3   OH2 1501   4.748   1.208   0.320
  521TIP3    H1 1502   4.791   1.241   0.240
  521TIP3    H2 1503   4.653   1.215   0.299
  522TIP3   OH2 1504   5.860   1.821   0.859
  522TIP3    H1 1505   5.897   1.755   0.796
  522TIP3    H2 1506   5.830   1.763   0.931
  523TIP3   OH2 1507   5.524   1.283   0.621
  523TIP3    H1 1508   5.432   1.303   0.644
  523TIP3    H2 1509   5.571   1.321   0.696
  524TIP3   OH2 1510   4.958   1.328   0.520
  524TIP3    H1 1511   4.863   1.354   0.505
  524TIP3    H2 1512   4.961   1.244   0.472
  525TIP3   OH2 1513   5.952   1.358   0.727
  525TIP3    H1 1514   5.948   1.380   0.823
  525TIP3    H2 1515   5.953   1.262   0.731
  526TIP3   OH2 1516   6.197   3.045   0.946
  526TIP3    H1 1517   6.195   3.069   0.852
  526TIP3    H2 1518   6.276   3.093   0.977
  527TIP3   OH2 1519   5.151   2.156   1.365
  527TIP3    H1 1520   5.231   2.186   1.414
  527TIP3    H2 1521   5.086   2.153   1.438
  528TIP3   OH2 1522   5.607   1.611   0.629
  528TIP3    H1 1523   5.678   1.578   0.571
  528TIP3    H2 1524   5.624   1.566   0.713
  529TIP3   OH2 1525   5.593   1.504   0.903
  529TIP3    H1 1526   5.503   1.539   0.920
  529TIP3    H2 1527   5.649   1.563   0.957
  530TIP3   OH2 1528   5.290   1.930  -0.008
  530TIP3    H1 1529   5.260   1.837  -0.010
  530TIP3    H2 1530   5.299   1.944   0.089
  531TIP3   OH2 1531   6.226   2.134   0.634
  531TIP3    H1 1532   6.248   2.185   0.553
  531TIP3    H2 1533   6.137   2.097   0.611
  532TIP3   OH2 1534   5.729   2.215   1.002
  532TIP3    H1 1535   5.753   2.194   1.093
  532TIP3    H2 1536   5.689   2.303   1.010
  533TIP3   OH2 1537   5.023   1.922   0.680
  533TIP3    H1 1538   5.059   1.890   0.594
  533TIP3    H2 1539   5.062   1.858   0.742
  534TIP3   OH2 1540   5.478   2.064  -0.158
  534TIP3    H1 1541   5.426   2.147  -0.161
  534TIP3    H2 1542   5.412   2.005  -0.115
  535TIP3   OH2 1543   4.903   1.838   1.294
  535TIP3    H1 1544   4.918   1.822   1.390
  535TIP3    H2 1545   4.832   1.773   1.276
  536TIP3   OH2 1546   5.628   1.954   1.315
  536TIP3    H1 1547   5.567   1.895   1.268
  536TIP3    H2 1548   5.714   1.918   1.286
  537TIP3   OH2 1549   5.887   2.478   0.898
  537TIP3    H1 1550   5.791   2.473   0.911
  537TIP3    H2 1551   5.914   2.529   0.977
  538TIP3   OH2 1552   6.517   2.405   0.888
  538TIP3    H1 1553   6.419   2.399   0.880
  538TIP3    H2 1554   6.542   2.374   0.798
  539TIP3   OH2 1555   5.984   2.013   0.563
  539TIP3    H1 1556   5.890   1.986   0.573
  539TIP3    H2 1557   6.020   1.931   0.525
  540TIP3   OH2 1558   5.121   2.223   0.310
  540TIP3    H1 1559   5.120   2.301   0.252
  540TIP3    H2 1560   5.028   2.201   0.315
  541TIP3   OH2 1561   4.698   1.521   0.032
  541TIP3    H1 1562   4.734   1.611   0.040
  541TIP3    H2 1563   4.615   1.526   0.080
  542TIP3   OH2 1564   5.265   1.990   0.257
  542TIP3    H1 1565   5.226   2.077   0.274
  542TIP3    H2 1566   5.226   1.936   0.329
  543TIP3   OH2 1567   5.392   2.566   0.775
  543TIP3    H1 1568   5.436   2.638   0.725
  543TIP3    H2 1569   5.467   2.527   0.822
  544TIP3   OH2 1570   5.036   2.464   0.155
  544TIP3    H1 1571   4.952   2.466   0.205
  544TIP3    H2 1572   5.065   2.557   0.162
  545TIP3   OH2 1573   5.779   2.202   0.733
  545TIP3    H1 1574   5.771   2.197   0.831
  545TIP3    H2 1575   5.855   2.145   0.716
  546TIP3   OH2 1576   6.027   2.733   0.786
  546TIP3    H1 1577   5.949   2.675   0.780
  546TIP3    H2 1578   6.011   2.796   0.713
  547TIP3   OH2 1579   5.110   1.345   1.303
  547TIP3    H1 1580   5.013   1.348   1.314
  547TIP3    H2 1581   5.136   1.286   1.376
  548TIP3   OH2 1582   4.830   2.427   0.933
  548TIP3    H1 1583   4.883   2.353   0.967
  548TIP3    H2 1584   4.855   2.498   0.994
  549TIP3   OH2 1585   5.167   2.014  -0.337
  549TIP3    H1 1586   5.101   1.985  -0.402
  549TIP3    H2 1587   5.113   2.024  -0.256
  550TIP3   OH2 1588   5.056   2.082  -0.086
  550TIP3    H1 1589   5.138   2.040  -0.052
  550TIP3    H2 1590   5.075   2.177  -0.081
  551TIP3   OH2 1591   4.802   1.778   0.095
  551TIP3    H1 1592   4.735   1.825   0.149
  551TIP3    H2 1593   4.821   1.845   0.026
  552TIP3   OH2 1594   5.947   1.411   0.994
  552TIP3    H1 1595   6.031   1.450   1.027
  552TIP3    H2 1596   5.939   1.329   1.047
  553TIP3   OH2 1597   5.333   2.297  -0.176
  553TIP3    H1 1598   5.246   2.315  -0.134
  553TIP3    H2 1599   5.320   2.332  -0.265
  554TIP3   OH2 1600   5.787   1.653   1.059
  554TIP3    H1 1601   5.811   1.706   1.138
  554TIP3    H2 1602   5.844   1.574   1.070
  555TIP3   OH2 1603   5.082   2.356  -0.093
  555TIP3    H1 1604   5.051   2.428  -0.153
  555TIP3    H2 1605   5.058   2.392  -0.005
  556TIP3   OH2 1606   6.429   1.557   1.070
  556TIP3    H1 1607   6.334   1.546   1.046
  556TIP3    H2 1608   6.472   1.560   0.981
  557TIP3   OH2 1609   6.072   1.768   0.472
  557TIP3    H1 1610   6.001   1.710   0.505
  557TIP3    H2 1611   6.146   1.734   0.526
  558TIP3   OH2 1612   4.791   2.000  -0.094
  558TIP3    H1 1613   4.874   2.049  -0.077
  558TIP3    H2 1614   4.830   1.934  -0.157
  559TIP3   OH2 1615   6.047   2.713   0.373
  559TIP3    H1 1616   6.005   2.764   0.300
  559TIP3    H2 1617   6.141   2.736   0.355
  560TIP3   OH2 1618   5.116   0.971   0.903
  560TIP3    H1 1619   5.102   0.920   0.822
  560TIP3    H2 1620   5.108   0.900   0.970
  561TIP3   OH2 1621   4.665   2.203   0.283
  561TIP3    H1 1622   4.596   2.226   0.345
  561TIP3    H2 1623   4.630   2.240   0.199
  562TIP3   OH2 1624   4.821   2.739   1.356
  562TIP3    H1 1625   4.908   2.739   1.402
  562TIP3    H2 1626   4.800   2.644   1.355
  563TIP3   OH2 1627   5.302   2.698   1.403
  563TIP3    H1 1628   5.396   2.678   1.406
  563TIP3    H2 1629   5.273   2.639   1.330
  564TIP3   OH2 1630   5.938   2.610   1.137
  564TIP3    H1 1631   5.931   2.539   1.205
  564TIP3    H2 1632   6.017   2.659   1.165
  565TIP3   OH2 1633   4.951   2.144   1.557
  565TIP3    H1 1634   4.967   2.048   1.562
  565TIP3    H2 1635   4.863   2.147   1.512
  566TIP3   OH2 1636   4.929   1.815  -0.228
  566TIP3    H1 1637   4.956   1.722  -0.219
  566TIP3    H2 1638   4.948   1.829  -0.323
  567TIP3   OH2 1639   5.557   2.229   1.331
  567TIP3    H1 1640   5.516   2.248   1.244
  567TIP3    H2 1641   5.588   2.137   1.321
  568TIP3   OH2 1642   6.051   2.240   0.939
  568TIP3    H1 1643   6.127   2.283   0.894
  568TIP3    H2 1644   5.980   2.304   0.921
  569TIP3   OH2 1645   5.070   1.882   1.540
  569TIP3    H1 1646   5.144   1.826   1.515
  569TIP3    H2 1647   5.098   1.912   1.629
  570TIP3   OH2 1648   5.163   1.677  -0.004
  570TIP3    H1 1649   5.111   1.677   0.078
  570TIP3    H2 1650   5.116   1.613  -0.059
  571TIP3   OH2 1651   5.407   1.764   1.202
  571TIP3    H1 1652   5.327   1.822   1.202
  571TIP3    H2 1653   5.457   1.797   1.124
  572TIP3   OH2 1654   5.924   2.165   1.334
  572TIP3    H1 1655   6.000   2.135   1.283
  572TIP3    H2 1656   5.918   2.097   1.404
  573TIP3   OH2 1657   5.529   1.552   1.326
  573TIP3    H1 1658   5.529   1.472   1.269
  573TIP3    H2 1659   5.485   1.618   1.269
  574TIP3   OH2 1660   5.529   1.341   1.136
  574TIP3    H1 1661   5.557   1.378   1.050
  574TIP3    H2 1662   5.436   1.315   1.118
  575TIP3   OH2 1663   5.558   1.873   1.008
  575TIP3    H1 1664   5.642   1.883   0.962
  575TIP3    H2 1665   5.501   1.938   0.962
  576TIP3   OH2 1666   6.143   1.838   1.390
  576TIP3    H1 1667   6.188   1.752   1.390
  576TIP3    H2 1668   6.210   1.894   1.348
  577TIP3   OH2 1669   6.178   2.096   1.128
  577TIP3    H1 1670   6.122   2.150   1.067
  577TIP3    H2 1671   6.266   2.113   1.088
  578TIP3   OH2 1672   5.408   1.659   1.560
  578TIP3    H1 1673   5.340   1.591   1.574
  578TIP3    H2 1674   5.441   1.636   1.471
  579TIP3   OH2 1675   5.663   1.103   1.204
  579TIP3    H1 1676   5.608   1.181   1.181
  579TIP3    H2 1677   5.600   1.029   1.190
  580TIP3   OH2 1678   5.788   1.603   1.418
  580TIP3    H1 1679   5.773   1.588   1.513
  580TIP3    H2 1680   5.699   1.580   1.384
  581TIP3   OH2 1681   6.030   1.559   1.273
  581TIP3    H1 1682   5.955   1.556   1.335
  581TIP3    H2 1683   6.104   1.527   1.329
  582TIP3   OH2 1684   6.252   1.496   1.426
  582TIP3    H1 1685   6.265   1.400   1.441
  582TIP3    H2 1686   6.256   1.532   1.517
  583TIP3   OH2 1687   5.246   1.440   1.612
  583TIP3    H1 1688   5.250   1.349   1.577
  583TIP3    H2 1689   5.283   1.427   1.702
  584TIP3   OH2 1690   5.745   1.114   1.466
  584TIP3    H1 1691   5.816   1.047   1.462
  584TIP3    H2 1692   5.711   1.108   1.374
  585TIP3   OH2 1693   5.824   1.326   1.618
  585TIP3    H1 1694   5.800   1.254   1.556
  585TIP3    H2 1695   5.746   1.385   1.612
  586TIP3   OH2 1696   5.063   2.551  -0.290
  586TIP3    H1 1697   5.148   2.536  -0.337
  586TIP3    H2 1698   5.011   2.591  -0.361
  587TIP3   OH2 1699   4.528   1.936  -0.054
  587TIP3    H1 1700   4.617   1.974  -0.073
  587TIP3    H2 1701   4.531   1.856  -0.107
  588TIP3   OH2 1702   4.442   2.549   0.347
  588TIP3    H1 1703   4.374   2.488   0.312
  588TIP3    H2 1704   4.485   2.491   0.414
  589TIP3   OH2 1705   4.573   2.399   0.537
  589TIP3    H1 1706   4.561   2.326   0.599
  589TIP3    H2 1707   4.625   2.460   0.593
  590TIP3   OH2 1708   6.296   2.813   0.338
  590TIP3    H1 1709   6.332   2.836   0.425
  590TIP3    H2 1710   6.376   2.815   0.281
  591TIP3   OH2 1711   6.331   2.819   0.619
  591TIP3    H1 1712   6.287   2.731   0.616
  591TIP3    H2 1713   6.411   2.796   0.669
  592TIP3   OH2 1714   6.378   2.496   1.191
  592TIP3    H1 1715   6.305   2.505   1.256
  592TIP3    H2 1716   6.420   2.584   1.195
  593TIP3   OH2 1717   6.372   2.273   0.446
  593TIP3    H1 1718   6.427   2.207   0.401
  593TIP3    H2 1719   6.371   2.347   0.382
  594TIP3   OH2 1720   6.206   2.569   0.640
  594TIP3    H1 1721   6.134   2.610   0.692
  594TIP3    H2 1722   6.157   2.521   0.570
  595TIP3   OH2 1723   4.760   1.806   0.908
  595TIP3    H1 1724   4.758   1.773   0.816
  595TIP3    H2 1725   4.857   1.808   0.924
  596TIP3   OH2 1726   6.421   2.160   1.018
  596TIP3    H1 1727   6.493   2.092   1.009
  596TIP3    H2 1728   6.449   2.227   0.954
  597TIP3   OH2 1729   6.604   1.964   1.032
  597TIP3    H1 1730   6.531   1.912   1.072
  597TIP3    H2 1731   6.677   1.900   1.045
  598TIP3   OH2 1732   6.278   1.647   0.609
  598TIP3    H1 1733   6.372   1.632   0.584
  598TIP3    H2 1734   6.292   1.689   0.696
  599TIP3   OH2 1735   6.369   1.795   0.821
  599TIP3    H1 1736   6.286   1.834   0.855
  599TIP3    H2 1737   6.405   1.869   0.767
  600TIP3   OH2 1738   4.980   1.494   1.585
  600TIP3    H1 1739   5.078   1.486   1.585
  600TIP3    H2 1740   4.955   1.407   1.622
  601TIP3   OH2 1741   6.817   1.353   1.336
  601TIP3    H1 1742   6.877   1.297   1.283
  601TIP3    H2 1743   6.780   1.413   1.267
  602TIP3   OH2 1744   4.943   1.186   0.920
  602TIP3    H1 1745   5.005   1.110   0.921
  602TIP3    H2 1746   5.004   1.261   0.919
  603TIP3   OH2 1747   4.743   1.458   0.985
  603TIP3    H1 1748   4.788   1.449   0.899
  603TIP3    H2 1749   4.775   1.544   1.015
  604TIP3   OH2 1750   6.682   1.509   1.157
  604TIP3    H1 1751   6.588   1.534   1.150
  604TIP3    H2 1752   6.684   1.432   1.098
  605TIP3   OH2 1753   4.713   1.014   0.514
  605TIP3    H1 1754   4.624   0.980   0.533
  605TIP3    H2 1755   4.697   1.080   0.444
  606TIP3   OH2 1756   5.874   2.646  -0.006
  606TIP3    H1 1757   5.904   2.604  -0.088
  606TIP3    H2 1758   5.931   2.724  -0.004
  607TIP3   OH2 1759   4.945   1.041   1.300
  607TIP3    H1 1760   4.894   1.039   1.382
  607TIP3    H2 1761   4.880   1.081   1.239
  608TIP3   OH2 1762   4.986   2.471   1.376
  608TIP3    H1 1763   4.894   2.445   1.359
  608TIP3    H2 1764   4.995   2.450   1.470
  609TIP3   OH2 1765   5.166   2.505   0.925
  609TIP3    H1 1766   5.117   2.580   0.886
  609TIP3    H2 1767   5.252   2.518   0.880
  610TIP3   OH2 1768   5.608   2.747   1.062
  610TIP3    H1 1769   5.651   2.747   1.151
  610TIP3    H2 1770   5.674   2.798   1.010
  611TIP3   OH2 1771   5.787   2.900   0.922
  611TIP3    H1 1772   5.858   2.848   0.880
  611TIP3    H2 1773   5.840   2.957   0.982
  612TIP3   OH2 1774   4.841   2.762   0.947
  612TIP3    H1 1775   4.750   2.793   0.926
  612TIP3    H2 1776   4.852   2.801   1.035
  613TIP3   OH2 1777   5.077   2.739   0.807
  613TIP3    H1 1778   4.990   2.751   0.852
  613TIP3    H2 1779   5.056   2.770   0.716
  614TIP3   OH2 1780   5.503   2.767   0.602
  614TIP3    H1 1781   5.431   2.787   0.541
  614TIP3    H2 1782   5.515   2.852   0.649
  615TIP3   OH2 1783   5.772   2.706   0.658
  615TIP3    H1 1784   5.679   2.723   0.636
  615TIP3    H2 1785   5.818   2.779   0.614
  616TIP3   OH2 1786   5.977   2.895   0.570
  616TIP3    H1 1787   5.964   2.980   0.522
  616TIP3    H2 1788   6.005   2.836   0.497
  617TIP3   OH2 1789   4.754   2.554   0.693
  617TIP3    H1 1790   4.779   2.526   0.783
  617TIP3    H2 1791   4.825   2.508   0.642
  618TIP3   OH2 1792   4.948   2.425   0.551
  618TIP3    H1 1793   4.961   2.340   0.600
  618TIP3    H2 1794   5.040   2.458   0.548
  619TIP3   OH2 1795   5.217   2.520   0.553
  619TIP3    H1 1796   5.245   2.427   0.541
  619TIP3    H2 1797   5.262   2.539   0.638
  620TIP3   OH2 1798   4.541   2.323   0.078
  620TIP3    H1 1799   4.454   2.288   0.050
  620TIP3    H2 1800   4.525   2.418   0.064
  621TIP3   OH2 1801   5.244   1.165   1.548
  621TIP3    H1 1802   5.209   1.093   1.605
  621TIP3    H2 1803   5.338   1.164   1.575
  622TIP3   OH2 1804   5.495   1.164   1.666
  622TIP3    H1 1805   5.577   1.136   1.622
  622TIP3    H2 1806   5.483   1.093   1.733
  623TIP3   OH2 1807   4.670   2.373  -0.232
  623TIP3    H1 1808   4.606   2.397  -0.163
  623TIP3    H2 1809   4.675   2.277  -0.221
  624TIP3   OH2 1810   6.306   1.226   1.459
  624TIP3    H1 1811   6.329   1.199   1.551
  624TIP3    H2 1812   6.394   1.226   1.416
  625TIP3   OH2 1813   6.255   2.775   0.949
  625TIP3    H1 1814   6.177   2.745   0.897
  625TIP3    H2 1815   6.237   2.871   0.952
  626TIP3   OH2 1816   6.838   2.064   0.467
  626TIP3    H1 1817   6.880   2.044   0.553
  626TIP3    H2 1818   6.887   2.144   0.444
  627TIP3   OH2 1819   6.788   2.460   0.203
  627TIP3    H1 1820   6.768   2.383   0.147
  627TIP3    H2 1821   6.882   2.448   0.223
  628TIP3   OH2 1822   7.067   2.304   0.303
  628TIP3    H1 1823   7.044   2.376   0.366
  628TIP3    H2 1824   7.160   2.288   0.331
  629TIP3   OH2 1825   6.993   2.503   0.478
  629TIP3    H1 1826   6.975   2.595   0.448
  629TIP3    H2 1827   6.918   2.491   0.539
  630TIP3   OH2 1828   7.211   2.612   0.622
  630TIP3    H1 1829   7.147   2.676   0.661
  630TIP3    H2 1830   7.150   2.556   0.570
  631TIP3   OH2 1831   6.953   2.178   0.709
  631TIP3    H1 1832   6.965   2.263   0.756
  631TIP3    H2 1833   6.864   2.153   0.739
  632TIP3   OH2 1834   7.001   2.778   0.697
  632TIP3    H1 1835   6.967   2.784   0.606
  632TIP3    H2 1836   6.920   2.757   0.748
  633TIP3   OH2 1837   6.580   2.303   0.646
  633TIP3    H1 1838   6.512   2.281   0.578
  633TIP3    H2 1839   6.615   2.215   0.669
  634TIP3   OH2 1840   6.441   2.496   0.280
  634TIP3    H1 1841   6.537   2.498   0.263
  634TIP3    H2 1842   6.430   2.574   0.335
  635TIP3   OH2 1843   7.399   2.732   0.460
  635TIP3    H1 1844   7.399   2.823   0.494
  635TIP3    H2 1845   7.335   2.688   0.521
  636TIP3   OH2 1846   6.776   2.495   0.642
  636TIP3    H1 1847   6.828   2.474   0.722
  636TIP3    H2 1848   6.704   2.428   0.646
  637TIP3   OH2 1849   6.951   1.881   0.714
  637TIP3    H1 1850   6.915   1.918   0.794
  637TIP3    H2 1851   6.919   1.789   0.714
  638TIP3   OH2 1852   6.946   2.415   0.855
  638TIP3    H1 1853   7.028   2.444   0.899
  638TIP3    H2 1854   6.884   2.414   0.931
  639TIP3   OH2 1855   7.491   2.449   0.569
  639TIP3    H1 1856   7.540   2.481   0.644
  639TIP3    H2 1857   7.501   2.519   0.504
  640TIP3   OH2 1858   6.700   2.091   0.785
  640TIP3    H1 1859   6.715   2.079   0.881
  640TIP3    H2 1860   6.627   2.029   0.768
  641TIP3   OH2 1861   7.420   2.204   0.802
  641TIP3    H1 1862   7.339   2.157   0.770
  641TIP3    H2 1863   7.479   2.184   0.727
  642TIP3   OH2 1864   7.183   2.832   0.304
  642TIP3    H1 1865   7.195   2.841   0.209
  642TIP3    H2 1866   7.269   2.796   0.332
  643TIP3   OH2 1867   6.624   2.682   0.434
  643TIP3    H1 1868   6.680   2.610   0.467
  643TIP3    H2 1869   6.661   2.758   0.481
  644TIP3   OH2 1870   6.617   2.996   0.846
  644TIP3    H1 1871   6.705   2.996   0.890
  644TIP3    H2 1872   6.600   2.901   0.841
  645TIP3   OH2 1873   7.094   2.954   0.891
  645TIP3    H1 1874   7.189   2.938   0.896
  645TIP3    H2 1875   7.069   2.897   0.815
  646TIP3   OH2 1876   6.745   2.401   1.046
  646TIP3    H1 1877   6.761   2.305   1.052
  646TIP3    H2 1878   6.659   2.404   1.000
  647TIP3   OH2 1879   7.361   2.484   0.821
  647TIP3    H1 1880   7.326   2.504   0.731
  647TIP3    H2 1881   7.385   2.389   0.809
  648TIP3   OH2 1882   6.871   2.130   1.025
  648TIP3    H1 1883   6.954   2.087   1.002
  648TIP3    H2 1884   6.892   2.166   1.114
  649TIP3   OH2 1885   7.214   2.065   0.691
  649TIP3    H1 1886   7.120   2.093   0.697
  649TIP3    H2 1887   7.209   1.997   0.623
  650TIP3   OH2 1888   7.165   1.945   1.054
  650TIP3    H1 1889   7.111   1.872   1.090
  650TIP3    H2 1890   7.196   1.908   0.970
  651TIP3   OH2 1891   7.029   1.716   1.121
  651TIP3    H1 1892   7.063   1.661   1.047
  651TIP3    H2 1893   7.074   1.676   1.199
  652TIP3   OH2 1894   6.353   2.646   0.033
  652TIP3    H1 1895   6.355   2.573   0.097
  652TIP3    H2 1896   6.420   2.705   0.070
  653TIP3   OH2 1897   6.565   2.068   0.412
  653TIP3    H1 1898   6.570   2.002   0.340
  653TIP3    H2 1899   6.660   2.079   0.432
  654TIP3   OH2 1900   6.768   1.752   1.062
  654TIP3    H1 1901   6.864   1.744   1.079
  654TIP3    H2 1902   6.737   1.670   1.104
  655TIP3   OH2 1903   6.781   2.731   0.863
  655TIP3    H1 1904   6.691   2.701   0.844
  655TIP3    H2 1905   6.792   2.709   0.956
  656TIP3   OH2 1906   6.949   2.768   0.419
  656TIP3    H1 1907   6.904   2.838   0.368
  656TIP3    H2 1908   7.040   2.782   0.383
  657TIP3   OH2 1909   7.404   3.006   0.547
  657TIP3    H1 1910   7.453   3.010   0.632
  657TIP3    H2 1911   7.465   3.050   0.485
  658TIP3   OH2 1912   7.573   3.135   0.336
  658TIP3    H1 1913   7.609   3.113   0.249
  658TIP3    H2 1914   7.588   3.231   0.337
  659TIP3   OH2 1915   6.630   3.008   0.452
  659TIP3    H1 1916   6.545   3.046   0.420
  659TIP3    H2 1917   6.644   3.061   0.531
  660TIP3   OH2 1918   6.850   2.994   0.286
  660TIP3    H1 1919   6.774   2.998   0.348
  660TIP3    H2 1920   6.822   3.059   0.221
  661TIP3   OH2 1921   6.533   2.795   0.196
  661TIP3    H1 1922   6.573   2.771   0.282
  661TIP3    H2 1923   6.610   2.776   0.137
  662TIP3   OH2 1924   6.750   2.692   0.064
  662TIP3    H1 1925   6.764   2.610   0.115
  662TIP3    H2 1926   6.834   2.702   0.017
  663TIP3   OH2 1927   0.883   2.674   2.051
  663TIP3    H1 1928   0.813   2.711   1.994
  663TIP3    H2 1929   0.888   2.741   2.121
  664TIP3   OH2 1930   0.352   3.490   1.649
  664TIP3    H1 1931   0.291   3.414   1.660
  664TIP3    H2 1932   0.333   3.519   1.557
  665TIP3   OH2 1933   0.514   3.400   1.983
  665TIP3    H1 1934   0.510   3.322   1.924
  665TIP3    H2 1935   0.507   3.476   1.921
  666TIP3   OH2 1936   0.723   3.026   1.826
  666TIP3    H1 1937   0.646   3.086   1.831
  666TIP3    H2 1938   0.756   3.045   1.735
  667TIP3   OH2 1939   0.436   2.908   2.145
  667TIP3    H1 1940   0.402   2.987   2.191
  667TIP3    H2 1941   0.360   2.884   2.088
  668TIP3   OH2 1942   0.753   3.742   2.023
  668TIP3    H1 1943   0.753   3.646   2.038
  668TIP3    H2 1944   0.669   3.766   2.068
  669TIP3   OH2 1945  -0.136   3.534   2.183
  669TIP3    H1 1946  -0.136   3.631   2.196
  669TIP3    H2 1947  -0.230   3.516   2.184
  670TIP3   OH2 1948   0.653   2.868   2.303
  670TIP3    H1 1949   0.572   2.883   2.250
  670TIP3    H2 1950   0.658   2.770   2.297
  671TIP3   OH2 1951   0.442   4.091   2.123
  671TIP3    H1 1952   0.443   4.114   2.028
  671TIP3    H2 1953   0.524   4.135   2.154
  672TIP3   OH2 1954   0.492   3.169   1.826
  672TIP3    H1 1955   0.493   3.198   1.732
  672TIP3    H2 1956   0.450   3.081   1.816
  673TIP3   OH2 1957   0.034   3.323   2.210
  673TIP3    H1 1958  -0.005   3.260   2.271
  673TIP3    H2 1959  -0.032   3.396   2.211
  674TIP3   OH2 1960   0.128   3.555   2.062
  674TIP3    H1 1961   0.041   3.543   2.104
  674TIP3    H2 1962   0.178   3.588   2.139
  675TIP3   OH2 1963   0.763   3.456   2.077
  675TIP3    H1 1964   0.666   3.447   2.066
  675TIP3    H2 1965   0.794   3.423   1.989
  676TIP3   OH2 1966   0.272   3.782   1.965
  676TIP3    H1 1967   0.198   3.718   1.957
  676TIP3    H2 1968   0.251   3.846   1.894
  677TIP3   OH2 1969   0.661   2.600   2.229
  677TIP3    H1 1970   0.577   2.553   2.227
  677TIP3    H2 1971   0.691   2.593   2.137
  678TIP3   OH2 1972   0.289   3.795   1.575
  678TIP3    H1 1973   0.250   3.793   1.487
  678TIP3    H2 1974   0.385   3.802   1.552
  679TIP3   OH2 1975  -0.453   3.738   2.588
  679TIP3    H1 1976  -0.360   3.740   2.614
  679TIP3    H2 1977  -0.446   3.729   2.493
  680TIP3   OH2 1978   0.191   3.653   2.314
  680TIP3    H1 1979   0.186   3.581   2.381
  680TIP3    H2 1980   0.270   3.703   2.343
  681TIP3   OH2 1981  -0.179   3.283   2.521
  681TIP3    H1 1982  -0.210   3.272   2.429
  681TIP3    H2 1983  -0.129   3.201   2.533
  682TIP3   OH2 1984   0.297   3.267   2.093
  682TIP3    H1 1985   0.361   3.336   2.068
  682TIP3    H2 1986   0.216   3.316   2.118
  683TIP3   OH2 1987   0.193   3.175   2.536
  683TIP3    H1 1988   0.223   3.169   2.444
  683TIP3    H2 1989   0.264   3.229   2.575
  684TIP3   OH2 1990   0.421   3.151   2.303
  684TIP3    H1 1991   0.369   3.192   2.230
  684TIP3    H2 1992   0.512   3.162   2.267
  685TIP3   OH2 1993   0.520   2.552   2.588
  685TIP3    H1 1994   0.532   2.455   2.604
  685TIP3    H2 1995   0.516   2.586   2.679
  686TIP3   OH2 1996   0.550   3.849   1.516
  686TIP3    H1 1997   0.580   3.879   1.604
  686TIP3    H2 1998   0.612   3.894   1.457
  687TIP3   OH2 1999   0.590   3.876   1.795
  687TIP3    H1 2000   0.544   3.789   1.798
  687TIP3    H2 2001   0.666   3.854   1.851
  688TIP3   OH2 2002   0.623   3.541   2.367
  688TIP3    H1 2003   0.552   3.552   2.434
  688TIP3    H2 2004   0.667   3.628   2.369
  689TIP3   OH2 2005   0.702   3.358   1.616
  689TIP3    H1 2006   0.732   3.271   1.582
  689TIP3    H2 2007   0.673   3.405   1.536
  690TIP3   OH2 2008   0.473   3.634   1.840
  690TIP3    H1 2009   0.396   3.671   1.885
  690TIP3    H2 2010   0.432   3.588   1.763
  691TIP3   OH2 2011   0.671   3.202   2.198
  691TIP3    H1 2012   0.741   3.134   2.186
  691TIP3    H2 2013   0.697   3.269   2.134
  692TIP3   OH2 2014   0.859   3.009   2.207
  692TIP3    H1 2015   0.785   2.957   2.245
  692TIP3    H2 2016   0.933   2.950   2.233
  693TIP3   OH2 2017   0.647   2.801   1.963
  693TIP3    H1 2018   0.569   2.826   2.016
  693TIP3    H2 2019   0.664   2.885   1.915
  694TIP3   OH2 2020   1.066   2.411   2.515
  694TIP3    H1 2021   1.130   2.352   2.470
  694TIP3    H2 2022   1.031   2.462   2.439
  695TIP3   OH2 2023   0.930   2.548   2.323
  695TIP3    H1 2024   0.838   2.576   2.339
  695TIP3    H2 2025   0.921   2.508   2.235
  696TIP3   OH2 2026  -0.142   3.801   2.239
  696TIP3    H1 2027  -0.099   3.798   2.327
  696TIP3    H2 2028  -0.074   3.849   2.187
  697TIP3   OH2 2029   0.043   3.939   2.096
  697TIP3    H1 2030   0.118   3.890   2.060
  697TIP3    H2 2031   0.090   4.000   2.157
  698TIP3   OH2 2032   0.018   3.765   1.816
  698TIP3    H1 2033  -0.072   3.783   1.844
  698TIP3    H2 2034   0.054   3.853   1.798
  699TIP3   OH2 2035   0.222   3.968   1.768
  699TIP3    H1 2036   0.208   4.050   1.716
  699TIP3    H2 2037   0.246   3.905   1.696
  700TIP3   OH2 2038   0.587   2.299   2.655
  700TIP3    H1 2039   0.601   2.247   2.736
  700TIP3    H2 2040   0.662   2.269   2.598
  701TIP3   OH2 2041   0.505   3.823   2.124
  701TIP3    H1 2042   0.426   3.792   2.074
  701TIP3    H2 2043   0.486   3.918   2.129
  702TIP3   OH2 2044   1.778   3.208   0.888
  702TIP3    H1 2045   1.745   3.295   0.856
  702TIP3    H2 2046   1.698   3.170   0.925
  703TIP3   OH2 2047   1.779   3.189   1.271
  703TIP3    H1 2048   1.808   3.162   1.360
  703TIP3    H2 2049   1.735   3.108   1.239
  704TIP3   OH2 2050   1.074   3.092   1.639
  704TIP3    H1 2051   1.098   3.018   1.698
  704TIP3    H2 2052   1.162   3.130   1.623
  705TIP3   OH2 2053   2.021   3.496   0.952
  705TIP3    H1 2054   1.996   3.426   1.013
  705TIP3    H2 2055   2.045   3.569   1.011
  706TIP3   OH2 2056   1.044   3.493   1.355
  706TIP3    H1 2057   1.039   3.395   1.362
  706TIP3    H2 2058   1.140   3.505   1.344
  707TIP3   OH2 2059   1.666   3.959   0.971
  707TIP3    H1 2060   1.711   3.890   0.919
  707TIP3    H2 2061   1.658   3.916   1.057
  708TIP3   OH2 2062   1.568   3.424   1.321
  708TIP3    H1 2063   1.597   3.348   1.269
  708TIP3    H2 2064   1.655   3.463   1.343
  709TIP3   OH2 2065   2.599   2.733   1.330
  709TIP3    H1 2066   2.607   2.822   1.367
  709TIP3    H2 2067   2.590   2.749   1.235
  710TIP3   OH2 2068   1.981   2.900   1.362
  710TIP3    H1 2069   1.982   2.806   1.390
  710TIP3    H2 2070   1.955   2.892   1.269
  711TIP3   OH2 2071   2.010   2.679   0.952
  711TIP3    H1 2072   2.090   2.661   1.004
  711TIP3    H2 2073   2.049   2.702   0.866
  712TIP3   OH2 2074   1.408   2.978   1.236
  712TIP3    H1 2075   1.501   2.953   1.252
  712TIP3    H2 2076   1.393   2.935   1.151
  713TIP3   OH2 2077   2.639   2.945   1.523
  713TIP3    H1 2078   2.564   3.000   1.491
  713TIP3    H2 2079   2.690   3.010   1.575
  714TIP3   OH2 2080   1.321   2.565   1.761
  714TIP3    H1 2081   1.252   2.602   1.701
  714TIP3    H2 2082   1.272   2.570   1.845
  715TIP3   OH2 2083   1.656   3.419   0.765
  715TIP3    H1 2084   1.596   3.397   0.694
  715TIP3    H2 2085   1.622   3.508   0.789
  716TIP3   OH2 2086   1.427   3.341   1.542
  716TIP3    H1 2087   1.365   3.407   1.579
  716TIP3    H2 2088   1.468   3.389   1.467
  717TIP3   OH2 2089   2.236   2.667   1.107
  717TIP3    H1 2090   2.210   2.614   1.184
  717TIP3    H2 2091   2.273   2.747   1.148
  718TIP3   OH2 2092   1.159   2.697   1.588
  718TIP3    H1 2093   1.232   2.761   1.580
  718TIP3    H2 2094   1.169   2.645   1.506
  719TIP3   OH2 2095   1.255   3.535   1.641
  719TIP3    H1 2096   1.227   3.621   1.605
  719TIP3    H2 2097   1.177   3.516   1.698
  720TIP3   OH2 2098   2.087   3.740   1.120
  720TIP3    H1 2099   1.997   3.731   1.160
  720TIP3    H2 2100   2.077   3.825   1.073
  721TIP3   OH2 2101   6.593   7.153   6.388
  721TIP3    H1 2102   6.529   7.089   6.353
  721TIP3    H2 2103   6.543   7.236   6.375
  722TIP3   OH2 2104   1.787   3.786   0.795
  722TIP3    H1 2105   1.835   3.703   0.775
  722TIP3    H2 2106   1.849   3.850   0.753
  723TIP3   OH2 2107   1.929   3.573   0.703
  723TIP3    H1 2108   1.920   3.494   0.647
  723TIP3    H2 2109   1.965   3.535   0.786
  724TIP3   OH2 2110   2.312   3.650   1.462
  724TIP3    H1 2111   2.298   3.572   1.404
  724TIP3    H2 2112   2.292   3.725   1.401
  725TIP3   OH2 2113   2.507   3.290   1.309
  725TIP3    H1 2114   2.422   3.339   1.314
  725TIP3    H2 2115   2.536   3.315   1.219
  726TIP3   OH2 2116   1.954   3.136   0.690
  726TIP3    H1 2117   1.893   3.154   0.764
  726TIP3    H2 2118   2.032   3.101   0.737
  727TIP3   OH2 2119   2.187   3.169   1.599
  727TIP3    H1 2120   2.176   3.253   1.648
  727TIP3    H2 2121   2.098   3.163   1.558
  728TIP3   OH2 2122   1.309   3.531   1.256
  728TIP3    H1 2123   1.298   3.504   1.164
  728TIP3    H2 2124   1.398   3.495   1.277
  729TIP3   OH2 2125   1.306   3.103   1.462
  729TIP3    H1 2126   1.343   3.067   1.378
  729TIP3    H2 2127   1.360   3.184   1.476
  730TIP3   OH2 2128   1.846   3.734   1.240
  730TIP3    H1 2129   1.832   3.813   1.296
  730TIP3    H2 2130   1.830   3.660   1.302
  731TIP3   OH2 2131   1.457   3.653   1.787
  731TIP3    H1 2132   1.396   3.714   1.833
  731TIP3    H2 2133   1.393   3.599   1.736
  732TIP3   OH2 2134   1.216   3.213   1.891
  732TIP3    H1 2135   1.213   3.300   1.936
  732TIP3    H2 2136   1.122   3.186   1.899
  733TIP3   OH2 2137   1.534   3.669   0.783
  733TIP3    H1 2138   1.615   3.719   0.803
  733TIP3    H2 2139   1.471   3.739   0.761
  734TIP3   OH2 2140   1.251   3.821   1.875
  734TIP3    H1 2141   1.215   3.820   1.784
  734TIP3    H2 2142   1.171   3.799   1.928
  735TIP3   OH2 2143   2.095   3.600   0.106
  735TIP3    H1 2144   2.114   3.695   0.094
  735TIP3    H2 2145   2.184   3.562   0.105
  736TIP3   OH2 2146   0.847   3.357   1.844
  736TIP3    H1 2147   0.792   3.350   1.762
  736TIP3    H2 2148   0.880   3.266   1.857
  737TIP3   OH2 2149   0.712   3.577   1.422
  737TIP3    H1 2150   0.806   3.562   1.439
  737TIP3    H2 2151   0.692   3.640   1.492
  738TIP3   OH2 2152   2.549   3.997   1.512
  738TIP3    H1 2153   2.547   3.901   1.525
  738TIP3    H2 2154   2.466   4.023   1.556
  739TIP3   OH2 2155   1.653   3.781   1.644
  739TIP3    H1 2156   1.651   3.874   1.676
  739TIP3    H2 2157   1.581   3.741   1.698
  740TIP3   OH2 2158   1.416   3.902   0.604
  740TIP3    H1 2159   1.379   3.891   0.515
  740TIP3    H2 2160   1.394   3.998   0.623
  741TIP3   OH2 2161   0.852   3.767   0.973
  741TIP3    H1 2162   0.890   3.742   1.060
  741TIP3    H2 2163   0.805   3.685   0.947
  742TIP3   OH2 2164   1.614   3.805   0.241
  742TIP3    H1 2165   1.674   3.746   0.191
  742TIP3    H2 2166   1.659   3.813   0.328
  743TIP3   OH2 2167   1.670   3.862   0.513
  743TIP3    H1 2168   1.580   3.869   0.551
  743TIP3    H2 2169   1.717   3.816   0.585
  744TIP3   OH2 2170   2.435   3.124   1.780
  744TIP3    H1 2171   2.357   3.156   1.731
  744TIP3    H2 2172   2.403   3.037   1.807
  745TIP3   OH2 2173   1.040   3.544   1.809
  745TIP3    H1 2174   1.093   3.528   1.890
  745TIP3    H2 2175   0.967   3.479   1.821
  746TIP3   OH2 2176   1.983   2.483   1.794
  746TIP3    H1 2177   2.037   2.440   1.863
  746TIP3    H2 2178   1.892   2.462   1.823
  747TIP3   OH2 2179   2.242   2.917   1.726
  747TIP3    H1 2180   2.175   2.898   1.797
  747TIP3    H2 2181   2.194   2.983   1.673
  748TIP3   OH2 2182   1.371   2.885   1.616
  748TIP3    H1 2183   1.315   2.898   1.695
  748TIP3    H2 2184   1.346   2.963   1.562
  749TIP3   OH2 2185   1.766   2.895   0.846
  749TIP3    H1 2186   1.672   2.876   0.838
  749TIP3    H2 2187   1.798   2.870   0.758
  750TIP3   OH2 2188   1.917   3.124   1.944
  750TIP3    H1 2189   1.892   3.050   2.004
  750TIP3    H2 2190   2.012   3.133   1.966
  751TIP3   OH2 2191   1.902   2.885   1.092
  751TIP3    H1 2192   1.849   2.916   1.015
  751TIP3    H2 2193   1.934   2.801   1.053
  752TIP3   OH2 2194   1.188   2.907   1.820
  752TIP3    H1 2195   1.211   2.956   1.900
  752TIP3    H2 2196   1.168   2.818   1.855
  753TIP3   OH2 2197   1.923   3.115   1.512
  753TIP3    H1 2198   1.950   3.038   1.456
  753TIP3    H2 2199   1.882   3.068   1.587
  754TIP3   OH2 2200   2.241   4.346   1.609
  754TIP3    H1 2201   2.239   4.370   1.515
  754TIP3    H2 2202   2.321   4.394   1.639
  755TIP3   OH2 2203   1.196   3.462   2.029
  755TIP3    H1 2204   1.276   3.489   2.079
  755TIP3    H2 2205   1.132   3.455   2.102
  756TIP3   OH2 2206   1.667   2.907   1.296
  756TIP3    H1 2207   1.732   2.855   1.247
  756TIP3    H2 2208   1.664   2.862   1.383
  757TIP3   OH2 2209   1.635   2.818   1.570
  757TIP3    H1 2210   1.543   2.847   1.587
  757TIP3    H2 2211   1.687   2.878   1.627
  758TIP3   OH2 2212   2.273   3.431   1.298
  758TIP3    H1 2213   2.294   3.482   1.217
  758TIP3    H2 2214   2.187   3.388   1.274
  759TIP3   OH2 2215   1.784   3.523   1.664
  759TIP3    H1 2216   1.791   3.489   1.753
  759TIP3    H2 2217   1.734   3.606   1.675
  760TIP3   OH2 2218   1.053   3.213   1.338
  760TIP3    H1 2219   1.106   3.178   1.265
  760TIP3    H2 2220   1.093   3.166   1.413
  761TIP3   OH2 2221   0.953   3.130   1.960
  761TIP3    H1 2222   0.964   3.117   2.056
  761TIP3    H2 2223   0.884   3.063   1.939
  762TIP3   OH2 2224   1.672   3.256   1.978
  762TIP3    H1 2225   1.608   3.197   1.934
  762TIP3    H2 2226   1.757   3.217   1.947
  763TIP3   OH2 2227   1.934   3.784   1.559
  763TIP3    H1 2228   1.838   3.773   1.574
  763TIP3    H2 2229   1.959   3.832   1.640
  764TIP3   OH2 2230   2.352   2.841   0.453
  764TIP3    H1 2231   2.278   2.789   0.419
  764TIP3    H2 2232   2.333   2.929   0.413
  765TIP3   OH2 2233   2.562   3.706   1.551
  765TIP3    H1 2234   2.464   3.701   1.542
  765TIP3    H2 2235   2.588   3.676   1.461
  766TIP3   OH2 2236   2.049   3.664   0.379
  766TIP3    H1 2237   2.012   3.597   0.438
  766TIP3    H2 2238   2.050   3.618   0.293
  767TIP3   OH2 2239   2.040   3.294   1.217
  767TIP3    H1 2240   1.946   3.269   1.231
  767TIP3    H2 2241   2.073   3.215   1.170
  768TIP3   OH2 2242   1.197   3.540   0.977
  768TIP3    H1 2243   1.172   3.627   0.940
  768TIP3    H2 2244   1.108   3.499   0.992
  769TIP3   OH2 2245   1.368   3.317   0.973
  769TIP3    H1 2246   1.323   3.403   0.962
  769TIP3    H2 2247   1.292   3.256   0.975
  770TIP3   OH2 2248   1.436   3.866   1.438
  770TIP3    H1 2249   1.479   3.938   1.388
  770TIP3    H2 2250   1.513   3.829   1.485
  771TIP3   OH2 2251   1.104   3.773   0.861
  771TIP3    H1 2252   1.009   3.778   0.882
  771TIP3    H2 2253   1.121   3.863   0.828
  772TIP3   OH2 2254   1.825   3.500   1.396
  772TIP3    H1 2255   1.816   3.502   1.494
  772TIP3    H2 2256   1.900   3.441   1.384
  773TIP3   OH2 2257   1.812   3.426   0.290
  773TIP3    H1 2258   1.863   3.397   0.368
  773TIP3    H2 2259   1.737   3.365   0.292
  774TIP3   OH2 2260   2.073   4.034   1.449
  774TIP3    H1 2261   1.995   3.976   1.445
  774TIP3    H2 2262   2.054   4.097   1.375
  775TIP3   OH2 2263   2.139   3.875   0.094
  775TIP3    H1 2264   2.192   3.951   0.062
  775TIP3    H2 2265   2.062   3.922   0.130
  776TIP3   OH2 2266   1.153   2.647   1.973
  776TIP3    H1 2267   1.055   2.648   1.985
  776TIP3    H2 2268   1.180   2.582   2.039
  777TIP3   OH2 2269   1.962   3.354   0.516
  777TIP3    H1 2270   1.943   3.276   0.573
  777TIP3    H2 2271   2.054   3.333   0.490
  778TIP3   OH2 2272   0.881   3.728   1.606
  778TIP3    H1 2273   0.932   3.656   1.646
  778TIP3    H2 2274   0.904   3.801   1.664
  779TIP3   OH2 2275   1.984   2.759   1.686
  779TIP3    H1 2276   2.008   2.693   1.753
  779TIP3    H2 2277   1.956   2.702   1.611
  780TIP3   OH2 2278   1.373   3.565   0.479
  780TIP3    H1 2279   1.348   3.585   0.570
  780TIP3    H2 2280   1.391   3.654   0.443
  781TIP3   OH2 2281   1.822   2.971   1.719
  781TIP3    H1 2282   1.853   3.012   1.802
  781TIP3    H2 2283   1.880   2.891   1.714
  782TIP3   OH2 2284   2.449   2.766   1.645
  782TIP3    H1 2285   2.388   2.832   1.685
  782TIP3    H2 2286   2.514   2.824   1.601
  783TIP3   OH2 2287   2.126   3.053   1.093
  783TIP3    H1 2288   2.045   2.999   1.101
  783TIP3    H2 2289   2.192   2.999   1.141
  784TIP3   OH2 2290   2.093   4.012   1.041
  784TIP3    H1 2291   2.050   4.059   0.966
  784TIP3    H2 2292   2.188   4.030   1.019
  785TIP3   OH2 2293   0.867   4.043   2.019
  785TIP3    H1 2294   0.952   4.042   2.068
  785TIP3    H2 2295   0.846   3.948   2.020
  786TIP3   OH2 2296   1.349   4.002   2.062
  786TIP3    H1 2297   1.442   3.975   2.068
  786TIP3    H2 2298   1.318   3.943   1.991
  787TIP3   OH2 2299   1.983   3.911   1.800
  787TIP3    H1 2300   1.975   3.840   1.868
  787TIP3    H2 2301   2.062   3.960   1.830
  788TIP3   OH2 2302   1.772   3.616   0.103
  788TIP3    H1 2303   1.791   3.555   0.178
  788TIP3    H2 2304   1.859   3.624   0.061
  789TIP3   OH2 2305   0.997   3.443   2.222
  789TIP3    H1 2306   1.014   3.347   2.224
  789TIP3    H2 2307   0.909   3.447   2.180
  790TIP3   OH2 2308   1.604   3.531   1.993
  790TIP3    H1 2309   1.559   3.547   1.908
  790TIP3    H2 2310   1.632   3.437   1.985
  791TIP3   OH2 2311   2.098   3.538   1.605
  791TIP3    H1 2312   2.168   3.587   1.559
  791TIP3    H2 2313   2.021   3.596   1.590
  792TIP3   OH2 2314   1.115   3.184   2.204
  792TIP3    H1 2315   1.187   3.125   2.178
  792TIP3    H2 2316   1.145   3.214   2.292
  793TIP3   OH2 2317   1.454   3.069   1.873
  793TIP3    H1 2318   1.371   3.122   1.870
  793TIP3    H2 2319   1.501   3.101   1.793
  794TIP3   OH2 2320   1.970   3.468   2.000
  794TIP3    H1 2321   2.042   3.431   1.947
  794TIP3    H2 2322   1.958   3.400   2.069
  795TIP3   OH2 2323   1.578   2.852   1.986
  795TIP3    H1 2324   1.573   2.773   1.930
  795TIP3    H2 2325   1.531   2.919   1.932
  796TIP3   OH2 2326   1.579   2.640   1.794
  796TIP3    H1 2327   1.600   2.678   1.707
  796TIP3    H2 2328   1.486   2.612   1.781
  797TIP3   OH2 2329   1.599   3.180   1.679
  797TIP3    H1 2330   1.679   3.173   1.626
  797TIP3    H2 2331   1.545   3.244   1.627
  798TIP3   OH2 2332   2.180   3.144   2.052
  798TIP3    H1 2333   2.226   3.059   2.066
  798TIP3    H2 2334   2.252   3.201   2.021
  799TIP3   OH2 2335   2.228   3.393   1.790
  799TIP3    H1 2336   2.168   3.446   1.732
  799TIP3    H2 2337   2.314   3.416   1.748
  800TIP3   OH2 2338   1.456   2.961   2.222
  800TIP3    H1 2339   1.388   2.892   2.237
  800TIP3    H2 2340   1.486   2.939   2.132
  801TIP3   OH2 2341   1.714   2.408   1.863
  801TIP3    H1 2342   1.665   2.491   1.843
  801TIP3    H2 2343   1.643   2.343   1.844
  802TIP3   OH2 2344   1.834   2.903   2.079
  802TIP3    H1 2345   1.814   2.889   2.173
  802TIP3    H2 2346   1.746   2.880   2.041
  803TIP3   OH2 2347   2.085   2.862   1.946
  803TIP3    H1 2348   2.001   2.858   1.994
  803TIP3    H2 2349   2.149   2.824   2.009
  804TIP3   OH2 2350   2.322   2.794   2.090
  804TIP3    H1 2351   2.324   2.698   2.110
  804TIP3    H2 2352   2.305   2.834   2.178
  805TIP3   OH2 2353   1.293   2.749   2.277
  805TIP3    H1 2354   1.288   2.656   2.244
  805TIP3    H2 2355   1.328   2.732   2.367
  806TIP3   OH2 2356   1.803   2.409   2.124
  806TIP3    H1 2357   1.868   2.337   2.112
  806TIP3    H2 2358   1.761   2.410   2.036
  807TIP3   OH2 2359   1.870   2.627   2.281
  807TIP3    H1 2360   1.847   2.555   2.218
  807TIP3    H2 2361   1.792   2.685   2.275
  808TIP3   OH2 2362   0.618   3.737   1.216
  808TIP3    H1 2363   0.649   3.667   1.278
  808TIP3    H2 2364   0.670   3.811   1.253
  809TIP3   OH2 2365   2.349   4.097   0.999
  809TIP3    H1 2366   2.373   4.132   1.087
  809TIP3    H2 2367   2.411   4.144   0.941
  810TIP3   OH2 2368   2.375   4.121   1.281
  810TIP3    H1 2369   2.330   4.033   1.277
  810TIP3    H2 2370   2.451   4.097   1.337
  811TIP3   OH2 2371   2.423   3.796   1.855
  811TIP3    H1 2372   2.350   3.806   1.919
  811TIP3    H2 2373   2.465   3.885   1.859
  812TIP3   OH2 2374   2.243   3.300   0.468
  812TIP3    H1 2375   2.307   3.370   0.443
  812TIP3    H2 2376   2.285   3.264   0.549
  813TIP3   OH2 2377   2.374   3.165   0.674
  813TIP3    H1 2378   2.303   3.125   0.729
  813TIP3    H2 2379   2.427   3.213   0.741
  814TIP3   OH2 2380   2.425   3.572   1.112
  814TIP3    H1 2381   2.472   3.506   1.058
  814TIP3    H2 2382   2.414   3.646   1.049
  815TIP3   OH2 2383   2.251   3.871   1.304
  815TIP3    H1 2384   2.179   3.913   1.356
  815TIP3    H2 2385   2.201   3.824   1.234
  816TIP3   OH2 2386   2.286   3.076   0.311
  816TIP3    H1 2387   2.219   3.094   0.241
  816TIP3    H2 2388   2.266   3.151   0.370
  817TIP3   OH2 2389   2.185   3.031   0.823
  817TIP3    H1 2390   2.174   2.934   0.814
  817TIP3    H2 2391   2.167   3.045   0.919
  818TIP3   OH2 2392   0.814   3.111   1.574
  818TIP3    H1 2393   0.816   3.058   1.494
  818TIP3    H2 2394   0.909   3.109   1.599
  819TIP3   OH2 2395   2.470   3.460   1.681
  819TIP3    H1 2396   2.543   3.395   1.668
  819TIP3    H2 2397   2.493   3.530   1.617
  820TIP3   OH2 2398   2.653   3.262   1.687
  820TIP3    H1 2399   2.579   3.210   1.726
  820TIP3    H2 2400   2.728   3.202   1.706
  821TIP3   OH2 2401   2.182   2.760   0.745
  821TIP3    H1 2402   2.231   2.680   0.773
  821TIP3    H2 2403   2.224   2.779   0.660
  822TIP3   OH2 2404   2.341   2.918   1.215
  822TIP3    H1 2405   2.427   2.949   1.178
  822TIP3    H2 2406   2.347   2.958   1.304
  823TIP3   OH2 2407   2.405   3.071   1.446
  823TIP3    H1 2408   2.327   3.105   1.494
  823TIP3    H2 2409   2.436   3.152   1.399
  824TIP3   OH2 2410   1.028   2.807   2.271
  824TIP3    H1 2411   1.125   2.793   2.257
  824TIP3    H2 2412   1.002   2.719   2.303
  825TIP3   OH2 2413   2.858   2.657   2.003
  825TIP3    H1 2414   2.919   2.591   1.962
  825TIP3    H2 2415   2.832   2.711   1.925
  826TIP3   OH2 2416   2.320   2.526   0.802
  826TIP3    H1 2417   2.297   2.468   0.877
  826TIP3    H2 2418   2.272   2.481   0.728
  827TIP3   OH2 2419   2.729   2.803   1.811
  827TIP3    H1 2420   2.655   2.838   1.865
  827TIP3    H2 2421   2.685   2.778   1.728
  828TIP3   OH2 2422   1.934   3.967   0.657
  828TIP3    H1 2423   1.982   3.954   0.573
  828TIP3    H2 2424   1.988   4.035   0.701
  829TIP3   OH2 2425   1.031   3.776   2.042
  829TIP3    H1 2426   0.940   3.747   2.024
  829TIP3    H2 2427   1.042   3.750   2.134
  830TIP3   OH2 2428   1.210   3.806   1.588
  830TIP3    H1 2429   1.163   3.882   1.549
  830TIP3    H2 2430   1.296   3.818   1.543
  831TIP3   OH2 2431   1.653   4.048   1.727
  831TIP3    H1 2432   1.696   4.048   1.815
  831TIP3    H2 2433   1.719   4.099   1.675
  832TIP3   OH2 2434   1.831   4.201   1.586
  832TIP3    H1 2435   1.900   4.149   1.542
  832TIP3    H2 2436   1.885   4.258   1.646
  833TIP3   OH2 2437   0.886   4.061   1.613
  833TIP3    H1 2438   0.796   4.094   1.590
  833TIP3    H2 2439   0.896   4.099   1.701
  834TIP3   OH2 2440   1.123   4.041   1.472
  834TIP3    H1 2441   1.035   4.053   1.515
  834TIP3    H2 2442   1.103   4.071   1.380
  835TIP3   OH2 2443   1.547   4.067   1.269
  835TIP3    H1 2444   1.479   4.085   1.202
  835TIP3    H2 2445   1.559   4.155   1.309
  836TIP3   OH2 2446   1.817   4.008   1.321
  836TIP3    H1 2447   1.722   4.024   1.300
  836TIP3    H2 2448   1.860   4.081   1.275
  837TIP3   OH2 2449   2.024   4.198   1.233
  837TIP3    H1 2450   2.009   4.282   1.185
  837TIP3    H2 2451   2.050   4.137   1.161
  838TIP3   OH2 2452   0.811   3.870   1.365
  838TIP3    H1 2453   0.835   3.840   1.455
  838TIP3    H2 2454   0.876   3.817   1.313
  839TIP3   OH2 2455   0.987   3.724   1.215
  839TIP3    H1 2456   1.006   3.640   1.263
  839TIP3    H2 2457   1.078   3.760   1.205
  840TIP3   OH2 2458   1.258   3.823   1.216
  840TIP3    H1 2459   1.288   3.732   1.196
  840TIP3    H2 2460   1.305   3.837   1.301
  841TIP3   OH2 2461   2.377   2.357   1.226
  841TIP3    H1 2462   2.422   2.407   1.155
  841TIP3    H2 2463   2.282   2.372   1.207
  842TIP3   OH2 2464   2.513   2.486   1.012
  842TIP3    H1 2465   2.546   2.418   0.950
  842TIP3    H2 2466   2.458   2.542   0.955
  843TIP3   OH2 2467   2.105   2.360   1.196
  843TIP3    H1 2468   2.039   2.431   1.210
  843TIP3    H2 2469   2.063   2.287   1.245
  844TIP3   OH2 2470   1.364   3.823   0.346
  844TIP3    H1 2471   1.450   3.824   0.297
  844TIP3    H2 2472   1.302   3.791   0.278
  845TIP3   OH2 2473   2.078   3.932   0.422
  845TIP3    H1 2474   2.072   3.834   0.411
  845TIP3    H2 2475   2.031   3.963   0.343
  846TIP3   OH2 2476   1.282   2.484   2.228
  846TIP3    H1 2477   1.249   2.398   2.263
  846TIP3    H2 2478   1.377   2.473   2.245
  847TIP3   OH2 2479   1.541   2.468   2.335
  847TIP3    H1 2480   1.621   2.434   2.291
  847TIP3    H2 2481   1.522   2.397   2.399
  848TIP3   OH2 2482   2.366   2.521   2.123
  848TIP3    H1 2483   2.382   2.492   2.215
  848TIP3    H2 2484   2.457   2.517   2.085
  849TIP3   OH2 2485   2.301   4.077   1.610
  849TIP3    H1 2486   2.223   4.046   1.560
  849TIP3    H2 2487   2.282   4.172   1.615
  850TIP3   OH2 2488   3.570   3.450   0.373
  850TIP3    H1 2489   3.541   3.542   0.354
  850TIP3    H2 2490   3.492   3.401   0.341
  851TIP3   OH2 2491   3.571   3.448   0.758
  851TIP3    H1 2492   3.603   3.427   0.847
  851TIP3    H2 2493   3.529   3.365   0.731
  852TIP3   OH2 2494   2.870   3.342   1.119
  852TIP3    H1 2495   2.899   3.274   1.183
  852TIP3    H2 2496   2.940   3.408   1.129
  853TIP3   OH2 2497   3.815   3.753   0.439
  853TIP3    H1 2498   3.796   3.688   0.508
  853TIP3    H2 2499   3.841   3.831   0.491
  854TIP3   OH2 2500   2.839   3.755   0.845
  854TIP3    H1 2501   2.830   3.657   0.848
  854TIP3    H2 2502   2.936   3.764   0.839
  855TIP3   OH2 2503   2.575   2.958   0.636
  855TIP3    H1 2504   2.536   3.046   0.649
  855TIP3    H2 2505   2.494   2.908   0.618
  856TIP3   OH2 2506   2.609   3.251   0.804
  856TIP3    H1 2507   2.664   3.174   0.829
  856TIP3    H2 2508   2.662   3.295   0.737
  857TIP3   OH2 2509   3.459   4.211   0.452
  857TIP3    H1 2510   3.507   4.139   0.407
  857TIP3    H2 2511   3.453   4.179   0.543
  858TIP3   OH2 2512   3.367   3.674   0.805
  858TIP3    H1 2513   3.409   3.600   0.760
  858TIP3    H2 2514   3.448   3.722   0.833
  859TIP3   OH2 2515   4.382   2.996   0.804
  859TIP3    H1 2516   4.410   3.078   0.849
  859TIP3    H2 2517   4.396   3.020   0.711
  860TIP3   OH2 2518   3.779   3.176   0.836
  860TIP3    H1 2519   3.821   3.091   0.857
  860TIP3    H2 2520   3.747   3.159   0.745
  861TIP3   OH2 2521   3.104   2.842   0.792
  861TIP3    H1 2522   3.107   2.893   0.710
  861TIP3    H2 2523   3.058   2.761   0.761
  862TIP3   OH2 2524   3.812   2.929   0.425
  862TIP3    H1 2525   3.884   2.912   0.490
  862TIP3    H2 2526   3.865   2.963   0.350
  863TIP3   OH2 2527   2.740   3.026   0.903
  863TIP3    H1 2528   2.826   3.006   0.945
  863TIP3    H2 2529   2.705   2.937   0.885
  864TIP3   OH2 2530   3.200   3.236   0.695
  864TIP3    H1 2531   3.295   3.229   0.718
  864TIP3    H2 2532   3.182   3.145   0.669
  865TIP3   OH2 2533   4.454   3.205   0.973
  865TIP3    H1 2534   4.369   3.251   0.955
  865TIP3    H2 2535   4.471   3.234   1.063
  866TIP3   OH2 2536   3.115   2.819   1.237
  866TIP3    H1 2537   3.054   2.858   1.171
  866TIP3    H2 2538   3.064   2.834   1.319
  867TIP3   OH2 2539   3.463   3.674   0.241
  867TIP3    H1 2540   3.416   3.657   0.158
  867TIP3    H2 2541   3.418   3.756   0.271
  868TIP3   OH2 2542   3.219   3.595   1.031
  868TIP3    H1 2543   3.158   3.663   1.068
  868TIP3    H2 2544   3.261   3.645   0.958
  869TIP3   OH2 2545   4.022   2.931   0.599
  869TIP3    H1 2546   4.004   2.887   0.683
  869TIP3    H2 2547   4.071   3.010   0.628
  870TIP3   OH2 2548   2.981   2.937   1.021
  870TIP3    H1 2549   3.041   3.010   1.048
  870TIP3    H2 2550   3.033   2.900   0.945
  871TIP3   OH2 2551   3.049   3.790   1.129
  871TIP3    H1 2552   3.024   3.878   1.091
  871TIP3    H2 2553   2.969   3.775   1.184
  872TIP3   OH2 2554   2.445   3.478   0.370
  872TIP3    H1 2555   2.402   3.500   0.285
  872TIP3    H2 2556   2.472   3.567   0.402
  873TIP3   OH2 2557   3.881   3.993   0.600
  873TIP3    H1 2558   3.792   3.986   0.643
  873TIP3    H2 2559   3.875   4.081   0.559
  874TIP3   OH2 2560   4.174   2.894   0.969
  874TIP3    H1 2561   4.086   2.923   0.938
  874TIP3    H2 2562   4.233   2.927   0.898
  875TIP3   OH2 2563   3.466   2.535   0.950
  875TIP3    H1 2564   3.453   2.441   0.972
  875TIP3    H2 2565   3.389   2.574   0.998
  876TIP3   OH2 2566   3.585   4.039   0.275
  876TIP3    H1 2567   3.635   3.957   0.255
  876TIP3    H2 2568   3.651   4.105   0.241
  877TIP3   OH2 2569   3.730   3.821   0.185
  877TIP3    H1 2570   3.674   3.747   0.160
  877TIP3    H2 2571   3.768   3.790   0.270
  878TIP3   OH2 2572   4.108   3.906   0.950
  878TIP3    H1 2573   4.095   3.830   0.890
  878TIP3    H2 2574   4.087   3.982   0.892
  879TIP3   OH2 2575   3.400   3.300   0.208
  879TIP3    H1 2576   3.320   3.353   0.189
  879TIP3    H2 2577   3.443   3.298   0.121
  880TIP3   OH2 2578   3.350   3.075  -0.061
  880TIP3    H1 2579   3.421   3.135  -0.033
  880TIP3    H2 2580   3.399   2.998  -0.091
  881TIP3   OH2 2581   4.302   3.544   0.793
  881TIP3    H1 2582   4.219   3.595   0.799
  881TIP3    H2 2583   4.333   3.571   0.704
  882TIP3   OH2 2584   3.747   3.380   0.178
  882TIP3    H1 2585   3.691   3.406   0.255
  882TIP3    H2 2586   3.830   3.358   0.223
  883TIP3   OH2 2587   3.981   3.422   1.093
  883TIP3    H1 2588   3.979   3.505   1.144
  883TIP3    H2 2589   3.895   3.428   1.047
  884TIP3   OH2 2590   2.979   3.379   0.597
  884TIP3    H1 2591   2.938   3.322   0.529
  884TIP3    H2 2592   3.059   3.328   0.622
  885TIP3   OH2 2593   3.108   3.791   0.744
  885TIP3    H1 2594   3.089   3.756   0.656
  885TIP3    H2 2595   3.198   3.756   0.761
  886TIP3   OH2 2596   3.122   3.352   0.947
  886TIP3    H1 2597   3.153   3.339   0.856
  886TIP3    H2 2598   3.159   3.440   0.971
  887TIP3   OH2 2599   3.643   3.989   0.727
  887TIP3    H1 2600   3.627   4.072   0.775
  887TIP3    H2 2601   3.624   3.920   0.793
  888TIP3   OH2 2602   3.254   3.907   1.275
  888TIP3    H1 2603   3.194   3.970   1.320
  888TIP3    H2 2604   3.189   3.855   1.224
  889TIP3   OH2 2605   3.587   3.240  -0.001
  889TIP3    H1 2606   3.643   3.301   0.053
  889TIP3    H2 2607   3.618   3.263  -0.092
  890TIP3   OH2 2608   3.007   3.463   1.374
  890TIP3    H1 2609   3.013   3.551   1.416
  890TIP3    H2 2610   2.913   3.443   1.391
  891TIP3   OH2 2611   3.333   3.916   0.283
  891TIP3    H1 2612   3.410   3.974   0.296
  891TIP3    H2 2613   3.269   3.975   0.240
  892TIP3   OH2 2614   3.048   4.074   1.361
  892TIP3    H1 2615   3.013   4.078   1.270
  892TIP3    H2 2616   2.968   4.053   1.414
  893TIP3   OH2 2617   4.108   2.484   0.054
  893TIP3    H1 2618   4.024   2.501   0.101
  893TIP3    H2 2619   4.117   2.565  -0.000
  894TIP3   OH2 2620   2.844   3.223   0.398
  894TIP3    H1 2621   2.783   3.279   0.345
  894TIP3    H2 2622   2.793   3.141   0.403
  895TIP3   OH2 2623   2.626   3.608   1.308
  895TIP3    H1 2624   2.557   3.590   1.240
  895TIP3    H2 2625   2.662   3.519   1.326
  896TIP3   OH2 2626   2.481   3.802   0.939
  896TIP3    H1 2627   2.577   3.800   0.932
  896TIP3    H2 2628   2.466   3.881   0.993
  897TIP3   OH2 2629   4.347   4.254   1.000
  897TIP3    H1 2630   4.343   4.158   1.015
  897TIP3    H2 2631   4.263   4.282   1.043
  898TIP3   OH2 2632   3.451   4.036   1.131
  898TIP3    H1 2633   3.449   4.129   1.163
  898TIP3    H2 2634   3.380   3.997   1.186
  899TIP3   OH2 2635   3.207   4.167   0.084
  899TIP3    H1 2636   3.160   4.152   0.000
  899TIP3    H2 2637   3.178   4.257   0.108
  900TIP3   OH2 2638   2.650   4.015   0.467
  900TIP3    H1 2639   2.697   4.007   0.553
  900TIP3    H2 2640   2.595   3.935   0.468
  901TIP3   OH2 2641   3.425   4.028  -0.231
  901TIP3    H1 2642   3.517   4.000  -0.243
  901TIP3    H2 2643   3.431   4.060  -0.139
  902TIP3   OH2 2644   3.463   4.115   0.021
  902TIP3    H1 2645   3.372   4.129   0.057
  902TIP3    H2 2646   3.510   4.086   0.101
  903TIP3   OH2 2647   4.236   3.382   1.272
  903TIP3    H1 2648   4.152   3.396   1.225
  903TIP3    H2 2649   4.250   3.286   1.261
  904TIP3   OH2 2650   2.832   3.790   1.293
  904TIP3    H1 2651   2.880   3.775   1.377
  904TIP3    H2 2652   2.756   3.728   1.302
  905TIP3   OH2 2653   3.230   2.617   1.079
  905TIP3    H1 2654   3.142   2.583   1.054
  905TIP3    H2 2655   3.202   2.694   1.132
  906TIP3   OH2 2656   3.765   2.728   1.275
  906TIP3    H1 2657   3.833   2.701   1.340
  906TIP3    H2 2658   3.681   2.709   1.323
  907TIP3   OH2 2659   4.003   3.160   1.194
  907TIP3    H1 2660   3.952   3.156   1.278
  907TIP3    H2 2661   3.978   3.247   1.158
  908TIP3   OH2 2662   3.676   3.302  -0.251
  908TIP3    H1 2663   3.655   3.270  -0.340
  908TIP3    H2 2664   3.703   3.393  -0.268
  909TIP3   OH2 2665   3.392   2.683   0.056
  909TIP3    H1 2666   3.352   2.673   0.145
  909TIP3    H2 2667   3.355   2.607   0.010
  910TIP3   OH2 2668   3.162   3.131   1.099
  910TIP3    H1 2669   3.113   3.153   1.181
  910TIP3    H2 2670   3.147   3.213   1.045
  911TIP3   OH2 2671   3.535   3.099   0.342
  911TIP3    H1 2672   3.485   3.172   0.298
  911TIP3    H2 2673   3.591   3.067   0.268
  912TIP3   OH2 2674   3.711   3.377   1.424
  912TIP3    H1 2675   3.689   3.306   1.487
  912TIP3    H2 2676   3.804   3.394   1.448
  913TIP3   OH2 2677   3.691   3.128   0.579
  913TIP3    H1 2678   3.630   3.158   0.509
  913TIP3    H2 2679   3.726   3.048   0.535
  914TIP3   OH2 2680   2.982   3.158   1.308
  914TIP3    H1 2681   3.007   3.224   1.374
  914TIP3    H2 2682   2.974   3.077   1.363
  915TIP3   OH2 2683   3.038   2.617   0.025
  915TIP3    H1 2684   3.037   2.627   0.122
  915TIP3    H2 2685   2.953   2.656   0.002
  916TIP3   OH2 2686   2.646   2.732   0.829
  916TIP3    H1 2687   2.668   2.720   0.924
  916TIP3    H2 2688   2.606   2.646   0.807
  917TIP3   OH2 2689   2.613   2.736   0.449
  917TIP3    H1 2690   2.638   2.728   0.355
  917TIP3    H2 2691   2.523   2.776   0.438
  918TIP3   OH2 2692   3.702   3.375   1.000
  918TIP3    H1 2693   3.736   3.303   0.942
  918TIP3    H2 2694   3.672   3.321   1.077
  919TIP3   OH2 2695   3.376   2.847   0.680
  919TIP3    H1 2696   3.304   2.830   0.744
  919TIP3    H2 2697   3.455   2.833   0.735
  920TIP3   OH2 2698   3.072   2.885   0.388
  920TIP3    H1 2699   3.166   2.908   0.371
  920TIP3    H2 2700   3.027   2.913   0.305
  921TIP3   OH2 2701   3.868   2.914   0.874
  921TIP3    H1 2702   3.837   2.927   0.966
  921TIP3    H2 2703   3.801   2.853   0.840
  922TIP3   OH2 2704   2.921   2.921   0.163
  922TIP3    H1 2705   2.827   2.899   0.147
  922TIP3    H2 2706   2.952   2.956   0.078
  923TIP3   OH2 2707   4.038   4.601   1.096
  923TIP3    H1 2708   4.033   4.629   1.002
  923TIP3    H2 2709   4.114   4.654   1.127
  924TIP3   OH2 2710   2.994   3.710   1.516
  924TIP3    H1 2711   3.073   3.742   1.564
  924TIP3    H2 2712   2.928   3.712   1.588
  925TIP3   OH2 2713   3.457   3.171   0.771
  925TIP3    H1 2714   3.530   3.130   0.723
  925TIP3    H2 2715   3.462   3.126   0.858
  926TIP3   OH2 2716   2.944   2.665   0.643
  926TIP3    H1 2717   2.922   2.582   0.692
  926TIP3    H2 2718   2.999   2.628   0.572
  927TIP3   OH2 2719   3.433   3.067   1.059
  927TIP3    H1 2720   3.343   3.102   1.076
  927TIP3    H2 2721   3.490   3.127   1.111
  928TIP3   OH2 2722   3.173   3.452   0.157
  928TIP3    H1 2723   3.098   3.390   0.145
  928TIP3    H2 2724   3.152   3.489   0.247
  929TIP3   OH2 2725   4.070   3.688   0.783
  929TIP3    H1 2726   4.093   3.741   0.704
  929TIP3    H2 2727   3.984   3.648   0.758
  930TIP3   OH2 2728   3.649   2.764   0.013
  930TIP3    H1 2729   3.555   2.738   0.015
  930TIP3    H2 2730   3.647   2.858   0.036
  931TIP3   OH2 2731   3.565   3.770   1.155
  931TIP3    H1 2732   3.596   3.757   1.245
  931TIP3    H2 2733   3.530   3.861   1.158
  932TIP3   OH2 2734   3.694   3.015   0.125
  932TIP3    H1 2735   3.791   3.019   0.139
  932TIP3    H2 2736   3.677   3.094   0.071
  933TIP3   OH2 2737   2.861   3.475   0.833
  933TIP3    H1 2738   2.901   3.446   0.749
  933TIP3    H2 2739   2.902   3.416   0.898
  934TIP3   OH2 2740   3.313   3.604  -0.026
  934TIP3    H1 2741   3.267   3.691  -0.018
  934TIP3    H2 2742   3.260   3.550   0.037
  935TIP3   OH2 2743   2.746   3.393   1.443
  935TIP3    H1 2744   2.761   3.380   1.539
  935TIP3    H2 2745   2.671   3.332   1.427
  936TIP3   OH2 2746   3.470   3.511   1.465
  936TIP3    H1 2747   3.409   3.451   1.418
  936TIP3    H2 2748   3.557   3.477   1.436
  937TIP3   OH2 2749   3.728   4.024   1.053
  937TIP3    H1 2750   3.632   4.030   1.064
  937TIP3    H2 2751   3.758   4.080   1.129
  938TIP3   OH2 2752   4.138   3.104  -0.048
  938TIP3    H1 2753   4.074   3.062  -0.110
  938TIP3    H2 2754   4.130   3.196  -0.082
  939TIP3   OH2 2755   4.358   3.960   1.040
  939TIP3    H1 2756   4.260   3.957   1.031
  939TIP3    H2 2757   4.383   3.932   0.949
  940TIP3   OH2 2758   3.867   3.913  -0.146
  940TIP3    H1 2759   3.828   3.868  -0.069
  940TIP3    H2 2760   3.811   3.882  -0.219
  941TIP3   OH2 2761   3.836   3.553   0.701
  941TIP3    H1 2762   3.742   3.530   0.715
  941TIP3    H2 2763   3.867   3.472   0.656
  942TIP3   OH2 2764   2.964   3.780   0.454
  942TIP3    H1 2765   2.962   3.863   0.402
  942TIP3    H2 2766   2.870   3.766   0.470
  943TIP3   OH2 2767   2.536   3.083   0.180
  943TIP3    H1 2768   2.571   3.174   0.190
  943TIP3    H2 2769   2.447   3.092   0.220
  944TIP3   OH2 2770   3.098   3.545   0.399
  944TIP3    H1 2771   3.065   3.635   0.415
  944TIP3    H2 2772   3.060   3.498   0.476
  945TIP3   OH2 2773   3.233   4.123   0.924
  945TIP3    H1 2774   3.273   4.197   0.874
  945TIP3    H2 2775   3.310   4.090   0.973
  946TIP3   OH2 2776   2.883   4.018   0.310
  946TIP3    H1 2777   2.797   4.029   0.355
  946TIP3    H2 2778   2.916   4.111   0.313
  947TIP3   OH2 2779   3.617   3.756   0.887
  947TIP3    H1 2780   3.606   3.756   0.985
  947TIP3    H2 2781   3.701   3.710   0.877
  948TIP3   OH2 2782   3.581   3.611  -0.233
  948TIP3    H1 2783   3.640   3.607  -0.154
  948TIP3    H2 2784   3.495   3.625  -0.191
  949TIP3   OH2 2785   3.869   4.288   0.931
  949TIP3    H1 2786   3.787   4.237   0.923
  949TIP3    H2 2787   3.856   4.356   0.861
  950TIP3   OH2 2788   2.957   2.899   1.455
  950TIP3    H1 2789   2.861   2.891   1.469
  950TIP3    H2 2790   2.991   2.841   1.525
  951TIP3   OH2 2791   3.753   3.577  -0.020
  951TIP3    H1 2792   3.745   3.515   0.055
  951TIP3    H2 2793   3.851   3.582  -0.028
  952TIP3   OH2 2794   2.671   3.985   1.083
  952TIP3    H1 2795   2.725   3.914   1.122
  952TIP3    H2 2796   2.696   4.061   1.139
  953TIP3   OH2 2797   2.976   3.637  -0.224
  953TIP3    H1 2798   2.948   3.557  -0.270
  953TIP3    H2 2799   2.940   3.625  -0.134
  954TIP3   OH2 2800   2.904   3.639   0.044
  954TIP3    H1 2801   2.976   3.617   0.105
  954TIP3    H2 2802   2.908   3.737   0.045
  955TIP3   OH2 2803   2.645   3.337   0.246
  955TIP3    H1 2804   2.578   3.381   0.302
  955TIP3    H2 2805   2.654   3.405   0.176
  956TIP3   OH2 2806   3.796   2.962   1.132
  956TIP3    H1 2807   3.871   3.004   1.176
  956TIP3    H2 2808   3.780   2.883   1.189
  957TIP3   OH2 2809   3.667   2.719   0.299
  957TIP3    H1 2810   3.659   2.738   0.204
  957TIP3    H2 2811   3.708   2.801   0.333
  958TIP3   OH2 2812   3.176   3.833  -0.007
  958TIP3    H1 2813   3.089   3.863   0.026
  958TIP3    H2 2814   3.185   3.889  -0.085
  959TIP3   OH2 2815   3.354   2.899   0.407
  959TIP3    H1 2816   3.420   2.969   0.386
  959TIP3    H2 2817   3.365   2.891   0.504
  960TIP3   OH2 2818   3.631   3.214   1.209
  960TIP3    H1 2819   3.651   3.270   1.287
  960TIP3    H2 2820   3.684   3.135   1.226
  961TIP3   OH2 2821   3.506   2.621   0.502
  961TIP3    H1 2822   3.513   2.694   0.566
  961TIP3    H2 2823   3.564   2.655   0.430
  962TIP3   OH2 2824   2.919   3.909   0.059
  962TIP3    H1 2825   2.890   3.979  -0.004
  962TIP3    H2 2826   2.902   3.952   0.145
  963TIP3   OH2 2827   3.027   2.631   0.304
  963TIP3    H1 2828   3.029   2.723   0.338
  963TIP3    H2 2829   3.122   2.609   0.311
  964TIP3   OH2 2830   4.269   3.115   1.191
  964TIP3    H1 2831   4.171   3.114   1.199
  964TIP3    H2 2832   4.278   3.072   1.104
  965TIP3   OH2 2833   3.921   3.308   0.577
  965TIP3    H1 2834   3.843   3.251   0.592
  965TIP3    H2 2835   3.991   3.261   0.627
  966TIP3   OH2 2836   2.633   3.541   0.054
  966TIP3    H1 2837   2.702   3.609   0.063
  966TIP3    H2 2838   2.677   3.483  -0.011
  967TIP3   OH2 2839   2.628   2.830   0.164
  967TIP3    H1 2840   2.594   2.922   0.169
  967TIP3    H2 2841   2.551   2.784   0.126
  968TIP3   OH2 2842   3.892   4.261   0.527
  968TIP3    H1 2843   3.846   4.310   0.455
  968TIP3    H2 2844   3.985   4.283   0.506
  969TIP3   OH2 2845   2.968   2.533   1.056
  969TIP3    H1 2846   2.933   2.499   0.971
  969TIP3    H2 2847   2.956   2.455   1.114
  970TIP3   OH2 2848   2.503   3.751   0.434
  970TIP3    H1 2849   2.436   3.781   0.497
  970TIP3    H2 2850   2.470   3.794   0.351
  971TIP3   OH2 2851   2.662   4.298   1.509
  971TIP3    H1 2852   2.749   4.299   1.555
  971TIP3    H2 2853   2.643   4.203   1.507
  972TIP3   OH2 2854   3.139   4.255   1.555
  972TIP3    H1 2855   3.235   4.244   1.559
  972TIP3    H2 2856   3.116   4.196   1.481
  973TIP3   OH2 2857   3.141   3.834  -0.309
  973TIP3    H1 2858   3.065   3.779  -0.281
  973TIP3    H2 2859   3.204   3.763  -0.329
  974TIP3   OH2 2860   3.784   4.164   1.284
  974TIP3    H1 2861   3.775   4.096   1.354
  974TIP3    H2 2862   3.859   4.218   1.315
  975TIP3   OH2 2863   2.792   3.702   1.707
  975TIP3    H1 2864   2.806   3.606   1.714
  975TIP3    H2 2865   2.704   3.706   1.662
  976TIP3   OH2 2866   2.782   3.366  -0.084
  976TIP3    H1 2867   2.847   3.329  -0.023
  976TIP3    H2 2868   2.807   3.330  -0.170
  977TIP3   OH2 2869   3.399   3.788   1.481
  977TIP3    H1 2870   3.358   3.808   1.395
  977TIP3    H2 2871   3.429   3.696   1.470
  978TIP3   OH2 2872   3.273   3.546  -0.294
  978TIP3    H1 2873   3.277   3.576  -0.201
  978TIP3    H2 2874   3.271   3.451  -0.282
  979TIP3   OH2 2875   3.891   3.796   1.087
  979TIP3    H1 2876   3.967   3.841   1.044
  979TIP3    H2 2877   3.822   3.865   1.074
  980TIP3   OH2 2878   2.913   3.434   1.691
  980TIP3    H1 2879   2.992   3.384   1.668
  980TIP3    H2 2880   2.938   3.470   1.779
  981TIP3   OH2 2881   2.978   3.254   0.120
  981TIP3    H1 2882   2.947   3.218   0.204
  981TIP3    H2 2883   3.014   3.176   0.074
  982TIP3   OH2 2884   3.246   3.319   1.349
  982TIP3    H1 2885   3.168   3.379   1.350
  982TIP3    H2 2886   3.297   3.354   1.272
  983TIP3   OH2 2887   3.075   3.044  -0.040
  983TIP3    H1 2888   3.073   3.011  -0.131
  983TIP3    H2 2889   3.172   3.059  -0.030
  984TIP3   OH2 2890   3.761   3.721   1.485
  984TIP3    H1 2891   3.842   3.696   1.439
  984TIP3    H2 2892   3.758   3.656   1.557
  985TIP3   OH2 2893   3.370   3.110   1.475
  985TIP3    H1 2894   3.370   3.030   1.419
  985TIP3    H2 2895   3.325   3.176   1.418
  986TIP3   OH2 2896   3.373   2.896   1.284
  986TIP3    H1 2897   3.400   2.937   1.200
  986TIP3    H2 2898   3.280   2.872   1.266
  987TIP3   OH2 2899   3.397   3.428   1.155
  987TIP3    H1 2900   3.483   3.446   1.114
  987TIP3    H2 2901   3.340   3.495   1.112
  988TIP3   OH2 2902   3.978   3.396   1.537
  988TIP3    H1 2903   4.029   3.315   1.550
  988TIP3    H2 2904   4.046   3.457   1.503
  989TIP3   OH2 2905   4.021   3.649   1.271
  989TIP3    H1 2906   3.962   3.704   1.214
  989TIP3    H2 2907   4.108   3.672   1.232
  990TIP3   OH2 2908   3.248   3.217   1.709
  990TIP3    H1 2909   3.179   3.150   1.724
  990TIP3    H2 2910   3.282   3.191   1.621
  991TIP3   OH2 2911   3.504   2.657   1.352
  991TIP3    H1 2912   3.454   2.739   1.330
  991TIP3    H2 2913   3.435   2.589   1.342
  992TIP3   OH2 2914   3.631   3.160   1.568
  992TIP3    H1 2915   3.618   3.148   1.664
  992TIP3    H2 2916   3.541   3.137   1.537
  993TIP3   OH2 2917   3.868   3.108   1.421
  993TIP3    H1 2918   3.793   3.112   1.484
  993TIP3    H2 2919   3.942   3.080   1.479
  994TIP3   OH2 2920   4.100   3.054   1.572
  994TIP3    H1 2921   4.111   2.958   1.590
  994TIP3    H2 2922   4.093   3.091   1.662
  995TIP3   OH2 2923   3.085   2.999   1.762
  995TIP3    H1 2924   3.090   2.906   1.731
  995TIP3    H2 2925   3.121   2.990   1.852
  996TIP3   OH2 2926   3.599   2.669   1.610
  996TIP3    H1 2927   3.664   2.596   1.604
  996TIP3    H2 2928   3.558   2.662   1.521
  997TIP3   OH2 2929   3.665   2.883   1.768
  997TIP3    H1 2930   3.643   2.812   1.705
  997TIP3    H2 2931   3.586   2.941   1.763
  998TIP3   OH2 2932   2.875   4.106  -0.127
  998TIP3    H1 2933   2.967   4.111  -0.159
  998TIP3    H2 2934   2.826   4.147  -0.199
  999TIP3   OH2 2935   2.363   3.496   0.103
  999TIP3    H1 2936   2.453   3.526   0.076
  999TIP3    H2 2937   2.354   3.416   0.051
 1000TIP3   OH2 2938   2.280   4.105   0.499
 1000TIP3    H1 2939   2.214   4.043   0.462
 1000TIP3    H2 2940   2.325   4.046   0.564
 1001TIP3   OH2 2941   2.416   3.954   0.685
 1001TIP3    H1 2942   2.402   3.883   0.750
 1001TIP3    H2 2943   2.468   4.016   0.739
 1002TIP3   OH2 2944   4.147   4.349   0.486
 1002TIP3    H1 2945   4.165   4.387   0.574
 1002TIP3    H2 2946   4.196   4.409   0.428
 1003TIP3   OH2 2947   4.169   4.376   0.766
 1003TIP3    H1 2948   4.128   4.287   0.765
 1003TIP3    H2 2949   4.245   4.359   0.823
 1004TIP3   OH2 2950   4.220   4.052   1.342
 1004TIP3    H1 2951   4.146   4.062   1.406
 1004TIP3    H2 2952   4.260   4.141   1.344
 1005TIP3   OH2 2953   4.033   3.560  -0.034
 1005TIP3    H1 2954   4.101   3.627  -0.057
 1005TIP3    H2 2955   4.075   3.519   0.045
 1006TIP3   OH2 2956   4.165   3.427   0.165
 1006TIP3    H1 2957   4.097   3.389   0.225
 1006TIP3    H2 2958   4.227   3.469   0.228
 1007TIP3   OH2 2959   4.220   3.828   0.597
 1007TIP3    H1 2960   4.270   3.764   0.544
 1007TIP3    H2 2961   4.211   3.904   0.536
 1008TIP3   OH2 2962   4.046   4.124   0.791
 1008TIP3    H1 2963   3.976   4.171   0.841
 1008TIP3    H2 2964   3.995   4.081   0.720
 1009TIP3   OH2 2965   4.092   3.346  -0.195
 1009TIP3    H1 2966   4.015   3.336  -0.253
 1009TIP3    H2 2967   4.064   3.422  -0.140
 1010TIP3   OH2 2968   3.978   3.020  -0.250
 1010TIP3    H1 2969   3.965   3.044  -0.344
 1010TIP3    H2 2970   3.942   2.928  -0.248
 1011TIP3   OH2 2971   3.977   3.290   0.310
 1011TIP3    H1 2972   3.980   3.193   0.304
 1011TIP3    H2 2973   3.961   3.304   0.406
 1012TIP3   OH2 2974   2.603   3.357   1.061
 1012TIP3    H1 2975   2.599   3.329   0.967
 1012TIP3    H2 2976   2.701   3.361   1.074
 1013TIP3   OH2 2977   4.266   3.716   1.167
 1013TIP3    H1 2978   4.338   3.650   1.156
 1013TIP3    H2 2979   4.291   3.787   1.106
 1014TIP3   OH2 2980   4.450   3.518   1.175
 1014TIP3    H1 2981   4.375   3.470   1.218
 1014TIP3    H2 2982   4.523   3.454   1.193
 1015TIP3   OH2 2983   3.912   2.755  -0.229
 1015TIP3    H1 2984   3.995   2.718  -0.195
 1015TIP3    H2 2985   3.845   2.710  -0.177
 1016TIP3   OH2 2986   3.972   3.006   0.205
 1016TIP3    H1 2987   4.012   2.917   0.220
 1016TIP3    H2 2988   4.029   3.038   0.132
 1017TIP3   OH2 2989   4.133   3.177   0.700
 1017TIP3    H1 2990   4.219   3.204   0.660
 1017TIP3    H2 2991   4.145   3.216   0.789
 1018TIP3   OH2 2992   4.202   3.324   0.930
 1018TIP3    H1 2993   4.126   3.358   0.980
 1018TIP3    H2 2994   4.235   3.406   0.886
 1019TIP3   OH2 2995   2.820   3.050   1.718
 1019TIP3    H1 2996   2.918   3.046   1.724
 1019TIP3    H2 2997   2.797   2.969   1.767
 1020TIP3   OH2 2998   4.658   2.919   1.487
 1020TIP3    H1 2999   4.716   2.852   1.444
 1020TIP3    H2 3000   4.625   2.970   1.410
 1021TIP3   OH2 3001   4.084   2.756   0.240
 1021TIP3    H1 3002   4.128   2.740   0.326
 1021TIP3    H2 3003   4.021   2.681   0.239
 1022TIP3   OH2 3004   2.783   2.742   1.063
 1022TIP3    H1 3005   2.839   2.663   1.073
 1022TIP3    H2 3006   2.850   2.813   1.066
 1023TIP3   OH2 3007   2.588   3.023   1.142
 1023TIP3    H1 3008   2.635   3.026   1.057
 1023TIP3    H2 3009   2.602   3.113   1.175
 1024TIP3   OH2 3010   4.524   3.053   1.293
 1024TIP3    H1 3011   4.440   3.097   1.317
 1024TIP3    H2 3012   4.490   2.983   1.234
 1025TIP3   OH2 3013   4.172   2.686  -0.140
 1025TIP3    H1 3014   4.211   2.641  -0.216
 1025TIP3    H2 3015   4.225   2.768  -0.137
 1026TIP3   OH2 3016   2.559   2.542   0.648
 1026TIP3    H1 3017   2.468   2.528   0.679
 1026TIP3    H2 3018   2.547   2.599   0.569
 1027TIP3   OH2 3019   3.740   4.218   0.147
 1027TIP3    H1 3020   3.778   4.213   0.057
 1027TIP3    H2 3021   3.777   4.301   0.181
 1028TIP3   OH2 3022   2.794   2.599   1.462
 1028TIP3    H1 3023   2.738   2.540   1.512
 1028TIP3    H2 3024   2.728   2.643   1.404
 1029TIP3   OH2 3025   2.828   4.025   1.525
 1029TIP3    H1 3026   2.734   4.002   1.510
 1029TIP3    H2 3027   2.837   4.012   1.620
 1030TIP3   OH2 3028   3.007   4.061   1.073
 1030TIP3    H1 3029   2.958   4.136   1.035
 1030TIP3    H2 3030   3.093   4.076   1.029
 1031TIP3   OH2 3031   3.449   4.302   1.210
 1031TIP3    H1 3032   3.490   4.305   1.299
 1031TIP3    H2 3033   3.514   4.355   1.159
 1032TIP3   OH2 3034   3.629   4.456   1.073
 1032TIP3    H1 3035   3.702   4.409   1.031
 1032TIP3    H2 3036   3.678   4.515   1.134
 1033TIP3   OH2 3037   4.425   2.817   1.170
 1033TIP3    H1 3038   4.333   2.809   1.137
 1033TIP3    H2 3039   4.456   2.724   1.160
 1034TIP3   OH2 3040   2.681   4.315   1.101
 1034TIP3    H1 3041   2.591   4.347   1.077
 1034TIP3    H2 3042   2.695   4.364   1.183
 1035TIP3   OH2 3043   2.917   4.294   0.957
 1035TIP3    H1 3044   2.830   4.307   1.001
 1035TIP3    H2 3045   2.899   4.328   0.867
 1036TIP3   OH2 3046   3.344   4.322   0.754
 1036TIP3    H1 3047   3.274   4.343   0.689
 1036TIP3    H2 3048   3.357   4.409   0.797
 1037TIP3   OH2 3049   3.613   4.260   0.804
 1037TIP3    H1 3050   3.519   4.280   0.787
 1037TIP3    H2 3051   3.657   4.337   0.765
 1038TIP3   OH2 3052   3.817   4.452   0.719
 1038TIP3    H1 3053   3.804   4.539   0.675
 1038TIP3    H2 3054   3.844   4.396   0.644
 1039TIP3   OH2 3055   2.593   4.111   0.842
 1039TIP3    H1 3056   2.619   4.084   0.933
 1039TIP3    H2 3057   2.665   4.067   0.791
 1040TIP3   OH2 3058   2.788   3.982   0.701
 1040TIP3    H1 3059   2.803   3.899   0.751
 1040TIP3    H2 3060   2.878   4.020   0.697
 1041TIP3   OH2 3061   3.053   4.075   0.706
 1041TIP3    H1 3062   3.086   3.984   0.696
 1041TIP3    H2 3063   3.099   4.100   0.788
 1042TIP3   OH2 3064   3.619   2.729   0.780
 1042TIP3    H1 3065   3.582   2.661   0.839
 1042TIP3    H2 3066   3.699   2.685   0.745
 1043TIP3   OH2 3067   4.150   2.614   0.695
 1043TIP3    H1 3068   4.185   2.667   0.620
 1043TIP3    H2 3069   4.055   2.632   0.689
 1044TIP3   OH2 3070   4.248   2.715   0.459
 1044TIP3    H1 3071   4.322   2.664   0.420
 1044TIP3    H2 3072   4.279   2.807   0.444
 1045TIP3   OH2 3073   2.875   2.452   0.808
 1045TIP3    H1 3074   2.786   2.410   0.803
 1045TIP3    H2 3075   2.931   2.372   0.800
 1046TIP3   OH2 3076   2.783   2.395   0.527
 1046TIP3    H1 3077   2.733   2.356   0.454
 1046TIP3    H2 3078   2.712   2.417   0.589
 1047TIP3   OH2 3079   3.322   2.479   0.688
 1047TIP3    H1 3080   3.381   2.525   0.626
 1047TIP3    H2 3081   3.355   2.508   0.774
 1048TIP3   OH2 3082   3.865   2.622   0.671
 1048TIP3    H1 3083   3.866   2.581   0.583
 1048TIP3    H2 3084   3.854   2.542   0.728
 1049TIP3   OH2 3085   3.902   2.543   0.235
 1049TIP3    H1 3086   3.812   2.580   0.237
 1049TIP3    H2 3087   3.887   2.458   0.281
 1050TIP3   OH2 3088   2.381   3.885   0.236
 1050TIP3    H1 3089   2.301   3.845   0.197
 1050TIP3    H2 3090   2.364   3.978   0.217
 1051TIP3   OH2 3091   2.781   2.511   0.251
 1051TIP3    H1 3092   2.829   2.430   0.227
 1051TIP3    H2 3093   2.854   2.564   0.288
 1052TIP3   OH2 3094   3.301   2.646   0.315
 1052TIP3    H1 3095   3.360   2.602   0.378
 1052TIP3    H2 3096   3.318   2.740   0.341
 1053TIP3   OH2 3097   3.146   4.079  -0.191
 1053TIP3    H1 3098   3.240   4.092  -0.214
 1053TIP3    H2 3099   3.129   3.999  -0.246
 1054TIP3   OH2 3100   3.872   4.185  -0.097
 1054TIP3    H1 3101   3.865   4.090  -0.119
 1054TIP3    H2 3102   3.859   4.227  -0.184
 1055TIP3   OH2 3103   3.085   2.723   1.699
 1055TIP3    H1 3104   3.049   2.651   1.753
 1055TIP3    H2 3105   3.179   2.722   1.727
 1056TIP3   OH2 3106   3.335   2.720   1.816
 1056TIP3    H1 3107   3.420   2.692   1.779
 1056TIP3    H2 3108   3.320   2.651   1.884
 1057TIP3   OH2 3109   2.452   3.909  -0.102
 1057TIP3    H1 3110   2.446   3.958  -0.020
 1057TIP3    H2 3111   2.544   3.885  -0.108
 1058TIP3   OH2 3112   4.161   2.782   1.604
 1058TIP3    H1 3113   4.178   2.751   1.696
 1058TIP3    H2 3114   4.250   2.776   1.564
 1059TIP3   OH2 3115   4.098   4.333   1.095
 1059TIP3    H1 3116   4.019   4.303   1.046
 1059TIP3    H2 3117   4.080   4.429   1.100
 1060TIP3   OH2 3118   5.358   3.700   0.244
 1060TIP3    H1 3119   5.397   3.689   0.334
 1060TIP3    H2 3120   5.313   3.615   0.233
 1061TIP3   OH2 3121   4.667   3.600   0.605
 1061TIP3    H1 3122   4.693   3.531   0.669
 1061TIP3    H2 3123   4.735   3.667   0.622
 1062TIP3   OH2 3124   4.635   4.006   0.332
 1062TIP3    H1 3125   4.625   3.909   0.339
 1062TIP3    H2 3126   4.732   4.015   0.330
 1063TIP3   OH2 3127   4.346   3.218   0.109
 1063TIP3    H1 3128   4.296   3.298   0.134
 1063TIP3    H2 3129   4.273   3.161   0.080
 1064TIP3   OH2 3130   4.400   3.502   0.291
 1064TIP3    H1 3131   4.449   3.425   0.328
 1064TIP3    H2 3132   4.471   3.551   0.246
 1065TIP3   OH2 3133   5.169   3.928   0.283
 1065TIP3    H1 3134   5.215   3.850   0.249
 1065TIP3    H2 3135   5.247   3.977   0.316
 1066TIP3   OH2 3136   6.177   3.255   0.288
 1066TIP3    H1 3137   6.199   3.329   0.348
 1066TIP3    H2 3138   6.257   3.252   0.233
 1067TIP3   OH2 3139   5.582   3.433   0.351
 1067TIP3    H1 3140   5.622   3.347   0.371
 1067TIP3    H2 3141   5.543   3.415   0.263
 1068TIP3   OH2 3142   4.917   3.087   0.292
 1068TIP3    H1 3143   4.886   3.166   0.245
 1068TIP3    H2 3144   4.865   3.017   0.247
 1069TIP3   OH2 3145   5.591   3.167  -0.039
 1069TIP3    H1 3146   5.673   3.157   0.016
 1069TIP3    H2 3147   5.633   3.176  -0.127
 1070TIP3   OH2 3148   4.547   3.296   0.395
 1070TIP3    H1 3149   4.629   3.276   0.445
 1070TIP3    H2 3150   4.556   3.232   0.321
 1071TIP3   OH2 3151   4.995   3.497   0.186
 1071TIP3    H1 3152   5.088   3.471   0.205
 1071TIP3    H2 3153   4.952   3.411   0.173
 1072TIP3   OH2 3154   6.244   3.456   0.463
 1072TIP3    H1 3155   6.160   3.506   0.449
 1072TIP3    H2 3156   6.273   3.493   0.548
 1073TIP3   OH2 3157   4.910   3.076   0.723
 1073TIP3    H1 3158   4.848   3.115   0.659
 1073TIP3    H2 3159   4.859   3.091   0.806
 1074TIP3   OH2 3160   5.015   3.853   0.517
 1074TIP3    H1 3161   4.953   3.918   0.556
 1074TIP3    H2 3162   5.055   3.906   0.445
 1075TIP3   OH2 3163   5.829   3.187   0.092
 1075TIP3    H1 3164   5.832   3.128   0.169
 1075TIP3    H2 3165   5.870   3.268   0.127
 1076TIP3   OH2 3166   4.781   3.192   0.507
 1076TIP3    H1 3167   4.841   3.266   0.533
 1076TIP3    H2 3168   4.837   3.147   0.440
 1077TIP3   OH2 3169   4.844   4.046   0.615
 1077TIP3    H1 3170   4.821   4.134   0.577
 1077TIP3    H2 3171   4.765   4.032   0.671
 1078TIP3   OH2 3172   4.230   3.735  -0.125
 1078TIP3    H1 3173   4.169   3.761  -0.195
 1078TIP3    H2 3174   4.237   3.817  -0.071
 1079TIP3   OH2 3175   5.969   3.152   0.457
 1079TIP3    H1 3176   5.881   3.182   0.430
 1079TIP3    H2 3177   6.025   3.182   0.384
 1080TIP3   OH2 3178   5.261   2.792   0.436
 1080TIP3    H1 3179   5.251   2.698   0.460
 1080TIP3    H2 3180   5.186   2.831   0.485
 1081TIP3   OH2 3181   5.901   4.171   0.448
 1081TIP3    H1 3182   5.899   4.095   0.386
 1081TIP3    H2 3183   5.879   4.246   0.389
 1082TIP3   OH2 3184   6.095   3.795   0.320
 1082TIP3    H1 3185   6.024   3.861   0.303
 1082TIP3    H2 3186   6.132   3.781   0.230
 1083TIP3   OH2 3187   5.775   3.678   0.581
 1083TIP3    H1 3188   5.778   3.760   0.634
 1083TIP3    H2 3189   5.690   3.691   0.535
 1084TIP3   OH2 3190   4.771   3.618   0.092
 1084TIP3    H1 3191   4.735   3.549   0.034
 1084TIP3    H2 3192   4.854   3.577   0.126
 1085TIP3   OH2 3193   4.901   4.022   0.254
 1085TIP3    H1 3194   4.878   4.009   0.161
 1085TIP3    H2 3195   4.996   4.001   0.258
 1086TIP3   OH2 3196   4.917   3.610   0.433
 1086TIP3    H1 3197   4.955   3.596   0.345
 1086TIP3    H2 3198   4.955   3.698   0.459
 1087TIP3   OH2 3199   5.440   4.226   0.207
 1087TIP3    H1 3200   5.429   4.310   0.255
 1087TIP3    H2 3201   5.419   4.160   0.275
 1088TIP3   OH2 3202   5.050   4.163   0.762
 1088TIP3    H1 3203   4.990   4.226   0.808
 1088TIP3    H2 3204   4.984   4.112   0.711
 1089TIP3   OH2 3205   4.803   3.720   0.860
 1089TIP3    H1 3206   4.810   3.808   0.902
 1089TIP3    H2 3207   4.709   3.700   0.879
 1090TIP3   OH2 3208   4.845   4.330   0.848
 1090TIP3    H1 3209   4.808   4.336   0.757
 1090TIP3    H2 3210   4.765   4.309   0.901
 1091TIP3   OH2 3211   4.602   3.464  -0.087
 1091TIP3    H1 3212   4.523   3.517  -0.069
 1091TIP3    H2 3213   4.569   3.375  -0.069
 1092TIP3   OH2 3214   4.422   3.864   0.795
 1092TIP3    H1 3215   4.353   3.845   0.728
 1092TIP3    H2 3216   4.458   3.775   0.816
 1093TIP3   OH2 3217   4.276   4.060   0.426
 1093TIP3    H1 3218   4.373   4.062   0.425
 1093TIP3    H2 3219   4.256   4.139   0.479
 1094TIP3   OH2 3220   6.145   4.503   0.499
 1094TIP3    H1 3221   6.149   4.407   0.517
 1094TIP3    H2 3222   6.064   4.528   0.550
 1095TIP3   OH2 3223   5.247   4.292   0.618
 1095TIP3    H1 3224   5.246   4.385   0.649
 1095TIP3    H2 3225   5.176   4.253   0.673
 1096TIP3   OH2 3226   4.425   4.245  -0.033
 1096TIP3    H1 3227   4.498   4.251   0.033
 1096TIP3    H2 3228   4.350   4.238   0.029
 1097TIP3   OH2 3229   6.029   3.636   0.763
 1097TIP3    H1 3230   5.947   3.650   0.714
 1097TIP3    H2 3231   6.044   3.540   0.750
 1098TIP3   OH2 3232   4.628   4.045   0.779
 1098TIP3    H1 3233   4.675   4.034   0.863
 1098TIP3    H2 3234   4.552   3.984   0.789
 1099TIP3   OH2 3235   5.026   2.873   0.567
 1099TIP3    H1 3236   4.937   2.841   0.541
 1099TIP3    H2 3237   5.000   2.951   0.618
 1100TIP3   OH2 3238   5.561   2.983   0.762
 1100TIP3    H1 3239   5.631   2.957   0.826
 1100TIP3    H2 3240   5.478   2.965   0.811
 1101TIP3   OH2 3241   5.795   3.415   0.678
 1101TIP3    H1 3242   5.747   3.411   0.764
 1101TIP3    H2 3243   5.773   3.504   0.645
 1102TIP3   OH2 3244   4.957   3.388   0.584
 1102TIP3    H1 3245   4.909   3.409   0.667
 1102TIP3    H2 3246   4.942   3.470   0.532
 1103TIP3   OH2 3247   4.830   3.281   0.124
 1103TIP3    H1 3248   4.737   3.261   0.148
 1103TIP3    H2 3249   4.844   3.212   0.056
 1104TIP3   OH2 3250   5.507   3.633   0.909
 1104TIP3    H1 3251   5.486   3.562   0.974
 1104TIP3    H2 3252   5.599   3.653   0.934
 1105TIP3   OH2 3253   5.493   3.388   0.100
 1105TIP3    H1 3254   5.458   3.425   0.017
 1105TIP3    H2 3255   5.531   3.304   0.067
 1106TIP3   OH2 3256   4.778   3.414   0.793
 1106TIP3    H1 3257   4.801   3.481   0.860
 1106TIP3    H2 3258   4.766   3.334   0.848
 1107TIP3   OH2 3259   4.369   2.940   0.370
 1107TIP3    H1 3260   4.446   2.967   0.426
 1107TIP3    H2 3261   4.410   2.898   0.293
 1108TIP3   OH2 3262   4.342   2.923  -0.106
 1108TIP3    H1 3263   4.391   2.956  -0.184
 1108TIP3    H2 3264   4.279   2.996  -0.090
 1109TIP3   OH2 3265   5.485   3.638   0.491
 1109TIP3    H1 3266   5.529   3.567   0.439
 1109TIP3    H2 3267   5.461   3.587   0.571
 1110TIP3   OH2 3268   5.163   3.102   0.155
 1110TIP3    H1 3269   5.086   3.093   0.214
 1110TIP3    H2 3270   5.236   3.095   0.218
 1111TIP3   OH2 3271   4.600   3.147   0.166
 1111TIP3    H1 3272   4.506   3.160   0.141
 1111TIP3    H2 3273   4.614   3.053   0.147
 1112TIP3   OH2 3274   4.882   3.159  -0.119
 1112TIP3    H1 3275   4.979   3.157  -0.108
 1112TIP3    H2 3276   4.864   3.254  -0.124
 1113TIP3   OH2 3277   5.664   3.168   0.359
 1113TIP3    H1 3278   5.636   3.178   0.453
 1113TIP3    H2 3279   5.599   3.105   0.326
 1114TIP3   OH2 3280   5.842   4.851   0.594
 1114TIP3    H1 3281   5.827   4.879   0.501
 1114TIP3    H2 3282   5.915   4.911   0.617
 1115TIP3   OH2 3283   4.791   3.966   1.003
 1115TIP3    H1 3284   4.869   3.999   1.050
 1115TIP3    H2 3285   4.725   3.969   1.075
 1116TIP3   OH2 3286   5.251   3.422   0.262
 1116TIP3    H1 3287   5.334   3.391   0.222
 1116TIP3    H2 3288   5.254   3.382   0.351
 1117TIP3   OH2 3289   4.782   2.903   0.136
 1117TIP3    H1 3290   4.733   2.834   0.187
 1117TIP3    H2 3291   4.852   2.849   0.097
 1118TIP3   OH2 3292   5.229   3.327   0.542
 1118TIP3    H1 3293   5.140   3.361   0.563
 1118TIP3    H2 3294   5.287   3.384   0.597
 1119TIP3   OH2 3295   5.866   3.955   0.282
 1119TIP3    H1 3296   5.837   3.999   0.200
 1119TIP3    H2 3297   5.784   3.903   0.299
 1120TIP3   OH2 3298   5.359   4.026   0.643
 1120TIP3    H1 3299   5.394   4.015   0.733
 1120TIP3    H2 3300   5.327   4.118   0.644
 1121TIP3   OH2 3301   4.649   3.722   0.322
 1121TIP3    H1 3302   4.696   3.694   0.241
 1121TIP3    H2 3303   4.696   3.674   0.392
 1122TIP3   OH2 3304   4.542   3.648   0.931
 1122TIP3    H1 3305   4.559   3.638   1.026
 1122TIP3    H2 3306   4.469   3.586   0.917
 1123TIP3   OH2 3307   5.266   3.767   0.952
 1123TIP3    H1 3308   5.206   3.707   0.906
 1123TIP3    H2 3309   5.353   3.734   0.923
 1124TIP3   OH2 3310   5.524   4.277   0.541
 1124TIP3    H1 3311   5.428   4.288   0.549
 1124TIP3    H2 3312   5.555   4.334   0.615
 1125TIP3   OH2 3313   6.153   4.217   0.532
 1125TIP3    H1 3314   6.055   4.220   0.532
 1125TIP3    H2 3315   6.169   4.183   0.441
 1126TIP3   OH2 3316   5.635   3.801   0.235
 1126TIP3    H1 3317   5.539   3.800   0.220
 1126TIP3    H2 3318   5.660   3.716   0.194
 1127TIP3   OH2 3319   4.749   4.018  -0.005
 1127TIP3    H1 3320   4.795   4.102  -0.026
 1127TIP3    H2 3321   4.668   4.052   0.036
 1128TIP3   OH2 3322   4.340   3.314  -0.306
 1128TIP3    H1 3323   4.346   3.398  -0.354
 1128TIP3    H2 3324   4.253   3.324  -0.261
 1129TIP3   OH2 3325   4.868   3.791  -0.097
 1129TIP3    H1 3326   4.827   3.871  -0.060
 1129TIP3    H2 3327   4.850   3.727  -0.026
 1130TIP3   OH2 3328   5.033   4.373   0.412
 1130TIP3    H1 3329   5.069   4.451   0.366
 1130TIP3    H2 3330   5.110   4.345   0.464
 1131TIP3   OH2 3331   5.417   4.002   0.377
 1131TIP3    H1 3332   5.402   4.007   0.474
 1131TIP3    H2 3333   5.507   3.966   0.375
 1132TIP3   OH2 3334   5.659   4.552   0.423
 1132TIP3    H1 3335   5.579   4.497   0.416
 1132TIP3    H2 3336   5.644   4.615   0.351
 1133TIP3   OH2 3337   4.750   3.156   0.938
 1133TIP3    H1 3338   4.653   3.162   0.953
 1133TIP3    H2 3339   4.778   3.100   1.013
 1134TIP3   OH2 3340   4.470   4.240   0.570
 1134TIP3    H1 3341   4.525   4.175   0.617
 1134TIP3    H2 3342   4.488   4.320   0.620
 1135TIP3   OH2 3343   5.595   3.214   0.615
 1135TIP3    H1 3344   5.667   3.262   0.661
 1135TIP3    H2 3345   5.580   3.137   0.676
 1136TIP3   OH2 3346   5.156   3.151  -0.113
 1136TIP3    H1 3347   5.213   3.227  -0.130
 1136TIP3    H2 3348   5.170   3.137  -0.016
 1137TIP3   OH2 3349   5.427   3.470   0.698
 1137TIP3    H1 3350   5.447   3.528   0.775
 1137TIP3    H2 3351   5.483   3.393   0.717
 1138TIP3   OH2 3352   5.317   2.892  -0.002
 1138TIP3    H1 3353   5.317   2.941   0.083
 1138TIP3    H2 3354   5.396   2.931  -0.042
 1139TIP3   OH2 3355   4.808   2.896  -0.229
 1139TIP3    H1 3356   4.810   2.964  -0.160
 1139TIP3    H2 3357   4.901   2.865  -0.222
 1140TIP3   OH2 3358   6.062   3.370   0.682
 1140TIP3    H1 3359   5.964   3.369   0.686
 1140TIP3    H2 3360   6.075   3.328   0.596
 1141TIP3   OH2 3361   5.713   3.568   0.109
 1141TIP3    H1 3362   5.638   3.508   0.123
 1141TIP3    H2 3363   5.787   3.516   0.150
 1142TIP3   OH2 3364   4.429   3.056  -0.351
 1142TIP3    H1 3365   4.403   3.150  -0.335
 1142TIP3    H2 3366   4.346   3.024  -0.390
 1143TIP3   OH2 3367   4.764   2.789   0.540
 1143TIP3    H1 3368   4.731   2.753   0.455
 1143TIP3    H2 3369   4.753   2.712   0.600
 1144TIP3   OH2 3370   4.270   3.990  -0.033
 1144TIP3    H1 3371   4.228   4.039   0.040
 1144TIP3    H2 3372   4.318   4.062  -0.076
 1145TIP3   OH2 3373   4.459   4.554   0.994
 1145TIP3    H1 3374   4.545   4.556   1.042
 1145TIP3    H2 3375   4.439   4.460   0.994
 1146TIP3   OH2 3376   4.936   4.512   1.042
 1146TIP3    H1 3377   5.032   4.500   1.045
 1146TIP3    H2 3378   4.913   4.453   0.968
 1147TIP3   OH2 3379   5.581   4.419   0.770
 1147TIP3    H1 3380   5.572   4.352   0.841
 1147TIP3    H2 3381   5.655   4.473   0.802
 1148TIP3   OH2 3382   4.588   3.958   1.194
 1148TIP3    H1 3383   4.602   3.862   1.200
 1148TIP3    H2 3384   4.500   3.962   1.150
 1149TIP3   OH2 3385   5.196   4.045   0.968
 1149TIP3    H1 3386   5.154   4.066   0.882
 1149TIP3    H2 3387   5.226   3.953   0.956
 1150TIP3   OH2 3388   5.685   4.050   0.569
 1150TIP3    H1 3389   5.763   4.098   0.534
 1150TIP3    H2 3390   5.617   4.121   0.561
 1151TIP3   OH2 3391   4.708   3.691   1.178
 1151TIP3    H1 3392   4.786   3.640   1.155
 1151TIP3    H2 3393   4.733   3.727   1.265
 1152TIP3   OH2 3394   5.043   3.576   0.835
 1152TIP3    H1 3395   4.965   3.635   0.837
 1152TIP3    H2 3396   5.093   3.611   0.758
 1153TIP3   OH2 3397   5.556   3.976   0.971
 1153TIP3    H1 3398   5.641   3.956   0.929
 1153TIP3    H2 3399   5.554   3.913   1.045
 1154TIP3   OH2 3400   5.166   3.366   0.963
 1154TIP3    H1 3401   5.166   3.287   0.905
 1154TIP3    H2 3402   5.122   3.433   0.906
 1155TIP3   OH2 3403   5.168   3.152   0.769
 1155TIP3    H1 3404   5.195   3.194   0.686
 1155TIP3    H2 3405   5.075   3.130   0.752
 1156TIP3   OH2 3406   5.193   3.683   0.639
 1156TIP3    H1 3407   5.280   3.704   0.602
 1156TIP3    H2 3408   5.136   3.752   0.598
 1157TIP3   OH2 3409   5.775   3.653   1.023
 1157TIP3    H1 3410   5.828   3.573   1.038
 1157TIP3    H2 3411   5.842   3.715   0.992
 1158TIP3   OH2 3412   5.817   3.903   0.755
 1158TIP3    H1 3413   5.758   3.959   0.698
 1158TIP3    H2 3414   5.905   3.928   0.718
 1159TIP3   OH2 3415   5.045   3.473   1.196
 1159TIP3    H1 3416   4.976   3.406   1.211
 1159TIP3    H2 3417   5.078   3.448   1.108
 1160TIP3   OH2 3418   5.299   2.914   0.839
 1160TIP3    H1 3419   5.250   2.996   0.817
 1160TIP3    H2 3420   5.230   2.845   0.829
 1161TIP3   OH2 3421   5.428   3.417   1.055
 1161TIP3    H1 3422   5.416   3.406   1.151
 1161TIP3    H2 3423   5.337   3.394   1.025
 1162TIP3   OH2 3424   5.662   3.362   0.906
 1162TIP3    H1 3425   5.589   3.369   0.971
 1162TIP3    H2 3426   5.738   3.336   0.963
 1163TIP3   OH2 3427   5.892   3.309   1.058
 1163TIP3    H1 3428   5.906   3.214   1.076
 1163TIP3    H2 3429   5.888   3.348   1.148
 1164TIP3   OH2 3430   4.882   3.254   1.249
 1164TIP3    H1 3431   4.887   3.162   1.217
 1164TIP3    H2 3432   4.918   3.244   1.339
 1165TIP3   OH2 3433   5.394   2.924   1.097
 1165TIP3    H1 3434   5.461   2.853   1.091
 1165TIP3    H2 3435   5.354   2.918   1.008
 1166TIP3   OH2 3436   5.459   3.138   1.258
 1166TIP3    H1 3437   5.438   3.068   1.193
 1166TIP3    H2 3438   5.381   3.197   1.250
 1167TIP3   OH2 3439   4.071   4.352  -0.014
 1167TIP3    H1 3440   4.001   4.295  -0.052
 1167TIP3    H2 3441   4.111   4.292   0.052
 1168TIP3   OH2 3442   4.226   4.203   0.164
 1168TIP3    H1 3443   4.199   4.144   0.237
 1168TIP3    H2 3444   4.268   4.274   0.218
 1169TIP3   OH2 3445   5.972   4.632   0.312
 1169TIP3    H1 3446   5.935   4.542   0.327
 1169TIP3    H2 3447   6.050   4.628   0.370
 1170TIP3   OH2 3448   6.015   4.308   0.829
 1170TIP3    H1 3449   5.942   4.319   0.893
 1170TIP3    H2 3450   6.057   4.397   0.832
 1171TIP3   OH2 3451   5.832   4.385   0.290
 1171TIP3    H1 3452   5.764   4.432   0.342
 1171TIP3    H2 3453   5.790   4.386   0.203
 1172TIP3   OH2 3454   4.400   3.617   0.546
 1172TIP3    H1 3455   4.396   3.589   0.452
 1172TIP3    H2 3456   4.497   3.620   0.560
 1173TIP3   OH2 3457   6.061   3.972   0.654
 1173TIP3    H1 3458   6.132   3.906   0.643
 1173TIP3    H2 3459   6.090   4.044   0.595
 1174TIP3   OH2 3460   6.241   3.772   0.668
 1174TIP3    H1 3461   6.169   3.722   0.712
 1174TIP3    H2 3462   6.317   3.711   0.683
 1175TIP3   OH2 3463   5.933   3.429   0.191
 1175TIP3    H1 3464   6.012   3.453   0.139
 1175TIP3    H2 3465   5.955   3.469   0.279
 1176TIP3   OH2 3466   5.990   3.570   0.422
 1176TIP3    H1 3467   5.913   3.601   0.473
 1176TIP3    H2 3468   6.027   3.657   0.392
 1177TIP3   OH2 3469   4.615   3.304   1.215
 1177TIP3    H1 3470   4.713   3.300   1.220
 1177TIP3    H2 3471   4.592   3.219   1.257
 1178TIP3   OH2 3472   6.451   3.173   0.975
 1178TIP3    H1 3473   6.511   3.108   0.932
 1178TIP3    H2 3474   6.422   3.226   0.898
 1179TIP3   OH2 3475   4.579   2.997   0.539
 1179TIP3    H1 3476   4.640   2.923   0.556
 1179TIP3    H2 3477   4.640   3.073   0.542
 1180TIP3   OH2 3478   4.380   3.271   0.622
 1180TIP3    H1 3479   4.430   3.274   0.538
 1180TIP3    H2 3480   4.400   3.357   0.660
 1181TIP3   OH2 3481   6.319   3.309   0.780
 1181TIP3    H1 3482   6.235   3.353   0.802
 1181TIP3    H2 3483   6.287   3.238   0.722
 1182TIP3   OH2 3484   4.365   2.778   0.123
 1182TIP3    H1 3485   4.272   2.770   0.152
 1182TIP3    H2 3486   4.356   2.837   0.045
 1183TIP3   OH2 3487   4.584   2.855   0.936
 1183TIP3    H1 3488   4.534   2.850   1.019
 1183TIP3    H2 3489   4.517   2.894   0.876
 1184TIP3   OH2 3490   4.625   4.278   1.012
 1184TIP3    H1 3491   4.530   4.259   0.998
 1184TIP3    H2 3492   4.632   4.271   1.108
 1185TIP3   OH2 3493   4.804   4.317   0.560
 1185TIP3    H1 3494   4.754   4.393   0.521
 1185TIP3    H2 3495   4.890   4.333   0.516
 1186TIP3   OH2 3496   5.243   4.557   0.699
 1186TIP3    H1 3497   5.284   4.559   0.788
 1186TIP3    H2 3498   5.304   4.615   0.649
 1187TIP3   OH2 3499   5.415   4.724   0.568
 1187TIP3    H1 3500   5.480   4.669   0.522
 1187TIP3    H2 3501   5.474   4.777   0.626
 1188TIP3   OH2 3502   6.219   3.070   0.660
 1188TIP3    H1 3503   6.128   3.060   0.627
 1188TIP3    H2 3504   6.253   2.978   0.650
 1189TIP3   OH2 3505   4.476   4.566   0.591
 1189TIP3    H1 3506   4.387   4.600   0.564
 1189TIP3    H2 3507   4.490   4.621   0.670
 1190TIP3   OH2 3508   4.711   4.551   0.446
 1190TIP3    H1 3509   4.625   4.565   0.492
 1190TIP3    H2 3510   4.691   4.591   0.359
 1191TIP3   OH2 3511   5.137   4.575   0.256
 1191TIP3    H1 3512   5.056   4.589   0.202
 1191TIP3    H2 3513   5.153   4.665   0.290
 1192TIP3   OH2 3514   5.396   4.522   0.329
 1192TIP3    H1 3515   5.301   4.528   0.308
 1192TIP3    H2 3516   5.431   4.594   0.275
 1193TIP3   OH2 3517   4.390   4.361   0.326
 1193TIP3    H1 3518   4.412   4.337   0.419
 1193TIP3    H2 3519   4.466   4.321   0.280
 1194TIP3   OH2 3520   4.588   4.230   0.186
 1194TIP3    H1 3521   4.600   4.153   0.247
 1194TIP3    H2 3522   4.673   4.278   0.202
 1195TIP3   OH2 3523   4.834   4.340   0.214
 1195TIP3    H1 3524   4.881   4.296   0.141
 1195TIP3    H2 3525   4.899   4.335   0.287
 1196TIP3   OH2 3526   5.409   2.974   0.253
 1196TIP3    H1 3527   5.377   2.913   0.322
 1196TIP3    H2 3528   5.496   2.936   0.229
 1197TIP3   OH2 3529   5.942   2.890   0.189
 1197TIP3    H1 3530   5.976   2.901   0.098
 1197TIP3    H2 3531   5.846   2.892   0.176
 1198TIP3   OH2 3532   4.673   2.699   0.288
 1198TIP3    H1 3533   4.581   2.665   0.294
 1198TIP3    H2 3534   4.722   2.613   0.288
 1199TIP3   OH2 3535   4.455   2.566  -0.058
 1199TIP3    H1 3536   4.481   2.628  -0.127
 1199TIP3    H2 3537   4.425   2.627   0.012
 1200TIP3   OH2 3538   5.110   2.740   0.174
 1200TIP3    H1 3539   5.185   2.778   0.128
 1200TIP3    H2 3540   5.131   2.763   0.266
 1201TIP3   OH2 3541   5.658   2.872   0.153
 1201TIP3    H1 3542   5.675   2.824   0.071
 1201TIP3    H2 3543   5.649   2.797   0.217
 1202TIP3   OH2 3544   4.586   2.754  -0.301
 1202TIP3    H1 3545   4.583   2.665  -0.340
 1202TIP3    H2 3546   4.672   2.755  -0.255
 1203TIP3   OH2 3547   5.067   2.881  -0.152
 1203TIP3    H1 3548   5.123   2.815  -0.109
 1203TIP3    H2 3549   5.104   2.963  -0.115
 1204TIP3   OH2 3550   4.881   2.979   1.184
 1204TIP3    H1 3551   4.845   2.909   1.241
 1204TIP3    H2 3552   4.975   2.979   1.213
 1205TIP3   OH2 3553   5.131   2.977   1.303
 1205TIP3    H1 3554   5.216   2.951   1.264
 1205TIP3    H2 3555   5.118   2.906   1.370
 1206TIP3   OH2 3556   5.957   3.038   1.090
 1206TIP3    H1 3557   5.976   3.008   1.181
 1206TIP3    H2 3558   6.046   3.034   1.049
 1207TIP3   OH2 3559   5.892   4.583   0.595
 1207TIP3    H1 3560   5.811   4.561   0.545
 1207TIP3    H2 3561   5.885   4.681   0.598
 1208TIP3   OH2 3562   6.721   3.296   0.255
 1208TIP3    H1 3563   6.671   3.302   0.172
 1208TIP3    H2 3564   6.660   3.340   0.317
 1209TIP3   OH2 3565   6.613   3.965   0.384
 1209TIP3    H1 3566   6.616   4.054   0.425
 1209TIP3    H2 3567   6.518   3.963   0.360
 1210TIP3   OH2 3568   6.213   4.105   0.287
 1210TIP3    H1 3569   6.263   4.142   0.213
 1210TIP3    H2 3570   6.270   4.031   0.317
 1211TIP3   OH2 3571   6.449   4.273   0.298
 1211TIP3    H1 3572   6.520   4.291   0.362
 1211TIP3    H2 3573   6.378   4.246   0.357
 1212TIP3   OH2 3574   7.332   3.258   0.268
 1212TIP3    H1 3575   7.400   3.194   0.294
 1212TIP3    H2 3576   7.250   3.215   0.299
 1213TIP3   OH2 3577   7.298   3.907   0.399
 1213TIP3    H1 3578   7.272   3.824   0.444
 1213TIP3    H2 3579   7.394   3.891   0.396
 1214TIP3   OH2 3580   6.564   3.673   0.296
 1214TIP3    H1 3581   6.576   3.748   0.357
 1214TIP3    H2 3582   6.558   3.597   0.358
 1215TIP3   OH2 3583   6.604   4.205   0.524
 1215TIP3    H1 3584   6.678   4.253   0.566
 1215TIP3    H2 3585   6.531   4.230   0.583
 1216TIP3   OH2 3586   6.338   3.906   0.433
 1216TIP3    H1 3587   6.364   3.894   0.526
 1216TIP3    H2 3588   6.260   3.848   0.426
 1217TIP3   OH2 3589   7.057   4.026   0.451
 1217TIP3    H1 3590   6.991   3.959   0.422
 1217TIP3    H2 3591   7.141   3.982   0.427
 1218TIP3   OH2 3592   6.542   3.423   0.436
 1218TIP3    H1 3593   6.446   3.422   0.449
 1218TIP3    H2 3594   6.573   3.363   0.506
 1219TIP3   OH2 3595   6.231   4.780   0.504
 1219TIP3    H1 3596   6.322   4.803   0.532
 1219TIP3    H2 3597   6.235   4.684   0.491
 1220TIP3   OH2 3598   6.725   4.761   0.559
 1220TIP3    H1 3599   6.812   4.742   0.597
 1220TIP3    H2 3600   6.718   4.692   0.491
 1221TIP3   OH2 3601   6.381   4.206   0.695
 1221TIP3    H1 3602   6.393   4.110   0.686
 1221TIP3    H2 3603   6.297   4.221   0.646
 1222TIP3   OH2 3604   6.986   4.303   0.451
 1222TIP3    H1 3605   6.952   4.305   0.360
 1222TIP3    H2 3606   7.025   4.213   0.456
 1223TIP3   OH2 3607   6.500   3.935   0.674
 1223TIP3    H1 3608   6.585   3.905   0.638
 1223TIP3    H2 3609   6.528   3.979   0.757
 1224TIP3   OH2 3610   6.861   3.863   0.349
 1224TIP3    H1 3611   6.773   3.897   0.379
 1224TIP3    H2 3612   6.862   3.899   0.259
 1225TIP3   OH2 3613   7.291   4.220   0.483
 1225TIP3    H1 3614   7.367   4.279   0.477
 1225TIP3    H2 3615   7.313   4.163   0.559
 1226TIP3   OH2 3616   6.953   3.618   0.462
 1226TIP3    H1 3617   6.962   3.537   0.408
 1226TIP3    H2 3618   6.930   3.686   0.396
 1227TIP3   OH2 3619   6.970   3.401   0.292
 1227TIP3    H1 3620   7.008   3.437   0.209
 1227TIP3    H2 3621   6.882   3.367   0.265
 1228TIP3   OH2 3622   7.571   3.886   0.567
 1228TIP3    H1 3623   7.572   3.816   0.498
 1228TIP3    H2 3624   7.643   3.944   0.535
 1229TIP3   OH2 3625   6.839   3.732   0.686
 1229TIP3    H1 3626   6.769   3.665   0.701
 1229TIP3    H2 3627   6.874   3.701   0.599
 1230TIP3   OH2 3628   7.088   3.156   0.342
 1230TIP3    H1 3629   7.039   3.239   0.323
 1230TIP3    H2 3630   7.025   3.087   0.314
 1231TIP3   OH2 3631   7.208   3.689   0.540
 1231TIP3    H1 3632   7.206   3.671   0.636
 1231TIP3    H2 3633   7.121   3.653   0.515
 1232TIP3   OH2 3634   7.469   3.667   0.415
 1232TIP3    H1 3635   7.386   3.629   0.447
 1232TIP3    H2 3636   7.536   3.604   0.448
 1233TIP3   OH2 3637   7.669   3.536   0.557
 1233TIP3    H1 3638   7.711   3.453   0.585
 1233TIP3    H2 3639   7.676   3.591   0.638
 1234TIP3   OH2 3640   6.676   3.512   0.739
 1234TIP3    H1 3641   6.684   3.422   0.703
 1234TIP3    H2 3642   6.715   3.500   0.828
 1235TIP3   OH2 3643   7.184   3.177   0.595
 1235TIP3    H1 3644   7.253   3.108   0.585
 1235TIP3    H2 3645   7.144   3.173   0.506
 1236TIP3   OH2 3646   7.258   3.397   0.743
 1236TIP3    H1 3647   7.236   3.325   0.680
 1236TIP3    H2 3648   7.179   3.455   0.735
 1237TIP3   OH2 3649   6.409   3.558   0.696
 1237TIP3    H1 3650   6.507   3.557   0.703
 1237TIP3    H2 3651   6.388   3.474   0.743
 1238TIP3   OH2 3652   6.380   3.124   0.434
 1238TIP3    H1 3653   6.337   3.108   0.520
 1238TIP3    H2 3654   6.303   3.136   0.377
 1239TIP3   OH2 3655   6.421   4.478   0.541
 1239TIP3    H1 3656   6.335   4.490   0.500
 1239TIP3    H2 3657   6.426   4.554   0.600
 1240TIP3   OH2 3658   6.676   3.235   0.672
 1240TIP3    H1 3659   6.644   3.165   0.731
 1240TIP3    H2 3660   6.771   3.236   0.696
 1241TIP3   OH2 3661   6.927   3.234   0.789
 1241TIP3    H1 3662   7.012   3.212   0.746
 1241TIP3    H2 3663   6.919   3.161   0.854
 1242TIP3   OH2 3664   0.430   4.294   1.467
 1242TIP3    H1 3665   0.458   4.377   1.510
 1242TIP3    H2 3666   0.446   4.314   1.374
 1243TIP3   OH2 3667  -0.116   4.490   1.497
 1243TIP3    H1 3668  -0.096   4.397   1.520
 1243TIP3    H2 3669  -0.051   4.506   1.427
 1244TIP3   OH2 3670   0.503   4.504   1.635
 1244TIP3    H1 3671   0.417   4.547   1.614
 1244TIP3    H2 3672   0.509   4.525   1.730
 1245TIP3   OH2 3673   0.055   4.247   1.252
 1245TIP3    H1 3674   0.086   4.180   1.316
 1245TIP3    H2 3675   0.097   4.328   1.285
 1246TIP3   OH2 3676   0.221   4.214   1.639
 1246TIP3    H1 3677   0.136   4.227   1.594
 1246TIP3    H2 3678   0.284   4.231   1.565
 1247TIP3   OH2 3679   0.155   5.241   1.605
 1247TIP3    H1 3680   0.168   5.153   1.564
 1247TIP3    H2 3681   0.125   5.293   1.530
 1248TIP3   OH2 3682   0.356   4.837   1.475
 1248TIP3    H1 3683   0.280   4.900   1.478
 1248TIP3    H2 3684   0.389   4.855   1.384
 1249TIP3   OH2 3685   0.048   4.727   1.766
 1249TIP3    H1 3686   0.043   4.817   1.803
 1249TIP3    H2 3687  -0.043   4.719   1.729
 1250TIP3   OH2 3688   0.411   5.534   1.672
 1250TIP3    H1 3689   0.416   5.437   1.680
 1250TIP3    H2 3690   0.320   5.548   1.707
 1251TIP3   OH2 3691   0.276   4.683   1.934
 1251TIP3    H1 3692   0.197   4.694   1.879
 1251TIP3    H2 3693   0.295   4.588   1.922
 1252TIP3   OH2 3694  -0.183   4.037   1.939
 1252TIP3    H1 3695  -0.118   4.002   2.003
 1252TIP3    H2 3696  -0.268   3.998   1.969
 1253TIP3   OH2 3697   0.046   4.457   1.856
 1253TIP3    H1 3698  -0.001   4.456   1.943
 1253TIP3    H2 3699   0.029   4.547   1.824
 1254TIP3   OH2 3700  -0.219   4.685   2.102
 1254TIP3    H1 3701  -0.247   4.608   2.156
 1254TIP3    H2 3702  -0.123   4.688   2.122
 1255TIP3   OH2 3703  -0.204   4.677   1.679
 1255TIP3    H1 3704  -0.183   4.596   1.627
 1255TIP3    H2 3705  -0.260   4.640   1.750
 1256TIP3   OH2 3706  -0.104   4.222   1.546
 1256TIP3    H1 3707  -0.138   4.239   1.637
 1256TIP3    H2 3708  -0.140   4.134   1.528
 1257TIP3   OH2 3709  -0.478   4.347   1.797
 1257TIP3    H1 3710  -0.494   4.422   1.737
 1257TIP3    H2 3711  -0.387   4.369   1.825
 1258TIP3   OH2 3712   0.148   5.012   1.461
 1258TIP3    H1 3713   0.136   5.057   1.376
 1258TIP3    H2 3714   0.057   4.994   1.489
 1259TIP3   OH2 3715  -0.451   4.788   2.198
 1259TIP3    H1 3716  -0.508   4.761   2.124
 1259TIP3    H2 3717  -0.363   4.770   2.160
 1260TIP3   OH2 3718   0.406   5.254   1.704
 1260TIP3    H1 3719   0.309   5.266   1.697
 1260TIP3    H2 3720   0.426   5.225   1.612
 1261TIP3   OH2 3721  -0.166   4.274   1.805
 1261TIP3    H1 3722  -0.079   4.307   1.835
 1261TIP3    H2 3723  -0.175   4.191   1.856
 1262TIP3   OH2 3724  -0.289   4.530   1.891
 1262TIP3    H1 3725  -0.274   4.592   1.965
 1262TIP3    H2 3726  -0.233   4.456   1.917
 1263TIP3   OH2 3727   0.313   4.419   1.851
 1263TIP3    H1 3728   0.216   4.416   1.860
 1263TIP3    H2 3729   0.322   4.366   1.770
 1264TIP3   OH2 3730  -0.185   5.547   2.087
 1264TIP3    H1 3731  -0.165   5.452   2.096
 1264TIP3    H2 3732  -0.105   5.581   2.043
 1265TIP3   OH2 3733  -0.016   5.058   1.730
 1265TIP3    H1 3734   0.033   5.141   1.714
 1265TIP3    H2 3735  -0.109   5.088   1.716
 1266TIP3   OH2 3736  -0.188   5.012   2.161
 1266TIP3    H1 3737  -0.119   4.980   2.102
 1266TIP3    H2 3738  -0.190   4.941   2.229
 1267TIP3   OH2 3739  -0.606   4.142   1.913
 1267TIP3    H1 3740  -0.549   4.214   1.874
 1267TIP3    H2 3741  -0.685   4.191   1.936
 1268TIP3   OH2 3742   0.036   4.694   2.202
 1268TIP3    H1 3743   0.083   4.609   2.213
 1268TIP3    H2 3744   0.103   4.747   2.157
 1269TIP3   OH2 3745   0.077   4.951   1.957
 1269TIP3    H1 3746   0.025   4.997   1.887
 1269TIP3    H2 3747   0.166   4.963   1.918
 1270TIP3   OH2 3748  -0.442   3.950   2.017
 1270TIP3    H1 3749  -0.492   4.027   1.981
 1270TIP3    H2 3750  -0.507   3.881   2.001
 1271TIP3   OH2 3751  -0.318   4.467   2.237
 1271TIP3    H1 3752  -0.295   4.459   2.331
 1271TIP3    H2 3753  -0.405   4.424   2.234
 1272TIP3   OH2 3754  -0.084   4.415   2.088
 1272TIP3    H1 3755  -0.157   4.409   2.152
 1272TIP3    H2 3756  -0.008   4.383   2.142
 1273TIP3   OH2 3757   0.140   4.354   2.238
 1273TIP3    H1 3758   0.156   4.259   2.253
 1273TIP3    H2 3759   0.139   4.390   2.330
 1274TIP3   OH2 3760  -0.353   3.969   2.276
 1274TIP3    H1 3761  -0.282   3.903   2.264
 1274TIP3    H2 3762  -0.395   3.966   2.187
 1275TIP3   OH2 3763  -0.276   4.182   2.423
 1275TIP3    H1 3764  -0.297   4.104   2.367
 1275TIP3    H2 3765  -0.363   4.228   2.423
 1276TIP3   OH2 3766   0.269   5.353   2.002
 1276TIP3    H1 3767   0.195   5.365   2.066
 1276TIP3    H2 3768   0.311   5.441   2.005
 1277TIP3   OH2 3769   0.313   5.017   1.831
 1277TIP3    H1 3770   0.383   4.949   1.821
 1277TIP3    H2 3771   0.346   5.089   1.774
 1278TIP3   OH2 3772   0.493   4.820   1.847
 1278TIP3    H1 3773   0.419   4.768   1.884
 1278TIP3    H2 3774   0.567   4.757   1.863
 1279TIP3   OH2 3775   0.176   4.466   1.371
 1279TIP3    H1 3776   0.255   4.497   1.323
 1279TIP3    H2 3777   0.194   4.509   1.457
 1280TIP3   OH2 3778   0.249   4.618   1.594
 1280TIP3    H1 3779   0.178   4.657   1.647
 1280TIP3    H2 3780   0.288   4.697   1.551
 1281TIP3   OH2 3781   0.688   4.213   2.147
 1281TIP3    H1 3782   0.756   4.153   2.110
 1281TIP3    H2 3783   0.669   4.272   2.071
 1282TIP3   OH2 3784   0.570   4.360   1.947
 1282TIP3    H1 3785   0.482   4.398   1.968
 1282TIP3    H2 3786   0.542   4.282   1.895
 1283TIP3   OH2 3787   0.471   4.121   1.836
 1283TIP3    H1 3788   0.379   4.106   1.807
 1283TIP3    H2 3789   0.508   4.031   1.826
 1284TIP3   OH2 3790   0.141   4.024   1.388
 1284TIP3    H1 3791   0.221   4.032   1.332
 1284TIP3    H2 3792   0.099   3.947   1.347
 1285TIP3   OH2 3793   0.320   4.035   1.180
 1285TIP3    H1 3794   0.290   4.006   1.090
 1285TIP3    H2 3795   0.354   4.124   1.156
 1286TIP3   OH2 3796   0.205   4.084   2.267
 1286TIP3    H1 3797   0.224   4.053   2.358
 1286TIP3    H2 3798   0.294   4.080   2.226
 1287TIP3   OH2 3799   0.152   5.563   1.747
 1287TIP3    H1 3800   0.061   5.532   1.750
 1287TIP3    H2 3801   0.138   5.660   1.751
 1288TIP3   OH2 3802   1.406   5.001   0.529
 1288TIP3    H1 3803   1.365   5.089   0.519
 1288TIP3    H2 3804   1.335   4.943   0.496
 1289TIP3   OH2 3805   1.408   5.005   0.909
 1289TIP3    H1 3806   1.444   4.983   0.998
 1289TIP3    H2 3807   1.366   4.921   0.885
 1290TIP3   OH2 3808   0.716   4.905   1.277
 1290TIP3    H1 3809   0.751   4.837   1.337
 1290TIP3    H2 3810   0.797   4.953   1.253
 1291TIP3   OH2 3811   1.646   5.306   0.636
 1291TIP3    H1 3812   1.667   5.231   0.696
 1291TIP3    H2 3813   1.702   5.376   0.675
 1292TIP3   OH2 3814   0.694   5.295   1.069
 1292TIP3    H1 3815   0.691   5.197   1.057
 1292TIP3    H2 3816   0.789   5.309   1.051
 1293TIP3   OH2 3817   0.561   4.802   0.925
 1293TIP3    H1 3818   0.567   4.728   0.989
 1293TIP3    H2 3819   0.499   4.767   0.861
 1294TIP3   OH2 3820   1.342   5.746   0.667
 1294TIP3    H1 3821   1.419   5.711   0.623
 1294TIP3    H2 3822   1.357   5.719   0.759
 1295TIP3   OH2 3823   1.225   5.231   0.945
 1295TIP3    H1 3824   1.265   5.147   0.918
 1295TIP3    H2 3825   1.305   5.277   0.976
 1296TIP3   OH2 3826   2.222   4.553   0.953
 1296TIP3    H1 3827   2.251   4.635   0.996
 1296TIP3    H2 3828   2.246   4.570   0.860
 1297TIP3   OH2 3829   1.622   4.735   0.985
 1297TIP3    H1 3830   1.663   4.650   1.007
 1297TIP3    H2 3831   1.588   4.716   0.895
 1298TIP3   OH2 3832   0.966   4.392   0.953
 1298TIP3    H1 3833   0.941   4.467   0.896
 1298TIP3    H2 3834   0.914   4.320   0.912
 1299TIP3   OH2 3835   1.653   4.490   0.573
 1299TIP3    H1 3836   1.724   4.470   0.639
 1299TIP3    H2 3837   1.708   4.519   0.498
 1300TIP3   OH2 3838   0.591   4.581   1.082
 1300TIP3    H1 3839   0.679   4.568   1.123
 1300TIP3    H2 3840   0.600   4.520   1.006
 1301TIP3   OH2 3841   1.037   4.802   0.848
 1301TIP3    H1 3842   1.128   4.773   0.867
 1301TIP3    H2 3843   0.993   4.717   0.827
 1302TIP3   OH2 3844   2.295   4.760   1.124
 1302TIP3    H1 3845   2.210   4.806   1.107
 1302TIP3    H2 3846   2.317   4.794   1.213
 1303TIP3   OH2 3847   0.956   4.375   1.391
 1303TIP3    H1 3848   0.898   4.412   1.322
 1303TIP3    H2 3849   0.902   4.393   1.471
 1304TIP3   OH2 3850   1.310   5.241   0.416
 1304TIP3    H1 3851   1.327   5.193   0.333
 1304TIP3    H2 3852   1.213   5.229   0.428
 1305TIP3   OH2 3853   1.066   5.154   1.182
 1305TIP3    H1 3854   1.003   5.216   1.224
 1305TIP3    H2 3855   1.090   5.203   1.102
 1306TIP3   OH2 3856   1.860   4.491   0.748
 1306TIP3    H1 3857   1.851   4.439   0.829
 1306TIP3    H2 3858   1.914   4.566   0.777
 1307TIP3   OH2 3859   0.833   4.488   1.174
 1307TIP3    H1 3860   0.895   4.562   1.197
 1307TIP3    H2 3861   0.881   4.449   1.098
 1308TIP3   OH2 3862   0.898   5.342   1.290
 1308TIP3    H1 3863   0.873   5.427   1.250
 1308TIP3    H2 3864   0.816   5.324   1.341
 1309TIP3   OH2 3865   1.719   5.549   0.753
 1309TIP3    H1 3866   1.630   5.547   0.795
 1309TIP3    H2 3867   1.720   5.639   0.714
 1310TIP3   OH2 3868   2.015   4.453   1.119
 1310TIP3    H1 3869   1.927   4.480   1.087
 1310TIP3    H2 3870   2.075   4.485   1.049
 1311TIP3   OH2 3871   1.307   4.092   1.100
 1311TIP3    H1 3872   1.294   3.998   1.123
 1311TIP3    H2 3873   1.231   4.132   1.148
 1312TIP3   OH2 3874   1.423   5.596   0.429
 1312TIP3    H1 3875   1.469   5.547   0.357
 1312TIP3    H2 3876   1.440   5.687   0.402
 1313TIP3   OH2 3877   1.577   5.380   0.348
 1313TIP3    H1 3878   1.567   5.323   0.268
 1313TIP3    H2 3879   1.662   5.346   0.380
 1314TIP3   OH2 3880   1.947   5.466   1.101
 1314TIP3    H1 3881   1.938   5.388   1.042
 1314TIP3    H2 3882   1.932   5.541   1.040
 1315TIP3   OH2 3883   1.238   4.862   0.346
 1315TIP3    H1 3884   1.147   4.885   0.321
 1315TIP3    H2 3885   1.282   4.887   0.262
 1316TIP3   OH2 3886   1.146   4.586   0.193
 1316TIP3    H1 3887   1.212   4.640   0.239
 1316TIP3    H2 3888   1.205   4.541   0.128
 1317TIP3   OH2 3889   2.142   5.100   0.944
 1317TIP3    H1 3890   2.061   5.154   0.949
 1317TIP3    H2 3891   2.174   5.125   0.855
 1318TIP3   OH2 3892   1.598   4.946   0.344
 1318TIP3    H1 3893   1.545   4.963   0.425
 1318TIP3    H2 3894   1.683   4.915   0.382
 1319TIP3   OH2 3895   1.822   4.980   1.243
 1319TIP3    H1 3896   1.820   5.063   1.295
 1319TIP3    H2 3897   1.735   4.984   1.200
 1320TIP3   OH2 3898   0.812   4.933   0.753
 1320TIP3    H1 3899   0.799   4.887   0.668
 1320TIP3    H2 3900   0.894   4.893   0.786
 1321TIP3   OH2 3901   0.942   5.293   0.940
 1321TIP3    H1 3902   0.917   5.338   0.858
 1321TIP3    H2 3903   1.039   5.290   0.932
 1322TIP3   OH2 3904   0.970   4.906   1.107
 1322TIP3    H1 3905   0.986   4.893   1.011
 1322TIP3    H2 3906   1.000   4.999   1.120
 1323TIP3   OH2 3907   1.471   5.545   0.863
 1323TIP3    H1 3908   1.470   5.625   0.921
 1323TIP3    H2 3909   1.463   5.473   0.930
 1324TIP3   OH2 3910   1.099   5.467   1.427
 1324TIP3    H1 3911   1.038   5.531   1.470
 1324TIP3    H2 3912   1.035   5.414   1.376
 1325TIP3   OH2 3913   1.454   4.824   0.147
 1325TIP3    H1 3914   1.503   4.864   0.222
 1325TIP3    H2 3915   1.456   4.898   0.084
 1326TIP3   OH2 3916   0.854   5.020   1.533
 1326TIP3    H1 3917   0.856   5.109   1.573
 1326TIP3    H2 3918   0.758   5.002   1.537
 1327TIP3   OH2 3919   0.895   5.637   1.512
 1327TIP3    H1 3920   0.861   5.640   1.421
 1327TIP3    H2 3921   0.815   5.612   1.563
 1328TIP3   OH2 3922   1.947   4.043   0.202
 1328TIP3    H1 3923   1.864   4.059   0.252
 1328TIP3    H2 3924   1.954   4.126   0.151
 1329TIP3   OH2 3925   0.466   5.157   1.458
 1329TIP3    H1 3926   0.446   5.129   1.368
 1329TIP3    H2 3927   0.511   5.077   1.494
 1330TIP3   OH2 3928   2.184   5.809   1.147
 1330TIP3    H1 3929   2.184   5.713   1.164
 1330TIP3    H2 3930   2.102   5.836   1.194
 1331TIP3   OH2 3931   1.297   5.593   1.284
 1331TIP3    H1 3932   1.293   5.686   1.315
 1331TIP3    H2 3933   1.221   5.554   1.333
 1332TIP3   OH2 3934   2.073   4.938   1.423
 1332TIP3    H1 3935   1.993   4.949   1.370
 1332TIP3    H2 3936   2.090   4.843   1.413
 1333TIP3   OH2 3937   0.678   5.337   1.451
 1333TIP3    H1 3938   0.727   5.323   1.535
 1333TIP3    H2 3939   0.600   5.280   1.462
 1334TIP3   OH2 3940   1.072   4.173   1.232
 1334TIP3    H1 3941   0.983   4.143   1.203
 1334TIP3    H2 3942   1.046   4.252   1.281
 1335TIP3   OH2 3943   1.606   4.288   1.426
 1335TIP3    H1 3944   1.674   4.258   1.489
 1335TIP3    H2 3945   1.522   4.267   1.472
 1336TIP3   OH2 3946   1.842   4.716   1.343
 1336TIP3    H1 3947   1.792   4.713   1.428
 1336TIP3    H2 3948   1.819   4.803   1.307
 1337TIP3   OH2 3949   1.250   4.285   0.192
 1337TIP3    H1 3950   1.233   4.259   0.272
 1337TIP3    H2 3951   1.196   4.225   0.137
 1338TIP3   OH2 3952   1.007   4.685   1.252
 1338TIP3    H1 3953   0.954   4.707   1.332
 1338TIP3    H2 3954   0.995   4.767   1.199
 1339TIP3   OH2 3955   0.887   4.582   0.778
 1339TIP3    H1 3956   0.792   4.562   0.792
 1339TIP3    H2 3957   0.899   4.554   0.684
 1340TIP3   OH2 3958   1.377   4.666   0.490
 1340TIP3    H1 3959   1.327   4.735   0.441
 1340TIP3    H2 3960   1.436   4.631   0.420
 1341TIP3   OH2 3961   1.553   4.937   1.577
 1341TIP3    H1 3962   1.530   4.864   1.639
 1341TIP3    H2 3963   1.647   4.949   1.598
 1342TIP3   OH2 3964   1.534   4.686   0.728
 1342TIP3    H1 3965   1.472   4.710   0.656
 1342TIP3    H2 3966   1.573   4.606   0.686
 1343TIP3   OH2 3967   0.824   4.716   1.458
 1343TIP3    H1 3968   0.852   4.778   1.527
 1343TIP3    H2 3969   0.811   4.634   1.509
 1344TIP3   OH2 3970   0.417   4.253   1.047
 1344TIP3    H1 3971   0.488   4.279   1.108
 1344TIP3    H2 3972   0.467   4.238   0.966
 1345TIP3   OH2 3973   1.545   4.935   1.148
 1345TIP3    H1 3974   1.578   4.862   1.091
 1345TIP3    H2 3975   1.515   4.882   1.226
 1346TIP3   OH2 3976   1.222   4.401   0.828
 1346TIP3    H1 3977   1.139   4.397   0.880
 1346TIP3    H2 3978   1.288   4.389   0.897
 1347TIP3   OH2 3979   0.664   4.425   0.869
 1347TIP3    H1 3980   0.598   4.447   0.800
 1347TIP3    H2 3981   0.708   4.346   0.833
 1348TIP3   OH2 3982   0.939   4.513   0.524
 1348TIP3    H1 3983   1.031   4.484   0.518
 1348TIP3    H2 3984   0.897   4.466   0.447
 1349TIP3   OH2 3985   1.705   4.473   1.027
 1349TIP3    H1 3986   1.671   4.485   1.119
 1349TIP3    H2 3987   1.640   4.410   0.992
 1350TIP3   OH2 3988   1.878   6.160   1.247
 1350TIP3    H1 3989   1.877   6.185   1.152
 1350TIP3    H2 3990   1.959   6.206   1.278
 1351TIP3   OH2 3991   0.835   5.267   1.670
 1351TIP3    H1 3992   0.915   5.301   1.715
 1351TIP3    H2 3993   0.770   5.272   1.744
 1352TIP3   OH2 3994   1.298   4.728   0.923
 1352TIP3    H1 3995   1.369   4.682   0.875
 1352TIP3    H2 3996   1.300   4.684   1.010
 1353TIP3   OH2 3997   0.823   4.205   0.792
 1353TIP3    H1 3998   0.788   4.129   0.844
 1353TIP3    H2 3999   0.903   4.166   0.753
 1354TIP3   OH2 4000   1.274   4.625   1.206
 1354TIP3    H1 4001   1.184   4.657   1.225
 1354TIP3    H2 4002   1.330   4.685   1.259
 1355TIP3   OH2 4003   1.911   5.251   0.932
 1355TIP3    H1 4004   1.938   5.299   0.851
 1355TIP3    H2 4005   1.828   5.207   0.905
 1356TIP3   OH2 4006   1.511   4.333   0.160
 1356TIP3    H1 4007   1.414   4.307   0.158
 1356TIP3    H2 4008   1.501   4.428   0.180
 1357TIP3   OH2 4009   1.413   5.334   1.299
 1357TIP3    H1 4010   1.433   5.308   1.389
 1357TIP3    H2 4011   1.370   5.420   1.309
 1358TIP3   OH2 4012   1.535   4.584   0.278
 1358TIP3    H1 4013   1.632   4.577   0.290
 1358TIP3    H2 4014   1.527   4.656   0.213
 1359TIP3   OH2 4015   0.712   5.041   0.987
 1359TIP3    H1 4016   0.747   5.011   0.900
 1359TIP3    H2 4017   0.695   4.955   1.028
 1360TIP3   OH2 4018   0.586   4.956   1.598
 1360TIP3    H1 4019   0.606   4.940   1.692
 1360TIP3    H2 4020   0.519   4.886   1.580
 1361TIP3   OH2 4021   1.310   5.069   1.617
 1361TIP3    H1 4022   1.249   5.011   1.568
 1361TIP3    H2 4023   1.396   5.033   1.587
 1362TIP3   OH2 4024   1.569   5.593   1.196
 1362TIP3    H1 4025   1.473   5.587   1.215
 1362TIP3    H2 4026   1.599   5.642   1.274
 1363TIP3   OH2 4027   1.978   4.662   0.113
 1363TIP3    H1 4028   1.919   4.619   0.046
 1363TIP3    H2 4029   1.978   4.752   0.073
 1364TIP3   OH2 4030   2.198   5.520   1.190
 1364TIP3    H1 4031   2.100   5.514   1.182
 1364TIP3    H2 4032   2.224   5.491   1.100
 1365TIP3   OH2 4033   1.676   5.114   0.836
 1365TIP3    H1 4034   1.586   5.087   0.860
 1365TIP3    H2 4035   1.711   5.028   0.802
 1366TIP3   OH2 4036   1.072   5.689   1.109
 1366TIP3    H1 4037   1.084   5.719   1.018
 1366TIP3    H2 4038   1.161   5.657   1.133
 1367TIP3   OH2 4039   1.471   5.319   1.033
 1367TIP3    H1 4040   1.451   5.322   1.130
 1367TIP3    H2 4041   1.551   5.264   1.034
 1368TIP3   OH2 4042   1.712   5.846   1.087
 1368TIP3    H1 4043   1.632   5.790   1.081
 1368TIP3    H2 4044   1.696   5.910   1.014
 1369TIP3   OH2 4045   0.793   4.460   1.602
 1369TIP3    H1 4046   0.695   4.463   1.613
 1369TIP3    H2 4047   0.819   4.401   1.674
 1370TIP3   OH2 4048   1.623   5.173   0.186
 1370TIP3    H1 4049   1.610   5.089   0.234
 1370TIP3    H2 4050   1.708   5.156   0.142
 1371TIP3   OH2 4051   0.554   5.536   1.284
 1371TIP3    H1 4052   0.575   5.446   1.254
 1371TIP3    H2 4053   0.617   5.543   1.358
 1372TIP3   OH2 4054   1.631   4.525   1.288
 1372TIP3    H1 4055   1.714   4.561   1.324
 1372TIP3    H2 4056   1.619   4.443   1.340
 1373TIP3   OH2 4057   1.513   4.276   0.451
 1373TIP3    H1 4058   1.500   4.295   0.358
 1373TIP3    H2 4059   1.552   4.360   0.484
 1374TIP3   OH2 4060   1.208   4.457   0.558
 1374TIP3    H1 4061   1.270   4.531   0.541
 1374TIP3    H2 4062   1.212   4.454   0.658
 1375TIP3   OH2 4063   1.472   4.774   1.357
 1375TIP3    H1 4064   1.495   4.825   1.437
 1375TIP3    H2 4065   1.525   4.693   1.367
 1376TIP3   OH2 4066   1.392   4.183   0.705
 1376TIP3    H1 4067   1.373   4.266   0.739
 1376TIP3    H2 4068   1.424   4.208   0.610
 1377TIP3   OH2 4069   1.045   4.159   0.294
 1377TIP3    H1 4070   0.973   4.200   0.334
 1377TIP3    H2 4071   1.110   4.155   0.371
 1378TIP3   OH2 4072   2.110   4.673   1.344
 1378TIP3    H1 4073   2.011   4.671   1.348
 1378TIP3    H2 4074   2.124   4.632   1.257
 1379TIP3   OH2 4075   1.760   4.868   0.731
 1379TIP3    H1 4076   1.686   4.806   0.743
 1379TIP3    H2 4077   1.833   4.821   0.779
 1380TIP3   OH2 4078   1.740   5.810   0.679
 1380TIP3    H1 4079   1.710   5.870   0.606
 1380TIP3    H2 4080   1.837   5.826   0.669
 1381TIP3   OH2 4081   0.806   4.095   1.203
 1381TIP3    H1 4082   0.774   4.055   1.119
 1381TIP3    H2 4083   0.804   4.020   1.265
 1382TIP3   OH2 4084   0.487   5.826   1.681
 1382TIP3    H1 4085   0.580   5.826   1.716
 1382TIP3    H2 4086   0.475   5.732   1.661
 1383TIP3   OH2 4087   0.981   5.808   1.712
 1383TIP3    H1 4088   1.077   5.799   1.709
 1383TIP3    H2 4089   0.955   5.753   1.635
 1384TIP3   OH2 4090   1.625   5.721   1.433
 1384TIP3    H1 4091   1.615   5.653   1.503
 1384TIP3    H2 4092   1.701   5.774   1.465
 1385TIP3   OH2 4093   0.633   5.258   1.862
 1385TIP3    H1 4094   0.652   5.162   1.863
 1385TIP3    H2 4095   0.547   5.260   1.815
 1386TIP3   OH2 4096   1.239   5.345   1.633
 1386TIP3    H1 4097   1.197   5.366   1.546
 1386TIP3    H2 4098   1.268   5.252   1.620
 1387TIP3   OH2 4099   1.731   5.352   1.235
 1387TIP3    H1 4100   1.807   5.398   1.195
 1387TIP3    H2 4101   1.661   5.419   1.224
 1388TIP3   OH2 4102   0.750   4.995   1.842
 1388TIP3    H1 4103   0.826   4.944   1.813
 1388TIP3    H2 4104   0.780   5.027   1.930
 1389TIP3   OH2 4105   1.088   4.878   1.503
 1389TIP3    H1 4106   1.010   4.936   1.504
 1389TIP3    H2 4107   1.138   4.913   1.426
 1390TIP3   OH2 4108   1.605   5.280   1.635
 1390TIP3    H1 4109   1.684   5.253   1.587
 1390TIP3    H2 4110   1.599   5.213   1.705
 1391TIP3   OH2 4111   1.211   4.667   1.627
 1391TIP3    H1 4112   1.211   4.588   1.569
 1391TIP3    H2 4113   1.167   4.734   1.569
 1392TIP3   OH2 4114   1.214   4.455   1.435
 1392TIP3    H1 4115   1.241   4.494   1.350
 1392TIP3    H2 4116   1.120   4.430   1.418
 1393TIP3   OH2 4117   1.239   4.990   1.313
 1393TIP3    H1 4118   1.321   4.997   1.263
 1393TIP3    H2 4119   1.181   5.054   1.265
 1394TIP3   OH2 4120   1.822   4.954   1.689
 1394TIP3    H1 4121   1.869   4.869   1.693
 1394TIP3    H2 4122   1.891   5.013   1.653
 1395TIP3   OH2 4123   1.862   5.208   1.424
 1395TIP3    H1 4124   1.804   5.262   1.364
 1395TIP3    H2 4125   1.950   5.229   1.385
 1396TIP3   OH2 4126   1.091   4.774   1.861
 1396TIP3    H1 4127   1.022   4.706   1.874
 1396TIP3    H2 4128   1.123   4.753   1.772
 1397TIP3   OH2 4129   1.345   4.216   1.503
 1397TIP3    H1 4130   1.295   4.297   1.480
 1397TIP3    H2 4131   1.276   4.147   1.492
 1398TIP3   OH2 4132   1.470   4.719   1.719
 1398TIP3    H1 4133   1.454   4.704   1.814
 1398TIP3    H2 4134   1.381   4.695   1.684
 1399TIP3   OH2 4135   1.711   4.673   1.575
 1399TIP3    H1 4136   1.635   4.671   1.636
 1399TIP3    H2 4137   1.784   4.640   1.630
 1400TIP3   OH2 4138   1.938   4.611   1.725
 1400TIP3    H1 4139   1.952   4.515   1.740
 1400TIP3    H2 4140   1.936   4.647   1.816
 1401TIP3   OH2 4141   0.929   4.556   1.912
 1401TIP3    H1 4142   0.930   4.464   1.878
 1401TIP3    H2 4143   0.966   4.543   2.002
 1402TIP3   OH2 4144   1.441   4.227   1.760
 1402TIP3    H1 4145   1.506   4.154   1.755
 1402TIP3    H2 4146   1.400   4.221   1.672
 1403TIP3   OH2 4147   1.506   4.441   1.919
 1403TIP3    H1 4148   1.486   4.369   1.855
 1403TIP3    H2 4149   1.427   4.498   1.911
 1404TIP3   OH2 4150   1.991   5.906   0.642
 1404TIP3    H1 4151   2.015   5.943   0.729
 1404TIP3    H2 4152   2.046   5.958   0.582
 1405TIP3   OH2 4153   2.012   5.936   0.921
 1405TIP3    H1 4154   1.972   5.846   0.919
 1405TIP3    H2 4155   2.090   5.916   0.975
 1406TIP3   OH2 4156   2.059   5.612   1.491
 1406TIP3    H1 4157   1.987   5.621   1.557
 1406TIP3    H2 4158   2.102   5.699   1.495
 1407TIP3   OH2 4159   1.880   5.120   0.107
 1407TIP3    H1 4160   1.948   5.184   0.075
 1407TIP3    H2 4161   1.926   5.082   0.185
 1408TIP3   OH2 4162   2.003   4.994   0.317
 1408TIP3    H1 4163   1.942   4.948   0.378
 1408TIP3    H2 4164   2.073   5.027   0.377
 1409TIP3   OH2 4165   2.047   5.381   0.733
 1409TIP3    H1 4166   2.110   5.316   0.695
 1409TIP3    H2 4167   2.057   5.458   0.674
 1410TIP3   OH2 4168   1.888   5.684   0.940
 1410TIP3    H1 4169   1.819   5.727   0.994
 1410TIP3    H2 4170   1.836   5.638   0.872
 1411TIP3   OH2 4171   1.945   4.892  -0.035
 1411TIP3    H1 4172   1.870   4.873  -0.094
 1411TIP3    H2 4173   1.916   4.974   0.009
 1412TIP3   OH2 4174   1.817   4.585  -0.088
 1412TIP3    H1 4175   1.746   4.637  -0.130
 1412TIP3    H2 4176   1.785   4.492  -0.097
 1413TIP3   OH2 4177   1.823   4.845   0.465
 1413TIP3    H1 4178   1.830   4.748   0.454
 1413TIP3    H2 4179   1.810   4.854   0.562
 1414TIP3   OH2 4180   0.453   4.895   1.231
 1414TIP3    H1 4181   0.443   4.900   1.134
 1414TIP3    H2 4182   0.551   4.901   1.240
 1415TIP3   OH2 4183   2.106   5.274   1.317
 1415TIP3    H1 4184   2.178   5.207   1.308
 1415TIP3    H2 4185   2.137   5.344   1.256
 1416TIP3   OH2 4186   2.288   5.076   1.332
 1416TIP3    H1 4187   2.214   5.024   1.373
 1416TIP3    H2 4188   2.362   5.013   1.346
 1417TIP3   OH2 4189   1.749   4.319  -0.082
 1417TIP3    H1 4190   1.836   4.285  -0.052
 1417TIP3    H2 4191   1.687   4.269  -0.028
 1418TIP3   OH2 4192   1.814   4.565   0.352
 1418TIP3    H1 4193   1.854   4.476   0.368
 1418TIP3    H2 4194   1.872   4.596   0.281
 1419TIP3   OH2 4195   1.974   4.739   0.849
 1419TIP3    H1 4196   2.060   4.764   0.808
 1419TIP3    H2 4197   1.989   4.774   0.939
 1420TIP3   OH2 4198   2.045   4.882   1.082
 1420TIP3    H1 4199   1.967   4.917   1.130
 1420TIP3    H2 4200   2.078   4.962   1.036
 1421TIP3   OH2 4201   0.663   4.613   1.889
 1421TIP3    H1 4202   0.761   4.603   1.887
 1421TIP3    H2 4203   0.638   4.525   1.922
 1422TIP3   OH2 4204   2.494   4.474   1.637
 1422TIP3    H1 4205   2.555   4.410   1.595
 1422TIP3    H2 4206   2.465   4.528   1.560
 1423TIP3   OH2 4207   1.922   4.315   0.392
 1423TIP3    H1 4208   1.970   4.298   0.476
 1423TIP3    H2 4209   1.861   4.239   0.391
 1424TIP3   OH2 4210   0.622   4.302   1.217
 1424TIP3    H1 4211   0.684   4.226   1.223
 1424TIP3    H2 4212   0.685   4.375   1.206
 1425TIP3   OH2 4213   0.416   4.575   1.290
 1425TIP3    H1 4214   0.473   4.567   1.211
 1425TIP3    H2 4215   0.439   4.665   1.318
 1426TIP3   OH2 4216   2.364   4.611   1.442
 1426TIP3    H1 4217   2.278   4.654   1.459
 1426TIP3    H2 4218   2.335   4.538   1.384
 1427TIP3   OH2 4219   2.010   4.251   0.010
 1427TIP3    H1 4220   2.077   4.190  -0.025
 1427TIP3    H2 4221   2.063   4.332   0.019
 1428TIP3   OH2 4222   0.631   4.158   1.601
 1428TIP3    H1 4223   0.579   4.153   1.683
 1428TIP3    H2 4224   0.565   4.196   1.540
 1429TIP3   OH2 4225   0.681   5.575   1.674
 1429TIP3    H1 4226   0.587   5.553   1.660
 1429TIP3    H2 4227   0.686   5.583   1.770
 1430TIP3   OH2 4228   0.846   5.606   1.235
 1430TIP3    H1 4229   0.777   5.634   1.171
 1430TIP3    H2 4230   0.927   5.639   1.190
 1431TIP3   OH2 4231   1.295   5.859   1.361
 1431TIP3    H1 4232   1.335   5.861   1.451
 1431TIP3    H2 4233   1.360   5.912   1.311
 1432TIP3   OH2 4234   1.472   6.015   1.223
 1432TIP3    H1 4235   1.546   5.964   1.185
 1432TIP3    H2 4236   1.520   6.075   1.284
 1433TIP3   OH2 4237   2.265   4.375   1.322
 1433TIP3    H1 4238   2.174   4.366   1.287
 1433TIP3    H2 4239   2.298   4.282   1.311
 1434TIP3   OH2 4240   1.215   5.895   0.888
 1434TIP3    H1 4241   1.119   5.879   0.871
 1434TIP3    H2 4242   1.211   5.972   0.949
 1435TIP3   OH2 4243   1.466   5.810   0.947
 1435TIP3    H1 4244   1.373   5.840   0.934
 1435TIP3    H2 4245   1.514   5.888   0.916
 1436TIP3   OH2 4246   1.658   6.003   0.870
 1436TIP3    H1 4247   1.650   6.092   0.830
 1436TIP3    H2 4248   1.690   5.949   0.794
 1437TIP3   OH2 4249   1.474   4.294   0.951
 1437TIP3    H1 4250   1.426   4.221   0.995
 1437TIP3    H2 4251   1.537   4.245   0.895
 1438TIP3   OH2 4252   1.992   4.174   0.847
 1438TIP3    H1 4253   2.027   4.224   0.770
 1438TIP3    H2 4254   1.896   4.188   0.838
 1439TIP3   OH2 4255   2.087   4.270   0.609
 1439TIP3    H1 4256   2.161   4.218   0.570
 1439TIP3    H2 4257   2.121   4.362   0.594
 1440TIP3   OH2 4258   0.722   3.999   0.955
 1440TIP3    H1 4259   0.632   3.961   0.959
 1440TIP3    H2 4260   0.776   3.917   0.948
 1441TIP3   OH2 4261   1.154   4.058   0.830
 1441TIP3    H1 4262   1.238   4.082   0.784
 1441TIP3    H2 4263   1.181   4.065   0.922
 1442TIP3   OH2 4264   1.712   4.179   0.820
 1442TIP3    H1 4265   1.704   4.139   0.733
 1442TIP3    H2 4266   1.695   4.101   0.878
 1443TIP3   OH2 4267   1.742   4.100   0.385
 1443TIP3    H1 4268   1.653   4.139   0.389
 1443TIP3    H2 4269   1.726   4.015   0.432
 1444TIP3   OH2 4270   1.217   4.201   0.493
 1444TIP3    H1 4271   1.208   4.176   0.596
 1444TIP3    H2 4272   1.225   4.285   0.502
 1445TIP3   OH2 4273   0.926   4.282   1.851
 1445TIP3    H1 4274   0.891   4.210   1.906
 1445TIP3    H2 4275   1.020   4.280   1.878
 1446TIP3   OH2 4276   1.176   4.278   1.971
 1446TIP3    H1 4277   1.259   4.247   1.930
 1446TIP3    H2 4278   1.161   4.209   2.039
 1447TIP3   OH2 4279   2.003   4.341   1.754
 1447TIP3    H1 4280   2.021   4.309   1.845
 1447TIP3    H2 4281   2.091   4.335   1.713
 1448TIP3   OH2 4282   1.938   5.891   1.248
 1448TIP3    H1 4283   1.859   5.861   1.198
 1448TIP3    H2 4284   1.920   5.987   1.253
 1449TIP3   OH2 4285   3.217   5.268   0.073
 1449TIP3    H1 4286   3.200   5.358   0.038
 1449TIP3    H2 4287   3.133   5.227   0.052
 1450TIP3   OH2 4288   3.197   5.272   0.404
 1450TIP3    H1 4289   3.237   5.242   0.488
 1450TIP3    H2 4290   3.168   5.188   0.365
 1451TIP3   OH2 4291   2.500   5.159   0.764
 1451TIP3    H1 4292   2.530   5.090   0.826
 1451TIP3    H2 4293   2.581   5.210   0.752
 1452TIP3   OH2 4294   3.447   5.562   0.066
 1452TIP3    H1 4295   3.443   5.488   0.128
 1452TIP3    H2 4296   3.485   5.632   0.121
 1453TIP3   OH2 4297   2.474   5.567   0.479
 1453TIP3    H1 4298   2.468   5.469   0.483
 1453TIP3    H2 4299   2.570   5.578   0.476
 1454TIP3   OH2 4300   2.182   4.769   0.267
 1454TIP3    H1 4301   2.137   4.854   0.282
 1454TIP3    H2 4302   2.110   4.717   0.228
 1455TIP3   OH2 4303   2.239   5.058   0.443
 1455TIP3    H1 4304   2.289   4.980   0.478
 1455TIP3    H2 4305   2.304   5.097   0.383
 1456TIP3   OH2 4306   3.061   5.989   0.125
 1456TIP3    H1 4307   3.129   5.993   0.056
 1456TIP3    H2 4308   3.112   5.981   0.206
 1457TIP3   OH2 4309   3.004   5.491   0.442
 1457TIP3    H1 4310   3.047   5.411   0.406
 1457TIP3    H2 4311   3.085   5.540   0.467
 1458TIP3   OH2 4312   4.018   4.805   0.445
 1458TIP3    H1 4313   4.043   4.894   0.478
 1458TIP3    H2 4314   4.056   4.809   0.354
 1459TIP3   OH2 4315   3.411   4.986   0.478
 1459TIP3    H1 4316   3.459   4.904   0.498
 1459TIP3    H2 4317   3.386   4.971   0.385
 1460TIP3   OH2 4318   2.755   4.650   0.440
 1460TIP3    H1 4319   2.736   4.723   0.377
 1460TIP3    H2 4320   2.707   4.577   0.395
 1461TIP3   OH2 4321   3.449   4.742   0.060
 1461TIP3    H1 4322   3.524   4.728   0.122
 1461TIP3    H2 4323   3.498   4.770  -0.020
 1462TIP3   OH2 4324   2.387   4.852   0.546
 1462TIP3    H1 4325   2.470   4.834   0.595
 1462TIP3    H2 4326   2.402   4.797   0.467
 1463TIP3   OH2 4327   2.828   5.049   0.342
 1463TIP3    H1 4328   2.922   5.025   0.354
 1463TIP3    H2 4329   2.790   4.965   0.309
 1464TIP3   OH2 4330   4.093   5.017   0.614
 1464TIP3    H1 4331   4.012   5.065   0.585
 1464TIP3    H2 4332   4.104   5.052   0.704
 1465TIP3   OH2 4333   2.750   4.634   0.874
 1465TIP3    H1 4334   2.691   4.672   0.806
 1465TIP3    H2 4335   2.698   4.653   0.955
 1466TIP3   OH2 4336   3.107   5.461  -0.087
 1466TIP3    H1 4337   3.058   5.470  -0.170
 1466TIP3    H2 4338   3.088   5.547  -0.047
 1467TIP3   OH2 4339   2.856   5.409   0.666
 1467TIP3    H1 4340   2.796   5.477   0.704
 1467TIP3    H2 4341   2.902   5.460   0.596
 1468TIP3   OH2 4342   3.657   4.745   0.238
 1468TIP3    H1 4343   3.638   4.706   0.323
 1468TIP3    H2 4344   3.707   4.825   0.263
 1469TIP3   OH2 4345   2.621   4.749   0.658
 1469TIP3    H1 4346   2.681   4.822   0.682
 1469TIP3    H2 4347   2.671   4.709   0.583
 1470TIP3   OH2 4348   2.683   5.605   0.765
 1470TIP3    H1 4349   2.660   5.693   0.730
 1470TIP3    H2 4350   2.605   5.590   0.822
 1471TIP3   OH2 4351   2.078   5.288   0.004
 1471TIP3    H1 4352   2.044   5.305  -0.086
 1471TIP3    H2 4353   2.095   5.381   0.034
 1472TIP3   OH2 4354   3.522   5.803   0.254
 1472TIP3    H1 4355   3.433   5.785   0.293
 1472TIP3    H2 4356   3.505   5.890   0.215
 1473TIP3   OH2 4357   3.811   4.704   0.606
 1473TIP3    H1 4358   3.725   4.736   0.575
 1473TIP3    H2 4359   3.872   4.740   0.537
 1474TIP3   OH2 4360   3.106   4.351   0.590
 1474TIP3    H1 4361   3.089   4.257   0.607
 1474TIP3    H2 4362   3.029   4.391   0.636
 1475TIP3   OH2 4363   3.768   5.720   0.592
 1475TIP3    H1 4364   3.752   5.649   0.526
 1475TIP3    H2 4365   3.753   5.799   0.535
 1476TIP3   OH2 4366   3.049   5.137  -0.110
 1476TIP3    H1 4367   2.974   5.197  -0.135
 1476TIP3    H2 4368   3.125   5.180  -0.152
 1477TIP3   OH2 4369   3.933   5.364   0.440
 1477TIP3    H1 4370   3.854   5.422   0.444
 1477TIP3    H2 4371   3.942   5.366   0.341
 1478TIP3   OH2 4372   3.334   5.133  -0.132
 1478TIP3    H1 4373   3.311   5.187  -0.054
 1478TIP3    H2 4374   3.428   5.156  -0.142
 1479TIP3   OH2 4375   3.617   5.236   0.726
 1479TIP3    H1 4376   3.617   5.313   0.786
 1479TIP3    H2 4377   3.530   5.246   0.684
 1480TIP3   OH2 4378   2.616   5.195   0.234
 1480TIP3    H1 4379   2.577   5.136   0.166
 1480TIP3    H2 4380   2.693   5.143   0.264
 1481TIP3   OH2 4381   2.744   5.605   0.382
 1481TIP3    H1 4382   2.727   5.569   0.293
 1481TIP3    H2 4383   2.834   5.570   0.401
 1482TIP3   OH2 4384   2.745   5.170   0.585
 1482TIP3    H1 4385   2.784   5.145   0.499
 1482TIP3    H2 4386   2.793   5.253   0.606
 1483TIP3   OH2 4387   3.275   5.803   0.361
 1483TIP3    H1 4388   3.265   5.883   0.415
 1483TIP3    H2 4389   3.260   5.730   0.425
 1484TIP3   OH2 4390   2.894   5.729   0.902
 1484TIP3    H1 4391   2.835   5.788   0.954
 1484TIP3    H2 4392   2.827   5.672   0.859
 1485TIP3   OH2 4393   2.646   5.280   1.016
 1485TIP3    H1 4394   2.651   5.369   1.057
 1485TIP3    H2 4395   2.551   5.261   1.026
 1486TIP3   OH2 4396   2.979   5.736  -0.051
 1486TIP3    H1 4397   3.033   5.784   0.014
 1486TIP3    H2 4398   2.897   5.787  -0.047
 1487TIP3   OH2 4399   2.684   5.889   0.996
 1487TIP3    H1 4400   2.649   5.891   0.906
 1487TIP3    H2 4401   2.603   5.870   1.050
 1488TIP3   OH2 4402   2.483   5.035   0.040
 1488TIP3    H1 4403   2.412   5.073  -0.015
 1488TIP3    H2 4404   2.452   4.944   0.050
 1489TIP3   OH2 4405   2.261   5.422   0.946
 1489TIP3    H1 4406   2.204   5.393   0.873
 1489TIP3    H2 4407   2.303   5.338   0.975
 1490TIP3   OH2 4408   2.119   5.616   0.577
 1490TIP3    H1 4409   2.215   5.606   0.568
 1490TIP3    H2 4410   2.113   5.694   0.634
 1491TIP3   OH2 4411   3.087   5.860   0.762
 1491TIP3    H1 4412   3.085   5.950   0.800
 1491TIP3    H2 4413   3.020   5.815   0.817
 1492TIP3   OH2 4414   2.272   5.808   0.116
 1492TIP3    H1 4415   2.347   5.809   0.180
 1492TIP3    H2 4416   2.201   5.782   0.177
 1493TIP3   OH2 4417   3.876   5.197   0.907
 1493TIP3    H1 4418   3.787   5.215   0.872
 1493TIP3    H2 4419   3.884   5.100   0.894
 1494TIP3   OH2 4420   2.466   5.606   0.931
 1494TIP3    H1 4421   2.518   5.591   1.013
 1494TIP3    H2 4422   2.393   5.542   0.941
 1495TIP3   OH2 4423   2.867   4.427   0.719
 1495TIP3    H1 4424   2.778   4.399   0.691
 1495TIP3    H2 4425   2.844   4.510   0.765
 1496TIP3   OH2 4426   3.402   4.539   0.911
 1496TIP3    H1 4427   3.470   4.519   0.978
 1496TIP3    H2 4428   3.318   4.525   0.960
 1497TIP3   OH2 4429   3.641   4.977   0.833
 1497TIP3    H1 4430   3.588   4.970   0.915
 1497TIP3    H2 4431   3.614   5.063   0.797
 1498TIP3   OH2 4432   3.022   4.504  -0.299
 1498TIP3    H1 4433   2.982   4.476  -0.214
 1498TIP3    H2 4434   2.982   4.443  -0.361
 1499TIP3   OH2 4435   2.795   4.946   0.732
 1499TIP3    H1 4436   2.757   4.972   0.818
 1499TIP3    H2 4437   2.780   5.027   0.680
 1500TIP3   OH2 4438   2.683   4.830   0.250
 1500TIP3    H1 4439   2.591   4.804   0.268
 1500TIP3    H2 4440   2.696   4.789   0.161
 1501TIP3   OH2 4441   3.178   4.909  -0.038
 1501TIP3    H1 4442   3.119   4.986  -0.055
 1501TIP3    H2 4443   3.258   4.942  -0.083
 1502TIP3   OH2 4444   3.364   5.176   1.035
 1502TIP3    H1 4445   3.341   5.130   1.118
 1502TIP3    H2 4446   3.390   5.265   1.066
 1503TIP3   OH2 4447   3.333   4.942   0.220
 1503TIP3    H1 4448   3.281   4.985   0.150
 1503TIP3    H2 4449   3.363   4.862   0.171
 1504TIP3   OH2 4450   2.611   4.975   0.946
 1504TIP3    H1 4451   2.662   5.035   1.002
 1504TIP3    H2 4452   2.608   4.893   1.000
 1505TIP3   OH2 4453   2.686   4.383  -0.326
 1505TIP3    H1 4454   2.667   4.422  -0.240
 1505TIP3    H2 4455   2.653   4.449  -0.389
 1506TIP3   OH2 4456   2.212   4.494   0.526
 1506TIP3    H1 4457   2.286   4.527   0.580
 1506TIP3    H2 4458   2.255   4.464   0.444
 1507TIP3   OH2 4459   2.176   4.477   0.041
 1507TIP3    H1 4460   2.231   4.512  -0.032
 1507TIP3    H2 4461   2.121   4.555   0.062
 1508TIP3   OH2 4462   3.336   5.189   0.637
 1508TIP3    H1 4463   3.372   5.117   0.581
 1508TIP3    H2 4464   3.309   5.138   0.716
 1509TIP3   OH2 4465   3.012   4.648   0.309
 1509TIP3    H1 4466   2.931   4.650   0.365
 1509TIP3    H2 4467   3.082   4.652   0.376
 1510TIP3   OH2 4468   2.445   4.709   0.318
 1510TIP3    H1 4469   2.350   4.715   0.291
 1510TIP3    H2 4470   2.468   4.617   0.296
 1511TIP3   OH2 4471   2.715   4.707   0.008
 1511TIP3    H1 4472   2.811   4.721  -0.009
 1511TIP3    H2 4473   2.672   4.740  -0.073
 1512TIP3   OH2 4474   3.506   4.726   0.510
 1512TIP3    H1 4475   3.477   4.739   0.603
 1512TIP3    H2 4476   3.434   4.669   0.477
 1513TIP3   OH2 4477   2.543   4.754  -0.200
 1513TIP3    H1 4478   2.462   4.704  -0.213
 1513TIP3    H2 4479   2.599   4.728  -0.276
 1514TIP3   OH2 4480   3.682   6.412   0.735
 1514TIP3    H1 4481   3.675   6.440   0.643
 1514TIP3    H2 4482   3.757   6.465   0.767
 1515TIP3   OH2 4483   2.627   5.528   1.152
 1515TIP3    H1 4484   2.710   5.556   1.198
 1515TIP3    H2 4485   2.566   5.529   1.228
 1516TIP3   OH2 4486   3.093   4.976   0.404
 1516TIP3    H1 4487   3.172   4.944   0.358
 1516TIP3    H2 4488   3.104   4.939   0.493
 1517TIP3   OH2 4489   2.613   4.469   0.289
 1517TIP3    H1 4490   2.579   4.390   0.336
 1517TIP3    H2 4491   2.656   4.429   0.212
 1518TIP3   OH2 4492   3.068   4.876   0.702
 1518TIP3    H1 4493   2.980   4.917   0.714
 1518TIP3    H2 4494   3.128   4.937   0.748
 1519TIP3   OH2 4495   2.826   5.259  -0.193
 1519TIP3    H1 4496   2.744   5.211  -0.216
 1519TIP3    H2 4497   2.797   5.308  -0.113
 1520TIP3   OH2 4498   3.709   5.519   0.407
 1520TIP3    H1 4499   3.734   5.515   0.312
 1520TIP3    H2 4500   3.623   5.471   0.403
 1521TIP3   OH2 4501   3.214   5.583   0.784
 1521TIP3    H1 4502   3.258   5.551   0.866
 1521TIP3    H2 4503   3.174   5.665   0.814
 1522TIP3   OH2 4504   2.495   5.286   0.467
 1522TIP3    H1 4505   2.535   5.261   0.382
 1522TIP3    H2 4506   2.548   5.234   0.529
 1523TIP3   OH2 4507   2.378   5.216   1.086
 1523TIP3    H1 4508   2.405   5.201   1.179
 1523TIP3    H2 4509   2.316   5.142   1.072
 1524TIP3   OH2 4510   3.107   5.295   1.116
 1524TIP3    H1 4511   3.073   5.261   1.032
 1524TIP3    H2 4512   3.186   5.345   1.085
 1525TIP3   OH2 4513   3.362   5.857   0.672
 1525TIP3    H1 4514   3.267   5.846   0.693
 1525TIP3    H2 4515   3.395   5.895   0.756
 1526TIP3   OH2 4516   3.475   5.369   0.348
 1526TIP3    H1 4517   3.381   5.345   0.355
 1526TIP3    H2 4518   3.511   5.291   0.302
 1527TIP3   OH2 4519   2.607   5.589   0.105
 1527TIP3    H1 4520   2.602   5.667   0.045
 1527TIP3    H2 4521   2.514   5.569   0.114
 1528TIP3   OH2 4522   2.168   4.897  -0.201
 1528TIP3    H1 4523   2.212   4.982  -0.181
 1528TIP3    H2 4524   2.089   4.902  -0.142
 1529TIP3   OH2 4525   2.742   5.361   0.042
 1529TIP3    H1 4526   2.703   5.449   0.058
 1529TIP3    H2 4527   2.704   5.310   0.116
 1530TIP3   OH2 4528   2.869   5.936   0.563
 1530TIP3    H1 4529   2.912   6.010   0.514
 1530TIP3    H2 4530   2.945   5.902   0.614
 1531TIP3   OH2 4531   2.520   5.807  -0.031
 1531TIP3    H1 4532   2.427   5.823  -0.010
 1531TIP3    H2 4533   2.556   5.898  -0.031
 1532TIP3   OH2 4534   3.255   5.574   0.520
 1532TIP3    H1 4535   3.241   5.572   0.617
 1532TIP3    H2 4536   3.333   5.517   0.511
 1533TIP3   OH2 4537   3.509   6.095   0.580
 1533TIP3    H1 4538   3.433   6.034   0.581
 1533TIP3    H2 4539   3.484   6.159   0.510
 1534TIP3   OH2 4540   2.591   4.716   1.089
 1534TIP3    H1 4541   2.495   4.719   1.102
 1534TIP3    H2 4542   2.619   4.658   1.163
 1535TIP3   OH2 4543   2.306   5.798   0.721
 1535TIP3    H1 4544   2.364   5.729   0.757
 1535TIP3    H2 4545   2.335   5.875   0.773
 1536TIP3   OH2 4546   2.280   5.139  -0.115
 1536TIP3    H1 4547   2.211   5.188  -0.066
 1536TIP3    H2 4548   2.327   5.209  -0.161
 1537TIP3   OH2 4549   3.435   4.775   0.769
 1537TIP3    H1 4550   3.506   4.820   0.818
 1537TIP3    H2 4551   3.418   4.697   0.825
 1538TIP3   OH2 4552   3.304   4.541  -0.068
 1538TIP3    H1 4553   3.278   4.584  -0.151
 1538TIP3    H2 4554   3.354   4.614  -0.024
 1539TIP3   OH2 4555   2.994   4.710   0.037
 1539TIP3    H1 4556   3.063   4.776   0.014
 1539TIP3    H2 4557   3.003   4.704   0.134
 1540TIP3   OH2 4558   3.261   5.021   0.839
 1540TIP3    H1 4559   3.289   5.079   0.914
 1540TIP3    H2 4560   3.318   4.944   0.853
 1541TIP3   OH2 4561   3.143   4.435   0.137
 1541TIP3    H1 4562   3.137   4.510   0.199
 1541TIP3    H2 4563   3.202   4.474   0.068
 1542TIP3   OH2 4564   2.651   4.445  -0.054
 1542TIP3    H1 4565   2.656   4.538  -0.023
 1542TIP3    H2 4566   2.747   4.423  -0.052
 1543TIP3   OH2 4567   3.906   4.926   0.829
 1543TIP3    H1 4568   3.808   4.927   0.837
 1543TIP3    H2 4569   3.917   4.896   0.738
 1544TIP3   OH2 4570   3.554   5.128   0.228
 1544TIP3    H1 4571   3.483   5.062   0.235
 1544TIP3    H2 4572   3.629   5.082   0.272
 1545TIP3   OH2 4573   2.233   4.635  -0.189
 1545TIP3    H1 4574   2.219   4.733  -0.194
 1545TIP3    H2 4575   2.151   4.603  -0.227
 1546TIP3   OH2 4576   3.540   6.078   0.182
 1546TIP3    H1 4577   3.486   6.076   0.100
 1546TIP3    H2 4578   3.628   6.054   0.148
 1547TIP3   OH2 4579   2.602   4.349   0.691
 1547TIP3    H1 4580   2.572   4.315   0.604
 1547TIP3    H2 4581   2.592   4.271   0.748
 1548TIP3   OH2 4582   2.114   5.558   0.055
 1548TIP3    H1 4583   2.078   5.606   0.130
 1548TIP3    H2 4584   2.178   5.620   0.019
 1549TIP3   OH2 4585   2.301   6.113   1.146
 1549TIP3    H1 4586   2.387   6.116   1.193
 1549TIP3    H2 4587   2.286   6.017   1.143
 1550TIP3   OH2 4588   2.772   6.076   1.187
 1550TIP3    H1 4589   2.867   6.065   1.204
 1550TIP3    H2 4590   2.758   6.012   1.115
 1551TIP3   OH2 4591   3.439   5.964   0.907
 1551TIP3    H1 4592   3.416   5.906   0.983
 1551TIP3    H2 4593   3.493   6.033   0.950
 1552TIP3   OH2 4594   2.428   5.516   1.346
 1552TIP3    H1 4595   2.445   5.420   1.351
 1552TIP3    H2 4596   2.341   5.518   1.300
 1553TIP3   OH2 4597   3.026   5.605   1.123
 1553TIP3    H1 4598   3.004   5.618   1.029
 1553TIP3    H2 4599   3.109   5.553   1.116
 1554TIP3   OH2 4600   3.539   5.602   0.725
 1554TIP3    H1 4601   3.600   5.659   0.676
 1554TIP3    H2 4602   3.457   5.653   0.722
 1555TIP3   OH2 4603   2.547   5.248   1.327
 1555TIP3    H1 4604   2.628   5.206   1.297
 1555TIP3    H2 4605   2.575   5.282   1.415
 1556TIP3   OH2 4606   2.619   5.067  -0.237
 1556TIP3    H1 4607   2.587   5.029  -0.154
 1556TIP3    H2 4608   2.686   5.002  -0.264
 1557TIP3   OH2 4609   2.868   5.117   0.974
 1557TIP3    H1 4610   2.806   5.191   0.987
 1557TIP3    H2 4611   2.931   5.157   0.910
 1558TIP3   OH2 4612   3.004   4.924   1.115
 1558TIP3    H1 4613   3.009   4.845   1.057
 1558TIP3    H2 4614   2.962   4.990   1.056
 1559TIP3   OH2 4615   3.010   4.707   0.922
 1559TIP3    H1 4616   3.038   4.753   0.840
 1559TIP3    H2 4617   2.916   4.687   0.902
 1560TIP3   OH2 4618   3.032   5.242   0.800
 1560TIP3    H1 4619   3.119   5.255   0.762
 1560TIP3    H2 4620   2.978   5.308   0.752
 1561TIP3   OH2 4621   3.630   5.218   1.197
 1561TIP3    H1 4622   3.678   5.137   1.174
 1561TIP3    H2 4623   3.668   5.283   1.137
 1562TIP3   OH2 4624   3.679   5.448   0.905
 1562TIP3    H1 4625   3.600   5.497   0.874
 1562TIP3    H2 4626   3.750   5.496   0.860
 1563TIP3   OH2 4627   2.883   5.033   1.349
 1563TIP3    H1 4628   2.816   4.962   1.359
 1563TIP3    H2 4629   2.919   5.013   1.260
 1564TIP3   OH2 4630   3.140   4.471   0.991
 1564TIP3    H1 4631   3.092   4.554   0.967
 1564TIP3    H2 4632   3.070   4.404   0.979
 1565TIP3   OH2 4633   3.273   4.969   1.207
 1565TIP3    H1 4634   3.259   4.964   1.303
 1565TIP3    H2 4635   3.182   4.953   1.175
 1566TIP3   OH2 4636   3.506   4.904   1.055
 1566TIP3    H1 4637   3.431   4.928   1.113
 1566TIP3    H2 4638   3.578   4.890   1.119
 1567TIP3   OH2 4639   3.744   4.871   1.213
 1567TIP3    H1 4640   3.749   4.775   1.231
 1567TIP3    H2 4641   3.733   4.909   1.303
 1568TIP3   OH2 4642   2.721   4.812   1.400
 1568TIP3    H1 4643   2.730   4.721   1.365
 1568TIP3    H2 4644   2.759   4.801   1.489
 1569TIP3   OH2 4645   3.233   4.479   1.249
 1569TIP3    H1 4646   3.301   4.409   1.240
 1569TIP3    H2 4647   3.194   4.477   1.159
 1570TIP3   OH2 4648   3.297   4.693   1.410
 1570TIP3    H1 4649   3.277   4.626   1.342
 1570TIP3    H2 4650   3.222   4.756   1.400
 1571TIP3   OH2 4651   2.018   5.302  -0.263
 1571TIP3    H1 4652   2.073   5.316  -0.341
 1571TIP3    H2 4653   1.962   5.228  -0.290
 1572TIP3   OH2 4654   1.926   5.905   0.127
 1572TIP3    H1 4655   1.836   5.935   0.142
 1572TIP3    H2 4656   1.948   5.856   0.209
 1573TIP3   OH2 4657   2.067   5.760   0.323
 1573TIP3    H1 4658   2.049   5.694   0.392
 1573TIP3    H2 4659   2.114   5.826   0.378
 1574TIP3   OH2 4660   3.805   6.195   0.402
 1574TIP3    H1 4661   3.763   6.107   0.405
 1574TIP3    H2 4662   3.898   6.169   0.387
 1575TIP3   OH2 4663   3.689   5.937   0.436
 1575TIP3    H1 4664   3.616   5.981   0.484
 1575TIP3    H2 4665   3.640   5.882   0.372
 1576TIP3   OH2 4666   3.614   5.090  -0.040
 1576TIP3    H1 4667   3.631   4.996  -0.031
 1576TIP3    H2 4668   3.607   5.119   0.054
 1577TIP3   OH2 4669   2.238   5.186   0.694
 1577TIP3    H1 4670   2.237   5.150   0.603
 1577TIP3    H2 4671   2.335   5.185   0.713
 1578TIP3   OH2 4672   3.926   5.564   0.792
 1578TIP3    H1 4673   3.980   5.482   0.783
 1578TIP3    H2 4674   3.891   5.578   0.702
 1579TIP3   OH2 4675   4.084   5.339   0.813
 1579TIP3    H1 4676   4.010   5.289   0.853
 1579TIP3    H2 4677   4.157   5.275   0.832
 1580TIP3   OH2 4678   3.599   4.804  -0.166
 1580TIP3    H1 4679   3.646   4.718  -0.150
 1580TIP3    H2 4680   3.669   4.855  -0.209
 1581TIP3   OH2 4681   3.763   4.989   0.342
 1581TIP3    H1 4682   3.849   5.017   0.303
 1581TIP3    H2 4683   3.776   5.025   0.431
 1582TIP3   OH2 4684   3.841   5.138   0.569
 1582TIP3    H1 4685   3.764   5.174   0.617
 1582TIP3    H2 4686   3.871   5.217   0.519
 1583TIP3   OH2 4687   2.454   4.863   1.366
 1583TIP3    H1 4688   2.552   4.859   1.370
 1583TIP3    H2 4689   2.432   4.777   1.408
 1584TIP3   OH2 4690   4.294   4.733   1.124
 1584TIP3    H1 4691   4.352   4.668   1.080
 1584TIP3    H2 4692   4.261   4.786   1.048
 1585TIP3   OH2 4693   3.708   4.566  -0.114
 1585TIP3    H1 4694   3.764   4.547  -0.037
 1585TIP3    H2 4695   3.653   4.484  -0.119
 1586TIP3   OH2 4696   2.417   4.558   0.701
 1586TIP3    H1 4697   2.479   4.483   0.709
 1586TIP3    H2 4698   2.480   4.632   0.692
 1587TIP3   OH2 4699   2.219   4.831   0.770
 1587TIP3    H1 4700   2.269   4.826   0.686
 1587TIP3    H2 4701   2.255   4.911   0.809
 1588TIP3   OH2 4702   4.161   4.870   0.931
 1588TIP3    H1 4703   4.076   4.914   0.953
 1588TIP3    H2 4704   4.128   4.800   0.871
 1589TIP3   OH2 4705   2.206   4.335   0.271
 1589TIP3    H1 4706   2.113   4.330   0.301
 1589TIP3    H2 4707   2.200   4.393   0.193
 1590TIP3   OH2 4708   2.424   4.412   1.086
 1590TIP3    H1 4709   2.374   4.409   1.169
 1590TIP3    H2 4710   2.358   4.452   1.026
 1591TIP3   OH2 4711   2.462   5.846   1.160
 1591TIP3    H1 4712   2.370   5.816   1.149
 1591TIP3    H2 4713   2.479   5.827   1.253
 1592TIP3   OH2 4714   2.641   5.875   0.709
 1592TIP3    H1 4715   2.598   5.954   0.670
 1592TIP3    H2 4716   2.729   5.886   0.668
 1593TIP3   OH2 4717   3.083   6.126   0.851
 1593TIP3    H1 4718   3.128   6.119   0.938
 1593TIP3    H2 4719   3.150   6.177   0.801
 1594TIP3   OH2 4720   3.266   6.273   0.705
 1594TIP3    H1 4721   3.340   6.218   0.676
 1594TIP3    H2 4722   3.312   6.331   0.770
 1595TIP3   OH2 4723   4.061   4.634   0.809
 1595TIP3    H1 4724   3.971   4.633   0.771
 1595TIP3    H2 4725   4.089   4.541   0.795
 1596TIP3   OH2 4726   2.315   6.128   0.736
 1596TIP3    H1 4727   2.225   6.164   0.717
 1596TIP3    H2 4728   2.335   6.174   0.818
 1597TIP3   OH2 4729   2.554   6.110   0.595
 1597TIP3    H1 4730   2.466   6.123   0.637
 1597TIP3    H2 4731   2.537   6.144   0.505
 1598TIP3   OH2 4732   2.980   6.137   0.402
 1598TIP3    H1 4733   2.924   6.155   0.324
 1598TIP3    H2 4734   2.988   6.227   0.441
 1599TIP3   OH2 4735   3.247   6.074   0.432
 1599TIP3    H1 4736   3.152   6.096   0.427
 1599TIP3    H2 4737   3.289   6.159   0.413
 1600TIP3   OH2 4738   3.458   6.264   0.374
 1600TIP3    H1 4739   3.436   6.345   0.322
 1600TIP3    H2 4740   3.490   6.203   0.304
 1601TIP3   OH2 4741   2.231   5.922   0.477
 1601TIP3    H1 4742   2.255   5.899   0.570
 1601TIP3    H2 4743   2.307   5.880   0.431
 1602TIP3   OH2 4744   2.428   5.797   0.337
 1602TIP3    H1 4745   2.444   5.713   0.386
 1602TIP3    H2 4746   2.519   5.834   0.334
 1603TIP3   OH2 4747   2.690   5.890   0.346
 1603TIP3    H1 4748   2.722   5.799   0.333
 1603TIP3    H2 4749   2.738   5.913   0.427
 1604TIP3   OH2 4750   3.266   4.547   0.426
 1604TIP3    H1 4751   3.224   4.477   0.478
 1604TIP3    H2 4752   3.342   4.501   0.385
 1605TIP3   OH2 4753   3.784   4.427   0.342
 1605TIP3    H1 4754   3.821   4.478   0.267
 1605TIP3    H2 4755   3.689   4.450   0.336
 1606TIP3   OH2 4756   3.881   4.513   0.100
 1606TIP3    H1 4757   3.952   4.464   0.055
 1606TIP3    H2 4758   3.913   4.605   0.084
 1607TIP3   OH2 4759   2.514   4.255   0.443
 1607TIP3    H1 4760   2.421   4.222   0.446
 1607TIP3    H2 4761   2.563   4.170   0.439
 1608TIP3   OH2 4762   2.286   4.123   0.090
 1608TIP3    H1 4763   2.335   4.175   0.022
 1608TIP3    H2 4764   2.271   4.192   0.157
 1609TIP3   OH2 4765   2.961   4.285   0.326
 1609TIP3    H1 4766   3.015   4.336   0.263
 1609TIP3    H2 4767   2.983   4.328   0.410
 1610TIP3   OH2 4768   3.501   4.435   0.309
 1610TIP3    H1 4769   3.503   4.403   0.218
 1610TIP3    H2 4770   3.487   4.352   0.360
 1611TIP3   OH2 4771   3.535   4.357  -0.095
 1611TIP3    H1 4772   3.448   4.398  -0.105
 1611TIP3    H2 4773   3.514   4.269  -0.059
 1612TIP3   OH2 4774   2.429   4.269  -0.095
 1612TIP3    H1 4775   2.448   4.240  -0.185
 1612TIP3    H2 4776   2.501   4.333  -0.079
 1613TIP3   OH2 4777   2.929   4.455  -0.041
 1613TIP3    H1 4778   2.993   4.414   0.019
 1613TIP3    H2 4779   2.947   4.550  -0.020
 1614TIP3   OH2 4780   2.721   4.533   1.332
 1614TIP3    H1 4781   2.687   4.464   1.392
 1614TIP3    H2 4782   2.816   4.535   1.361
 1615TIP3   OH2 4783   2.970   4.534   1.453
 1615TIP3    H1 4784   3.056   4.514   1.414
 1615TIP3    H2 4785   2.961   4.462   1.519
 1616TIP3   OH2 4786   3.797   4.595   1.241
 1616TIP3    H1 4787   3.816   4.566   1.333
 1616TIP3    H2 4788   3.886   4.593   1.201
 1617TIP3   OH2 4789   3.726   6.143   0.737
 1617TIP3    H1 4790   3.646   6.122   0.684
 1617TIP3    H2 4791   3.718   6.241   0.738
 1618TIP3   OH2 4792   4.355   5.409   0.225
 1618TIP3    H1 4793   4.351   5.355   0.306
 1618TIP3    H2 4794   4.334   5.497   0.258
 1619TIP3   OH2 4795   4.183   5.043   0.090
 1619TIP3    H1 4796   4.279   5.059   0.093
 1619TIP3    H2 4797   4.155   5.116   0.029
 1620TIP3   OH2 4798   4.547   4.888   0.377
 1620TIP3    H1 4799   4.500   4.924   0.298
 1620TIP3    H2 4800   4.485   4.913   0.448
 1621TIP3   OH2 4801   4.455   4.981   0.139
 1621TIP3    H1 4802   4.479   5.074   0.123
 1621TIP3    H2 4803   4.465   4.944   0.050
 1622TIP3   OH2 4804   4.477   5.844   0.302
 1622TIP3    H1 4805   4.468   5.911   0.231
 1622TIP3    H2 4806   4.388   5.846   0.341
 1623TIP3   OH2 4807   4.893   4.593   0.129
 1623TIP3    H1 4808   4.858   4.508   0.163
 1623TIP3    H2 4809   4.816   4.651   0.152
 1624TIP3   OH2 4810   4.648   5.940   0.491
 1624TIP3    H1 4811   4.608   6.029   0.491
 1624TIP3    H2 4812   4.593   5.896   0.423
 1625TIP3   OH2 4813   4.432   5.533   0.501
 1625TIP3    H1 4814   4.443   5.623   0.539
 1625TIP3    H2 4815   4.339   5.514   0.524
 1626TIP3   OH2 4816   4.473   6.159   0.484
 1626TIP3    H1 4817   4.437   6.165   0.394
 1626TIP3    H2 4818   4.393   6.149   0.538
 1627TIP3   OH2 4819   4.065   5.677   0.427
 1627TIP3    H1 4820   4.018   5.642   0.351
 1627TIP3    H2 4821   4.096   5.596   0.471
 1628TIP3   OH2 4822   5.621   5.474   0.433
 1628TIP3    H1 4823   5.683   5.498   0.362
 1628TIP3    H2 4824   5.624   5.377   0.432
 1629TIP3   OH2 4825   4.247   5.874   0.466
 1629TIP3    H1 4826   4.314   5.827   0.521
 1629TIP3    H2 4827   4.181   5.802   0.448
 1630TIP3   OH2 4828   4.659   4.696   0.217
 1630TIP3    H1 4829   4.570   4.665   0.189
 1630TIP3    H2 4830   4.631   4.775   0.267
 1631TIP3   OH2 4831   5.200   4.800   0.396
 1631TIP3    H1 4832   5.268   4.781   0.464
 1631TIP3    H2 4833   5.117   4.784   0.444
 1632TIP3   OH2 4834   5.461   5.225   0.341
 1632TIP3    H1 4835   5.404   5.209   0.419
 1632TIP3    H2 4836   5.396   5.253   0.275
 1633TIP3   OH2 4837   4.612   5.232   0.217
 1633TIP3    H1 4838   4.557   5.234   0.298
 1633TIP3    H2 4839   4.547   5.265   0.152
 1634TIP3   OH2 4840   5.144   5.450   0.552
 1634TIP3    H1 4841   5.122   5.374   0.610
 1634TIP3    H2 4842   5.239   5.461   0.571
 1635TIP3   OH2 4843   4.418   5.221   0.431
 1635TIP3    H1 4844   4.456   5.281   0.497
 1635TIP3    H2 4845   4.403   5.140   0.483
 1636TIP3   OH2 4846   4.012   4.735   0.024
 1636TIP3    H1 4847   4.079   4.765   0.087
 1636TIP3    H2 4848   4.025   4.798  -0.050
 1637TIP3   OH2 4849   4.428   5.776   0.643
 1637TIP3    H1 4850   4.512   5.812   0.680
 1637TIP3    H2 4851   4.372   5.775   0.722
 1638TIP3   OH2 4852   4.861   5.095   0.204
 1638TIP3    H1 4853   4.779   5.148   0.192
 1638TIP3    H2 4854   4.926   5.165   0.223
 1639TIP3   OH2 4855   4.998   5.825   0.330
 1639TIP3    H1 4856   5.014   5.817   0.426
 1639TIP3    H2 4857   4.914   5.875   0.328
 1640TIP3   OH2 4858   4.172   5.466   0.571
 1640TIP3    H1 4859   4.180   5.441   0.665
 1640TIP3    H2 4860   4.106   5.402   0.540
 1641TIP3   OH2 4861   4.904   5.578   0.595
 1641TIP3    H1 4862   4.843   5.530   0.537
 1641TIP3    H2 4863   4.990   5.541   0.568
 1642TIP3   OH2 4864   4.381   4.975   0.581
 1642TIP3    H1 4865   4.283   4.978   0.590
 1642TIP3    H2 4866   4.406   4.915   0.653
 1643TIP3   OH2 4867   4.067   6.080   0.320
 1643TIP3    H1 4868   4.074   5.984   0.332
 1643TIP3    H2 4869   4.135   6.094   0.252
 1644TIP3   OH2 4870   5.203   5.057   0.288
 1644TIP3    H1 4871   5.298   5.067   0.273
 1644TIP3    H2 4872   5.199   4.966   0.324
 1645TIP3   OH2 4873   5.045   5.289   0.333
 1645TIP3    H1 4874   5.091   5.336   0.404
 1645TIP3    H2 4875   5.102   5.210   0.322
 1646TIP3   OH2 4876   4.403   4.610   0.200
 1646TIP3    H1 4877   4.365   4.580   0.114
 1646TIP3    H2 4878   4.389   4.530   0.255
 1647TIP3   OH2 4879   4.091   6.353   0.667
 1647TIP3    H1 4880   4.176   6.372   0.711
 1647TIP3    H2 4881   4.119   6.284   0.605
 1648TIP3   OH2 4882   4.576   6.329   0.679
 1648TIP3    H1 4883   4.670   6.308   0.681
 1648TIP3    H2 4884   4.549   6.279   0.599
 1649TIP3   OH2 4885   4.212   5.754   0.827
 1649TIP3    H1 4886   4.264   5.671   0.840
 1649TIP3    H2 4887   4.134   5.716   0.786
 1650TIP3   OH2 4888   4.865   5.854   0.615
 1650TIP3    H1 4889   4.789   5.875   0.555
 1650TIP3    H2 4890   4.873   5.757   0.606
 1651TIP3   OH2 4891   4.348   5.515   0.818
 1651TIP3    H1 4892   4.417   5.455   0.787
 1651TIP3    H2 4893   4.379   5.536   0.908
 1652TIP3   OH2 4894   4.659   5.382   0.497
 1652TIP3    H1 4895   4.581   5.443   0.494
 1652TIP3    H2 4896   4.712   5.420   0.423
 1653TIP3   OH2 4897   5.199   5.794   0.606
 1653TIP3    H1 4898   5.295   5.798   0.606
 1653TIP3    H2 4899   5.182   5.726   0.673
 1654TIP3   OH2 4900   4.806   5.177   0.604
 1654TIP3    H1 4901   4.805   5.097   0.549
 1654TIP3    H2 4902   4.754   5.240   0.549
 1655TIP3   OH2 4903   4.805   4.956   0.432
 1655TIP3    H1 4904   4.831   5.000   0.348
 1655TIP3    H2 4905   4.711   4.935   0.413
 1656TIP3   OH2 4906   4.819   5.512   0.323
 1656TIP3    H1 4907   4.909   5.477   0.313
 1656TIP3    H2 4908   4.819   5.584   0.258
 1657TIP3   OH2 4909   5.420   5.468   0.663
 1657TIP3    H1 4910   5.445   5.374   0.665
 1657TIP3    H2 4911   5.499   5.507   0.622
 1658TIP3   OH2 4912   4.683   5.288   0.836
 1658TIP3    H1 4913   4.614   5.220   0.848
 1658TIP3    H2 4914   4.714   5.268   0.746
 1659TIP3   OH2 4915   4.940   4.722   0.478
 1659TIP3    H1 4916   4.891   4.806   0.462
 1659TIP3    H2 4917   4.869   4.657   0.466
 1660TIP3   OH2 4918   5.062   5.232   0.694
 1660TIP3    H1 4919   5.042   5.219   0.789
 1660TIP3    H2 4920   4.974   5.209   0.657
 1661TIP3   OH2 4921   5.306   5.191   0.561
 1661TIP3    H1 4922   5.225   5.184   0.615
 1661TIP3    H2 4923   5.374   5.150   0.618
 1662TIP3   OH2 4924   5.536   5.122   0.701
 1662TIP3    H1 4925   5.547   5.026   0.718
 1662TIP3    H2 4926   5.529   5.160   0.791
 1663TIP3   OH2 4927   4.519   5.069   0.886
 1663TIP3    H1 4928   4.525   4.978   0.850
 1663TIP3    H2 4929   4.556   5.056   0.976
 1664TIP3   OH2 4930   5.030   4.736   0.736
 1664TIP3    H1 4931   5.097   4.665   0.729
 1664TIP3    H2 4932   4.991   4.733   0.646
 1665TIP3   OH2 4933   5.097   4.953   0.894
 1665TIP3    H1 4934   5.075   4.883   0.829
 1665TIP3    H2 4935   5.020   5.013   0.887
 1666TIP3   OH2 4936   4.252   5.125   0.858
 1666TIP3    H1 4937   4.350   5.117   0.858
 1666TIP3    H2 4938   4.227   5.039   0.897
 1667TIP3   OH2 4939   6.109   4.986   0.626
 1667TIP3    H1 4940   6.152   4.914   0.577
 1667TIP3    H2 4941   6.075   5.040   0.552
 1668TIP3   OH2 4942   4.198   4.797   0.227
 1668TIP3    H1 4943   4.280   4.743   0.222
 1668TIP3    H2 4944   4.225   4.879   0.181
 1669TIP3   OH2 4945   4.011   5.088   0.291
 1669TIP3    H1 4946   4.069   5.060   0.216
 1669TIP3    H2 4947   4.021   5.184   0.287
 1670TIP3   OH2 4948   5.911   5.099   0.474
 1670TIP3    H1 4949   5.828   5.146   0.469
 1670TIP3    H2 4950   5.959   5.119   0.392
 1671TIP3   OH2 4951   4.220   4.663   0.572
 1671TIP3    H1 4952   4.170   4.669   0.654
 1671TIP3    H2 4953   4.159   4.709   0.511
 1672TIP3   OH2 4954   4.250   6.104   0.644
 1672TIP3    H1 4955   4.239   6.018   0.599
 1672TIP3    H2 4956   4.272   6.081   0.735
 1673TIP3   OH2 4957   5.813   4.867   0.312
 1673TIP3    H1 4958   5.736   4.829   0.267
 1673TIP3    H2 4959   5.879   4.794   0.310
 1674TIP3   OH2 4960   4.094   6.393   0.332
 1674TIP3    H1 4961   4.020   6.449   0.303
 1674TIP3    H2 4962   4.070   6.309   0.290
 1675TIP3   OH2 4963   4.302   4.496  -0.020
 1675TIP3    H1 4964   4.208   4.471  -0.029
 1675TIP3    H2 4965   4.347   4.419  -0.055
 1676TIP3   OH2 4966   4.518   4.790   0.819
 1676TIP3    H1 4967   4.483   4.722   0.879
 1676TIP3    H2 4968   4.612   4.792   0.849
 1677TIP3   OH2 4969   4.767   4.791   0.941
 1677TIP3    H1 4970   4.853   4.768   0.900
 1677TIP3    H2 4971   4.757   4.718   1.006
 1678TIP3   OH2 4972   5.599   4.853   0.730
 1678TIP3    H1 4973   5.616   4.823   0.822
 1678TIP3    H2 4974   5.689   4.848   0.692
 1679TIP3   OH2 4975   0.400   6.048   1.819
 1679TIP3    H1 4976   0.442   5.974   1.769
 1679TIP3    H2 4977   0.316   6.058   1.773
 1680TIP3   OH2 4978   1.851   6.364   0.590
 1680TIP3    H1 4979   1.892   6.447   0.621
 1680TIP3    H2 4980   1.863   6.369   0.493
 1681TIP3   OH2 4981   1.940   6.579   0.749
 1681TIP3    H1 4982   1.870   6.637   0.712
 1681TIP3    H2 4983   1.933   6.598   0.844
 1682TIP3   OH2 4984   1.673   6.264   0.779
 1682TIP3    H1 4985   1.582   6.293   0.762
 1682TIP3    H2 4986   1.721   6.294   0.699
 1683TIP3   OH2 4987   1.710   6.756   1.060
 1683TIP3    H1 4988   1.620   6.752   1.025
 1683TIP3    H2 4989   1.734   6.661   1.056
 1684TIP3   OH2 4990   1.244   6.085   1.077
 1684TIP3    H1 4991   1.315   6.062   1.140
 1684TIP3    H2 4992   1.163   6.069   1.130
 1685TIP3   OH2 4993   1.494   6.568   0.987
 1685TIP3    H1 4994   1.455   6.508   1.055
 1685TIP3    H2 4995   1.420   6.630   0.975
 1686TIP3   OH2 4996   1.261   6.692   1.229
 1686TIP3    H1 4997   1.188   6.632   1.257
 1686TIP3    H2 4998   1.216   6.777   1.242
 1687TIP3   OH2 4999   1.354   6.291   0.942
 1687TIP3    H1 5000   1.370   6.331   1.030
 1687TIP3    H2 5001   1.313   6.207   0.972
 1688TIP3   OH2 5002   1.752   6.490   0.970
 1688TIP3    H1 5003   1.655   6.504   0.978
 1688TIP3    H2 5004   1.755   6.424   0.900
 1689TIP3   OH2 5005   7.801   3.853   7.821
 1689TIP3    H1 5006   7.883   3.818   7.785
 1689TIP3    H2 5007   7.738   3.780   7.812
 1690TIP3   OH2 5008   1.505   6.796   1.370
 1690TIP3    H1 5009   1.501   6.705   1.339
 1690TIP3    H2 5010   1.565   6.838   1.308
 1691TIP3   OH2 5011   1.512   7.034   1.068
 1691TIP3    H1 5012   1.459   7.097   1.017
 1691TIP3    H2 5013   1.594   7.037   1.016
 1692TIP3   OH2 5014   0.987   6.017   1.151
 1692TIP3    H1 5015   0.956   6.068   1.073
 1692TIP3    H2 5016   0.940   5.933   1.136
 1693TIP3   OH2 5017   1.084   6.538   1.357
 1693TIP3    H1 5018   1.109   6.537   1.450
 1693TIP3    H2 5019   1.006   6.480   1.359
 1694TIP3   OH2 5020   1.377   6.423   1.182
 1694TIP3    H1 5021   1.318   6.491   1.218
 1694TIP3    H2 5022   1.442   6.413   1.255
 1695TIP3   OH2 5023   1.588   6.426   1.365
 1695TIP3    H1 5024   1.597   6.331   1.385
 1695TIP3    H2 5025   1.577   6.466   1.454
 1696TIP3   OH2 5026   1.084   6.037   1.409
 1696TIP3    H1 5027   1.147   5.964   1.397
 1696TIP3    H2 5028   1.035   6.033   1.325
 1697TIP3   OH2 5029   1.147   6.256   1.559
 1697TIP3    H1 5030   1.127   6.179   1.501
 1697TIP3    H2 5031   1.062   6.305   1.556
 1698TIP3   OH2 5032   1.700   7.445   1.133
 1698TIP3    H1 5033   1.628   7.439   1.200
 1698TIP3    H2 5034   1.741   7.529   1.157
 1699TIP3   OH2 5035   1.774   7.106   0.937
 1699TIP3    H1 5036   1.829   7.026   0.956
 1699TIP3    H2 5037   1.794   7.115   0.843
 1700TIP3   OH2 5038   1.928   6.892   0.983
 1700TIP3    H1 5039   1.854   6.836   1.015
 1700TIP3    H2 5040   2.002   6.828   0.991
 1701TIP3   OH2 5041   2.128   6.287   1.274
 1701TIP3    H1 5042   2.192   6.223   1.234
 1701TIP3    H2 5043   2.105   6.342   1.197
 1702TIP3   OH2 5044   2.005   6.428   1.077
 1702TIP3    H1 5045   1.920   6.469   1.102
 1702TIP3    H2 5046   1.972   6.355   1.022
 1703TIP3   OH2 5047   1.903   6.190   0.961
 1703TIP3    H1 5048   1.814   6.183   0.921
 1703TIP3    H2 5049   1.936   6.098   0.951
 1704TIP3   OH2 5050   1.689   5.995   0.494
 1704TIP3    H1 5051   1.715   6.068   0.437
 1704TIP3    H2 5052   1.597   5.980   0.465
 1705TIP3   OH2 5053   6.954   2.793   8.041
 1705TIP3    H1 5054   6.931   2.719   8.101
 1705TIP3    H2 5055   6.867   2.834   8.023
 1706TIP3   OH2 5056   0.827   6.090   1.663
 1706TIP3    H1 5057   0.882   6.066   1.586
 1706TIP3    H2 5058   0.792   6.004   1.690
 1707TIP3   OH2 5059   1.639   6.154   1.391
 1707TIP3    H1 5060   1.657   6.123   1.483
 1707TIP3    H2 5061   1.728   6.150   1.351
 1708TIP3   OH2 5062   2.163   6.983   0.425
 1708TIP3    H1 5063   2.187   6.909   0.483
 1708TIP3    H2 5064   2.246   7.001   0.378
 1709TIP3   OH2 5065   2.411   6.480   0.081
 1709TIP3    H1 5066   2.344   6.522   0.024
 1709TIP3    H2 5067   2.392   6.386   0.061
 1710TIP3   OH2 5068   3.716   6.829   0.251
 1710TIP3    H1 5069   3.676   6.915   0.229
 1710TIP3    H2 5070   3.775   6.854   0.324
 1711TIP3   OH2 5071   2.390   6.442   0.517
 1711TIP3    H1 5072   2.335   6.480   0.445
 1711TIP3    H2 5073   2.334   6.463   0.595
 1712TIP3   OH2 5074   2.537   7.230   0.290
 1712TIP3    H1 5075   2.446   7.255   0.316
 1712TIP3    H2 5076   2.569   7.314   0.251
 1713TIP3   OH2 5077   2.264   6.548   0.304
 1713TIP3    H1 5078   2.304   6.636   0.320
 1713TIP3    H2 5079   2.314   6.523   0.224
 1714TIP3   OH2 5080   3.412   6.494   0.236
 1714TIP3    H1 5081   3.315   6.499   0.223
 1714TIP3    H2 5082   3.439   6.580   0.199
 1715TIP3   OH2 5083   2.743   6.173   0.224
 1715TIP3    H1 5084   2.741   6.078   0.245
 1715TIP3    H2 5085   2.666   6.205   0.275
 1716TIP3   OH2 5086   3.261   7.074   0.377
 1716TIP3    H1 5087   3.241   7.133   0.452
 1716TIP3    H2 5088   3.171   7.057   0.342
 1717TIP3   OH2 5089   2.416   6.984   0.234
 1717TIP3    H1 5090   2.434   6.955   0.142
 1717TIP3    H2 5091   2.475   7.062   0.241
 1718TIP3   OH2 5092   2.546   7.434   0.547
 1718TIP3    H1 5093   2.511   7.523   0.566
 1718TIP3    H2 5094   2.478   7.398   0.488
 1719TIP3   OH2 5095   2.295   7.110   0.658
 1719TIP3    H1 5096   2.292   7.193   0.710
 1719TIP3    H2 5097   2.201   7.087   0.649
 1720TIP3   OH2 5098   3.499   7.008   0.528
 1720TIP3    H1 5099   3.423   7.016   0.469
 1720TIP3    H2 5100   3.513   6.911   0.532
 1721TIP3   OH2 5101   2.080   7.424   0.614
 1721TIP3    H1 5102   2.161   7.405   0.666
 1721TIP3    H2 5103   2.039   7.337   0.610
 1722TIP3   OH2 5104   2.507   6.243   0.355
 1722TIP3    H1 5105   2.417   6.212   0.329
 1722TIP3    H2 5106   2.481   6.324   0.404
 1723TIP3   OH2 5107   3.041   6.362   0.550
 1723TIP3    H1 5108   3.111   6.333   0.612
 1723TIP3    H2 5109   2.959   6.339   0.599
 1724TIP3   OH2 5110   3.274   6.789   0.467
 1724TIP3    H1 5111   3.227   6.789   0.554
 1724TIP3    H2 5112   3.248   6.874   0.429
 1725TIP3   OH2 5113   2.434   6.758   0.380
 1725TIP3    H1 5114   2.386   6.783   0.461
 1725TIP3    H2 5115   2.426   6.839   0.326
 1726TIP3   OH2 5116   2.990   7.009   0.699
 1726TIP3    H1 5117   2.965   6.936   0.761
 1726TIP3    H2 5118   3.084   7.020   0.723
 1727TIP3   OH2 5119   2.262   6.786   0.602
 1727TIP3    H1 5120   2.323   6.827   0.664
 1727TIP3    H2 5121   2.248   6.698   0.641
 1728TIP3   OH2 5122   3.005   7.006   0.311
 1728TIP3    H1 5123   2.984   6.988   0.218
 1728TIP3    H2 5124   2.961   6.933   0.358
 1729TIP3   OH2 5125   2.669   6.479  -0.023
 1729TIP3    H1 5126   2.583   6.500   0.020
 1729TIP3    H2 5127   2.726   6.462   0.053
 1730TIP3   OH2 5128   3.137   6.511   0.191
 1730TIP3    H1 5129   3.105   6.563   0.267
 1730TIP3    H2 5130   3.056   6.464   0.165
 1731TIP3   OH2 5131   2.274   7.351   0.797
 1731TIP3    H1 5132   2.355   7.371   0.849
 1731TIP3    H2 5133   2.208   7.338   0.868
 1732TIP3   OH2 5134   2.821   6.770   0.119
 1732TIP3    H1 5135   2.802   6.693   0.063
 1732TIP3    H2 5136   2.794   6.736   0.207
 1733TIP3   OH2 5137   2.311   6.253  -0.035
 1733TIP3    H1 5138   2.280   6.165  -0.009
 1733TIP3    H2 5139   2.382   6.236  -0.100
 1734TIP3   OH2 5140   2.702   6.687   0.353
 1734TIP3    H1 5141   2.610   6.721   0.360
 1734TIP3    H2 5142   2.753   6.749   0.410
 1735TIP3   OH2 5143   2.862   7.443   0.431
 1735TIP3    H1 5144   2.885   7.368   0.488
 1735TIP3    H2 5145   2.777   7.470   0.469
 1736TIP3   OH2 5146   1.999   7.052   0.742
 1736TIP3    H1 5147   2.044   7.032   0.826
 1736TIP3    H2 5148   1.986   6.964   0.705
 1737TIP3   OH2 5149   2.750   7.132   0.742
 1737TIP3    H1 5150   2.691   7.079   0.685
 1737TIP3    H2 5151   2.838   7.098   0.714
 1738TIP3   OH2 5152   2.230   6.529   0.729
 1738TIP3    H1 5153   2.133   6.531   0.742
 1738TIP3    H2 5154   2.258   6.472   0.803
 1739TIP3   OH2 5155   3.053   6.611   0.434
 1739TIP3    H1 5156   3.140   6.642   0.465
 1739TIP3    H2 5157   3.045   6.524   0.479
 1740TIP3   OH2 5158   2.892   6.832   0.492
 1740TIP3    H1 5159   2.926   6.882   0.569
 1740TIP3    H2 5160   2.950   6.753   0.491
 1741TIP3   OH2 5161   3.540   6.738   0.478
 1741TIP3    H1 5162   3.442   6.735   0.477
 1741TIP3    H2 5163   3.561   6.727   0.384
 1742TIP3   OH2 5164   2.244   6.159   0.327
 1742TIP3    H1 5165   2.214   6.121   0.243
 1742TIP3    H2 5166   2.234   6.083   0.388
 1743TIP3   OH2 5167   2.057   7.300   0.967
 1743TIP3    H1 5168   2.101   7.213   0.964
 1743TIP3    H2 5169   1.966   7.273   0.988
 1744TIP3   OH2 5170   2.684   7.396   0.777
 1744TIP3    H1 5171   2.643   7.402   0.688
 1744TIP3    H2 5172   2.722   7.306   0.772
 1745TIP3   OH2 5173   3.148   7.435   0.392
 1745TIP3    H1 5174   3.185   7.484   0.318
 1745TIP3    H2 5175   3.056   7.469   0.395
 1746TIP3   OH2 5176   2.193   7.063   0.959
 1746TIP3    H1 5177   2.268   7.006   0.937
 1746TIP3    H2 5178   2.217   7.091   1.051
 1747TIP3   OH2 5179   2.513   6.944   0.622
 1747TIP3    H1 5180   2.444   7.013   0.627
 1747TIP3    H2 5181   2.572   6.980   0.552
 1748TIP3   OH2 5182   3.045   7.345   0.758
 1748TIP3    H1 5183   3.120   7.313   0.705
 1748TIP3    H2 5184   3.042   7.280   0.830
 1749TIP3   OH2 5185   2.637   6.736   0.756
 1749TIP3    H1 5186   2.644   6.656   0.701
 1749TIP3    H2 5187   2.598   6.801   0.693
 1750TIP3   OH2 5188   2.645   6.521   0.569
 1750TIP3    H1 5189   2.672   6.563   0.485
 1750TIP3    H2 5190   2.552   6.496   0.550
 1751TIP3   OH2 5191   2.680   7.057   0.446
 1751TIP3    H1 5192   2.768   7.047   0.406
 1751TIP3    H2 5193   2.638   7.123   0.387
 1752TIP3   OH2 5194   3.252   7.026   0.812
 1752TIP3    H1 5195   3.297   6.942   0.832
 1752TIP3    H2 5196   3.325   7.080   0.778
 1753TIP3   OH2 5197   3.273   7.278   0.571
 1753TIP3    H1 5198   3.225   7.338   0.509
 1753TIP3    H2 5199   3.365   7.290   0.539
 1754TIP3   OH2 5200   2.512   6.852   0.980
 1754TIP3    H1 5201   2.450   6.778   0.997
 1754TIP3    H2 5202   2.554   6.823   0.897
 1755TIP3   OH2 5203   2.781   6.285   0.627
 1755TIP3    H1 5204   2.730   6.367   0.609
 1755TIP3    H2 5205   2.713   6.217   0.617
 1756TIP3   OH2 5206   2.902   6.797   0.842
 1756TIP3    H1 5207   2.907   6.766   0.934
 1756TIP3    H2 5208   2.812   6.767   0.820
 1757TIP3   OH2 5209   3.147   6.744   0.701
 1757TIP3    H1 5210   3.071   6.739   0.763
 1757TIP3    H2 5211   3.220   6.711   0.756
 1758TIP3   OH2 5212   3.376   6.681   0.847
 1758TIP3    H1 5213   3.386   6.585   0.865
 1758TIP3    H2 5214   3.369   6.718   0.937
 1759TIP3   OH2 5215   2.362   6.626   1.038
 1759TIP3    H1 5216   2.370   6.536   1.002
 1759TIP3    H2 5217   2.401   6.614   1.127
 1760TIP3   OH2 5218   2.861   6.291   0.894
 1760TIP3    H1 5219   2.934   6.226   0.890
 1760TIP3    H2 5220   2.830   6.287   0.801
 1761TIP3   OH2 5221   2.952   6.538   0.995
 1761TIP3    H1 5222   2.929   6.447   0.968
 1761TIP3    H2 5223   2.866   6.574   1.023
 1762TIP3   OH2 5224   3.508   7.715   0.580
 1762TIP3    H1 5225   3.438   7.689   0.645
 1762TIP3    H2 5226   3.568   7.765   0.635
 1763TIP3   OH2 5227   3.533   7.336   0.497
 1763TIP3    H1 5228   3.605   7.269   0.509
 1763TIP3    H2 5229   3.554   7.359   0.404
 1764TIP3   OH2 5230   3.726   7.148   0.530
 1764TIP3    H1 5231   3.647   7.090   0.523
 1764TIP3    H2 5232   3.795   7.087   0.497
 1765TIP3   OH2 5233   2.097   6.682   1.008
 1765TIP3    H1 5234   2.195   6.673   1.010
 1765TIP3    H2 5235   2.072   6.594   1.043
 1766TIP3   OH2 5236   3.928   6.549   0.767
 1766TIP3    H1 5237   3.986   6.479   0.729
 1766TIP3    H2 5238   3.905   6.601   0.687
 1767TIP3   OH2 5239   2.058   6.368   0.345
 1767TIP3    H1 5240   2.129   6.302   0.356
 1767TIP3    H2 5241   2.111   6.448   0.327
 1768TIP3   OH2 5242   3.796   6.687   0.568
 1768TIP3    H1 5243   3.708   6.726   0.588
 1768TIP3    H2 5244   3.768   6.612   0.512
 1769TIP3   OH2 5245   2.058   6.227   0.723
 1769TIP3    H1 5246   2.010   6.226   0.807
 1769TIP3    H2 5247   1.993   6.267   0.663
 1770TIP3   OH2 5248   3.692   6.444   0.451
 1770TIP3    H1 5249   3.599   6.430   0.428
 1770TIP3    H2 5250   3.728   6.353   0.442
 1771TIP3   OH2 5251   2.927   6.346   0.081
 1771TIP3    H1 5252   2.866   6.290   0.133
 1771TIP3    H2 5253   2.944   6.289   0.005
 1772TIP3   OH2 5254   2.151   6.049   0.085
 1772TIP3    H1 5255   2.062   6.007   0.089
 1772TIP3    H2 5256   2.206   5.968   0.079
 1773TIP3   OH2 5257   2.603   6.065   0.003
 1773TIP3    H1 5258   2.689   6.045  -0.042
 1773TIP3    H2 5259   2.636   6.118   0.078
 1774TIP3   OH2 5260   2.360   6.349   0.969
 1774TIP3    H1 5261   2.326   6.279   1.028
 1774TIP3    H2 5262   2.454   6.350   0.997
 1775TIP3   OH2 5263   2.609   6.348   1.089
 1775TIP3    H1 5264   2.695   6.329   1.046
 1775TIP3    H2 5265   2.603   6.275   1.154
 1776TIP3   OH2 5266   3.433   6.409   0.874
 1776TIP3    H1 5267   3.447   6.387   0.970
 1776TIP3    H2 5268   3.525   6.402   0.841
 1777TIP3   OH2 5269   3.854   7.553   0.498
 1777TIP3    H1 5270   3.892   7.465   0.478
 1777TIP3    H2 5271   3.802   7.569   0.418
 1778TIP3   OH2 5272   3.991   7.324   0.455
 1778TIP3    H1 5273   4.023   7.234   0.445
 1778TIP3    H2 5274   4.020   7.346   0.546
 1779TIP3   OH2 5275   4.323   7.098   0.454
 1779TIP3    H1 5276   4.257   7.036   0.492
 1779TIP3    H2 5277   4.370   7.037   0.393
 1780TIP3   OH2 5278   4.152   6.898   0.532
 1780TIP3    H1 5279   4.152   6.805   0.499
 1780TIP3    H2 5280   4.190   6.883   0.621
 1781TIP3   OH2 5281   4.731   6.764   0.521
 1781TIP3    H1 5282   4.696   6.706   0.452
 1781TIP3    H2 5283   4.657   6.828   0.532
 1782TIP3   OH2 5284   3.888   6.931   0.472
 1782TIP3    H1 5285   3.985   6.928   0.489
 1782TIP3    H2 5286   3.861   6.850   0.520
 1783TIP3   OH2 5287   3.839   6.495   0.223
 1783TIP3    H1 5288   3.788   6.482   0.305
 1783TIP3    H2 5289   3.807   6.581   0.193
 1784TIP3   OH2 5290   4.157   6.633   0.481
 1784TIP3    H1 5291   4.134   6.542   0.454
 1784TIP3    H2 5292   4.248   6.621   0.513
 1785TIP3   OH2 5293   4.408   6.605   0.592
 1785TIP3    H1 5294   4.495   6.580   0.559
 1785TIP3    H2 5295   4.389   6.532   0.655
 1786TIP3   OH2 5296   1.404   0.037   3.988
 1786TIP3    H1 5297   1.378  -0.003   4.071
 1786TIP3    H2 5298   1.422   0.129   4.013
 1787TIP3   OH2 5299   1.049   0.507   3.978
 1787TIP3    H1 5300   1.088   0.423   3.951
 1787TIP3    H2 5301   1.026   0.491   4.070
 1788TIP3   OH2 5302   1.993  -0.506   4.526
 1788TIP3    H1 5303   1.918  -0.449   4.499
 1788TIP3    H2 5304   2.052  -0.444   4.570
 1789TIP3   OH2 5305   1.462   0.298   4.135
 1789TIP3    H1 5306   1.369   0.295   4.168
 1789TIP3    H2 5307   1.461   0.385   4.090
 1790TIP3   OH2 5308   1.685   0.208   4.481
 1790TIP3    H1 5309   1.675   0.134   4.418
 1790TIP3    H2 5310   1.666   0.285   4.424
 1791TIP3   OH2 5311   1.881  -0.151   4.325
 1791TIP3    H1 5312   1.797  -0.099   4.328
 1791TIP3    H2 5313   1.911  -0.128   4.234
 1792TIP3   OH2 5314   1.212   0.313   4.230
 1792TIP3    H1 5315   1.198   0.396   4.280
 1792TIP3    H2 5316   1.196   0.244   4.298
 1793TIP3   OH2 5317   1.926   0.558   4.528
 1793TIP3    H1 5318   1.923   0.462   4.543
 1793TIP3    H2 5319   1.842   0.585   4.571
 1794TIP3   OH2 5320   1.057   0.366   4.626
 1794TIP3    H1 5321   1.048   0.451   4.675
 1794TIP3    H2 5322   0.981   0.317   4.663
 1795TIP3   OH2 5323   1.818  -0.323   4.798
 1795TIP3    H1 5324   1.736  -0.272   4.794
 1795TIP3    H2 5325   1.787  -0.414   4.787
 1796TIP3   OH2 5326   1.619   0.901   4.625
 1796TIP3    H1 5327   1.611   0.931   4.533
 1796TIP3    H2 5328   1.690   0.959   4.659
 1797TIP3   OH2 5329   1.647  -0.004   4.307
 1797TIP3    H1 5330   1.681   0.049   4.232
 1797TIP3    H2 5331   1.564  -0.041   4.270
 1798TIP3   OH2 5332   1.323   0.327   4.591
 1798TIP3    H1 5333   1.226   0.344   4.591
 1798TIP3    H2 5334   1.348   0.386   4.665
 1799TIP3   OH2 5335   1.937   0.270   4.565
 1799TIP3    H1 5336   1.839   0.263   4.561
 1799TIP3    H2 5337   1.961   0.241   4.474
 1800TIP3   OH2 5338   1.426  -0.155   4.219
 1800TIP3    H1 5339   1.333  -0.170   4.245
 1800TIP3    H2 5340   1.437  -0.215   4.145
 1801TIP3   OH2 5341   0.831   0.439   4.470
 1801TIP3    H1 5342   0.852   0.513   4.411
 1801TIP3    H2 5343   0.913   0.431   4.521
 1802TIP3   OH2 5344   1.246   0.093   4.410
 1802TIP3    H1 5345   1.209   0.123   4.494
 1802TIP3    H2 5346   1.341   0.096   4.429
 1803TIP3   OH2 5347   1.447   0.591   4.460
 1803TIP3    H1 5348   1.362   0.543   4.450
 1803TIP3    H2 5349   1.436   0.660   4.391
 1804TIP3   OH2 5350   1.471   0.562   4.057
 1804TIP3    H1 5351   1.424   0.613   3.987
 1804TIP3    H2 5352   1.564   0.585   4.035
 1805TIP3   OH2 5353   1.374   0.465   4.822
 1805TIP3    H1 5354   1.386   0.402   4.894
 1805TIP3    H2 5355   1.442   0.532   4.844
 1806TIP3   OH2 5356   1.473   0.104   4.623
 1806TIP3    H1 5357   1.556   0.137   4.583
 1806TIP3    H2 5358   1.420   0.187   4.619
 1807TIP3   OH2 5359   1.632  -0.062   4.787
 1807TIP3    H1 5360   1.575  -0.007   4.730
 1807TIP3    H2 5361   1.720  -0.035   4.751
 1808TIP3   OH2 5362   1.726   0.650   4.018
 1808TIP3    H1 5363   1.747   0.689   4.105
 1808TIP3    H2 5364   1.775   0.707   3.958
 1809TIP3   OH2 5365   1.750   0.679   4.298
 1809TIP3    H1 5366   1.706   0.592   4.293
 1809TIP3    H2 5367   1.822   0.658   4.359
 1810TIP3   OH2 5368   1.796   0.353   4.871
 1810TIP3    H1 5369   1.723   0.361   4.936
 1810TIP3    H2 5370   1.836   0.442   4.875
 1811TIP3   OH2 5371   1.801   0.131   4.128
 1811TIP3    H1 5372   1.846   0.065   4.073
 1811TIP3    H2 5373   1.793   0.207   4.068
 1812TIP3   OH2 5374   1.625   0.427   4.324
 1812TIP3    H1 5375   1.555   0.475   4.373
 1812TIP3    H2 5376   1.574   0.385   4.252
 1813TIP3   OH2 5377   1.865   0.026   4.684
 1813TIP3    H1 5378   1.936  -0.042   4.677
 1813TIP3    H2 5379   1.897   0.098   4.628
 1814TIP3   OH2 5380   2.033  -0.182   4.704
 1814TIP3    H1 5381   1.958  -0.231   4.744
 1814TIP3    H2 5382   2.106  -0.243   4.727
 1815TIP3   OH2 5383   1.713  -0.519   4.245
 1815TIP3    H1 5384   1.792  -0.489   4.196
 1815TIP3    H2 5385   1.725  -0.469   4.328
 1816TIP3   OH2 5386   1.762  -0.357   4.465
 1816TIP3    H1 5387   1.677  -0.319   4.494
 1816TIP3    H2 5388   1.804  -0.280   4.421
 1817TIP3   OH2 5389   1.284   0.542   3.667
 1817TIP3    H1 5390   1.331   0.492   3.599
 1817TIP3    H2 5391   1.354   0.580   3.722
 1818TIP3   OH2 5392   1.031   0.614   4.744
 1818TIP3    H1 5393   1.063   0.607   4.836
 1818TIP3    H2 5394   1.097   0.673   4.703
 1819TIP3   OH2 5395   1.215   0.761   4.602
 1819TIP3    H1 5396   1.289   0.711   4.565
 1819TIP3    H2 5397   1.262   0.820   4.665
 1820TIP3   OH2 5398   0.932   0.631   4.279
 1820TIP3    H1 5399   0.853   0.649   4.223
 1820TIP3    H2 5400   0.944   0.718   4.322
 1821TIP3   OH2 5401   1.195   0.568   4.335
 1821TIP3    H1 5402   1.099   0.584   4.321
 1821TIP3    H2 5403   1.232   0.650   4.299
 1822TIP3   OH2 5404   1.404   0.759   4.250
 1822TIP3    H1 5405   1.385   0.844   4.203
 1822TIP3    H2 5406   1.424   0.699   4.175
 1823TIP3   OH2 5407   1.679   0.634   4.621
 1823TIP3    H1 5408   1.598   0.604   4.574
 1823TIP3    H2 5409   1.659   0.730   4.630
 1824TIP3   OH2 5410   2.944   0.011   3.395
 1824TIP3    H1 5411   2.913   0.103   3.396
 1824TIP3    H2 5412   2.862  -0.037   3.376
 1825TIP3   OH2 5413   2.941   0.007   3.776
 1825TIP3    H1 5414   2.975  -0.013   3.865
 1825TIP3    H2 5415   2.901  -0.078   3.751
 1826TIP3   OH2 5416   2.241  -0.097   4.135
 1826TIP3    H1 5417   2.271  -0.168   4.195
 1826TIP3    H2 5418   2.313  -0.034   4.145
 1827TIP3   OH2 5419   3.180   0.310   3.459
 1827TIP3    H1 5420   3.177   0.242   3.528
 1827TIP3    H2 5421   3.211   0.387   3.509
 1828TIP3   OH2 5422   2.214   0.311   3.862
 1828TIP3    H1 5423   2.203   0.214   3.865
 1828TIP3    H2 5424   2.311   0.320   3.857
 1829TIP3   OH2 5425   1.989  -0.184   3.794
 1829TIP3    H1 5426   2.024  -0.264   3.838
 1829TIP3    H2 5427   2.066  -0.125   3.789
 1830TIP3   OH2 5428   2.835   0.773   3.470
 1830TIP3    H1 5429   2.882   0.700   3.426
 1830TIP3    H2 5430   2.821   0.738   3.559
 1831TIP3   OH2 5431   2.741   0.232   3.820
 1831TIP3    H1 5432   2.784   0.154   3.782
 1831TIP3    H2 5433   2.822   0.281   3.846
 1832TIP3   OH2 5434   3.159  -0.264   3.869
 1832TIP3    H1 5435   3.179  -0.354   3.896
 1832TIP3    H2 5436   3.121  -0.276   3.779
 1833TIP3   OH2 5437   2.457  -0.653   3.794
 1833TIP3    H1 5438   2.437  -0.565   3.758
 1833TIP3    H2 5439   2.394  -0.710   3.748
 1834TIP3   OH2 5440   3.152  -0.485   3.491
 1834TIP3    H1 5441   3.209  -0.535   3.554
 1834TIP3    H2 5442   3.207  -0.491   3.412
 1835TIP3   OH2 5443   2.098  -0.406   3.911
 1835TIP3    H1 5444   2.190  -0.399   3.947
 1835TIP3    H2 5445   2.106  -0.488   3.862
 1836TIP3   OH2 5446   2.563  -0.209   3.713
 1836TIP3    H1 5447   2.658  -0.227   3.734
 1836TIP3    H2 5448   2.529  -0.300   3.701
 1837TIP3   OH2 5449   3.788  -0.257   4.017
 1837TIP3    H1 5450   3.716  -0.200   3.984
 1837TIP3    H2 5451   3.852  -0.194   4.052
 1838TIP3   OH2 5452   2.828   0.228   3.246
 1838TIP3    H1 5453   2.739   0.240   3.207
 1838TIP3    H2 5454   2.831   0.315   3.292
 1839TIP3   OH2 5455   2.594   0.154   4.047
 1839TIP3    H1 5456   2.532   0.220   4.086
 1839TIP3    H2 5457   2.633   0.205   3.973
 1840TIP3   OH2 5458   2.354  -0.434   3.983
 1840TIP3    H1 5459   2.423  -0.390   4.036
 1840TIP3    H2 5460   2.383  -0.526   3.994
 1841TIP3   OH2 5461   2.424   0.349   4.145
 1841TIP3    H1 5462   2.398   0.436   4.109
 1841TIP3    H2 5463   2.345   0.332   4.201
 1842TIP3   OH2 5464   3.258   0.555   3.621
 1842TIP3    H1 5465   3.169   0.546   3.662
 1842TIP3    H2 5466   3.249   0.642   3.577
 1843TIP3   OH2 5467   2.962   0.598   3.298
 1843TIP3    H1 5468   3.014   0.518   3.274
 1843TIP3    H2 5469   3.020   0.667   3.257
 1844TIP3   OH2 5470   3.102   0.381   3.206
 1844TIP3    H1 5471   3.069   0.299   3.169
 1844TIP3    H2 5472   3.141   0.351   3.291
 1845TIP3   OH2 5473   3.482   0.465   3.967
 1845TIP3    H1 5474   3.468   0.387   3.908
 1845TIP3    H2 5475   3.460   0.539   3.907
 1846TIP3   OH2 5476   2.775  -0.129   3.215
 1846TIP3    H1 5477   2.679  -0.106   3.208
 1846TIP3    H2 5478   2.789  -0.185   3.136
 1847TIP3   OH2 5479   3.678   0.110   3.813
 1847TIP3    H1 5480   3.593   0.159   3.813
 1847TIP3    H2 5481   3.707   0.127   3.721
 1848TIP3   OH2 5482   3.127  -0.052   3.207
 1848TIP3    H1 5483   3.076  -0.040   3.291
 1848TIP3    H2 5484   3.213  -0.084   3.243
 1849TIP3   OH2 5485   3.352  -0.015   4.111
 1849TIP3    H1 5486   3.344   0.067   4.163
 1849TIP3    H2 5487   3.266  -0.016   4.066
 1850TIP3   OH2 5488   2.359  -0.059   3.609
 1850TIP3    H1 5489   2.332  -0.107   3.529
 1850TIP3    H2 5490   2.435  -0.112   3.642
 1851TIP3   OH2 5491   2.483   0.350   3.761
 1851TIP3    H1 5492   2.462   0.318   3.672
 1851TIP3    H2 5493   2.573   0.314   3.775
 1852TIP3   OH2 5494   2.494  -0.091   3.967
 1852TIP3    H1 5495   2.528  -0.112   3.878
 1852TIP3    H2 5496   2.535  -0.004   3.987
 1853TIP3   OH2 5497   3.018   0.549   3.743
 1853TIP3    H1 5498   3.002   0.631   3.793
 1853TIP3    H2 5499   2.999   0.478   3.808
 1854TIP3   OH2 5500   2.627   0.466   4.291
 1854TIP3    H1 5501   2.566   0.529   4.336
 1854TIP3    H2 5502   2.562   0.414   4.240
 1855TIP3   OH2 5503   2.956  -0.142   3.006
 1855TIP3    H1 5504   3.034  -0.159   3.063
 1855TIP3    H2 5505   2.993  -0.157   2.916
 1856TIP3   OH2 5506   2.373   0.033   4.383
 1856TIP3    H1 5507   2.380   0.117   4.433
 1856TIP3    H2 5508   2.281   0.008   4.405
 1857TIP3   OH2 5509   2.713   0.472   3.303
 1857TIP3    H1 5510   2.783   0.539   3.314
 1857TIP3    H2 5511   2.646   0.520   3.253
 1858TIP3   OH2 5512   2.423   0.634   4.379
 1858TIP3    H1 5513   2.386   0.637   4.288
 1858TIP3    H2 5514   2.343   0.611   4.432
 1859TIP3   OH2 5515   3.278   0.408   2.619
 1859TIP3    H1 5516   3.285   0.505   2.604
 1859TIP3    H2 5517   3.372   0.381   2.606
 1860TIP3   OH2 5518   2.001   0.167   4.324
 1860TIP3    H1 5519   1.933   0.149   4.255
 1860TIP3    H2 5520   2.037   0.078   4.344
 1861TIP3   OH2 5521   1.855   0.358   3.961
 1861TIP3    H1 5522   1.951   0.366   3.954
 1861TIP3    H2 5523   1.831   0.441   4.005
 1862TIP3   OH2 5524   3.725   0.802   4.072
 1862TIP3    H1 5525   3.720   0.706   4.049
 1862TIP3    H2 5526   3.630   0.828   4.066
 1863TIP3   OH2 5527   2.826   0.594   4.150
 1863TIP3    H1 5528   2.823   0.687   4.180
 1863TIP3    H2 5529   2.752   0.555   4.202
 1864TIP3   OH2 5530   2.593   0.730   3.101
 1864TIP3    H1 5531   2.544   0.713   3.018
 1864TIP3    H2 5532   2.556   0.817   3.129
 1865TIP3   OH2 5533   2.036   0.591   3.483
 1865TIP3    H1 5534   2.076   0.577   3.571
 1865TIP3    H2 5535   1.983   0.508   3.475
 1866TIP3   OH2 5536   2.790   0.629   2.744
 1866TIP3    H1 5537   2.848   0.558   2.708
 1866TIP3    H2 5538   2.822   0.636   2.836
 1867TIP3   OH2 5539   2.841   0.675   3.010
 1867TIP3    H1 5540   2.751   0.686   3.048
 1867TIP3    H2 5541   2.890   0.643   3.088
 1868TIP3   OH2 5542   3.604  -0.070   4.285
 1868TIP3    H1 5543   3.524  -0.048   4.235
 1868TIP3    H2 5544   3.600  -0.167   4.283
 1869TIP3   OH2 5545   2.206   0.348   4.309
 1869TIP3    H1 5546   2.254   0.335   4.393
 1869TIP3    H2 5547   2.131   0.286   4.318
 1870TIP3   OH2 5548   3.388  -0.273   4.231
 1870TIP3    H1 5549   3.349  -0.252   4.316
 1870TIP3    H2 5550   3.361  -0.198   4.175
 1871TIP3   OH2 5551   3.057  -0.137   2.756
 1871TIP3    H1 5552   3.043  -0.178   2.669
 1871TIP3    H2 5553   3.141  -0.091   2.740
 1872TIP3   OH2 5554   2.553  -0.304   4.132
 1872TIP3    H1 5555   2.492  -0.286   4.206
 1872TIP3    H2 5556   2.537  -0.225   4.075
 1873TIP3   OH2 5557   2.416  -0.442   3.622
 1873TIP3    H1 5558   2.321  -0.432   3.606
 1873TIP3    H2 5559   2.450  -0.457   3.533
 1874TIP3   OH2 5560   2.906  -0.331   3.363
 1874TIP3    H1 5561   2.868  -0.257   3.313
 1874TIP3    H2 5562   2.970  -0.366   3.296
 1875TIP3   OH2 5563   3.095  -0.029   4.434
 1875TIP3    H1 5564   3.069  -0.112   4.481
 1875TIP3    H2 5565   3.190  -0.026   4.456
 1876TIP3   OH2 5566   3.048  -0.272   3.616
 1876TIP3    H1 5567   2.991  -0.237   3.547
 1876TIP3    H2 5568   3.078  -0.354   3.570
 1877TIP3   OH2 5569   2.355  -0.277   4.325
 1877TIP3    H1 5570   2.369  -0.214   4.397
 1877TIP3    H2 5571   2.335  -0.359   4.372
 1878TIP3   OH2 5572   3.074  -0.059   4.018
 1878TIP3    H1 5573   3.111  -0.131   3.962
 1878TIP3    H2 5574   3.050  -0.112   4.097
 1879TIP3   OH2 5575   3.397   1.149   4.106
 1879TIP3    H1 5576   3.392   1.181   4.014
 1879TIP3    H2 5577   3.480   1.195   4.135
 1880TIP3   OH2 5578   2.368   0.272   4.533
 1880TIP3    H1 5579   2.446   0.303   4.582
 1880TIP3    H2 5580   2.302   0.271   4.605
 1881TIP3   OH2 5581   2.818  -0.268   3.789
 1881TIP3    H1 5582   2.900  -0.304   3.751
 1881TIP3    H2 5583   2.822  -0.305   3.881
 1882TIP3   OH2 5584   2.826  -0.343   4.050
 1882TIP3    H1 5585   2.736  -0.350   4.087
 1882TIP3    H2 5586   2.876  -0.303   4.122
 1883TIP3   OH2 5587   2.526  -0.018   3.190
 1883TIP3    H1 5588   2.440   0.011   3.156
 1883TIP3    H2 5589   2.523   0.026   3.278
 1884TIP3   OH2 5590   3.442   0.251   3.801
 1884TIP3    H1 5591   3.466   0.300   3.720
 1884TIP3    H2 5592   3.358   0.207   3.774
 1885TIP3   OH2 5593   2.948   0.336   4.168
 1885TIP3    H1 5594   2.959   0.308   4.260
 1885TIP3    H2 5595   2.904   0.422   4.176
 1886TIP3   OH2 5596   3.070  -0.392   3.154
 1886TIP3    H1 5597   3.167  -0.404   3.159
 1886TIP3    H2 5598   3.053  -0.399   3.059
 1887TIP3   OH2 5599   2.228   0.019   3.847
 1887TIP3    H1 5600   2.277   0.001   3.764
 1887TIP3    H2 5601   2.281  -0.027   3.913
 1888TIP3   OH2 5602   2.673   0.161   3.020
 1888TIP3    H1 5603   2.642   0.255   3.019
 1888TIP3    H2 5604   2.594   0.119   3.058
 1889TIP3   OH2 5605   2.120  -0.049   4.461
 1889TIP3    H1 5606   2.137  -0.063   4.556
 1889TIP3    H2 5607   2.045  -0.110   4.446
 1890TIP3   OH2 5608   2.842   0.075   4.484
 1890TIP3    H1 5609   2.779   0.018   4.435
 1890TIP3    H2 5610   2.928   0.042   4.450
 1891TIP3   OH2 5611   3.104   0.589   4.064
 1891TIP3    H1 5612   3.008   0.587   4.077
 1891TIP3    H2 5613   3.132   0.642   4.142
 1892TIP3   OH2 5614   3.513  -0.341   2.960
 1892TIP3    H1 5615   3.455  -0.393   2.900
 1892TIP3    H2 5616   3.497  -0.251   2.923
 1893TIP3   OH2 5617   3.730   0.527   4.050
 1893TIP3    H1 5618   3.634   0.512   4.038
 1893TIP3    H2 5619   3.761   0.494   3.963
 1894TIP3   OH2 5620   3.214   0.486   2.881
 1894TIP3    H1 5621   3.193   0.417   2.945
 1894TIP3    H2 5622   3.227   0.438   2.797
 1895TIP3   OH2 5623   3.209   0.114   3.715
 1895TIP3    H1 5624   3.117   0.087   3.731
 1895TIP3    H2 5625   3.245   0.034   3.673
 1896TIP3   OH2 5626   2.335   0.338   3.469
 1896TIP3    H1 5627   2.331   0.422   3.417
 1896TIP3    H2 5628   2.241   0.320   3.479
 1897TIP3   OH2 5629   2.483   0.111   3.422
 1897TIP3    H1 5630   2.441   0.200   3.431
 1897TIP3    H2 5631   2.443   0.065   3.498
 1898TIP3   OH2 5632   2.607   0.683   3.941
 1898TIP3    H1 5633   2.647   0.757   3.890
 1898TIP3    H2 5634   2.684   0.650   3.989
 1899TIP3   OH2 5635   2.261   0.575   3.324
 1899TIP3    H1 5636   2.176   0.587   3.371
 1899TIP3    H2 5637   2.294   0.668   3.325
 1900TIP3   OH2 5638   2.992   0.315   3.901
 1900TIP3    H1 5639   2.983   0.317   3.999
 1900TIP3    H2 5640   3.073   0.263   3.891
 1901TIP3   OH2 5641   2.978   0.214   2.771
 1901TIP3    H1 5642   3.011   0.183   2.857
 1901TIP3    H2 5643   2.889   0.174   2.766
 1902TIP3   OH2 5644   3.248   0.847   3.951
 1902TIP3    H1 5645   3.166   0.794   3.946
 1902TIP3    H2 5646   3.232   0.914   3.880
 1903TIP3   OH2 5647   3.307   0.682   2.603
 1903TIP3    H1 5648   3.341   0.753   2.546
 1903TIP3    H2 5649   3.228   0.729   2.640
 1904TIP3   OH2 5650   3.106   0.131   3.014
 1904TIP3    H1 5651   3.130   0.065   3.083
 1904TIP3    H2 5652   3.196   0.148   2.980
 1905TIP3   OH2 5653   2.049   0.544   4.098
 1905TIP3    H1 5654   2.101   0.474   4.141
 1905TIP3    H2 5655   2.066   0.619   4.157
 1906TIP3   OH2 5656   2.330   0.191   3.066
 1906TIP3    H1 5657   2.265   0.180   3.137
 1906TIP3    H2 5658   2.316   0.287   3.048
 1907TIP3   OH2 5659   2.561   0.405   3.028
 1907TIP3    H1 5660   2.472   0.432   3.058
 1907TIP3    H2 5661   2.557   0.433   2.934
 1908TIP3   OH2 5662   2.718  -0.531   3.399
 1908TIP3    H1 5663   2.786  -0.460   3.397
 1908TIP3    H2 5664   2.762  -0.596   3.457
 1909TIP3   OH2 5665   3.019  -0.222   4.229
 1909TIP3    H1 5666   3.010  -0.165   4.307
 1909TIP3    H2 5667   3.064  -0.299   4.267
 1910TIP3   OH2 5668   2.293   0.464   3.070
 1910TIP3    H1 5669   2.260   0.535   3.011
 1910TIP3    H2 5670   2.271   0.501   3.158
 1911TIP3   OH2 5671   3.295  -0.126   3.596
 1911TIP3    H1 5672   3.217  -0.181   3.617
 1911TIP3    H2 5673   3.367  -0.173   3.644
 1912TIP3   OH2 5674   3.268   0.824   3.543
 1912TIP3    H1 5675   3.223   0.870   3.468
 1912TIP3    H2 5676   3.362   0.839   3.518
 1913TIP3   OH2 5677   1.910   0.353   3.459
 1913TIP3    H1 5678   1.822   0.320   3.481
 1913TIP3    H2 5679   1.921   0.316   3.370
 1914TIP3   OH2 5680   2.036   0.856   4.522
 1914TIP3    H1 5681   2.121   0.856   4.570
 1914TIP3    H2 5682   2.013   0.761   4.523
 1915TIP3   OH2 5683   2.517   0.814   4.572
 1915TIP3    H1 5684   2.612   0.797   4.572
 1915TIP3    H2 5685   2.487   0.755   4.499
 1916TIP3   OH2 5686   2.518   0.398   2.749
 1916TIP3    H1 5687   2.438   0.346   2.763
 1916TIP3    H2 5688   2.530   0.381   2.653
 1917TIP3   OH2 5689   3.164   0.720   4.300
 1917TIP3    H1 5690   3.148   0.651   4.368
 1917TIP3    H2 5691   3.221   0.782   4.347
 1918TIP3   OH2 5692   2.935   0.438   2.608
 1918TIP3    H1 5693   2.979   0.375   2.669
 1918TIP3    H2 5694   2.996   0.441   2.532
 1919TIP3   OH2 5695   2.167   0.263   4.723
 1919TIP3    H1 5696   2.180   0.167   4.732
 1919TIP3    H2 5697   2.079   0.268   4.680
 1920TIP3   OH2 5698   2.775   0.348   4.496
 1920TIP3    H1 5699   2.728   0.366   4.412
 1920TIP3    H2 5700   2.801   0.254   4.489
 1921TIP3   OH2 5701   2.723   0.107   2.742
 1921TIP3    H1 5702   2.677   0.127   2.826
 1921TIP3    H2 5703   2.666   0.038   2.703
 1922TIP3   OH2 5704   3.265   0.354   4.107
 1922TIP3    H1 5705   3.336   0.400   4.058
 1922TIP3    H2 5706   3.191   0.415   4.094
 1923TIP3   OH2 5707   2.291  -0.004   4.706
 1923TIP3    H1 5708   2.371  -0.056   4.689
 1923TIP3    H2 5709   2.310   0.030   4.796
 1924TIP3   OH2 5710   2.620  -0.088   4.368
 1924TIP3    H1 5711   2.535  -0.040   4.362
 1924TIP3    H2 5712   2.665  -0.063   4.285
 1925TIP3   OH2 5713   3.146   0.286   4.504
 1925TIP3    H1 5714   3.207   0.243   4.444
 1925TIP3    H2 5715   3.126   0.214   4.567
 1926TIP3   OH2 5716   3.287  -0.049   2.640
 1926TIP3    H1 5717   3.259  -0.097   2.559
 1926TIP3    H2 5718   3.253   0.040   2.617
 1927TIP3   OH2 5719   2.707  -0.312   4.488
 1927TIP3    H1 5720   2.656  -0.372   4.430
 1927TIP3    H2 5721   2.680  -0.225   4.449
 1928TIP3   OH2 5722   2.782  -0.003   4.170
 1928TIP3    H1 5723   2.862   0.001   4.115
 1928TIP3    H2 5724   2.723   0.060   4.124
 1929TIP3   OH2 5725   3.348  -0.042   4.533
 1929TIP3    H1 5726   3.378  -0.099   4.607
 1929TIP3    H2 5727   3.431   0.000   4.505
 1930TIP3   OH2 5728   3.397   0.215   4.296
 1930TIP3    H1 5729   3.338   0.267   4.236
 1930TIP3    H2 5730   3.483   0.233   4.254
 1931TIP3   OH2 5731   2.592  -0.187   4.718
 1931TIP3    H1 5732   2.545  -0.261   4.758
 1931TIP3    H2 5733   2.648  -0.231   4.651
 1932TIP3   OH2 5734   2.986  -0.257   4.523
 1932TIP3    H1 5735   3.011  -0.288   4.612
 1932TIP3    H2 5736   2.890  -0.272   4.525
 1933TIP3   OH2 5737   2.259   0.659   2.882
 1933TIP3    H1 5738   2.356   0.666   2.869
 1933TIP3    H2 5739   2.230   0.717   2.809
 1934TIP3   OH2 5740   1.652   0.650   3.500
 1934TIP3    H1 5741   1.578   0.591   3.485
 1934TIP3    H2 5742   1.700   0.605   3.573
 1935TIP3   OH2 5743   1.774   0.530   3.711
 1935TIP3    H1 5744   1.776   0.449   3.763
 1935TIP3    H2 5745   1.833   0.587   3.763
 1936TIP3   OH2 5746   3.527   0.907   3.498
 1936TIP3    H1 5747   3.534   0.938   3.591
 1936TIP3    H2 5748   3.551   0.987   3.450
 1937TIP3   OH2 5749   3.538   0.940   3.772
 1937TIP3    H1 5750   3.508   0.847   3.784
 1937TIP3    H2 5751   3.620   0.942   3.824
 1938TIP3   OH2 5752   3.400   0.127   2.974
 1938TIP3    H1 5753   3.468   0.191   2.944
 1938TIP3    H2 5754   3.445   0.090   3.054
 1939TIP3   OH2 5755   3.532  -0.000   3.177
 1939TIP3    H1 5756   3.470  -0.043   3.240
 1939TIP3    H2 5757   3.602   0.036   3.236
 1940TIP3   OH2 5758   3.592   0.386   3.613
 1940TIP3    H1 5759   3.646   0.318   3.567
 1940TIP3    H2 5760   3.587   0.457   3.546
 1941TIP3   OH2 5761   3.425   0.684   3.809
 1941TIP3    H1 5762   3.352   0.731   3.855
 1941TIP3    H2 5763   3.376   0.640   3.736
 1942TIP3   OH2 5764   3.468  -0.103   2.831
 1942TIP3    H1 5765   3.406  -0.086   2.756
 1942TIP3    H2 5766   3.445  -0.027   2.888
 1943TIP3   OH2 5767   3.337  -0.443   2.776
 1943TIP3    H1 5768   3.322  -0.361   2.726
 1943TIP3    H2 5769   3.244  -0.473   2.789
 1944TIP3   OH2 5770   3.353  -0.143   3.326
 1944TIP3    H1 5771   3.352  -0.238   3.305
 1944TIP3    H2 5772   3.339  -0.141   3.423
 1945TIP3   OH2 5773   1.974  -0.086   4.072
 1945TIP3    H1 5774   1.968  -0.109   3.978
 1945TIP3    H2 5775   2.072  -0.081   4.086
 1946TIP3   OH2 5776   3.643   0.276   4.186
 1946TIP3    H1 5777   3.711   0.206   4.182
 1946TIP3    H2 5778   3.661   0.327   4.106
 1947TIP3   OH2 5779   3.821   0.077   4.213
 1947TIP3    H1 5780   3.747   0.018   4.239
 1947TIP3    H2 5781   3.896   0.015   4.225
 1948TIP3   OH2 5782   3.343  -0.395   3.185
 1948TIP3    H1 5783   3.368  -0.473   3.241
 1948TIP3    H2 5784   3.414  -0.395   3.118
 1949TIP3   OH2 5785   3.503  -0.250   3.722
 1949TIP3    H1 5786   3.589  -0.228   3.680
 1949TIP3    H2 5787   3.521  -0.221   3.813
 1950TIP3   OH2 5788   3.572  -0.105   3.951
 1950TIP3    H1 5789   3.493  -0.071   3.997
 1950TIP3    H2 5790   3.604  -0.026   3.903
 1951TIP3   OH2 5791   2.194  -0.396   4.742
 1951TIP3    H1 5792   2.289  -0.409   4.743
 1951TIP3    H2 5793   2.162  -0.480   4.780
 1952TIP3   OH2 5794   1.955  -0.422   4.151
 1952TIP3    H1 5795   2.001  -0.415   4.065
 1952TIP3    H2 5796   1.978  -0.339   4.194
 1953TIP3   OH2 5797   3.104   0.779   3.160
 1953TIP3    H1 5798   3.155   0.774   3.076
 1953TIP3    H2 5799   3.148   0.853   3.205
 1954TIP3   OH2 5800   2.204   0.582   4.544
 1954TIP3    H1 5801   2.110   0.562   4.525
 1954TIP3    H2 5802   2.208   0.570   4.639
 1955TIP3   OH2 5803   2.383   0.619   4.092
 1955TIP3    H1 5804   2.330   0.693   4.054
 1955TIP3    H2 5805   2.467   0.637   4.045
 1956TIP3   OH2 5806   2.823   0.860   4.228
 1956TIP3    H1 5807   2.863   0.865   4.317
 1956TIP3    H2 5808   2.887   0.914   4.176
 1957TIP3   OH2 5809   3.000   1.016   4.092
 1957TIP3    H1 5810   3.071   0.973   4.042
 1957TIP3    H2 5811   3.052   1.074   4.151
 1958TIP3   OH2 5812   2.057   0.875   4.118
 1958TIP3    H1 5813   1.967   0.905   4.092
 1958TIP3    H2 5814   2.066   0.920   4.202
 1959TIP3   OH2 5815   2.292   0.854   3.974
 1959TIP3    H1 5816   2.205   0.866   4.018
 1959TIP3    H2 5817   2.272   0.887   3.884
 1960TIP3   OH2 5818   2.719   0.881   3.770
 1960TIP3    H1 5819   2.647   0.899   3.707
 1960TIP3    H2 5820   2.730   0.970   3.812
 1961TIP3   OH2 5821   2.988   0.820   3.824
 1961TIP3    H1 5822   2.894   0.840   3.805
 1961TIP3    H2 5823   3.032   0.896   3.782
 1962TIP3   OH2 5824   3.192   1.009   3.739
 1962TIP3    H1 5825   3.179   1.096   3.694
 1962TIP3    H2 5826   3.218   0.952   3.663
 1963TIP3   OH2 5827   1.968   0.670   3.858
 1963TIP3    H1 5828   1.993   0.642   3.949
 1963TIP3    H2 5829   2.040   0.626   3.807
 1964TIP3   OH2 5830   2.163   0.542   3.721
 1964TIP3    H1 5831   2.178   0.458   3.769
 1964TIP3    H2 5832   2.254   0.578   3.715
 1965TIP3   OH2 5833   2.429   0.635   3.721
 1965TIP3    H1 5834   2.460   0.543   3.712
 1965TIP3    H2 5835   2.473   0.659   3.805
 1966TIP3   OH2 5836   1.721   0.444   3.229
 1966TIP3    H1 5837   1.629   0.437   3.258
 1966TIP3    H2 5838   1.743   0.536   3.254
 1967TIP3   OH2 5839   2.529   0.656   2.833
 1967TIP3    H1 5840   2.617   0.680   2.799
 1967TIP3    H2 5841   2.520   0.568   2.791
 1968TIP3   OH2 5842   3.249   0.752   2.926
 1968TIP3    H1 5843   3.238   0.655   2.913
 1968TIP3    H2 5844   3.201   0.786   2.847
 1969TIP3   OH2 5845   3.468   0.887   4.122
 1969TIP3    H1 5846   3.391   0.858   4.068
 1969TIP3    H2 5847   3.448   0.983   4.123
 1970TIP3   OH2 5848   4.739   0.264   2.879
 1970TIP3    H1 5849   4.710   0.355   2.859
 1970TIP3    H2 5850   4.663   0.214   2.843
 1971TIP3   OH2 5851   4.734   0.268   3.265
 1971TIP3    H1 5852   4.768   0.242   3.353
 1971TIP3    H2 5853   4.697   0.184   3.233
 1972TIP3   OH2 5854   4.033   0.163   3.630
 1972TIP3    H1 5855   4.063   0.092   3.690
 1972TIP3    H2 5856   4.119   0.201   3.603
 1973TIP3   OH2 5857   4.982   0.569   2.944
 1973TIP3    H1 5858   4.969   0.497   3.007
 1973TIP3    H2 5859   5.012   0.641   3.002
 1974TIP3   OH2 5860   4.010   0.568   3.351
 1974TIP3    H1 5861   4.000   0.470   3.351
 1974TIP3    H2 5862   4.107   0.576   3.345
 1975TIP3   OH2 5863   3.702  -0.220   3.146
 1975TIP3    H1 5864   3.649  -0.139   3.155
 1975TIP3    H2 5865   3.644  -0.275   3.092
 1976TIP3   OH2 5866   3.767   0.068   3.304
 1976TIP3    H1 5867   3.807  -0.015   3.338
 1976TIP3    H2 5868   3.836   0.099   3.244
 1977TIP3   OH2 5869   4.634   1.028   2.963
 1977TIP3    H1 5870   4.674   0.959   2.906
 1977TIP3    H2 5871   4.635   0.984   3.049
 1978TIP3   OH2 5872   4.536   0.493   3.309
 1978TIP3    H1 5873   4.575   0.413   3.270
 1978TIP3    H2 5874   4.620   0.539   3.332
 1979TIP3   OH2 5875   4.956  -0.006   3.354
 1979TIP3    H1 5876   4.992  -0.092   3.377
 1979TIP3    H2 5877   4.918  -0.020   3.266
 1980TIP3   OH2 5878   4.267  -0.387   3.285
 1980TIP3    H1 5879   4.242  -0.300   3.247
 1980TIP3    H2 5880   4.202  -0.446   3.247
 1981TIP3   OH2 5881   4.945  -0.237   2.982
 1981TIP3    H1 5882   5.001  -0.284   3.048
 1981TIP3    H2 5883   5.006  -0.239   2.906
 1982TIP3   OH2 5884   3.895  -0.148   3.403
 1982TIP3    H1 5885   3.987  -0.144   3.440
 1982TIP3    H2 5886   3.913  -0.206   3.327
 1983TIP3   OH2 5887   4.356   0.054   3.213
 1983TIP3    H1 5888   4.451   0.030   3.226
 1983TIP3    H2 5889   4.319  -0.033   3.186
 1984TIP3   OH2 5890   4.627   0.486   2.749
 1984TIP3    H1 5891   4.587   0.468   2.663
 1984TIP3    H2 5892   4.581   0.568   2.775
 1985TIP3   OH2 5893   4.393   0.408   3.531
 1985TIP3    H1 5894   4.332   0.475   3.570
 1985TIP3    H2 5895   4.435   0.459   3.458
 1986TIP3   OH2 5896   4.150  -0.176   3.474
 1986TIP3    H1 5897   4.224  -0.139   3.527
 1986TIP3    H2 5898   4.178  -0.269   3.469
 1987TIP3   OH2 5899   4.220   0.599   3.636
 1987TIP3    H1 5900   4.197   0.687   3.601
 1987TIP3    H2 5901   4.140   0.581   3.689
 1988TIP3   OH2 5902   3.607   0.296   2.869
 1988TIP3    H1 5903   3.572   0.324   2.783
 1988TIP3    H2 5904   3.642   0.380   2.905
 1989TIP3   OH2 5905   5.051   0.813   3.111
 1989TIP3    H1 5906   4.961   0.803   3.149
 1989TIP3    H2 5907   5.041   0.899   3.065
 1990TIP3   OH2 5908   4.748   0.858   2.778
 1990TIP3    H1 5909   4.798   0.774   2.762
 1990TIP3    H2 5910   4.812   0.922   2.739
 1991TIP3   OH2 5911   4.894   0.643   2.693
 1991TIP3    H1 5912   4.862   0.562   2.652
 1991TIP3    H2 5913   4.932   0.609   2.777
 1992TIP3   OH2 5914   5.278   0.721   3.451
 1992TIP3    H1 5915   5.267   0.642   3.394
 1992TIP3    H2 5916   5.260   0.794   3.389
 1993TIP3   OH2 5917   4.570   0.123   2.708
 1993TIP3    H1 5918   4.489   0.172   2.685
 1993TIP3    H2 5919   4.614   0.115   2.621
 1994TIP3   OH2 5920   4.525  -0.099   2.428
 1994TIP3    H1 5921   4.598  -0.049   2.469
 1994TIP3    H2 5922   4.574  -0.171   2.386
 1995TIP3   OH2 5923   5.506   0.366   3.326
 1995TIP3    H1 5924   5.413   0.393   3.335
 1995TIP3    H2 5925   5.517   0.379   3.230
 1996TIP3   OH2 5926   4.916   0.201   2.679
 1996TIP3    H1 5927   4.862   0.223   2.759
 1996TIP3    H2 5928   5.001   0.178   2.722
 1997TIP3   OH2 5929   5.152   0.258   3.579
 1997TIP3    H1 5930   5.136   0.328   3.643
 1997TIP3    H2 5931   5.066   0.254   3.534
 1998TIP3   OH2 5932   4.151   0.199   3.099
 1998TIP3    H1 5933   4.110   0.139   3.033
 1998TIP3    H2 5934   4.226   0.145   3.132
 1999TIP3   OH2 5935   4.280   0.612   3.247
 1999TIP3    H1 5936   4.259   0.571   3.161
 1999TIP3    H2 5937   4.369   0.575   3.265
 2000TIP3   OH2 5938   4.277   0.168   3.459
 2000TIP3    H1 5939   4.311   0.136   3.373
 2000TIP3    H2 5940   4.328   0.250   3.473
 2001TIP3   OH2 5941   4.808   0.807   3.230
 2001TIP3    H1 5942   4.801   0.884   3.288
 2001TIP3    H2 5943   4.795   0.731   3.291
 2002TIP3   OH2 5944   4.427   0.723   3.775
 2002TIP3    H1 5945   4.368   0.784   3.823
 2002TIP3    H2 5946   4.361   0.668   3.728
 2003TIP3   OH2 5947   4.756   0.058   2.507
 2003TIP3    H1 5948   4.814   0.118   2.558
 2003TIP3    H2 5949   4.783   0.079   2.415
 2004TIP3   OH2 5950   4.171   0.296   3.875
 2004TIP3    H1 5951   4.173   0.377   3.928
 2004TIP3    H2 5952   4.078   0.268   3.884
 2005TIP3   OH2 5953   4.499   0.738   2.786
 2005TIP3    H1 5954   4.583   0.787   2.794
 2005TIP3    H2 5955   4.442   0.800   2.740
 2006TIP3   OH2 5956   4.221   0.883   3.866
 2006TIP3    H1 5957   4.186   0.883   3.776
 2006TIP3    H2 5958   4.140   0.872   3.920
 2007TIP3   OH2 5959   4.015   0.041   2.906
 2007TIP3    H1 5960   3.946   0.082   2.849
 2007TIP3    H2 5961   3.982  -0.049   2.915
 2008TIP3   OH2 5962   5.072   0.665   2.106
 2008TIP3    H1 5963   5.081   0.761   2.090
 2008TIP3    H2 5964   5.165   0.635   2.094
 2009TIP3   OH2 5965   3.795   0.426   3.810
 2009TIP3    H1 5966   3.730   0.403   3.742
 2009TIP3    H2 5967   3.832   0.338   3.835
 2010TIP3   OH2 5968   3.648   0.617   3.443
 2010TIP3    H1 5969   3.745   0.612   3.440
 2010TIP3    H2 5970   3.633   0.699   3.493
 2011TIP3   OH2 5971   5.511   1.068   3.497
 2011TIP3    H1 5972   5.513   0.972   3.511
 2011TIP3    H2 5973   5.428   1.091   3.544
 2012TIP3   OH2 5974   4.616   0.856   3.629
 2012TIP3    H1 5975   4.617   0.947   3.664
 2012TIP3    H2 5976   4.548   0.814   3.686
 2013TIP3   OH2 5977   4.383   0.981   2.587
 2013TIP3    H1 5978   4.338   0.962   2.503
 2013TIP3    H2 5979   4.351   1.070   2.610
 2014TIP3   OH2 5980   3.820   0.831   2.973
 2014TIP3    H1 5981   3.867   0.817   3.058
 2014TIP3    H2 5982   3.766   0.751   2.968
 2015TIP3   OH2 5983   4.583   0.884   2.225
 2015TIP3    H1 5984   4.642   0.814   2.189
 2015TIP3    H2 5985   4.618   0.894   2.316
 2016TIP3   OH2 5986   4.635   0.933   2.495
 2016TIP3    H1 5987   4.546   0.942   2.537
 2016TIP3    H2 5988   4.685   0.892   2.567
 2017TIP3   OH2 5989   5.433   0.196   3.700
 2017TIP3    H1 5990   5.343   0.225   3.679
 2017TIP3    H2 5991   5.411   0.117   3.752
 2018TIP3   OH2 5992   3.997   0.612   3.799
 2018TIP3    H1 5993   4.051   0.592   3.878
 2018TIP3    H2 5994   3.928   0.541   3.803
 2019TIP3   OH2 5995   5.203   0.032   3.762
 2019TIP3    H1 5996   5.223  -0.064   3.745
 2019TIP3    H2 5997   5.175   0.062   3.675
 2020TIP3   OH2 5998   4.836   0.101   2.254
 2020TIP3    H1 5999   4.797   0.080   2.166
 2020TIP3    H2 6000   4.917   0.147   2.227
 2021TIP3   OH2 6001   4.348  -0.046   3.619
 2021TIP3    H1 6002   4.288  -0.028   3.693
 2021TIP3    H2 6003   4.333   0.031   3.561
 2022TIP3   OH2 6004   4.216  -0.167   3.125
 2022TIP3    H1 6005   4.121  -0.188   3.134
 2022TIP3    H2 6006   4.233  -0.198   3.032
 2023TIP3   OH2 6007   4.701  -0.077   2.845
 2023TIP3    H1 6008   4.654  -0.006   2.797
 2023TIP3    H2 6009   4.766  -0.106   2.779
 2024TIP3   OH2 6010   4.889   0.230   3.920
 2024TIP3    H1 6011   4.866   0.147   3.968
 2024TIP3    H2 6012   4.985   0.235   3.939
 2025TIP3   OH2 6013   4.845  -0.016   3.102
 2025TIP3    H1 6014   4.788   0.023   3.033
 2025TIP3    H2 6015   4.871  -0.099   3.054
 2026TIP3   OH2 6016   4.145  -0.019   3.814
 2026TIP3    H1 6017   4.191   0.033   3.882
 2026TIP3    H2 6018   4.138  -0.107   3.855
 2027TIP3   OH2 6019   3.782  -0.417   2.944
 2027TIP3    H1 6020   3.800  -0.412   2.849
 2027TIP3    H2 6021   3.687  -0.395   2.945
 2028TIP3   OH2 6022   4.861   0.196   3.504
 2028TIP3    H1 6023   4.903   0.126   3.450
 2028TIP3    H2 6024   4.845   0.145   3.586
 2029TIP3   OH2 6025   3.965  -0.285   3.168
 2029TIP3    H1 6026   3.872  -0.259   3.148
 2029TIP3    H2 6027   3.965  -0.374   3.133
 2030TIP3   OH2 6028   4.256  -0.268   2.875
 2030TIP3    H1 6029   4.349  -0.285   2.850
 2030TIP3    H2 6030   4.207  -0.281   2.792
 2031TIP3   OH2 6031   4.088  -0.285   2.648
 2031TIP3    H1 6032   4.015  -0.303   2.586
 2031TIP3    H2 6033   4.149  -0.238   2.587
 2032TIP3   OH2 6034   5.203   1.415   3.595
 2032TIP3    H1 6035   5.198   1.434   3.499
 2032TIP3    H2 6036   5.260   1.486   3.626
 2033TIP3   OH2 6037   4.156   0.537   4.023
 2033TIP3    H1 6038   4.243   0.559   4.064
 2033TIP3    H2 6039   4.101   0.531   4.103
 2034TIP3   OH2 6040   4.613  -0.015   3.274
 2034TIP3    H1 6041   4.697  -0.045   3.237
 2034TIP3    H2 6042   4.619  -0.048   3.367
 2035TIP3   OH2 6043   4.625  -0.082   3.535
 2035TIP3    H1 6044   4.536  -0.097   3.574
 2035TIP3    H2 6045   4.675  -0.045   3.610
 2036TIP3   OH2 6046   4.336   0.271   2.656
 2036TIP3    H1 6047   4.264   0.204   2.647
 2036TIP3    H2 6048   4.318   0.304   2.748
 2037TIP3   OH2 6049   5.250   0.500   3.290
 2037TIP3    H1 6050   5.271   0.548   3.208
 2037TIP3    H2 6051   5.165   0.457   3.267
 2038TIP3   OH2 6052   4.765  -0.346   2.479
 2038TIP3    H1 6053   4.710  -0.398   2.540
 2038TIP3    H2 6054   4.806  -0.283   2.542
 2039TIP3   OH2 6055   4.742   0.591   3.653
 2039TIP3    H1 6056   4.768   0.561   3.741
 2039TIP3    H2 6057   4.699   0.676   3.670
 2040TIP3   OH2 6058   4.874  -0.156   2.641
 2040TIP3    H1 6059   4.971  -0.148   2.651
 2040TIP3    H2 6060   4.851  -0.079   2.587
 2041TIP3   OH2 6061   4.032   0.291   3.332
 2041TIP3    H1 6062   4.070   0.264   3.246
 2041TIP3    H2 6063   4.081   0.234   3.393
 2042TIP3   OH2 6064   4.484   0.419   2.481
 2042TIP3    H1 6065   4.436   0.505   2.486
 2042TIP3    H2 6066   4.430   0.364   2.541
 2043TIP3   OH2 6067   3.907   0.221   3.956
 2043TIP3    H1 6068   3.936   0.197   4.046
 2043TIP3    H2 6069   3.847   0.148   3.933
 2044TIP3   OH2 6070   4.639   0.331   3.970
 2044TIP3    H1 6071   4.582   0.274   3.916
 2044TIP3    H2 6072   4.728   0.302   3.942
 2045TIP3   OH2 6073   4.897   0.858   3.546
 2045TIP3    H1 6074   4.802   0.848   3.562
 2045TIP3    H2 6075   4.925   0.903   3.628
 2046TIP3   OH2 6076   5.308  -0.080   2.449
 2046TIP3    H1 6077   5.246  -0.129   2.389
 2046TIP3    H2 6078   5.293   0.011   2.413
 2047TIP3   OH2 6079   5.530   0.775   3.538
 2047TIP3    H1 6080   5.432   0.769   3.531
 2047TIP3    H2 6081   5.556   0.737   3.451
 2048TIP3   OH2 6082   5.010   0.739   2.371
 2048TIP3    H1 6083   4.984   0.668   2.431
 2048TIP3    H2 6084   5.023   0.693   2.286
 2049TIP3   OH2 6085   5.004   0.373   3.204
 2049TIP3    H1 6086   4.912   0.345   3.218
 2049TIP3    H2 6087   5.040   0.294   3.159
 2050TIP3   OH2 6088   4.134   0.600   2.965
 2050TIP3    H1 6089   4.132   0.678   2.907
 2050TIP3    H2 6090   4.041   0.575   2.966
 2051TIP3   OH2 6091   3.693  -0.098   2.667
 2051TIP3    H1 6092   3.743  -0.016   2.688
 2051TIP3    H2 6093   3.621  -0.092   2.732
 2052TIP3   OH2 6094   4.266   0.362   2.901
 2052TIP3    H1 6095   4.235   0.451   2.925
 2052TIP3    H2 6096   4.235   0.309   2.977
 2053TIP3   OH2 6097   4.397   0.946   3.431
 2053TIP3    H1 6098   4.444   1.015   3.381
 2053TIP3    H2 6099   4.471   0.905   3.479
 2054TIP3   OH2 6100   4.052   0.835   2.812
 2054TIP3    H1 6101   3.966   0.845   2.858
 2054TIP3    H2 6102   4.084   0.928   2.813
 2055TIP3   OH2 6103   4.791   0.575   3.386
 2055TIP3    H1 6104   4.780   0.573   3.484
 2055TIP3    H2 6105   4.867   0.516   3.374
 2056TIP3   OH2 6106   4.767   0.468   2.273
 2056TIP3    H1 6107   4.821   0.443   2.351
 2056TIP3    H2 6108   4.679   0.439   2.301
 2057TIP3   OH2 6109   5.039   1.106   3.441
 2057TIP3    H1 6110   4.962   1.046   3.438
 2057TIP3    H2 6111   5.019   1.167   3.367
 2058TIP3   OH2 6112   5.104   0.940   2.090
 2058TIP3    H1 6113   5.140   1.012   2.036
 2058TIP3    H2 6114   5.024   0.985   2.124
 2059TIP3   OH2 6115   4.927   0.402   2.488
 2059TIP3    H1 6116   4.916   0.335   2.558
 2059TIP3    H2 6117   5.024   0.397   2.475
 2060TIP3   OH2 6118   3.851   0.803   3.590
 2060TIP3    H1 6119   3.901   0.726   3.622
 2060TIP3    H2 6120   3.864   0.864   3.664
 2061TIP3   OH2 6121   4.130   0.447   2.271
 2061TIP3    H1 6122   4.145   0.354   2.244
 2061TIP3    H2 6123   4.109   0.436   2.366
 2062TIP3   OH2 6124   4.075   0.451   2.544
 2062TIP3    H1 6125   4.151   0.423   2.597
 2062TIP3    H2 6126   4.080   0.549   2.552
 2063TIP3   OH2 6127   3.808   0.144   2.747
 2063TIP3    H1 6128   3.743   0.191   2.804
 2063TIP3    H2 6129   3.825   0.212   2.680
 2064TIP3   OH2 6130   4.342   0.649   2.492
 2064TIP3    H1 6131   4.255   0.675   2.528
 2064TIP3    H2 6132   4.358   0.722   2.430
 2065TIP3   OH2 6133   4.540  -0.297   2.867
 2065TIP3    H1 6134   4.592  -0.214   2.865
 2065TIP3    H2 6135   4.562  -0.331   2.955
 2066TIP3   OH2 6136   4.812   0.035   3.718
 2066TIP3    H1 6137   4.811   0.093   3.796
 2066TIP3    H2 6138   4.872  -0.034   3.750
 2067TIP3   OH2 6139   4.087   0.724   2.560
 2067TIP3    H1 6140   4.057   0.794   2.497
 2067TIP3    H2 6141   4.071   0.768   2.646
 2068TIP3   OH2 6142   5.087   0.134   3.080
 2068TIP3    H1 6143   5.010   0.079   3.102
 2068TIP3    H2 6144   5.161   0.089   3.128
 2069TIP3   OH2 6145   3.804   0.352   2.551
 2069TIP3    H1 6146   3.873   0.420   2.560
 2069TIP3    H2 6147   3.848   0.295   2.484
 2070TIP3   OH2 6148   3.750  -0.366   2.674
 2070TIP3    H1 6149   3.740  -0.269   2.666
 2070TIP3    H2 6150   3.661  -0.399   2.659
 2071TIP3   OH2 6151   5.059   1.085   3.031
 2071TIP3    H1 6152   5.016   1.132   2.956
 2071TIP3    H2 6153   5.153   1.103   3.010
 2072TIP3   OH2 6154   3.673   0.568   2.936
 2072TIP3    H1 6155   3.606   0.599   2.998
 2072TIP3    H2 6156   3.641   0.610   2.852
 2073TIP3   OH2 6157   3.810   1.066   3.960
 2073TIP3    H1 6158   3.865   1.121   4.021
 2073TIP3    H2 6159   3.845   0.979   3.981
 2074TIP3   OH2 6160   4.338   1.086   4.022
 2074TIP3    H1 6161   4.421   1.044   4.048
 2074TIP3    H2 6162   4.297   1.017   3.968
 2075TIP3   OH2 6163   4.294   0.649   2.182
 2075TIP3    H1 6164   4.238   0.578   2.221
 2075TIP3    H2 6165   4.370   0.597   2.151
 2076TIP3   OH2 6166   4.954   0.979   3.786
 2076TIP3    H1 6167   4.943   0.910   3.856
 2076TIP3    H2 6168   5.030   1.030   3.821
 2077TIP3   OH2 6169   4.729   0.689   2.096
 2077TIP3    H1 6170   4.771   0.624   2.155
 2077TIP3    H2 6171   4.786   0.686   2.017
 2078TIP3   OH2 6172   3.951   0.509   4.218
 2078TIP3    H1 6173   3.983   0.416   4.216
 2078TIP3    H2 6174   3.876   0.505   4.156
 2079TIP3   OH2 6175   3.940   0.165   2.407
 2079TIP3    H1 6176   3.997   0.133   2.480
 2079TIP3    H2 6177   4.006   0.171   2.335
 2080TIP3   OH2 6178   4.566   0.602   3.987
 2080TIP3    H1 6179   4.531   0.619   3.898
 2080TIP3    H2 6180   4.599   0.510   3.980
 2081TIP3   OH2 6181   4.450   0.367   2.212
 2081TIP3    H1 6182   4.453   0.379   2.309
 2081TIP3    H2 6183   4.454   0.269   2.206
 2082TIP3   OH2 6184   5.062   0.614   3.593
 2082TIP3    H1 6185   5.136   0.658   3.547
 2082TIP3    H2 6186   4.989   0.676   3.575
 2083TIP3   OH2 6187   4.086   0.255   4.191
 2083TIP3    H1 6188   4.165   0.204   4.166
 2083TIP3    H2 6189   4.111   0.283   4.282
 2084TIP3   OH2 6190   4.142   0.073   2.625
 2084TIP3    H1 6191   4.125   0.032   2.711
 2084TIP3    H2 6192   4.182  -0.002   2.575
 2085TIP3   OH2 6193   4.409   0.162   3.850
 2085TIP3    H1 6194   4.329   0.220   3.843
 2085TIP3    H2 6195   4.462   0.190   3.771
 2086TIP3   OH2 6196   4.246  -0.134   2.473
 2086TIP3    H1 6197   4.221  -0.132   2.378
 2086TIP3    H2 6198   4.344  -0.132   2.465
 2087TIP3   OH2 6199   4.938   0.541   3.986
 2087TIP3    H1 6200   5.011   0.504   3.935
 2087TIP3    H2 6201   4.924   0.470   4.052
 2088TIP3   OH2 6202   5.066   0.193   2.131
 2088TIP3    H1 6203   5.049   0.149   2.045
 2088TIP3    H2 6204   5.035   0.284   2.108
 2089TIP3   OH2 6205   4.498  -0.054   3.976
 2089TIP3    H1 6206   4.455  -0.116   3.914
 2089TIP3    H2 6207   4.474   0.032   3.933
 2090TIP3   OH2 6208   4.577   0.253   3.661
 2090TIP3    H1 6209   4.659   0.247   3.609
 2090TIP3    H2 6210   4.523   0.315   3.609
 2091TIP3   OH2 6211   5.137   0.235   4.035
 2091TIP3    H1 6212   5.169   0.160   4.090
 2091TIP3    H2 6213   5.218   0.259   3.987
 2092TIP3   OH2 6214   5.195   0.474   3.783
 2092TIP3    H1 6215   5.138   0.525   3.722
 2092TIP3    H2 6216   5.283   0.487   3.741
 2093TIP3   OH2 6217   4.376   0.069   4.203
 2093TIP3    H1 6218   4.350  -0.013   4.246
 2093TIP3    H2 6219   4.440   0.037   4.136
 2094TIP3   OH2 6220   4.784   0.003   4.013
 2094TIP3    H1 6221   4.819  -0.034   4.097
 2094TIP3    H2 6222   4.690  -0.022   4.019
 2095TIP3   OH2 6223   4.057   0.927   2.373
 2095TIP3    H1 6224   4.152   0.921   2.353
 2095TIP3    H2 6225   4.027   0.978   2.295
 2096TIP3   OH2 6226   3.536   0.308   2.588
 2096TIP3    H1 6227   3.631   0.331   2.573
 2096TIP3    H2 6228   3.530   0.220   2.545
 2097TIP3   OH2 6229   3.455   0.921   3.002
 2097TIP3    H1 6230   3.387   0.862   2.963
 2097TIP3    H2 6231   3.497   0.860   3.067
 2098TIP3   OH2 6232   3.587   0.770   3.193
 2098TIP3    H1 6233   3.573   0.694   3.252
 2098TIP3    H2 6234   3.624   0.834   3.256
 2099TIP3   OH2 6235   5.312   1.176   2.990
 2099TIP3    H1 6236   5.343   1.204   3.078
 2099TIP3    H2 6237   5.381   1.212   2.931
 2100TIP3   OH2 6238   5.344   1.192   3.273
 2100TIP3    H1 6239   5.295   1.107   3.266
 2100TIP3    H2 6240   5.417   1.163   3.330
 2101TIP3   OH2 6241   5.386   0.870   3.842
 2101TIP3    H1 6242   5.316   0.878   3.909
 2101TIP3    H2 6243   5.430   0.958   3.849
 2102TIP3   OH2 6244   5.204   0.382   2.462
 2102TIP3    H1 6245   5.272   0.447   2.433
 2102TIP3    H2 6246   5.248   0.344   2.542
 2103TIP3   OH2 6247   5.331   0.254   2.665
 2103TIP3    H1 6248   5.265   0.214   2.726
 2103TIP3    H2 6249   5.398   0.290   2.727
 2104TIP3   OH2 6250   5.396   0.648   3.102
 2104TIP3    H1 6251   5.444   0.576   3.056
 2104TIP3    H2 6252   5.384   0.714   3.031
 2105TIP3   OH2 6253   5.217   0.943   3.293
 2105TIP3    H1 6254   5.145   0.982   3.345
 2105TIP3    H2 6255   5.168   0.896   3.222
 2106TIP3   OH2 6256   5.264   0.157   2.314
 2106TIP3    H1 6257   5.194   0.164   2.245
 2106TIP3    H2 6258   5.238   0.233   2.371
 2107TIP3   OH2 6259   5.134  -0.181   2.259
 2107TIP3    H1 6260   5.107  -0.112   2.197
 2107TIP3    H2 6261   5.093  -0.260   2.220
 2108TIP3   OH2 6262   5.145   0.119   2.810
 2108TIP3    H1 6263   5.147   0.023   2.789
 2108TIP3    H2 6264   5.130   0.120   2.907
 2109TIP3   OH2 6265   3.771   0.183   3.560
 2109TIP3    H1 6266   3.770   0.151   3.467
 2109TIP3    H2 6267   3.868   0.184   3.577
 2110TIP3   OH2 6268   5.450   0.522   3.676
 2110TIP3    H1 6269   5.503   0.449   3.644
 2110TIP3    H2 6270   5.466   0.592   3.610
 2111TIP3   OH2 6271   5.145  -0.134   2.680
 2111TIP3    H1 6272   5.171  -0.212   2.734
 2111TIP3    H2 6273   5.210  -0.136   2.607
 2112TIP3   OH2 6274   5.300   0.015   3.203
 2112TIP3    H1 6275   5.390   0.043   3.174
 2112TIP3    H2 6276   5.313   0.000   3.297
 2113TIP3   OH2 6277   3.987  -0.137   4.238
 2113TIP3    H1 6278   4.076  -0.161   4.211
 2113TIP3    H2 6279   3.954  -0.222   4.272
 2114TIP3   OH2 6280   3.748  -0.165   3.636
 2114TIP3    H1 6281   3.794  -0.167   3.549
 2114TIP3    H2 6282   3.791  -0.090   3.678
 2115TIP3   OH2 6283   4.897   1.041   2.646
 2115TIP3    H1 6284   4.947   1.027   2.563
 2115TIP3    H2 6285   4.953   1.105   2.692
 2116TIP3   OH2 6286   3.998   0.847   4.030
 2116TIP3    H1 6287   3.920   0.791   4.030
 2116TIP3    H2 6288   4.041   0.828   4.115
 2117TIP3   OH2 6289   4.177   0.868   3.585
 2117TIP3    H1 6290   4.110   0.923   3.544
 2117TIP3    H2 6291   4.257   0.892   3.534
 2118TIP3   OH2 6292   4.621   1.117   3.714
 2118TIP3    H1 6293   4.661   1.117   3.804
 2118TIP3    H2 6294   4.687   1.171   3.664
 2119TIP3   OH2 6295   4.799   1.274   3.574
 2119TIP3    H1 6296   4.869   1.220   3.535
 2119TIP3    H2 6297   4.850   1.330   3.637
 2120TIP3   OH2 6298   3.855   1.152   3.604
 2120TIP3    H1 6299   3.757   1.163   3.607
 2120TIP3    H2 6300   3.880   1.201   3.685
 2121TIP3   OH2 6301   4.514   1.137   3.263
 2121TIP3    H1 6302   4.461   1.161   3.185
 2121TIP3    H2 6303   4.530   1.225   3.304
 2122TIP3   OH2 6304   4.785   1.080   3.311
 2122TIP3    H1 6305   4.690   1.095   3.292
 2122TIP3    H2 6306   4.827   1.156   3.266
 2123TIP3   OH2 6307   4.991   1.271   3.224
 2123TIP3    H1 6308   4.976   1.355   3.174
 2123TIP3    H2 6309   5.017   1.210   3.151
 2124TIP3   OH2 6310   3.786   0.938   3.354
 2124TIP3    H1 6311   3.792   0.895   3.442
 2124TIP3    H2 6312   3.843   0.877   3.301
 2125TIP3   OH2 6313   3.959   0.792   3.207
 2125TIP3    H1 6314   3.973   0.706   3.253
 2125TIP3    H2 6315   4.051   0.825   3.201
 2126TIP3   OH2 6316   4.227   0.897   3.214
 2126TIP3    H1 6317   4.253   0.806   3.190
 2126TIP3    H2 6318   4.285   0.910   3.291
 2127TIP3   OH2 6319   3.550   0.702   2.737
 2127TIP3    H1 6320   3.464   0.670   2.703
 2127TIP3    H2 6321   3.542   0.796   2.712
 2128TIP3   OH2 6322   4.324   0.885   2.321
 2128TIP3    H1 6323   4.412   0.907   2.284
 2128TIP3    H2 6324   4.302   0.810   2.260
 2129TIP3   OH2 6325   5.043   1.006   2.414
 2129TIP3    H1 6326   5.035   0.908   2.402
 2129TIP3    H2 6327   4.997   1.037   2.333
 2130TIP3   OH2 6328   3.626   0.720   2.374
 2130TIP3    H1 6329   3.629   0.749   2.466
 2130TIP3    H2 6330   3.715   0.679   2.362
 2131TIP3   OH2 6331   5.267   1.147   3.601
 2131TIP3    H1 6332   5.189   1.113   3.552
 2131TIP3    H2 6333   5.245   1.242   3.605
 2132TIP3   OH2 6334   6.533   0.522   2.369
 2132TIP3    H1 6335   6.508   0.615   2.352
 2132TIP3    H2 6336   6.453   0.476   2.338
 2133TIP3   OH2 6337   6.529   0.522   2.751
 2133TIP3    H1 6338   6.571   0.506   2.838
 2133TIP3    H2 6339   6.489   0.435   2.733
 2134TIP3   OH2 6340   5.840   0.430   3.131
 2134TIP3    H1 6341   5.865   0.350   3.180
 2134TIP3    H2 6342   5.916   0.436   3.069
 2135TIP3   OH2 6343   6.774   0.829   2.432
 2135TIP3    H1 6344   6.766   0.756   2.495
 2135TIP3    H2 6345   6.810   0.900   2.488
 2136TIP3   OH2 6346   5.803   0.824   2.836
 2136TIP3    H1 6347   5.792   0.727   2.835
 2136TIP3    H2 6348   5.900   0.831   2.836
 2137TIP3   OH2 6349   5.501   0.037   2.630
 2137TIP3    H1 6350   5.449   0.118   2.644
 2137TIP3    H2 6351   5.437  -0.017   2.581
 2138TIP3   OH2 6352   5.564   0.323   2.795
 2138TIP3    H1 6353   5.604   0.240   2.827
 2138TIP3    H2 6354   5.637   0.361   2.743
 2139TIP3   OH2 6355   6.434   1.289   2.447
 2139TIP3    H1 6356   6.475   1.217   2.396
 2139TIP3    H2 6357   6.426   1.248   2.535
 2140TIP3   OH2 6358   6.332   0.750   2.796
 2140TIP3    H1 6359   6.371   0.669   2.758
 2140TIP3    H2 6360   6.416   0.795   2.819
 2141TIP3   OH2 6361   6.749   0.244   2.836
 2141TIP3    H1 6362   6.776   0.159   2.871
 2141TIP3    H2 6363   6.716   0.221   2.747
 2142TIP3   OH2 6364   6.060  -0.120   2.807
 2142TIP3    H1 6365   6.050  -0.038   2.754
 2142TIP3    H2 6366   6.009  -0.184   2.755
 2143TIP3   OH2 6367   3.532   6.586   8.972
 2143TIP3    H1 6368   3.580   6.528   9.036
 2143TIP3    H2 6369   3.539   6.537   8.890
 2144TIP3   OH2 6370   5.693   0.106   2.894
 2144TIP3    H1 6371   5.784   0.115   2.932
 2144TIP3    H2 6372   5.714   0.049   2.819
 2145TIP3   OH2 6373   6.153   0.311   2.696
 2145TIP3    H1 6374   6.248   0.291   2.711
 2145TIP3    H2 6375   6.116   0.221   2.679
 2146TIP3   OH2 6376   7.389   0.264   2.962
 2146TIP3    H1 6377   7.309   0.319   2.955
 2146TIP3    H2 6378   7.442   0.309   3.028
 2147TIP3   OH2 6379   6.436   0.751   2.227
 2147TIP3    H1 6380   6.384   0.724   2.150
 2147TIP3    H2 6381   6.384   0.828   2.258
 2148TIP3   OH2 6382   6.192   0.662   3.027
 2148TIP3    H1 6383   6.131   0.728   3.064
 2148TIP3    H2 6384   6.235   0.711   2.955
 2149TIP3   OH2 6385   5.946   0.100   2.971
 2149TIP3    H1 6386   6.011   0.135   3.037
 2149TIP3    H2 6387   5.978   0.009   2.962
 2150TIP3   OH2 6388   6.013   0.863   3.121
 2150TIP3    H1 6389   5.988   0.950   3.084
 2150TIP3    H2 6390   5.934   0.845   3.175
 2151TIP3   OH2 6391   5.406   0.552   2.356
 2151TIP3    H1 6392   5.367   0.579   2.271
 2151TIP3    H2 6393   5.439   0.638   2.391
 2152TIP3   OH2 6394   6.845   1.068   2.594
 2152TIP3    H1 6395   6.755   1.059   2.635
 2152TIP3    H2 6396   6.837   1.156   2.552
 2153TIP3   OH2 6397   6.547   1.113   2.262
 2153TIP3    H1 6398   6.599   1.031   2.250
 2153TIP3    H2 6399   6.610   1.179   2.225
 2154TIP3   OH2 6400   6.693   0.891   2.177
 2154TIP3    H1 6401   6.625   0.823   2.170
 2154TIP3    H2 6402   6.737   0.865   2.261
 2155TIP3   OH2 6403   7.075   0.982   2.939
 2155TIP3    H1 6404   7.062   0.902   2.883
 2155TIP3    H2 6405   7.060   1.054   2.875
 2156TIP3   OH2 6406   6.360   0.374   2.198
 2156TIP3    H1 6407   6.285   0.430   2.171
 2156TIP3    H2 6408   6.410   0.362   2.115
 2157TIP3   OH2 6409   7.261   0.608   2.775
 2157TIP3    H1 6410   7.182   0.665   2.786
 2157TIP3    H2 6411   7.294   0.640   2.689
 2158TIP3   OH2 6412   6.711   0.458   2.175
 2158TIP3    H1 6413   6.662   0.484   2.256
 2158TIP3    H2 6414   6.798   0.433   2.214
 2159TIP3   OH2 6415   6.944   0.501   3.081
 2159TIP3    H1 6416   6.939   0.580   3.138
 2159TIP3    H2 6417   6.856   0.503   3.038
 2160TIP3   OH2 6418   5.949   0.456   2.580
 2160TIP3    H1 6419   5.916   0.391   2.515
 2160TIP3    H2 6420   6.023   0.406   2.622
 2161TIP3   OH2 6421   6.078   0.870   2.732
 2161TIP3    H1 6422   6.058   0.822   2.651
 2161TIP3    H2 6423   6.167   0.834   2.755
 2162TIP3   OH2 6424   6.038   0.452   2.930
 2162TIP3    H1 6425   6.089   0.391   2.874
 2162TIP3    H2 6426   6.109   0.511   2.965
 2163TIP3   OH2 6427   6.603   1.063   2.716
 2163TIP3    H1 6428   6.597   1.140   2.776
 2163TIP3    H2 6429   6.592   0.987   2.777
 2164TIP3   OH2 6430   6.221   0.984   3.260
 2164TIP3    H1 6431   6.161   1.043   3.310
 2164TIP3    H2 6432   6.156   0.928   3.213
 2165TIP3   OH2 6433   6.559   0.303   2.009
 2165TIP3    H1 6434   6.620   0.355   2.066
 2165TIP3    H2 6435   6.599   0.316   1.923
 2166TIP3   OH2 6436   5.971   0.542   3.376
 2166TIP3    H1 6437   5.966   0.630   3.417
 2166TIP3    H2 6438   5.899   0.542   3.311
 2167TIP3   OH2 6439   6.298   0.990   2.270
 2167TIP3    H1 6440   6.379   1.043   2.281
 2167TIP3    H2 6441   6.237   1.052   2.229
 2168TIP3   OH2 6442   6.011   1.148   3.350
 2168TIP3    H1 6443   5.978   1.148   3.258
 2168TIP3    H2 6444   5.931   1.130   3.402
 2169TIP3   OH2 6445   5.820   0.293   2.371
 2169TIP3    H1 6446   5.743   0.337   2.328
 2169TIP3    H2 6447   5.778   0.216   2.413
 2170TIP3   OH2 6448   6.797   0.924   1.638
 2170TIP3    H1 6449   6.817   1.019   1.624
 2170TIP3    H2 6450   6.884   0.888   1.612
 2171TIP3   OH2 6451   5.593   0.660   3.299
 2171TIP3    H1 6452   5.521   0.670   3.232
 2171TIP3    H2 6453   5.610   0.565   3.291
 2172TIP3   OH2 6454   5.448   0.876   2.924
 2172TIP3    H1 6455   5.543   0.862   2.916
 2172TIP3    H2 6456   5.443   0.951   2.985
 2173TIP3   OH2 6457   7.317   1.329   2.987
 2173TIP3    H1 6458   7.317   1.232   3.002
 2173TIP3    H2 6459   7.233   1.352   3.033
 2174TIP3   OH2 6460   6.407   1.118   3.113
 2174TIP3    H1 6461   6.411   1.208   3.152
 2174TIP3    H2 6462   6.342   1.074   3.172
 2175TIP3   OH2 6463   6.179   1.238   2.074
 2175TIP3    H1 6464   6.134   1.216   1.991
 2175TIP3    H2 6465   6.144   1.326   2.095
 2176TIP3   OH2 6466   5.617   1.087   2.459
 2176TIP3    H1 6467   5.663   1.078   2.545
 2176TIP3    H2 6468   5.566   1.004   2.456
 2177TIP3   OH2 6469   6.374   1.151   1.719
 2177TIP3    H1 6470   6.433   1.081   1.684
 2177TIP3    H2 6471   6.407   1.159   1.811
 2178TIP3   OH2 6472   6.431   1.189   1.986
 2178TIP3    H1 6473   6.342   1.196   2.027
 2178TIP3    H2 6474   6.481   1.147   2.057
 2179TIP3   OH2 6475   7.198   0.440   3.260
 2179TIP3    H1 6476   7.116   0.468   3.215
 2179TIP3    H2 6477   7.183   0.344   3.261
 2180TIP3   OH2 6478   5.791   0.861   3.287
 2180TIP3    H1 6479   5.845   0.848   3.368
 2180TIP3    H2 6480   5.723   0.791   3.297
 2181TIP3   OH2 6481   6.993   0.247   3.206
 2181TIP3    H1 6482   6.935   0.250   3.283
 2181TIP3    H2 6483   6.953   0.315   3.149
 2182TIP3   OH2 6484   6.015   0.082   2.619
 2182TIP3    H1 6485   5.921   0.061   2.631
 2182TIP3    H2 6486   6.028   0.058   2.524
 2183TIP3   OH2 6487   6.502   0.181   2.324
 2183TIP3    H1 6488   6.442   0.251   2.291
 2183TIP3    H2 6489   6.575   0.189   2.261
 2184TIP3   OH2 6490   6.687   0.493   3.420
 2184TIP3    H1 6491   6.660   0.406   3.456
 2184TIP3    H2 6492   6.783   0.490   3.435
 2185TIP3   OH2 6493   6.654   0.210   2.580
 2185TIP3    H1 6494   6.595   0.244   2.511
 2185TIP3    H2 6495   6.707   0.146   2.527
 2186TIP3   OH2 6496   5.878   0.237   3.361
 2186TIP3    H1 6497   5.955   0.297   3.366
 2186TIP3    H2 6498   5.925   0.159   3.325
 2187TIP3   OH2 6499   5.574  -0.163   2.428
 2187TIP3    H1 6500   5.589  -0.158   2.332
 2187TIP3    H2 6501   5.481  -0.135   2.434
 2188TIP3   OH2 6502   6.674   0.458   2.979
 2188TIP3    H1 6503   6.707   0.381   2.927
 2188TIP3    H2 6504   6.657   0.413   3.065
 2189TIP3   OH2 6505   5.762  -0.027   2.656
 2189TIP3    H1 6506   5.668  -0.002   2.637
 2189TIP3    H2 6507   5.759  -0.120   2.631
 2190TIP3   OH2 6508   6.047  -0.009   2.361
 2190TIP3    H1 6509   6.134  -0.044   2.336
 2190TIP3    H2 6510   5.997  -0.030   2.280
 2191TIP3   OH2 6511   5.858  -0.047   2.134
 2191TIP3    H1 6512   5.760  -0.050   2.136
 2191TIP3    H2 6513   5.874   0.021   2.068
 2192TIP3   OH2 6514   7.003   1.677   3.087
 2192TIP3    H1 6515   7.005   1.698   2.992
 2192TIP3    H2 6516   7.085   1.720   3.118
 2193TIP3   OH2 6517   5.953   0.793   3.506
 2193TIP3    H1 6518   6.038   0.815   3.551
 2193TIP3    H2 6519   5.894   0.787   3.584
 2194TIP3   OH2 6520   6.418   0.248   2.757
 2194TIP3    H1 6521   6.496   0.208   2.716
 2194TIP3    H2 6522   6.401   0.187   2.830
 2195TIP3   OH2 6523   6.133   0.524   2.144
 2195TIP3    H1 6524   6.057   0.463   2.135
 2195TIP3    H2 6525   6.116   0.560   2.235
 2196TIP3   OH2 6526   7.034   0.764   2.775
 2196TIP3    H1 6527   7.058   0.813   2.693
 2196TIP3    H2 6528   6.950   0.721   2.750
 2197TIP3   OH2 6529   6.555   0.862   3.137
 2197TIP3    H1 6530   6.553   0.799   3.211
 2197TIP3    H2 6531   6.495   0.932   3.166
 2198TIP3   OH2 6532   5.815   0.546   2.809
 2198TIP3    H1 6533   5.852   0.522   2.722
 2198TIP3    H2 6534   5.887   0.512   2.866
 2199TIP3   OH2 6535   6.280   0.677   1.976
 2199TIP3    H1 6536   6.234   0.765   1.982
 2199TIP3    H2 6537   6.224   0.624   2.037
 2200TIP3   OH2 6538   6.432   0.592   3.463
 2200TIP3    H1 6539   6.368   0.541   3.408
 2200TIP3    H2 6540   6.517   0.560   3.427
 2201TIP3   OH2 6541   6.693   1.125   3.028
 2201TIP3    H1 6542   6.602   1.100   3.049
 2201TIP3    H2 6543   6.721   1.163   3.114
 2202TIP3   OH2 6544   7.326   1.040   3.026
 2202TIP3    H1 6545   7.229   1.030   3.018
 2202TIP3    H2 6546   7.354   1.009   2.937
 2203TIP3   OH2 6547   6.784   1.009   1.909
 2203TIP3    H1 6548   6.779   0.953   1.989
 2203TIP3    H2 6549   6.799   0.945   1.838
 2204TIP3   OH2 6550   6.800   0.629   2.686
 2204TIP3    H1 6551   6.709   0.601   2.705
 2204TIP3    H2 6552   6.836   0.547   2.647
 2205TIP3   OH2 6553   5.928   0.852   2.444
 2205TIP3    H1 6554   5.925   0.934   2.391
 2205TIP3    H2 6555   5.835   0.834   2.458
 2206TIP3   OH2 6556   5.494   0.160   2.163
 2206TIP3    H1 6557   5.536   0.247   2.182
 2206TIP3    H2 6558   5.414   0.165   2.221
 2207TIP3   OH2 6559   6.065   0.618   2.385
 2207TIP3    H1 6560   6.030   0.707   2.408
 2207TIP3    H2 6561   6.035   0.566   2.462
 2208TIP3   OH2 6562   6.200   1.194   2.916
 2208TIP3    H1 6563   6.247   1.265   2.868
 2208TIP3    H2 6564   6.273   1.156   2.968
 2209TIP3   OH2 6565   5.845   1.093   2.297
 2209TIP3    H1 6566   5.761   1.099   2.345
 2209TIP3    H2 6567   5.875   1.186   2.301
 2210TIP3   OH2 6568   6.587   0.830   2.871
 2210TIP3    H1 6569   6.578   0.835   2.969
 2210TIP3    H2 6570   6.664   0.772   2.863
 2211TIP3   OH2 6571   6.553   0.707   1.768
 2211TIP3    H1 6572   6.590   0.689   1.857
 2211TIP3    H2 6573   6.458   0.691   1.784
 2212TIP3   OH2 6574   6.835   1.364   2.930
 2212TIP3    H1 6575   6.761   1.300   2.930
 2212TIP3    H2 6576   6.812   1.422   2.854
 2213TIP3   OH2 6577   6.885   1.184   1.579
 2213TIP3    H1 6578   6.928   1.248   1.520
 2213TIP3    H2 6579   6.812   1.242   1.611
 2214TIP3   OH2 6580   6.704   0.645   1.975
 2214TIP3    H1 6581   6.698   0.584   2.052
 2214TIP3    H2 6582   6.797   0.676   1.987
 2215TIP3   OH2 6583   5.637   1.057   3.075
 2215TIP3    H1 6584   5.690   0.980   3.101
 2215TIP3    H2 6585   5.670   1.124   3.136
 2216TIP3   OH2 6586   5.938   0.710   1.761
 2216TIP3    H1 6587   5.931   0.625   1.714
 2216TIP3    H2 6588   5.909   0.686   1.851
 2217TIP3   OH2 6589   5.871   0.707   2.033
 2217TIP3    H1 6590   5.941   0.684   2.094
 2217TIP3    H2 6591   5.874   0.805   2.036
 2218TIP3   OH2 6592   5.606   0.405   2.236
 2218TIP3    H1 6593   5.539   0.450   2.292
 2218TIP3    H2 6594   5.617   0.472   2.166
 2219TIP3   OH2 6595   6.141   0.907   1.982
 2219TIP3    H1 6596   6.053   0.932   2.018
 2219TIP3    H2 6597   6.148   0.970   1.909
 2220TIP3   OH2 6598   6.371  -0.034   2.426
 2220TIP3    H1 6599   6.414   0.045   2.388
 2220TIP3    H2 6600   6.344  -0.004   2.513
 2221TIP3   OH2 6601   6.639   0.302   3.198
 2221TIP3    H1 6602   6.605   0.354   3.273
 2221TIP3    H2 6603   6.638   0.213   3.236
 2222TIP3   OH2 6604   5.885   0.981   2.046
 2222TIP3    H1 6605   5.852   1.050   1.984
 2222TIP3    H2 6606   5.867   1.023   2.133
 2223TIP3   OH2 6607   6.885   0.386   2.571
 2223TIP3    H1 6608   6.811   0.328   2.593
 2223TIP3    H2 6609   6.960   0.342   2.618
 2224TIP3   OH2 6610   5.597   0.612   2.041
 2224TIP3    H1 6611   5.669   0.678   2.046
 2224TIP3    H2 6612   5.637   0.551   1.975
 2225TIP3   OH2 6613   5.588  -0.092   2.153
 2225TIP3    H1 6614   5.545  -0.004   2.157
 2225TIP3    H2 6615   5.517  -0.150   2.124
 2226TIP3   OH2 6616   6.855   1.341   2.516
 2226TIP3    H1 6617   6.814   1.392   2.443
 2226TIP3    H2 6618   6.950   1.362   2.499
 2227TIP3   OH2 6619   5.472   0.830   2.423
 2227TIP3    H1 6620   5.403   0.857   2.486
 2227TIP3    H2 6621   5.437   0.870   2.340
 2228TIP3   OH2 6622   5.625   1.367   3.510
 2228TIP3    H1 6623   5.716   1.355   3.544
 2228TIP3    H2 6624   5.599   1.274   3.499
 2229TIP3   OH2 6625   6.098   1.333   3.539
 2229TIP3    H1 6626   6.192   1.317   3.555
 2229TIP3    H2 6627   6.080   1.270   3.467
 2230TIP3   OH2 6628   6.093   0.916   1.680
 2230TIP3    H1 6629   6.037   0.842   1.715
 2230TIP3    H2 6630   6.155   0.867   1.623
 2231TIP3   OH2 6631   6.746   1.238   3.275
 2231TIP3    H1 6632   6.737   1.168   3.344
 2231TIP3    H2 6633   6.825   1.286   3.306
 2232TIP3   OH2 6634   6.531   0.974   1.576
 2232TIP3    H1 6635   6.608   0.949   1.630
 2232TIP3    H2 6636   6.571   1.038   1.515
 2233TIP3   OH2 6637   5.757   0.775   3.701
 2233TIP3    H1 6638   5.774   0.679   3.711
 2233TIP3    H2 6639   5.670   0.774   3.655
 2234TIP3   OH2 6640   5.732   0.421   1.906
 2234TIP3    H1 6641   5.794   0.396   1.977
 2234TIP3    H2 6642   5.793   0.427   1.830
 2235TIP3   OH2 6643   6.362   0.859   3.473
 2235TIP3    H1 6644   6.326   0.870   3.383
 2235TIP3    H2 6645   6.395   0.766   3.470
 2236TIP3   OH2 6646   6.269   0.625   1.705
 2236TIP3    H1 6647   6.258   0.637   1.802
 2236TIP3    H2 6648   6.185   0.582   1.680
 2237TIP3   OH2 6649   6.860   0.866   3.077
 2237TIP3    H1 6650   6.932   0.917   3.034
 2237TIP3    H2 6651   6.784   0.924   3.066
 2238TIP3   OH2 6652   5.850   0.506   3.687
 2238TIP3    H1 6653   5.925   0.462   3.644
 2238TIP3    H2 6654   5.891   0.533   3.772
 2239TIP3   OH2 6655   5.939   0.325   2.118
 2239TIP3    H1 6656   5.908   0.309   2.211
 2239TIP3    H2 6657   5.997   0.250   2.104
 2240TIP3   OH2 6658   6.226   0.442   3.350
 2240TIP3    H1 6659   6.136   0.483   3.353
 2240TIP3    H2 6660   6.215   0.381   3.274
 2241TIP3   OH2 6661   6.737   0.800   3.477
 2241TIP3    H1 6662   6.805   0.761   3.420
 2241TIP3    H2 6663   6.715   0.725   3.535
 2242TIP3   OH2 6664   6.302   0.208   3.460
 2242TIP3    H1 6665   6.255   0.168   3.383
 2242TIP3    H2 6666   6.286   0.302   3.435
 2243TIP3   OH2 6667   6.419   0.551   3.151
 2243TIP3    H1 6668   6.452   0.493   3.082
 2243TIP3    H2 6669   6.332   0.578   3.117
 2244TIP3   OH2 6670   6.942   0.474   3.508
 2244TIP3    H1 6671   6.973   0.415   3.581
 2244TIP3    H2 6672   7.024   0.518   3.483
 2245TIP3   OH2 6673   6.991   0.725   3.265
 2245TIP3    H1 6674   6.932   0.778   3.206
 2245TIP3    H2 6675   7.078   0.746   3.225
 2246TIP3   OH2 6676   6.182   0.322   3.693
 2246TIP3    H1 6677   6.142   0.240   3.722
 2246TIP3    H2 6678   6.241   0.290   3.622
 2247TIP3   OH2 6679   6.579   0.257   3.492
 2247TIP3    H1 6680   6.609   0.226   3.580
 2247TIP3    H2 6681   6.484   0.239   3.497
 2248TIP3   OH2 6682   5.850   1.187   1.862
 2248TIP3    H1 6683   5.946   1.182   1.842
 2248TIP3    H2 6684   5.820   1.234   1.782
 2249TIP3   OH2 6685   5.330   0.570   2.082
 2249TIP3    H1 6686   5.424   0.591   2.062
 2249TIP3    H2 6687   5.322   0.482   2.038
 2250TIP3   OH2 6688   5.247   1.178   2.490
 2250TIP3    H1 6689   5.181   1.116   2.452
 2250TIP3    H2 6690   5.291   1.120   2.555
 2251TIP3   OH2 6691   5.381   1.027   2.677
 2251TIP3    H1 6692   5.370   0.954   2.741
 2251TIP3    H2 6693   5.434   1.089   2.731
 2252TIP3   OH2 6694   7.104   1.443   2.475
 2252TIP3    H1 6695   7.141   1.464   2.563
 2252TIP3    H2 6696   7.180   1.458   2.416
 2253TIP3   OH2 6697   7.138   1.450   2.759
 2253TIP3    H1 6698   7.093   1.363   2.757
 2253TIP3    H2 6699   7.218   1.427   2.809
 2254TIP3   OH2 6700   7.183   1.126   3.331
 2254TIP3    H1 6701   7.111   1.135   3.397
 2254TIP3    H2 6702   7.225   1.215   3.335
 2255TIP3   OH2 6703   6.966   0.686   1.990
 2255TIP3    H1 6704   7.026   0.762   1.969
 2255TIP3    H2 6705   7.028   0.635   2.046
 2256TIP3   OH2 6706   7.114   0.527   2.155
 2256TIP3    H1 6707   7.056   0.465   2.204
 2256TIP3    H2 6708   7.189   0.538   2.216
 2257TIP3   OH2 6709   7.179   0.898   2.582
 2257TIP3    H1 6710   7.235   0.834   2.534
 2257TIP3    H2 6711   7.179   0.975   2.522
 2258TIP3   OH2 6712   7.013   1.200   2.778
 2258TIP3    H1 6713   6.942   1.237   2.834
 2258TIP3    H2 6714   6.962   1.151   2.710
 2259TIP3   OH2 6715   6.939   0.365   2.303
 2259TIP3    H1 6716   6.961   0.272   2.307
 2259TIP3    H2 6717   6.923   0.385   2.398
 2260TIP3   OH2 6718   5.573   0.435   3.053
 2260TIP3    H1 6719   5.569   0.406   2.960
 2260TIP3    H2 6720   5.671   0.444   3.065
 2261TIP3   OH2 6721   7.235   0.790   3.155
 2261TIP3    H1 6722   7.305   0.721   3.150
 2261TIP3    H2 6723   7.266   0.856   3.092
 2262TIP3   OH2 6724   7.410   0.588   3.181
 2262TIP3    H1 6725   7.336   0.531   3.213
 2262TIP3    H2 6726   7.485   0.527   3.195
 2263TIP3   OH2 6727   7.100   0.267   2.689
 2263TIP3    H1 6728   7.183   0.295   2.645
 2263TIP3    H2 6729   7.117   0.296   2.781
 2264TIP3   OH2 6730   7.159   0.403   2.926
 2264TIP3    H1 6731   7.082   0.438   2.976
 2264TIP3    H2 6732   7.191   0.483   2.879
 2265TIP3   OH2 6733   5.759   0.126   3.685
 2265TIP3    H1 6734   5.855   0.116   3.685
 2265TIP3    H2 6735   5.733   0.052   3.744
 2266TIP3   OH2 6736   5.554   0.101   3.136
 2266TIP3    H1 6737   5.595   0.078   3.049
 2266TIP3    H2 6738   5.593   0.188   3.150
 2267TIP3   OH2 6739   6.691   1.305   2.135
 2267TIP3    H1 6740   6.739   1.290   2.050
 2267TIP3    H2 6741   6.757   1.355   2.184
 2268TIP3   OH2 6742   5.789   1.113   3.519
 2268TIP3    H1 6743   5.701   1.076   3.503
 2268TIP3    H2 6744   5.812   1.077   3.605
 2269TIP3   OH2 6745   5.970   1.135   3.065
 2269TIP3    H1 6746   5.927   1.213   3.024
 2269TIP3    H2 6747   6.058   1.145   3.023
 2270TIP3   OH2 6748   6.414   1.382   3.204
 2270TIP3    H1 6749   6.458   1.377   3.292
 2270TIP3    H2 6750   6.483   1.430   3.152
 2271TIP3   OH2 6751   6.595   1.532   3.059
 2271TIP3    H1 6752   6.665   1.476   3.022
 2271TIP3    H2 6753   6.648   1.587   3.122
 2272TIP3   OH2 6754   5.647   1.393   3.083
 2272TIP3    H1 6755   5.557   1.429   3.063
 2272TIP3    H2 6756   5.656   1.419   3.175
 2273TIP3   OH2 6757   5.885   1.371   2.947
 2273TIP3    H1 6758   5.798   1.383   2.990
 2273TIP3    H2 6759   5.866   1.400   2.856
 2274TIP3   OH2 6760   6.311   1.400   2.741
 2274TIP3    H1 6761   6.236   1.421   2.683
 2274TIP3    H2 6762   6.323   1.484   2.791
 2275TIP3   OH2 6763   6.580   1.336   2.795
 2275TIP3    H1 6764   6.487   1.355   2.774
 2275TIP3    H2 6765   6.626   1.412   2.755
 2276TIP3   OH2 6766   6.781   1.526   2.708
 2276TIP3    H1 6767   6.772   1.609   2.657
 2276TIP3    H2 6768   6.813   1.463   2.640
 2277TIP3   OH2 6769   5.560   1.182   2.835
 2277TIP3    H1 6770   5.587   1.156   2.925
 2277TIP3    H2 6771   5.631   1.138   2.783
 2278TIP3   OH2 6772   5.755   1.054   2.693
 2278TIP3    H1 6773   5.770   0.969   2.741
 2278TIP3    H2 6774   5.847   1.089   2.689
 2279TIP3   OH2 6775   6.024   1.148   2.695
 2279TIP3    H1 6776   6.052   1.055   2.684
 2279TIP3    H2 6777   6.071   1.169   2.779
 2280TIP3   OH2 6778   5.347   0.957   2.222
 2280TIP3    H1 6779   5.262   0.923   2.189
 2280TIP3    H2 6780   5.336   1.051   2.198
 2281TIP3   OH2 6781   6.117   1.151   1.810
 2281TIP3    H1 6782   6.204   1.174   1.773
 2281TIP3    H2 6783   6.095   1.075   1.753
 2282TIP3   OH2 6784   6.837   1.272   1.903
 2282TIP3    H1 6785   6.824   1.174   1.904
 2282TIP3    H2 6786   6.794   1.297   1.819
 2283TIP3   OH2 6787   5.426   0.983   1.861
 2283TIP3    H1 6788   5.426   0.999   1.957
 2283TIP3    H2 6789   5.512   0.937   1.847
 2284TIP3   OH2 6790   7.066   1.407   3.086
 2284TIP3    H1 6791   6.987   1.375   3.038
 2284TIP3    H2 6792   7.045   1.502   3.093
 2285TIP3   OH2 6793   7.577   1.072   2.358
 2285TIP3    H1 6794   7.551   0.993   2.311
 2285TIP3    H2 6795   7.672   1.076   2.335
 2286TIP3   OH2 6796   7.381   0.570   2.282
 2286TIP3    H1 6797   7.426   0.486   2.294
 2286TIP3    H2 6798   7.406   0.595   2.191
 2287TIP3   OH2 6799   7.155   0.866   1.933
 2287TIP3    H1 6800   7.207   0.816   1.868
 2287TIP3    H2 6801   7.210   0.946   1.943
 2288TIP3   OH2 6802   7.742   1.468   2.813
 2288TIP3    H1 6803   7.742   1.414   2.734
 2288TIP3    H2 6804   7.673   1.429   2.869
 2289TIP3   OH2 6805   7.393   0.943   2.780
 2289TIP3    H1 6806   7.322   0.911   2.721
 2289TIP3    H2 6807   7.427   0.859   2.820
 2290TIP3   OH2 6808   7.251   1.130   2.419
 2290TIP3    H1 6809   7.348   1.126   2.411
 2290TIP3    H2 6810   7.242   1.206   2.479
 2291TIP3   OH2 6811   7.391   1.354   1.946
 2291TIP3    H1 6812   7.466   1.357   2.008
 2291TIP3    H2 6813   7.366   1.260   1.953
 2292TIP3   OH2 6814   7.600   1.124   2.758
 2292TIP3    H1 6815   7.650   1.093   2.836
 2292TIP3    H2 6816   7.523   1.064   2.763
 2293TIP3   OH2 6817   7.732   1.013   2.970
 2293TIP3    H1 6818   7.802   1.081   2.977
 2293TIP3    H2 6819   7.693   1.015   3.059
 2294TIP3   OH2 6820   7.484   0.735   2.928
 2294TIP3    H1 6821   7.536   0.731   3.011
 2294TIP3    H2 6822   7.434   0.652   2.931
 2295TIP3   OH2 6823   7.429   1.314   2.568
 2295TIP3    H1 6824   7.487   1.244   2.603
 2295TIP3    H2 6825   7.467   1.394   2.607
 2296TIP3   OH2 6826   7.270   1.109   1.922
 2296TIP3    H1 6827   7.193   1.143   1.969
 2296TIP3    H2 6828   7.249   1.135   1.830
 2297TIP3   OH2 6829   7.422   1.622   2.985
 2297TIP3    H1 6830   7.511   1.619   3.025
 2297TIP3    H2 6831   7.397   1.528   2.985
 2298TIP3   OH2 6832   7.549   1.028   3.192
 2298TIP3    H1 6833   7.569   0.933   3.191
 2298TIP3    H2 6834   7.466   1.031   3.141
 2299TIP3   OH2 6835   7.661   0.766   3.166
 2299TIP3    H1 6836   7.732   0.704   3.146
 2299TIP3    H2 6837   7.689   0.798   3.255
 2300TIP3   OH2 6838   7.042   1.440   1.981
 2300TIP3    H1 6839   6.978   1.376   1.943
 2300TIP3    H2 6840   7.089   1.383   2.045
 2301TIP3   OH2 6841   7.165   1.286   2.170
 2301TIP3    H1 6842   7.171   1.210   2.230
 2301TIP3    H2 6843   7.227   1.347   2.214
 2302TIP3   OH2 6844   7.370   0.700   2.528
 2302TIP3    H1 6845   7.362   0.654   2.441
 2302TIP3    H2 6846   7.466   0.713   2.534
 2303TIP3   OH2 6847   7.579   0.377   3.211
 2303TIP3    H1 6848   7.674   0.360   3.217
 2303TIP3    H2 6849   7.544   0.292   3.246
 2304TIP3   OH2 6850   7.345   0.355   2.584
 2304TIP3    H1 6851   7.429   0.317   2.559
 2304TIP3    H2 6852   7.369   0.421   2.651
 2305TIP3   OH2 6853   7.598   1.351   3.014
 2305TIP3    H1 6854   7.509   1.320   2.987
 2305TIP3    H2 6855   7.597   1.330   3.108
 2306TIP3   OH2 6856   7.431   1.634   2.576
 2306TIP3    H1 6857   7.346   1.681   2.560
 2306TIP3    H2 6858   7.464   1.682   2.653
 2307TIP3   OH2 6859   7.687   1.618   2.446
 2307TIP3    H1 6860   7.596   1.626   2.477
 2307TIP3    H2 6861   7.681   1.654   2.355
 2308TIP3   OH2 6862   7.346   1.441   2.325
 2308TIP3    H1 6863   7.382   1.424   2.414
 2308TIP3    H2 6864   7.418   1.399   2.272
 2309TIP3   OH2 6865   7.535   1.309   2.184
 2309TIP3    H1 6866   7.544   1.220   2.222
 2309TIP3    H2 6867   7.628   1.324   2.153
 2310TIP3   OH2 6868   7.145   1.209   1.698
 2310TIP3    H1 6869   7.057   1.177   1.675
 2310TIP3    H2 6870   7.131   1.306   1.695
 2311TIP3   OH2 6871   7.211   1.264   1.376
 2311TIP3    H1 6872   7.204   1.277   1.472
 2311TIP3    H2 6873   7.276   1.191   1.369
 2312TIP3   OH2 6874   0.784   1.576   3.544
 2312TIP3    H1 6875   0.759   1.665   3.511
 2312TIP3    H2 6876   0.698   1.544   3.573
 2313TIP3   OH2 6877   0.783   1.565   3.927
 2313TIP3    H1 6878   0.819   1.544   4.015
 2313TIP3    H2 6879   0.747   1.479   3.901
 2314TIP3   OH2 6880   0.088   1.461   4.293
 2314TIP3    H1 6881   0.125   1.396   4.355
 2314TIP3    H2 6882   0.161   1.524   4.288
 2315TIP3   OH2 6883   1.030   1.869   3.607
 2315TIP3    H1 6884   1.012   1.798   3.670
 2315TIP3    H2 6885   1.057   1.942   3.665
 2316TIP3   OH2 6886   0.055   1.866   4.011
 2316TIP3    H1 6887   0.049   1.769   4.016
 2316TIP3    H2 6888   0.151   1.878   4.006
 2317TIP3   OH2 6889   0.663   2.335   3.616
 2317TIP3    H1 6890   0.717   2.260   3.583
 2317TIP3    H2 6891   0.684   2.339   3.710
 2318TIP3   OH2 6892   0.581   1.792   3.974
 2318TIP3    H1 6893   0.621   1.716   3.929
 2318TIP3    H2 6894   0.664   1.838   3.998
 2319TIP3   OH2 6895   1.599   1.112   3.972
 2319TIP3    H1 6896   1.627   1.196   4.013
 2319TIP3    H2 6897   1.613   1.131   3.878
 2320TIP3   OH2 6898   0.998   1.294   4.004
 2320TIP3    H1 6899   1.036   1.206   4.023
 2320TIP3    H2 6900   0.960   1.279   3.915
 2321TIP3   OH2 6901   1.023   1.052   3.609
 2321TIP3    H1 6902   1.104   1.030   3.660
 2321TIP3    H2 6903   1.060   1.071   3.522
 2322TIP3   OH2 6904   0.413   1.347   3.864
 2322TIP3    H1 6905   0.509   1.344   3.883
 2322TIP3    H2 6906   0.396   1.252   3.857
 2323TIP3   OH2 6907   1.671   1.323   4.139
 2323TIP3    H1 6908   1.586   1.368   4.118
 2323TIP3    H2 6909   1.680   1.346   4.232
 2324TIP3   OH2 6910   0.353   0.929   4.396
 2324TIP3    H1 6911   0.294   0.970   4.329
 2324TIP3    H2 6912   0.295   0.927   4.474
 2325TIP3   OH2 6913   0.662   1.785   3.416
 2325TIP3    H1 6914   0.648   1.782   3.321
 2325TIP3    H2 6915   0.622   1.872   3.438
 2326TIP3   OH2 6916   0.433   1.713   4.197
 2326TIP3    H1 6917   0.373   1.780   4.235
 2326TIP3    H2 6918   0.476   1.763   4.125
 2327TIP3   OH2 6919   1.244   1.040   3.770
 2327TIP3    H1 6920   1.213   1.005   3.855
 2327TIP3    H2 6921   1.289   1.123   3.797
 2328TIP3   OH2 6922   0.203   1.040   4.200
 2328TIP3    H1 6923   0.255   1.123   4.209
 2328TIP3    H2 6924   0.226   1.011   4.111
 2329TIP3   OH2 6925   0.261   1.908   4.297
 2329TIP3    H1 6926   0.238   1.995   4.260
 2329TIP3    H2 6927   0.182   1.894   4.354
 2330TIP3   OH2 6928   1.096   2.103   3.777
 2330TIP3    H1 6929   1.009   2.097   3.822
 2330TIP3    H2 6930   1.088   2.191   3.736
 2331TIP3   OH2 6931   1.388   1.013   4.138
 2331TIP3    H1 6932   1.300   1.037   4.106
 2331TIP3    H2 6933   1.446   1.044   4.065
 2332TIP3   OH2 6934   0.703   0.672   4.125
 2332TIP3    H1 6935   0.675   0.580   4.121
 2332TIP3    H2 6936   0.620   0.714   4.155
 2333TIP3   OH2 6937   0.807   2.159   3.457
 2333TIP3    H1 6938   0.849   2.074   3.431
 2333TIP3    H2 6939   0.868   2.222   3.412
 2334TIP3   OH2 6940   0.936   1.942   3.357
 2334TIP3    H1 6941   0.942   1.865   3.297
 2334TIP3    H2 6942   0.972   1.904   3.440
 2335TIP3   OH2 6943   1.322   2.024   4.117
 2335TIP3    H1 6944   1.310   1.946   4.058
 2335TIP3    H2 6945   1.305   2.098   4.055
 2336TIP3   OH2 6946   1.518   1.663   3.962
 2336TIP3    H1 6947   1.434   1.714   3.967
 2336TIP3    H2 6948   1.547   1.688   3.872
 2337TIP3   OH2 6949   0.961   1.502   3.347
 2337TIP3    H1 6950   0.905   1.526   3.424
 2337TIP3    H2 6951   1.044   1.475   3.391
 2338TIP3   OH2 6952   1.196   1.539   4.259
 2338TIP3    H1 6953   1.193   1.622   4.310
 2338TIP3    H2 6954   1.110   1.542   4.213
 2339TIP3   OH2 6955   0.189   1.488   3.762
 2339TIP3    H1 6956   0.172   1.447   3.676
 2339TIP3    H2 6957   0.272   1.444   3.790
 2340TIP3   OH2 6958   0.323   1.901   3.911
 2340TIP3    H1 6959   0.310   1.867   3.821
 2340TIP3    H2 6960   0.414   1.870   3.931
 2341TIP3   OH2 6961   0.328   1.475   4.110
 2341TIP3    H1 6962   0.368   1.455   4.023
 2341TIP3    H2 6963   0.372   1.558   4.136
 2342TIP3   OH2 6964   0.859   2.109   3.905
 2342TIP3    H1 6965   0.818   2.174   3.961
 2342TIP3    H2 6966   0.846   2.026   3.956
 2343TIP3   OH2 6967   0.469   2.025   4.440
 2343TIP3    H1 6968   0.410   2.087   4.487
 2343TIP3    H2 6969   0.403   1.972   4.391
 2344TIP3   OH2 6970   0.239   1.592   4.529
 2344TIP3    H1 6971   0.237   1.677   4.577
 2344TIP3    H2 6972   0.149   1.559   4.545
 2345TIP3   OH2 6973   0.548   2.043   3.440
 2345TIP3    H1 6974   0.625   2.095   3.468
 2345TIP3    H2 6975   0.485   2.111   3.412
 2346TIP3   OH2 6976   0.262   2.191   4.528
 2346TIP3    H1 6977   0.228   2.197   4.437
 2346TIP3    H2 6978   0.180   2.177   4.580
 2347TIP3   OH2 6979   1.125   1.975   2.780
 2347TIP3    H1 6980   1.126   2.070   2.755
 2347TIP3    H2 6981   1.217   1.948   2.760
 2348TIP3   OH2 6982  -0.137   1.714   4.467
 2348TIP3    H1 6983  -0.207   1.694   4.404
 2348TIP3    H2 6984  -0.121   1.626   4.506
 2349TIP3   OH2 6985  -0.297   1.940   4.088
 2349TIP3    H1 6986  -0.211   1.897   4.078
 2349TIP3    H2 6987  -0.278   2.000   4.162
 2350TIP3   OH2 6988   1.562   2.370   4.163
 2350TIP3    H1 6989   1.559   2.274   4.180
 2350TIP3    H2 6990   1.479   2.397   4.209
 2351TIP3   OH2 6991   0.666   2.153   4.297
 2351TIP3    H1 6992   0.665   2.245   4.331
 2351TIP3    H2 6993   0.595   2.113   4.352
 2352TIP3   OH2 6994   0.428   2.280   3.256
 2352TIP3    H1 6995   0.390   2.263   3.167
 2352TIP3    H2 6996   0.394   2.369   3.278
 2353TIP3   OH2 6997  -0.140   2.144   3.628
 2353TIP3    H1 6998  -0.099   2.117   3.714
 2353TIP3    H2 6999  -0.188   2.063   3.602
 2354TIP3   OH2 7000   0.631   2.177   2.902
 2354TIP3    H1 7001   0.691   2.111   2.859
 2354TIP3    H2 7002   0.671   2.185   2.991
 2355TIP3   OH2 7003   0.684   2.237   3.172
 2355TIP3    H1 7004   0.593   2.246   3.207
 2355TIP3    H2 7005   0.723   2.181   3.240
 2356TIP3   OH2 7006   1.450   1.500   4.437
 2356TIP3    H1 7007   1.366   1.512   4.391
 2356TIP3    H2 7008   1.464   1.404   4.427
 2357TIP3   OH2 7009   0.045   1.916   4.469
 2357TIP3    H1 7010   0.102   1.890   4.544
 2357TIP3    H2 7011  -0.024   1.845   4.470
 2358TIP3   OH2 7012   0.452   0.747   4.210
 2358TIP3    H1 7013   0.368   0.697   4.202
 2358TIP3    H2 7014   0.428   0.812   4.279
 2359TIP3   OH2 7015   1.016   0.850   4.428
 2359TIP3    H1 7016   1.078   0.819   4.498
 2359TIP3    H2 7017   0.928   0.835   4.471
 2360TIP3   OH2 7018   1.220   1.277   4.365
 2360TIP3    H1 7019   1.169   1.274   4.449
 2360TIP3    H2 7020   1.193   1.363   4.327
 2361TIP3   OH2 7021   0.375   1.249   4.255
 2361TIP3    H1 7022   0.333   1.271   4.340
 2361TIP3    H2 7023   0.359   1.332   4.205
 2362TIP3   OH2 7024   0.769   1.249   3.496
 2362TIP3    H1 7025   0.688   1.284   3.459
 2362TIP3    H2 7026   0.829   1.252   3.420
 2363TIP3   OH2 7027   0.924   1.493   4.595
 2363TIP3    H1 7028   0.901   1.421   4.658
 2363TIP3    H2 7029   1.018   1.507   4.617
 2364TIP3   OH2 7030   0.907   1.255   3.746
 2364TIP3    H1 7031   0.854   1.282   3.669
 2364TIP3    H2 7032   0.944   1.172   3.708
 2365TIP3   OH2 7033   0.204   1.286   4.469
 2365TIP3    H1 7034   0.245   1.344   4.534
 2365TIP3    H2 7035   0.181   1.209   4.521
 2366TIP3   OH2 7036   0.919   1.492   4.167
 2366TIP3    H1 7037   0.953   1.420   4.109
 2366TIP3    H2 7038   0.889   1.439   4.244
 2367TIP3   OH2 7039   0.581   0.986   3.860
 2367TIP3    H1 7040   0.521   0.919   3.894
 2367TIP3    H2 7041   0.667   0.954   3.890
 2368TIP3   OH2 7042   1.082   1.030   4.042
 2368TIP3    H1 7043   1.048   1.044   4.134
 2368TIP3    H2 7044   1.012   0.971   4.007
 2369TIP3   OH2 7045   1.255   2.717   4.264
 2369TIP3    H1 7046   1.250   2.749   4.172
 2369TIP3    H2 7047   1.333   2.766   4.297
 2370TIP3   OH2 7048   0.209   1.832   4.680
 2370TIP3    H1 7049   0.290   1.858   4.728
 2370TIP3    H2 7050   0.145   1.829   4.754
 2371TIP3   OH2 7051   0.672   1.295   3.941
 2371TIP3    H1 7052   0.733   1.242   3.887
 2371TIP3    H2 7053   0.672   1.244   4.025
 2372TIP3   OH2 7054   0.649   1.189   4.220
 2372TIP3    H1 7055   0.559   1.222   4.239
 2372TIP3    H2 7056   0.706   1.248   4.274
 2373TIP3   OH2 7057   1.284   1.806   3.951
 2373TIP3    H1 7058   1.306   1.857   3.870
 2373TIP3    H2 7059   1.199   1.763   3.926
 2374TIP3   OH2 7060   0.785   1.891   4.318
 2374TIP3    H1 7061   0.810   1.869   4.408
 2374TIP3    H2 7062   0.744   1.979   4.327
 2375TIP3   OH2 7063   0.070   1.586   4.001
 2375TIP3    H1 7064   0.104   1.556   3.914
 2375TIP3    H2 7065   0.125   1.534   4.062
 2376TIP3   OH2 7066   0.522   1.713   3.154
 2376TIP3    H1 7067   0.495   1.808   3.144
 2376TIP3    H2 7068   0.463   1.686   3.225
 2377TIP3   OH2 7069   0.000   1.481   4.618
 2377TIP3    H1 7070   0.035   1.501   4.707
 2377TIP3    H2 7071  -0.096   1.479   4.636
 2378TIP3   OH2 7072   0.685   1.631   4.627
 2378TIP3    H1 7073   0.624   1.565   4.591
 2378TIP3    H2 7074   0.772   1.594   4.603
 2379TIP3   OH2 7075   0.940   2.157   4.213
 2379TIP3    H1 7076   0.845   2.151   4.234
 2379TIP3    H2 7077   0.972   2.203   4.294
 2380TIP3   OH2 7078   1.353   1.216   3.104
 2380TIP3    H1 7079   1.268   1.177   3.083
 2380TIP3    H2 7080   1.341   1.307   3.069
 2381TIP3   OH2 7081   1.573   2.079   4.205
 2381TIP3    H1 7082   1.475   2.074   4.197
 2381TIP3    H2 7083   1.598   2.049   4.115
 2382TIP3   OH2 7084   1.061   2.038   3.041
 2382TIP3    H1 7085   1.022   1.963   3.088
 2382TIP3    H2 7086   1.071   2.004   2.950
 2383TIP3   OH2 7087   1.050   1.670   3.868
 2383TIP3    H1 7088   0.957   1.644   3.882
 2383TIP3    H2 7089   1.084   1.589   3.824
 2384TIP3   OH2 7090   0.174   1.896   3.623
 2384TIP3    H1 7091   0.175   1.988   3.588
 2384TIP3    H2 7092   0.091   1.897   3.671
 2385TIP3   OH2 7093   0.339   1.669   3.605
 2385TIP3    H1 7094   0.297   1.756   3.596
 2385TIP3    H2 7095   0.277   1.622   3.663
 2386TIP3   OH2 7096   0.447   2.241   4.096
 2386TIP3    H1 7097   0.474   2.334   4.082
 2386TIP3    H2 7098   0.525   2.206   4.143
 2387TIP3   OH2 7099   0.116   2.142   3.518
 2387TIP3    H1 7100   0.022   2.154   3.538
 2387TIP3    H2 7101   0.142   2.233   3.496
 2388TIP3   OH2 7102   0.835   1.874   4.050
 2388TIP3    H1 7103   0.823   1.874   4.148
 2388TIP3    H2 7104   0.914   1.819   4.042
 2389TIP3   OH2 7105   0.828   1.788   2.951
 2389TIP3    H1 7106   0.866   1.763   3.038
 2389TIP3    H2 7107   0.740   1.748   2.955
 2390TIP3   OH2 7108   1.095   2.398   4.092
 2390TIP3    H1 7109   1.013   2.355   4.121
 2390TIP3    H2 7110   1.063   2.467   4.032
 2391TIP3   OH2 7111   1.151   2.248   2.752
 2391TIP3    H1 7112   1.182   2.316   2.691
 2391TIP3    H2 7113   1.071   2.292   2.786
 2392TIP3   OH2 7114   0.974   1.727   3.179
 2392TIP3    H1 7115   0.954   1.644   3.227
 2392TIP3    H2 7116   1.063   1.703   3.145
 2393TIP3   OH2 7117  -0.120   2.098   4.254
 2393TIP3    H1 7118  -0.057   2.034   4.292
 2393TIP3    H2 7119  -0.093   2.179   4.300
 2394TIP3   OH2 7120   1.009   1.091   4.301
 2394TIP3    H1 7121   1.090   1.130   4.339
 2394TIP3    H2 7122   1.004   1.006   4.350
 2395TIP3   OH2 7123   0.410   1.958   3.150
 2395TIP3    H1 7124   0.348   1.975   3.221
 2395TIP3    H2 7125   0.402   2.039   3.097
 2396TIP3   OH2 7126   0.845   1.332   4.375
 2396TIP3    H1 7127   0.868   1.383   4.456
 2396TIP3    H2 7128   0.897   1.251   4.387
 2397TIP3   OH2 7129   1.486   1.231   4.355
 2397TIP3    H1 7130   1.388   1.232   4.368
 2397TIP3    H2 7131   1.490   1.186   4.270
 2398TIP3   OH2 7132   1.136   1.427   3.746
 2398TIP3    H1 7133   1.058   1.369   3.757
 2398TIP3    H2 7134   1.206   1.377   3.794
 2399TIP3   OH2 7135   1.099   2.369   3.691
 2399TIP3    H1 7136   1.048   2.359   3.609
 2399TIP3    H2 7137   1.186   2.399   3.659
 2400TIP3   OH2 7138  -0.100   2.428   4.652
 2400TIP3    H1 7139  -0.023   2.439   4.712
 2400TIP3    H2 7140  -0.120   2.335   4.666
 2401TIP3   OH2 7141   0.355   2.373   4.722
 2401TIP3    H1 7142   0.451   2.361   4.727
 2401TIP3    H2 7143   0.333   2.314   4.647
 2402TIP3   OH2 7144   1.004   2.274   4.451
 2402TIP3    H1 7145   0.993   2.209   4.524
 2402TIP3    H2 7146   1.075   2.332   4.484
 2403TIP3   OH2 7147   0.780   1.995   2.768
 2403TIP3    H1 7148   0.815   1.920   2.821
 2403TIP3    H2 7149   0.832   1.987   2.685
 2404TIP3   OH2 7150   0.004   1.811   4.868
 2404TIP3    H1 7151   0.037   1.719   4.873
 2404TIP3    H2 7152  -0.091   1.797   4.867
 2405TIP3   OH2 7153   0.614   1.905   4.649
 2405TIP3    H1 7154   0.573   1.923   4.562
 2405TIP3    H2 7155   0.645   1.813   4.639
 2406TIP3   OH2 7156   1.106   1.913   4.255
 2406TIP3    H1 7157   1.181   1.959   4.212
 2406TIP3    H2 7158   1.035   1.978   4.242
 2407TIP3   OH2 7159   0.114   1.554   4.862
 2407TIP3    H1 7160   0.179   1.483   4.856
 2407TIP3    H2 7161   0.128   1.576   4.956
 2408TIP3   OH2 7162   0.463   1.431   4.509
 2408TIP3    H1 7163   0.392   1.498   4.515
 2408TIP3    H2 7164   0.518   1.467   4.436
 2409TIP3   OH2 7165   0.978   1.839   4.651
 2409TIP3    H1 7166   1.058   1.809   4.606
 2409TIP3    H2 7167   0.970   1.774   4.724
 2410TIP3   OH2 7168   0.586   1.219   4.636
 2410TIP3    H1 7169   0.594   1.144   4.574
 2410TIP3    H2 7170   0.543   1.288   4.581
 2411TIP3   OH2 7171   0.605   1.022   4.445
 2411TIP3    H1 7172   0.625   1.061   4.358
 2411TIP3    H2 7173   0.515   0.984   4.430
 2412TIP3   OH2 7174   0.612   1.544   4.318
 2412TIP3    H1 7175   0.698   1.558   4.279
 2412TIP3    H2 7176   0.557   1.613   4.276
 2413TIP3   OH2 7177   1.192   1.514   4.703
 2413TIP3    H1 7178   1.239   1.431   4.722
 2413TIP3    H2 7179   1.263   1.570   4.667
 2414TIP3   OH2 7180   1.237   1.767   4.440
 2414TIP3    H1 7181   1.178   1.821   4.383
 2414TIP3    H2 7182   1.324   1.788   4.401
 2415TIP3   OH2 7183   0.478   1.355   4.853
 2415TIP3    H1 7184   0.395   1.320   4.890
 2415TIP3    H2 7185   0.501   1.294   4.781
 2416TIP3   OH2 7186   0.758   0.799   4.489
 2416TIP3    H1 7187   0.708   0.882   4.474
 2416TIP3    H2 7188   0.683   0.740   4.509
 2417TIP3   OH2 7189   0.846   1.275   4.735
 2417TIP3    H1 7190   0.822   1.256   4.829
 2417TIP3    H2 7191   0.758   1.252   4.698
 2418TIP3   OH2 7192   1.084   1.228   4.593
 2418TIP3    H1 7193   1.007   1.227   4.653
 2418TIP3    H2 7194   1.155   1.192   4.650
 2419TIP3   OH2 7195   1.324   1.171   4.744
 2419TIP3    H1 7196   1.329   1.074   4.761
 2419TIP3    H2 7197   1.306   1.207   4.833
 2420TIP3   OH2 7198   0.767   0.719   4.756
 2420TIP3    H1 7199   0.858   0.690   4.777
 2420TIP3    H2 7200   0.782   0.764   4.671
 2421TIP3   OH2 7201  -0.399   2.095   3.866
 2421TIP3    H1 7202  -0.380   2.015   3.918
 2421TIP3    H2 7203  -0.334   2.156   3.907
 2422TIP3   OH2 7204   1.329   2.529   3.639
 2422TIP3    H1 7205   1.363   2.523   3.731
 2422TIP3    H2 7206   1.411   2.517   3.588
 2423TIP3   OH2 7207   1.390   2.488   3.915
 2423TIP3    H1 7208   1.344   2.402   3.924
 2423TIP3    H2 7209   1.463   2.472   3.977
 2424TIP3   OH2 7210   1.435   2.169   4.508
 2424TIP3    H1 7211   1.361   2.179   4.572
 2424TIP3    H2 7212   1.476   2.258   4.512
 2425TIP3   OH2 7213   1.255   1.678   3.124
 2425TIP3    H1 7214   1.320   1.746   3.097
 2425TIP3    H2 7215   1.296   1.643   3.206
 2426TIP3   OH2 7216   1.379   1.547   3.332
 2426TIP3    H1 7217   1.311   1.506   3.389
 2426TIP3    H2 7218   1.440   1.587   3.398
 2427TIP3   OH2 7219   1.434   1.944   3.764
 2427TIP3    H1 7220   1.487   1.877   3.716
 2427TIP3    H2 7221   1.421   2.013   3.696
 2428TIP3   OH2 7222   1.266   2.241   3.953
 2428TIP3    H1 7223   1.198   2.287   4.007
 2428TIP3    H2 7224   1.211   2.191   3.889
 2429TIP3   OH2 7225   1.294   1.453   2.973
 2429TIP3    H1 7226   1.212   1.462   2.923
 2429TIP3    H2 7227   1.283   1.531   3.032
 2430TIP3   OH2 7228   1.193   1.408   3.477
 2430TIP3    H1 7229   1.185   1.311   3.466
 2430TIP3    H2 7230   1.178   1.419   3.574
 2431TIP3   OH2 7231  -0.176   1.472   4.240
 2431TIP3    H1 7232  -0.176   1.492   4.146
 2431TIP3    H2 7233  -0.080   1.478   4.259
 2432TIP3   OH2 7234   1.481   1.833   4.334
 2432TIP3    H1 7235   1.553   1.767   4.323
 2432TIP3    H2 7236   1.507   1.903   4.272
 2433TIP3   OH2 7237   1.665   1.635   4.343
 2433TIP3    H1 7238   1.590   1.587   4.384
 2433TIP3    H2 7239   1.738   1.571   4.361
 2434TIP3   OH2 7240   1.185   1.142   3.393
 2434TIP3    H1 7241   1.228   1.059   3.424
 2434TIP3    H2 7242   1.241   1.162   3.318
 2435TIP3   OH2 7243   1.348   1.294   3.868
 2435TIP3    H1 7244   1.434   1.319   3.826
 2435TIP3    H2 7245   1.361   1.333   3.956
 2436TIP3   OH2 7246   1.419   1.441   4.097
 2436TIP3    H1 7247   1.342   1.474   4.147
 2436TIP3    H2 7248   1.451   1.523   4.054
 2437TIP3   OH2 7249   1.879   1.040   4.654
 2437TIP3    H1 7250   1.932   0.971   4.609
 2437TIP3    H2 7251   1.842   1.090   4.578
 2438TIP3   OH2 7252   1.312   0.914   3.446
 2438TIP3    H1 7253   1.337   0.865   3.527
 2438TIP3    H2 7254   1.276   0.844   3.386
 2439TIP3   OH2 7255   1.739   1.170   4.462
 2439TIP3    H1 7256   1.655   1.214   4.485
 2439TIP3    H2 7257   1.704   1.100   4.402
 2440TIP3   OH2 7258   0.960   2.342   3.320
 2440TIP3    H1 7259   0.988   2.306   3.234
 2440TIP3    H2 7260   1.000   2.429   3.314
 2441TIP3   OH2 7261   0.033   2.148   4.699
 2441TIP3    H1 7262  -0.017   2.068   4.678
 2441TIP3    H2 7263   0.055   2.137   4.792
 2442TIP3   OH2 7264   0.220   2.176   4.240
 2442TIP3    H1 7265   0.174   2.253   4.201
 2442TIP3    H2 7266   0.307   2.189   4.196
 2443TIP3   OH2 7267   0.658   2.414   4.383
 2443TIP3    H1 7268   0.699   2.419   4.472
 2443TIP3    H2 7269   0.727   2.461   4.331
 2444TIP3   OH2 7270   0.866   2.541   4.266
 2444TIP3    H1 7271   0.891   2.563   4.175
 2444TIP3    H2 7272   0.910   2.612   4.318
 2445TIP3   OH2 7273   1.639   0.937   4.336
 2445TIP3    H1 7274   1.548   0.931   4.302
 2445TIP3    H2 7275   1.669   0.843   4.327
 2446TIP3   OH2 7276  -0.108   2.430   4.268
 2446TIP3    H1 7277  -0.199   2.460   4.248
 2446TIP3    H2 7278  -0.091   2.476   4.351
 2447TIP3   OH2 7279   0.127   2.404   4.123
 2447TIP3    H1 7280   0.041   2.421   4.166
 2447TIP3    H2 7281   0.112   2.440   4.033
 2448TIP3   OH2 7282   1.073   2.584   3.876
 2448TIP3    H1 7283   0.976   2.607   3.885
 2448TIP3    H2 7284   1.062   2.500   3.828
 2449TIP3   OH2 7285  -0.190   2.228   4.001
 2449TIP3    H1 7286  -0.174   2.204   4.095
 2449TIP3    H2 7287  -0.119   2.176   3.958
 2450TIP3   OH2 7288   0.001   2.089   3.861
 2450TIP3    H1 7289   0.019   2.011   3.919
 2450TIP3    H2 7290   0.089   2.132   3.860
 2451TIP3   OH2 7291   0.263   2.185   3.881
 2451TIP3    H1 7292   0.301   2.096   3.868
 2451TIP3    H2 7293   0.315   2.214   3.958
 2452TIP3   OH2 7294   0.844   0.859   3.958
 2452TIP3    H1 7295   0.802   0.791   4.015
 2452TIP3    H2 7296   0.912   0.808   3.911
 2453TIP3   OH2 7297   1.368   0.729   3.874
 2453TIP3    H1 7298   1.409   0.779   3.799
 2453TIP3    H2 7299   1.273   0.747   3.859
 2454TIP3   OH2 7300   1.485   0.824   3.646
 2454TIP3    H1 7301   1.554   0.781   3.593
 2454TIP3    H2 7302   1.504   0.919   3.625
 2455TIP3   OH2 7303   1.085   0.736   3.838
 2455TIP3    H1 7304   1.088   0.701   3.748
 2455TIP3    H2 7305   1.075   0.653   3.890
 2456TIP3   OH2 7306   0.375   2.195   2.998
 2456TIP3    H1 7307   0.460   2.192   2.950
 2456TIP3    H2 7308   0.313   2.163   2.930
 2457TIP3   OH2 7309   1.085   2.306   3.079
 2457TIP3    H1 7310   1.083   2.208   3.066
 2457TIP3    H2 7311   1.043   2.336   2.995
 2458TIP3   OH2 7312   1.375   0.898   4.771
 2458TIP3    H1 7313   1.386   0.873   4.867
 2458TIP3    H2 7314   1.467   0.890   4.739
 2459TIP3   OH2 7315   1.316   2.450   4.261
 2459TIP3    H1 7316   1.237   2.418   4.213
 2459TIP3    H2 7317   1.294   2.545   4.270
 2460TIP3   OH2 7318   2.579   1.821   3.028
 2460TIP3    H1 7319   2.551   1.913   3.004
 2460TIP3    H2 7320   2.502   1.773   2.994
 2461TIP3   OH2 7321   2.583   1.823   3.411
 2461TIP3    H1 7322   2.613   1.796   3.500
 2461TIP3    H2 7323   2.537   1.744   3.380
 2462TIP3   OH2 7324   1.878   1.717   3.774
 2462TIP3    H1 7325   1.908   1.648   3.837
 2462TIP3    H2 7326   1.955   1.775   3.773
 2463TIP3   OH2 7327   2.829   2.123   3.093
 2463TIP3    H1 7328   2.804   2.058   3.160
 2463TIP3    H2 7329   2.853   2.200   3.147
 2464TIP3   OH2 7330   1.848   2.129   3.498
 2464TIP3    H1 7331   1.842   2.031   3.500
 2464TIP3    H2 7332   1.945   2.139   3.494
 2465TIP3   OH2 7333   1.561   1.335   3.282
 2465TIP3    H1 7334   1.509   1.416   3.300
 2465TIP3    H2 7335   1.490   1.274   3.255
 2466TIP3   OH2 7336   1.616   1.619   3.461
 2466TIP3    H1 7337   1.665   1.541   3.495
 2466TIP3    H2 7338   1.674   1.649   3.390
 2467TIP3   OH2 7339   2.474   2.590   3.111
 2467TIP3    H1 7340   2.516   2.518   3.059
 2467TIP3    H2 7341   2.464   2.548   3.198
 2468TIP3   OH2 7342   2.376   2.050   3.460
 2468TIP3    H1 7343   2.415   1.976   3.411
 2468TIP3    H2 7344   2.460   2.095   3.486
 2469TIP3   OH2 7345   3.396   1.361   3.456
 2469TIP3    H1 7346   3.414   1.440   3.511
 2469TIP3    H2 7347   3.404   1.398   3.366
 2470TIP3   OH2 7348   2.790   1.549   3.490
 2470TIP3    H1 7349   2.831   1.463   3.510
 2470TIP3    H2 7350   2.758   1.534   3.399
 2471TIP3   OH2 7351   2.132   1.208   3.454
 2471TIP3    H1 7352   2.109   1.281   3.393
 2471TIP3    H2 7353   2.082   1.135   3.412
 2472TIP3   OH2 7354   2.825   1.300   3.079
 2472TIP3    H1 7355   2.898   1.286   3.143
 2472TIP3    H2 7356   2.876   1.337   3.004
 2473TIP3   OH2 7357   1.762   1.411   3.563
 2473TIP3    H1 7358   1.844   1.391   3.612
 2473TIP3    H2 7359   1.775   1.354   3.484
 2474TIP3   OH2 7360   2.202   1.609   3.357
 2474TIP3    H1 7361   2.296   1.583   3.369
 2474TIP3    H2 7362   2.163   1.525   3.325
 2475TIP3   OH2 7363   3.437   1.559   3.640
 2475TIP3    H1 7364   3.366   1.624   3.620
 2475TIP3    H2 7365   3.505   1.614   3.682
 2476TIP3   OH2 7366   2.125   1.193   3.892
 2476TIP3    H1 7367   2.066   1.230   3.824
 2476TIP3    H2 7368   2.072   1.211   3.972
 2477TIP3   OH2 7369   2.469   2.041   2.910
 2477TIP3    H1 7370   2.440   2.023   2.818
 2477TIP3    H2 7371   2.422   2.125   2.926
 2478TIP3   OH2 7372   2.232   1.969   3.685
 2478TIP3    H1 7373   2.170   2.036   3.721
 2478TIP3    H2 7374   2.274   2.018   3.611
 2479TIP3   OH2 7375   3.033   1.302   3.256
 2479TIP3    H1 7376   3.007   1.267   3.342
 2479TIP3    H2 7377   3.083   1.382   3.281
 2480TIP3   OH2 7378   1.997   1.307   3.674
 2480TIP3    H1 7379   2.059   1.381   3.698
 2480TIP3    H2 7380   2.047   1.268   3.599
 2481TIP3   OH2 7381   2.060   2.164   3.783
 2481TIP3    H1 7382   2.035   2.251   3.746
 2481TIP3    H2 7383   1.982   2.147   3.839
 2482TIP3   OH2 7384   1.453   1.854   3.020
 2482TIP3    H1 7385   1.408   1.878   2.937
 2482TIP3    H2 7386   1.481   1.941   3.054
 2483TIP3   OH2 7387   2.894   2.370   3.260
 2483TIP3    H1 7388   2.804   2.360   3.299
 2483TIP3    H2 7389   2.883   2.456   3.214
 2484TIP3   OH2 7390   3.185   1.256   3.619
 2484TIP3    H1 7391   3.099   1.294   3.594
 2484TIP3    H2 7392   3.245   1.295   3.552
 2485TIP3   OH2 7393   2.483   0.911   3.611
 2485TIP3    H1 7394   2.462   0.817   3.623
 2485TIP3    H2 7395   2.404   0.952   3.654
 2486TIP3   OH2 7396   2.590   2.416   2.933
 2486TIP3    H1 7397   2.637   2.331   2.913
 2486TIP3    H2 7398   2.653   2.479   2.892
 2487TIP3   OH2 7399   2.731   2.203   2.843
 2487TIP3    H1 7400   2.733   2.126   2.782
 2487TIP3    H2 7401   2.767   2.162   2.925
 2488TIP3   OH2 7402   3.119   2.281   3.603
 2488TIP3    H1 7403   3.106   2.203   3.544
 2488TIP3    H2 7404   3.100   2.355   3.543
 2489TIP3   OH2 7405   2.407   1.676   2.861
 2489TIP3    H1 7406   2.328   1.730   2.843
 2489TIP3    H2 7407   2.454   1.682   2.776
 2490TIP3   OH2 7408   2.368   1.458   2.583
 2490TIP3    H1 7409   2.432   1.513   2.631
 2490TIP3    H2 7410   2.430   1.402   2.531
 2491TIP3   OH2 7411   3.310   1.912   3.441
 2491TIP3    H1 7412   3.229   1.967   3.449
 2491TIP3    H2 7413   3.344   1.943   3.354
 2492TIP3   OH2 7414   2.756   1.748   2.832
 2492TIP3    H1 7415   2.701   1.778   2.908
 2492TIP3    H2 7416   2.842   1.732   2.877
 2493TIP3   OH2 7417   2.991   1.796   3.748
 2493TIP3    H1 7418   2.990   1.879   3.799
 2493TIP3    H2 7419   2.904   1.802   3.703
 2494TIP3   OH2 7420   1.988   1.752   3.251
 2494TIP3    H1 7421   1.949   1.695   3.181
 2494TIP3    H2 7422   2.066   1.700   3.279
 2495TIP3   OH2 7423   2.119   2.167   3.397
 2495TIP3    H1 7424   2.100   2.129   3.310
 2495TIP3    H2 7425   2.209   2.131   3.415
 2496TIP3   OH2 7426   2.130   1.724   3.604
 2496TIP3    H1 7427   2.160   1.704   3.514
 2496TIP3    H2 7428   2.171   1.812   3.622
 2497TIP3   OH2 7429   2.653   2.363   3.381
 2497TIP3    H1 7430   2.639   2.444   3.434
 2497TIP3    H2 7431   2.636   2.291   3.445
 2498TIP3   OH2 7432   2.265   2.281   3.928
 2498TIP3    H1 7433   2.205   2.343   3.974
 2498TIP3    H2 7434   2.200   2.229   3.878
 2499TIP3   OH2 7435   2.597   1.610   2.658
 2499TIP3    H1 7436   2.654   1.673   2.708
 2499TIP3    H2 7437   2.627   1.628   2.566
 2500TIP3   OH2 7438   2.019   1.836   4.031
 2500TIP3    H1 7439   2.025   1.924   4.072
 2500TIP3    H2 7440   1.924   1.817   4.044
 2501TIP3   OH2 7441   2.339   2.298   2.933
 2501TIP3    H1 7442   2.424   2.345   2.945
 2501TIP3    H2 7443   2.282   2.366   2.896
 2502TIP3   OH2 7444   2.059   2.447   4.015
 2502TIP3    H1 7445   2.022   2.450   3.925
 2502TIP3    H2 7446   1.980   2.426   4.069
 2503TIP3   OH2 7447   3.114   0.854   2.708
 2503TIP3    H1 7448   3.032   0.877   2.757
 2503TIP3    H2 7449   3.129   0.937   2.658
 2504TIP3   OH2 7450   1.857   1.596   3.051
 2504TIP3    H1 7451   1.791   1.642   2.996
 2504TIP3    H2 7452   1.813   1.512   3.069
 2505TIP3   OH2 7453   2.913   2.230   2.254
 2505TIP3    H1 7454   2.925   2.326   2.242
 2505TIP3    H2 7455   3.005   2.196   2.242
 2506TIP3   OH2 7456   1.637   1.981   3.961
 2506TIP3    H1 7457   1.569   1.960   3.894
 2506TIP3    H2 7458   1.674   1.893   3.983
 2507TIP3   OH2 7459   1.497   2.183   3.592
 2507TIP3    H1 7460   1.588   2.156   3.571
 2507TIP3    H2 7461   1.514   2.245   3.665
 2508TIP3   OH2 7462   3.358   2.628   3.650
 2508TIP3    H1 7463   3.356   2.531   3.665
 2508TIP3    H2 7464   3.274   2.653   3.696
 2509TIP3   OH2 7465   2.462   2.410   3.785
 2509TIP3    H1 7466   2.460   2.503   3.817
 2509TIP3    H2 7467   2.390   2.371   3.840
 2510TIP3   OH2 7468   2.223   2.539   2.737
 2510TIP3    H1 7469   2.177   2.524   2.652
 2510TIP3    H2 7470   2.190   2.627   2.763
 2511TIP3   OH2 7471   1.661   2.388   3.121
 2511TIP3    H1 7472   1.706   2.379   3.208
 2511TIP3    H2 7473   1.609   2.306   3.118
 2512TIP3   OH2 7474   2.426   2.443   2.377
 2512TIP3    H1 7475   2.487   2.374   2.342
 2512TIP3    H2 7476   2.458   2.451   2.470
 2513TIP3   OH2 7477   2.475   2.491   2.645
 2513TIP3    H1 7478   2.387   2.501   2.688
 2513TIP3    H2 7479   2.524   2.445   2.714
 2514TIP3   OH2 7480   3.246   1.753   3.925
 2514TIP3    H1 7481   3.164   1.764   3.874
 2514TIP3    H2 7482   3.259   1.656   3.922
 2515TIP3   OH2 7483   1.842   2.164   3.946
 2515TIP3    H1 7484   1.890   2.150   4.030
 2515TIP3    H2 7485   1.768   2.101   3.955
 2516TIP3   OH2 7486   2.243   0.988   3.735
 2516TIP3    H1 7487   2.154   0.957   3.708
 2516TIP3    H2 7488   2.217   1.070   3.782
 2517TIP3   OH2 7489   2.775   1.101   3.929
 2517TIP3    H1 7490   2.841   1.076   3.996
 2517TIP3    H2 7491   2.690   1.084   3.974
 2518TIP3   OH2 7492   3.011   1.531   3.842
 2518TIP3    H1 7493   2.963   1.529   3.928
 2518TIP3    H2 7494   2.989   1.620   3.808
 2519TIP3   OH2 7495   2.678   1.644   2.402
 2519TIP3    H1 7496   2.641   1.622   2.314
 2519TIP3    H2 7497   2.682   1.741   2.393
 2520TIP3   OH2 7498   2.381   1.041   2.703
 2520TIP3    H1 7499   2.354   1.036   2.797
 2520TIP3    H2 7500   2.353   0.953   2.673
 2521TIP3   OH2 7501   2.175   1.503   3.754
 2521TIP3    H1 7502   2.123   1.524   3.834
 2521TIP3    H2 7503   2.159   1.584   3.700
 2522TIP3   OH2 7504   2.057   1.389   3.268
 2522TIP3    H1 7505   1.965   1.364   3.286
 2522TIP3    H2 7506   2.070   1.348   3.180
 2523TIP3   OH2 7507   2.546   1.475   2.993
 2523TIP3    H1 7508   2.494   1.547   2.951
 2523TIP3    H2 7509   2.601   1.445   2.918
 2524TIP3   OH2 7510   2.722   1.751   4.078
 2524TIP3    H1 7511   2.700   1.679   4.142
 2524TIP3    H2 7512   2.815   1.768   4.101
 2525TIP3   OH2 7513   2.703   1.503   3.233
 2525TIP3    H1 7514   2.643   1.536   3.163
 2525TIP3    H2 7515   2.736   1.423   3.187
 2526TIP3   OH2 7516   1.994   1.532   3.960
 2526TIP3    H1 7517   2.014   1.598   4.028
 2526TIP3    H2 7518   1.980   1.451   4.013
 2527TIP3   OH2 7519   2.042   0.990   2.683
 2527TIP3    H1 7520   2.039   0.993   2.781
 2527TIP3    H2 7521   1.975   1.058   2.662
 2528TIP3   OH2 7522   1.587   1.054   3.543
 2528TIP3    H1 7523   1.663   1.086   3.597
 2528TIP3    H2 7524   1.627   1.023   3.461
 2529TIP3   OH2 7525   1.584   1.061   3.074
 2529TIP3    H1 7526   1.624   1.079   2.987
 2529TIP3    H2 7527   1.512   1.126   3.079
 2530TIP3   OH2 7528   2.714   1.748   3.655
 2530TIP3    H1 7529   2.748   1.677   3.596
 2530TIP3    H2 7530   2.684   1.694   3.731
 2531TIP3   OH2 7531   2.387   1.205   3.327
 2531TIP3    H1 7532   2.303   1.207   3.377
 2531TIP3    H2 7533   2.452   1.213   3.398
 2532TIP3   OH2 7534   1.820   1.268   3.335
 2532TIP3    H1 7535   1.726   1.279   3.306
 2532TIP3    H2 7536   1.839   1.175   3.312
 2533TIP3   OH2 7537   2.091   1.263   3.029
 2533TIP3    H1 7538   2.184   1.283   3.005
 2533TIP3    H2 7539   2.041   1.289   2.948
 2534TIP3   OH2 7540   2.875   1.285   3.525
 2534TIP3    H1 7541   2.846   1.299   3.618
 2534TIP3    H2 7542   2.803   1.226   3.494
 2535TIP3   OH2 7543   1.937   1.302   2.813
 2535TIP3    H1 7544   1.859   1.261   2.773
 2535TIP3    H2 7545   1.985   1.335   2.734
 2536TIP3   OH2 7546   3.049   2.975   3.750
 2536TIP3    H1 7547   3.046   3.002   3.657
 2536TIP3    H2 7548   3.127   3.025   3.783
 2537TIP3   OH2 7549   2.005   2.085   4.169
 2537TIP3    H1 7550   2.083   2.117   4.217
 2537TIP3    H2 7551   1.939   2.085   4.241
 2538TIP3   OH2 7552   2.466   1.538   3.425
 2538TIP3    H1 7553   2.543   1.503   3.377
 2538TIP3    H2 7554   2.475   1.497   3.512
 2539TIP3   OH2 7555   1.990   1.024   3.305
 2539TIP3    H1 7556   1.950   0.949   3.354
 2539TIP3    H2 7557   2.029   0.980   3.229
 2540TIP3   OH2 7558   2.444   1.438   3.716
 2540TIP3    H1 7559   2.354   1.474   3.729
 2540TIP3    H2 7560   2.500   1.501   3.765
 2541TIP3   OH2 7561   2.171   1.823   2.814
 2541TIP3    H1 7562   2.102   1.754   2.805
 2541TIP3    H2 7563   2.154   1.857   2.905
 2542TIP3   OH2 7564   3.080   2.063   3.438
 2542TIP3    H1 7565   3.103   2.114   3.358
 2542TIP3    H2 7566   2.995   2.021   3.413
 2543TIP3   OH2 7567   2.638   1.136   2.678
 2543TIP3    H1 7568   2.540   1.125   2.680
 2543TIP3    H2 7569   2.649   1.232   2.696
 2544TIP3   OH2 7570   2.579   2.146   3.808
 2544TIP3    H1 7571   2.606   2.129   3.899
 2544TIP3    H2 7572   2.540   2.235   3.813
 2545TIP3   OH2 7573   2.708   1.386   2.776
 2545TIP3    H1 7574   2.804   1.399   2.790
 2545TIP3    H2 7575   2.684   1.466   2.724
 2546TIP3   OH2 7576   1.874   1.852   3.486
 2546TIP3    H1 7577   1.912   1.821   3.401
 2546TIP3    H2 7578   1.912   1.789   3.549
 2547TIP3   OH2 7579   2.339   1.989   2.678
 2547TIP3    H1 7580   2.283   2.066   2.653
 2547TIP3    H2 7581   2.274   1.929   2.719
 2548TIP3   OH2 7582   1.756   1.767   4.098
 2548TIP3    H1 7583   1.771   1.754   4.193
 2548TIP3    H2 7584   1.684   1.704   4.080
 2549TIP3   OH2 7585   2.480   1.884   4.119
 2549TIP3    H1 7586   2.418   1.826   4.073
 2549TIP3    H2 7587   2.566   1.849   4.088
 2550TIP3   OH2 7588   2.739   2.404   3.703
 2550TIP3    H1 7589   2.643   2.404   3.717
 2550TIP3    H2 7590   2.768   2.456   3.781
 2551TIP3   OH2 7591   3.151   1.479   2.611
 2551TIP3    H1 7592   3.090   1.434   2.548
 2551TIP3    H2 7593   3.145   1.569   2.572
 2552TIP3   OH2 7594   3.370   2.338   3.692
 2552TIP3    H1 7595   3.272   2.331   3.684
 2552TIP3    H2 7596   3.395   2.308   3.602
 2553TIP3   OH2 7597   2.855   2.293   2.524
 2553TIP3    H1 7598   2.817   2.224   2.581
 2553TIP3    H2 7599   2.859   2.248   2.437
 2554TIP3   OH2 7600   2.847   1.926   3.358
 2554TIP3    H1 7601   2.753   1.902   3.370
 2554TIP3    H2 7602   2.879   1.847   3.310
 2555TIP3   OH2 7603   1.975   2.155   3.112
 2555TIP3    H1 7604   1.974   2.236   3.057
 2555TIP3    H2 7605   1.880   2.138   3.122
 2556TIP3   OH2 7606   1.540   1.451   2.832
 2556TIP3    H1 7607   1.580   1.540   2.846
 2556TIP3    H2 7608   1.454   1.462   2.879
 2557TIP3   OH2 7609   2.107   1.917   3.057
 2557TIP3    H1 7610   2.076   2.008   3.074
 2557TIP3    H2 7611   2.070   1.869   3.134
 2558TIP3   OH2 7612   2.244   2.497   3.579
 2558TIP3    H1 7613   2.286   2.570   3.529
 2558TIP3    H2 7614   2.320   2.461   3.628
 2559TIP3   OH2 7615   1.892   2.393   2.962
 2559TIP3    H1 7616   1.807   2.403   3.009
 2559TIP3    H2 7617   1.926   2.485   2.965
 2560TIP3   OH2 7618   2.629   2.131   3.539
 2560TIP3    H1 7619   2.619   2.130   3.637
 2560TIP3    H2 7620   2.710   2.079   3.528
 2561TIP3   OH2 7621   2.880   2.662   3.588
 2561TIP3    H1 7622   2.800   2.607   3.582
 2561TIP3    H2 7623   2.864   2.727   3.516
 2562TIP3   OH2 7624   2.949   2.503   2.242
 2562TIP3    H1 7625   2.986   2.580   2.197
 2562TIP3    H2 7626   2.866   2.543   2.275
 2563TIP3   OH2 7627   1.962   1.275   4.105
 2563TIP3    H1 7628   1.866   1.281   4.117
 2563TIP3    H2 7629   1.988   1.217   4.179
 2564TIP3   OH2 7630   2.787   1.989   2.678
 2564TIP3    H1 7631   2.758   1.905   2.718
 2564TIP3    H2 7632   2.873   1.963   2.638
 2565TIP3   OH2 7633   1.677   2.355   3.743
 2565TIP3    H1 7634   1.738   2.287   3.775
 2565TIP3    H2 7635   1.702   2.430   3.799
 2566TIP3   OH2 7636   1.964   1.974   2.416
 2566TIP3    H1 7637   2.048   1.927   2.414
 2566TIP3    H2 7638   1.951   1.987   2.513
 2567TIP3   OH2 7639   1.927   2.008   2.683
 2567TIP3    H1 7640   1.995   1.978   2.745
 2567TIP3    H2 7641   1.926   2.105   2.698
 2568TIP3   OH2 7642   1.650   1.703   2.899
 2568TIP3    H1 7643   1.583   1.748   2.954
 2568TIP3    H2 7644   1.666   1.772   2.831
 2569TIP3   OH2 7645   2.807   1.335   3.784
 2569TIP3    H1 7646   2.882   1.380   3.826
 2569TIP3    H2 7647   2.793   1.257   3.842
 2570TIP3   OH2 7648   2.688   1.087   2.955
 2570TIP3    H1 7649   2.670   1.110   2.862
 2570TIP3    H2 7650   2.724   1.171   2.990
 2571TIP3   OH2 7651   2.171   2.200   2.626
 2571TIP3    H1 7652   2.089   2.230   2.670
 2571TIP3    H2 7653   2.204   2.283   2.590
 2572TIP3   OH2 7654   2.373   1.269   3.056
 2572TIP3    H1 7655   2.435   1.343   3.037
 2572TIP3    H2 7656   2.377   1.264   3.153
 2573TIP3   OH2 7657   2.641   1.588   3.863
 2573TIP3    H1 7658   2.662   1.645   3.940
 2573TIP3    H2 7659   2.696   1.509   3.880
 2574TIP3   OH2 7660   2.516   0.996   3.160
 2574TIP3    H1 7661   2.501   1.076   3.214
 2574TIP3    H2 7662   2.577   1.032   3.092
 2575TIP3   OH2 7663   1.922   2.280   2.712
 2575TIP3    H1 7664   1.893   2.350   2.649
 2575TIP3    H2 7665   1.907   2.324   2.798
 2576TIP3   OH2 7666   2.038   1.004   2.957
 2576TIP3    H1 7667   2.036   1.096   2.992
 2576TIP3    H2 7668   2.134   0.987   2.964
 2577TIP3   OH2 7669   3.279   1.482   3.863
 2577TIP3    H1 7670   3.182   1.478   3.848
 2577TIP3    H2 7671   3.314   1.486   3.772
 2578TIP3   OH2 7672   2.933   1.682   3.233
 2578TIP3    H1 7673   2.855   1.625   3.245
 2578TIP3    H2 7674   3.002   1.634   3.283
 2579TIP3   OH2 7675   1.647   1.920   2.713
 2579TIP3    H1 7676   1.684   1.999   2.755
 2579TIP3    H2 7677   1.693   1.924   2.629
 2580TIP3   OH2 7678   1.627   1.191   2.807
 2580TIP3    H1 7679   1.613   1.286   2.830
 2580TIP3    H2 7680   1.535   1.163   2.791
 2581TIP3   OH2 7681   2.901   2.641   3.181
 2581TIP3    H1 7682   2.858   2.688   3.106
 2581TIP3    H2 7683   2.995   2.659   3.159
 2582TIP3   OH2 7684   1.980   0.908   3.709
 2582TIP3    H1 7685   1.945   0.876   3.623
 2582TIP3    H2 7686   1.967   0.829   3.766
 2583TIP3   OH2 7687   1.513   2.131   3.087
 2583TIP3    H1 7688   1.443   2.157   3.149
 2583TIP3    H2 7689   1.480   2.173   3.004
 2584TIP3   OH2 7690   1.674   2.672   4.158
 2584TIP3    H1 7691   1.759   2.675   4.208
 2584TIP3    H2 7692   1.654   2.577   4.162
 2585TIP3   OH2 7693   2.151   2.630   4.205
 2585TIP3    H1 7694   2.247   2.615   4.211
 2585TIP3    H2 7695   2.127   2.569   4.133
 2586TIP3   OH2 7696   2.133   2.215   2.327
 2586TIP3    H1 7697   2.093   2.147   2.383
 2586TIP3    H2 7698   2.212   2.168   2.293
 2587TIP3   OH2 7699   2.795   2.537   3.937
 2587TIP3    H1 7700   2.786   2.469   4.007
 2587TIP3    H2 7701   2.870   2.591   3.969
 2588TIP3   OH2 7702   2.570   2.249   2.244
 2588TIP3    H1 7703   2.576   2.161   2.287
 2588TIP3    H2 7704   2.642   2.243   2.178
 2589TIP3   OH2 7705   1.804   2.074   4.360
 2589TIP3    H1 7706   1.818   1.978   4.366
 2589TIP3    H2 7707   1.715   2.078   4.317
 2590TIP3   OH2 7708   2.412   2.161   4.134
 2590TIP3    H1 7709   2.369   2.181   4.048
 2590TIP3    H2 7710   2.441   2.068   4.123
 2591TIP3   OH2 7711   2.903   2.170   3.742
 2591TIP3    H1 7712   2.978   2.215   3.698
 2591TIP3    H2 7713   2.832   2.236   3.727
 2592TIP3   OH2 7714   1.922   1.811   4.346
 2592TIP3    H1 7715   1.997   1.755   4.322
 2592TIP3    H2 7716   1.950   1.845   4.433
 2593TIP3   OH2 7717   1.992   1.622   2.786
 2593TIP3    H1 7718   1.956   1.581   2.866
 2593TIP3    H2 7719   2.024   1.545   2.735
 2594TIP3   OH2 7720   2.260   1.695   4.007
 2594TIP3    H1 7721   2.180   1.752   4.007
 2594TIP3    H2 7722   2.308   1.729   3.928
 2595TIP3   OH2 7723   2.091   1.416   2.619
 2595TIP3    H1 7724   2.065   1.426   2.525
 2595TIP3    H2 7725   2.189   1.427   2.612
 2596TIP3   OH2 7726   2.773   2.095   4.138
 2596TIP3    H1 7727   2.854   2.070   4.091
 2596TIP3    H2 7728   2.770   2.029   4.210
 2597TIP3   OH2 7729   2.942   1.753   2.266
 2597TIP3    H1 7730   2.890   1.703   2.201
 2597TIP3    H2 7731   2.903   1.842   2.251
 2598TIP3   OH2 7732   2.383   1.483   4.128
 2598TIP3    H1 7733   2.380   1.404   4.070
 2598TIP3    H2 7734   2.338   1.551   4.072
 2599TIP3   OH2 7735   2.384   1.267   3.938
 2599TIP3    H1 7736   2.411   1.311   3.854
 2599TIP3    H2 7737   2.290   1.246   3.920
 2600TIP3   OH2 7738   2.409   1.803   3.811
 2600TIP3    H1 7739   2.493   1.818   3.766
 2600TIP3    H2 7740   2.351   1.869   3.767
 2601TIP3   OH2 7741   2.993   1.770   4.191
 2601TIP3    H1 7742   3.045   1.689   4.198
 2601TIP3    H2 7743   3.058   1.833   4.156
 2602TIP3   OH2 7744   3.033   2.023   3.927
 2602TIP3    H1 7745   2.975   2.078   3.869
 2602TIP3    H2 7746   3.120   2.045   3.887
 2603TIP3   OH2 7747   2.263   1.589   4.364
 2603TIP3    H1 7748   2.192   1.522   4.378
 2603TIP3    H2 7749   2.293   1.566   4.274
 2604TIP3   OH2 7750   2.514   1.031   4.007
 2604TIP3    H1 7751   2.466   1.113   3.983
 2604TIP3    H2 7752   2.444   0.963   3.995
 2605TIP3   OH2 7753   2.642   1.533   4.222
 2605TIP3    H1 7754   2.625   1.522   4.317
 2605TIP3    H2 7755   2.553   1.511   4.187
 2606TIP3   OH2 7756   2.879   1.482   4.074
 2606TIP3    H1 7757   2.804   1.487   4.137
 2606TIP3    H2 7758   2.953   1.455   4.132
 2607TIP3   OH2 7759   3.106   1.426   4.228
 2607TIP3    H1 7760   3.117   1.331   4.247
 2607TIP3    H2 7761   3.104   1.466   4.318
 2608TIP3   OH2 7762   2.098   1.371   4.415
 2608TIP3    H1 7763   2.101   1.279   4.382
 2608TIP3    H2 7764   2.133   1.359   4.506
 2609TIP3   OH2 7765   2.610   1.040   4.264
 2609TIP3    H1 7766   2.674   0.967   4.255
 2609TIP3    H2 7767   2.568   1.038   4.176
 2610TIP3   OH2 7768   2.675   1.255   4.425
 2610TIP3    H1 7769   2.652   1.185   4.359
 2610TIP3    H2 7770   2.597   1.315   4.418
 2611TIP3   OH2 7771   1.897   2.482   2.523
 2611TIP3    H1 7772   1.992   2.481   2.501
 2611TIP3    H2 7773   1.863   2.533   2.446
 2612TIP3   OH2 7774   1.377   1.872   2.746
 2612TIP3    H1 7775   1.470   1.892   2.725
 2612TIP3    H2 7776   1.368   1.783   2.704
 2613TIP3   OH2 7777   1.288   2.482   3.158
 2613TIP3    H1 7778   1.219   2.425   3.120
 2613TIP3    H2 7779   1.328   2.422   3.224
 2614TIP3   OH2 7780   1.421   2.327   3.346
 2614TIP3    H1 7781   1.419   2.252   3.407
 2614TIP3    H2 7782   1.480   2.387   3.394
 2615TIP3   OH2 7783   3.157   2.727   3.140
 2615TIP3    H1 7784   3.179   2.759   3.229
 2615TIP3    H2 7785   3.217   2.778   3.084
 2616TIP3   OH2 7786   3.183   2.749   3.421
 2616TIP3    H1 7787   3.138   2.662   3.417
 2616TIP3    H2 7788   3.256   2.727   3.481
 2617TIP3   OH2 7789   3.230   2.426   3.995
 2617TIP3    H1 7790   3.157   2.436   4.059
 2617TIP3    H2 7791   3.271   2.515   3.998
 2618TIP3   OH2 7792   3.054   1.933   2.610
 2618TIP3    H1 7793   3.118   2.002   2.583
 2618TIP3    H2 7794   3.095   1.898   2.691
 2619TIP3   OH2 7795   3.178   1.804   2.819
 2619TIP3    H1 7796   3.108   1.764   2.875
 2619TIP3    H2 7797   3.236   1.846   2.886
 2620TIP3   OH2 7798   3.230   2.200   3.250
 2620TIP3    H1 7799   3.283   2.135   3.200
 2620TIP3    H2 7800   3.220   2.273   3.186
 2621TIP3   OH2 7801   3.058   2.501   3.444
 2621TIP3    H1 7802   2.987   2.543   3.496
 2621TIP3    H2 7803   3.008   2.454   3.374
 2622TIP3   OH2 7804   3.115   1.710   2.465
 2622TIP3    H1 7805   3.048   1.714   2.393
 2622TIP3    H2 7806   3.085   1.787   2.518
 2623TIP3   OH2 7807   2.990   1.383   2.416
 2623TIP3    H1 7808   2.933   1.434   2.356
 2623TIP3    H2 7809   2.961   1.291   2.396
 2624TIP3   OH2 7810   2.991   1.666   2.965
 2624TIP3    H1 7811   2.993   1.569   2.958
 2624TIP3    H2 7812   2.974   1.679   3.061
 2625TIP3   OH2 7813   1.612   1.738   3.711
 2625TIP3    H1 7814   1.610   1.704   3.619
 2625TIP3    H2 7815   1.710   1.739   3.727
 2626TIP3   OH2 7816   3.276   2.091   3.820
 2626TIP3    H1 7817   3.349   2.025   3.813
 2626TIP3    H2 7818   3.303   2.159   3.757
 2627TIP3   OH2 7819   3.459   1.897   3.843
 2627TIP3    H1 7820   3.384   1.845   3.879
 2627TIP3    H2 7821   3.531   1.831   3.853
 2628TIP3   OH2 7822   2.928   1.114   2.394
 2628TIP3    H1 7823   2.995   1.089   2.461
 2628TIP3    H2 7824   2.848   1.065   2.422
 2629TIP3   OH2 7825   2.985   1.382   2.860
 2629TIP3    H1 7826   3.026   1.293   2.872
 2629TIP3    H2 7827   3.041   1.416   2.787
 2630TIP3   OH2 7828   3.145   1.548   3.356
 2630TIP3    H1 7829   3.229   1.576   3.314
 2630TIP3    H2 7830   3.156   1.590   3.443
 2631TIP3   OH2 7831   3.207   1.702   3.584
 2631TIP3    H1 7832   3.130   1.738   3.632
 2631TIP3    H2 7833   3.240   1.782   3.537
 2632TIP3   OH2 7834   1.831   1.423   4.387
 2632TIP3    H1 7835   1.929   1.417   4.389
 2632TIP3    H2 7836   1.807   1.337   4.426
 2633TIP3   OH2 7837   3.635   1.271   4.144
 2633TIP3    H1 7838   3.733   1.264   4.138
 2633TIP3    H2 7839   3.614   1.333   4.071
 2634TIP3   OH2 7840   3.095   1.130   2.894
 2634TIP3    H1 7841   3.140   1.115   2.980
 2634TIP3    H2 7842   3.032   1.056   2.893
 2635TIP3   OH2 7843   1.795   1.115   3.713
 2635TIP3    H1 7844   1.857   1.041   3.724
 2635TIP3    H2 7845   1.856   1.191   3.708
 2636TIP3   OH2 7846   1.595   1.388   3.790
 2636TIP3    H1 7847   1.643   1.385   3.705
 2636TIP3    H2 7848   1.621   1.474   3.824
 2637TIP3   OH2 7849   3.537   1.431   3.951
 2637TIP3    H1 7850   3.449   1.475   3.962
 2637TIP3    H2 7851   3.510   1.361   3.888
 2638TIP3   OH2 7852   3.174   1.062   2.534
 2638TIP3    H1 7853   3.211   0.994   2.474
 2638TIP3    H2 7854   3.236   1.136   2.525
 2639TIP3   OH2 7855   1.580   0.902   3.294
 2639TIP3    H1 7856   1.489   0.907   3.329
 2639TIP3    H2 7857   1.574   0.957   3.213
 2640TIP3   OH2 7858   2.738   2.598   2.795
 2640TIP3    H1 7859   2.790   2.584   2.713
 2640TIP3    H2 7860   2.791   2.663   2.843
 2641TIP3   OH2 7861   1.799   0.969   4.102
 2641TIP3    H1 7862   1.749   0.968   4.185
 2641TIP3    H2 7863   1.735   1.012   4.042
 2642TIP3   OH2 7864   1.839   2.398   4.180
 2642TIP3    H1 7865   1.745   2.376   4.165
 2642TIP3    H2 7866   1.848   2.386   4.275
 2643TIP3   OH2 7867   2.017   2.434   3.726
 2643TIP3    H1 7868   1.970   2.511   3.689
 2643TIP3    H2 7869   2.103   2.448   3.683
 2644TIP3   OH2 7870   2.460   2.677   3.864
 2644TIP3    H1 7871   2.500   2.677   3.953
 2644TIP3    H2 7872   2.525   2.730   3.814
 2645TIP3   OH2 7873   2.639   2.831   3.726
 2645TIP3    H1 7874   2.711   2.780   3.686
 2645TIP3    H2 7875   2.690   2.888   3.788
 2646TIP3   OH2 7876   3.436   1.197   3.821
 2646TIP3    H1 7877   3.346   1.205   3.784
 2646TIP3    H2 7878   3.456   1.102   3.806
 2647TIP3   OH2 7879   1.693   2.687   3.753
 2647TIP3    H1 7880   1.603   2.720   3.733
 2647TIP3    H2 7881   1.709   2.732   3.837
 2648TIP3   OH2 7882   1.929   2.669   3.611
 2648TIP3    H1 7883   1.842   2.681   3.655
 2648TIP3    H2 7884   1.910   2.702   3.521
 2649TIP3   OH2 7885   2.355   2.697   3.409
 2649TIP3    H1 7886   2.285   2.716   3.344
 2649TIP3    H2 7887   2.367   2.784   3.451
 2650TIP3   OH2 7888   2.624   2.635   3.460
 2650TIP3    H1 7889   2.530   2.653   3.441
 2650TIP3    H2 7890   2.667   2.712   3.418
 2651TIP3   OH2 7891   2.832   2.828   3.374
 2651TIP3    H1 7892   2.817   2.912   3.326
 2651TIP3    H2 7893   2.857   2.768   3.301
 2652TIP3   OH2 7894   1.595   2.480   3.504
 2652TIP3    H1 7895   1.627   2.455   3.593
 2652TIP3    H2 7896   1.668   2.441   3.451
 2653TIP3   OH2 7897   1.794   2.359   3.359
 2653TIP3    H1 7898   1.811   2.275   3.407
 2653TIP3    H2 7899   1.885   2.395   3.353
 2654TIP3   OH2 7900   2.064   2.449   3.360
 2654TIP3    H1 7901   2.095   2.357   3.347
 2654TIP3    H2 7902   2.111   2.471   3.442
 2655TIP3   OH2 7903   2.645   1.108   3.451
 2655TIP3    H1 7904   2.597   1.039   3.500
 2655TIP3    H2 7905   2.713   1.057   3.404
 2656TIP3   OH2 7906   3.164   0.981   3.347
 2656TIP3    H1 7907   3.199   1.037   3.274
 2656TIP3    H2 7908   3.069   1.004   3.346
 2657TIP3   OH2 7909   3.259   1.083   3.113
 2657TIP3    H1 7910   3.333   1.035   3.071
 2657TIP3    H2 7911   3.289   1.176   3.099
 2658TIP3   OH2 7912   1.886   0.820   3.466
 2658TIP3    H1 7913   1.797   0.783   3.449
 2658TIP3    H2 7914   1.939   0.739   3.457
 2659TIP3   OH2 7915   1.779   0.737   3.194
 2659TIP3    H1 7916   1.738   0.733   3.107
 2659TIP3    H2 7917   1.720   0.799   3.239
 2660TIP3   OH2 7918   2.338   0.842   3.338
 2660TIP3    H1 7919   2.395   0.897   3.282
 2660TIP3    H2 7920   2.344   0.888   3.423
 2661TIP3   OH2 7921   2.882   0.994   3.325
 2661TIP3    H1 7922   2.870   0.961   3.235
 2661TIP3    H2 7923   2.866   0.913   3.379
 2662TIP3   OH2 7924   2.909   0.919   2.888
 2662TIP3    H1 7925   2.824   0.966   2.903
 2662TIP3    H2 7926   2.891   0.834   2.933
 2663TIP3   OH2 7927   1.395   2.260   2.883
 2663TIP3    H1 7928   1.308   2.228   2.852
 2663TIP3    H2 7929   1.386   2.353   2.857
 2664TIP3   OH2 7930   1.792   0.869   2.899
 2664TIP3    H1 7931   1.856   0.798   2.911
 2664TIP3    H2 7932   1.840   0.943   2.940
 2665TIP3   OH2 7933   2.312   1.018   2.970
 2665TIP3    H1 7934   2.371   0.975   3.034
 2665TIP3    H2 7935   2.330   1.112   2.994
 2666TIP3   OH2 7936   2.166   2.447   2.471
 2666TIP3    H1 7937   2.255   2.467   2.435
 2666TIP3    H2 7938   2.142   2.372   2.412
 2667TIP3   OH2 7939   2.887   2.561   2.563
 2667TIP3    H1 7940   2.880   2.463   2.554
 2667TIP3    H2 7941   2.838   2.590   2.483
 2668TIP3   OH2 7942   2.096   1.096   4.351
 2668TIP3    H1 7943   2.059   1.027   4.408
 2668TIP3    H2 7944   2.190   1.096   4.380
 2669TIP3   OH2 7945   2.345   1.093   4.472
 2669TIP3    H1 7946   2.430   1.067   4.432
 2669TIP3    H2 7947   2.331   1.022   4.538
 2670TIP3   OH2 7948   1.477   2.286   2.529
 2670TIP3    H1 7949   1.471   2.309   2.623
 2670TIP3    H2 7950   1.565   2.243   2.522
 2671TIP3   OH2 7951   3.169   1.155   4.261
 2671TIP3    H1 7952   3.193   1.127   4.352
 2671TIP3    H2 7953   3.256   1.152   4.215
 2672TIP3   OH2 7954   3.110   2.707   3.748
 2672TIP3    H1 7955   3.031   2.676   3.701
 2672TIP3    H2 7956   3.090   2.802   3.755
 2673TIP3   OH2 7957   4.377   2.081   2.515
 2673TIP3    H1 7958   4.346   2.172   2.493
 2673TIP3    H2 7959   4.301   2.029   2.482
 2674TIP3   OH2 7960   4.380   2.081   2.898
 2674TIP3    H1 7961   4.412   2.050   2.984
 2674TIP3    H2 7962   4.334   2.002   2.864
 2675TIP3   OH2 7963   3.679   1.969   3.269
 2675TIP3    H1 7964   3.695   1.918   3.350
 2675TIP3    H2 7965   3.738   2.045   3.286
 2676TIP3   OH2 7966   4.622   2.382   2.580
 2676TIP3    H1 7967   4.601   2.314   2.645
 2676TIP3    H2 7968   4.648   2.457   2.635
 2677TIP3   OH2 7969   3.647   2.386   2.984
 2677TIP3    H1 7970   3.638   2.288   2.988
 2677TIP3    H2 7971   3.744   2.394   2.983
 2678TIP3   OH2 7972   3.354   1.587   2.770
 2678TIP3    H1 7973   3.305   1.669   2.789
 2678TIP3    H2 7974   3.284   1.535   2.727
 2679TIP3   OH2 7975   3.414   1.876   2.949
 2679TIP3    H1 7976   3.463   1.798   2.982
 2679TIP3    H2 7977   3.468   1.904   2.874
 2680TIP3   OH2 7978   4.270   2.846   2.596
 2680TIP3    H1 7979   4.314   2.773   2.547
 2680TIP3    H2 7980   4.255   2.806   2.682
 2681TIP3   OH2 7981   4.174   2.307   2.945
 2681TIP3    H1 7982   4.211   2.231   2.898
 2681TIP3    H2 7983   4.257   2.351   2.971
 2682TIP3   OH2 7984   5.189   1.625   2.943
 2682TIP3    H1 7985   5.218   1.708   2.984
 2682TIP3    H2 7986   5.210   1.641   2.850
 2683TIP3   OH2 7987   4.587   1.805   2.977
 2683TIP3    H1 7988   4.629   1.720   2.997
 2683TIP3    H2 7989   4.555   1.789   2.886
 2684TIP3   OH2 7990   3.929   1.464   2.943
 2684TIP3    H1 7991   3.907   1.538   2.883
 2684TIP3    H2 7992   3.880   1.392   2.898
 2685TIP3   OH2 7993   4.620   1.559   2.564
 2685TIP3    H1 7994   4.692   1.543   2.629
 2685TIP3    H2 7995   4.672   1.593   2.489
 2686TIP3   OH2 7996   3.560   1.667   3.051
 2686TIP3    H1 7997   3.642   1.651   3.100
 2686TIP3    H2 7998   3.574   1.611   2.973
 2687TIP3   OH2 7999   4.000   1.866   2.836
 2687TIP3    H1 8000   4.093   1.839   2.854
 2687TIP3    H2 8001   3.960   1.781   2.808
 2688TIP3   OH2 8002   5.263   1.835   3.111
 2688TIP3    H1 8003   5.177   1.880   3.091
 2688TIP3    H2 8004   5.277   1.865   3.202
 2689TIP3   OH2 8005   3.890   1.436   3.396
 2689TIP3    H1 8006   3.854   1.486   3.320
 2689TIP3    H2 8007   3.864   1.496   3.469
 2690TIP3   OH2 8008   4.269   2.302   2.383
 2690TIP3    H1 8009   4.223   2.283   2.300
 2690TIP3    H2 8010   4.223   2.384   2.410
 2691TIP3   OH2 8011   4.028   2.225   3.171
 2691TIP3    H1 8012   3.964   2.287   3.212
 2691TIP3    H2 8013   4.062   2.277   3.095
 2692TIP3   OH2 8014   4.827   1.561   2.739
 2692TIP3    H1 8015   4.815   1.515   2.822
 2692TIP3    H2 8016   4.880   1.639   2.767
 2693TIP3   OH2 8017   3.798   1.559   3.168
 2693TIP3    H1 8018   3.853   1.637   3.194
 2693TIP3    H2 8019   3.848   1.527   3.090
 2694TIP3   OH2 8020   3.862   2.421   3.272
 2694TIP3    H1 8021   3.832   2.507   3.237
 2694TIP3    H2 8022   3.783   2.398   3.326
 2695TIP3   OH2 8023   3.252   2.111   2.505
 2695TIP3    H1 8024   3.204   2.137   2.425
 2695TIP3    H2 8025   3.281   2.197   2.541
 2696TIP3   OH2 8026   4.692   2.626   2.746
 2696TIP3    H1 8027   4.602   2.616   2.786
 2696TIP3    H2 8028   4.681   2.712   2.700
 2697TIP3   OH2 8029   4.981   1.527   3.110
 2697TIP3    H1 8030   4.893   1.552   3.078
 2697TIP3    H2 8031   5.040   1.558   3.039
 2698TIP3   OH2 8032   4.287   1.163   3.075
 2698TIP3    H1 8033   4.277   1.069   3.099
 2698TIP3    H2 8034   4.222   1.206   3.132
 2699TIP3   OH2 8035   4.392   2.670   2.422
 2699TIP3    H1 8036   4.441   2.587   2.400
 2699TIP3    H2 8037   4.453   2.735   2.380
 2700TIP3   OH2 8038   4.535   2.455   2.328
 2700TIP3    H1 8039   4.490   2.377   2.293
 2700TIP3    H2 8040   4.572   2.420   2.412
 2701TIP3   OH2 8041   4.915   2.538   3.089
 2701TIP3    H1 8042   4.901   2.460   3.031
 2701TIP3    H2 8043   4.895   2.612   3.028
 2702TIP3   OH2 8044   4.208   1.931   2.349
 2702TIP3    H1 8045   4.127   1.983   2.330
 2702TIP3    H2 8046   4.251   1.929   2.262
 2703TIP3   OH2 8047   4.165   1.717   2.061
 2703TIP3    H1 8048   4.232   1.769   2.110
 2703TIP3    H2 8049   4.223   1.654   2.014
 2704TIP3   OH2 8050   5.110   2.177   2.937
 2704TIP3    H1 8051   5.026   2.227   2.941
 2704TIP3    H2 8052   5.139   2.200   2.846
 2705TIP3   OH2 8053   4.555   2.015   2.318
 2705TIP3    H1 8054   4.499   2.039   2.396
 2705TIP3    H2 8055   4.638   1.990   2.362
 2706TIP3   OH2 8056   4.789   2.051   3.232
 2706TIP3    H1 8057   4.786   2.134   3.283
 2706TIP3    H2 8058   4.702   2.055   3.187
 2707TIP3   OH2 8059   3.785   2.010   2.736
 2707TIP3    H1 8060   3.744   1.953   2.668
 2707TIP3    H2 8061   3.863   1.957   2.763
 2708TIP3   OH2 8062   3.918   2.426   2.882
 2708TIP3    H1 8063   3.894   2.386   2.797
 2708TIP3    H2 8064   4.007   2.388   2.898
 2709TIP3   OH2 8065   3.940   1.973   3.092
 2709TIP3    H1 8066   3.963   1.961   2.998
 2709TIP3    H2 8067   3.969   2.065   3.110
 2710TIP3   OH2 8068   4.453   2.619   2.868
 2710TIP3    H1 8069   4.433   2.701   2.918
 2710TIP3    H2 8070   4.432   2.548   2.932
 2711TIP3   OH2 8071   4.063   2.533   3.426
 2711TIP3    H1 8072   3.999   2.596   3.465
 2711TIP3    H2 8073   4.000   2.480   3.371
 2712TIP3   OH2 8074   4.394   1.871   2.145
 2712TIP3    H1 8075   4.453   1.932   2.195
 2712TIP3    H2 8076   4.420   1.893   2.052
 2713TIP3   OH2 8077   3.795   2.128   3.478
 2713TIP3    H1 8078   3.808   2.201   3.541
 2713TIP3    H2 8079   3.725   2.077   3.522
 2714TIP3   OH2 8080   4.141   2.548   2.420
 2714TIP3    H1 8081   4.219   2.605   2.434
 2714TIP3    H2 8082   4.077   2.609   2.380
 2715TIP3   OH2 8083   3.858   2.703   3.503
 2715TIP3    H1 8084   3.820   2.706   3.413
 2715TIP3    H2 8085   3.778   2.683   3.557
 2716TIP3   OH2 8086   4.910   1.112   2.195
 2716TIP3    H1 8087   4.829   1.133   2.244
 2716TIP3    H2 8088   4.924   1.194   2.144
 2717TIP3   OH2 8089   3.653   1.853   2.538
 2717TIP3    H1 8090   3.586   1.901   2.484
 2717TIP3    H2 8091   3.609   1.769   2.553
 2718TIP3   OH2 8092   4.709   2.479   1.742
 2718TIP3    H1 8093   4.717   2.576   1.728
 2718TIP3    H2 8094   4.802   2.450   1.730
 2719TIP3   OH2 8095   3.434   2.242   3.447
 2719TIP3    H1 8096   3.366   2.217   3.381
 2719TIP3    H2 8097   3.471   2.155   3.474
 2720TIP3   OH2 8098   3.287   2.433   3.078
 2720TIP3    H1 8099   3.384   2.430   3.075
 2720TIP3    H2 8100   3.271   2.510   3.133
 2721TIP3   OH2 8101   5.151   2.885   3.135
 2721TIP3    H1 8102   5.151   2.788   3.150
 2721TIP3    H2 8103   5.068   2.909   3.182
 2722TIP3   OH2 8104   4.257   2.663   3.276
 2722TIP3    H1 8105   4.255   2.757   3.303
 2722TIP3    H2 8106   4.183   2.627   3.330
 2723TIP3   OH2 8107   4.023   2.798   2.222
 2723TIP3    H1 8108   3.973   2.779   2.141
 2723TIP3    H2 8109   3.987   2.885   2.250
 2724TIP3   OH2 8110   3.458   2.645   2.607
 2724TIP3    H1 8111   3.503   2.636   2.694
 2724TIP3    H2 8112   3.404   2.564   2.607
 2725TIP3   OH2 8113   4.221   2.700   1.861
 2725TIP3    H1 8114   4.279   2.629   1.826
 2725TIP3    H2 8115   4.254   2.709   1.953
 2726TIP3   OH2 8116   4.272   2.747   2.131
 2726TIP3    H1 8117   4.183   2.758   2.171
 2726TIP3    H2 8118   4.321   2.706   2.205
 2727TIP3   OH2 8119   5.043   2.011   3.413
 2727TIP3    H1 8120   4.959   2.027   3.366
 2727TIP3    H2 8121   5.056   1.916   3.396
 2728TIP3   OH2 8122   3.640   2.423   3.433
 2728TIP3    H1 8123   3.688   2.405   3.516
 2728TIP3    H2 8124   3.566   2.358   3.439
 2729TIP3   OH2 8125   4.581   1.357   3.415
 2729TIP3    H1 8126   4.651   1.331   3.478
 2729TIP3    H2 8127   4.498   1.340   3.465
 2730TIP3   OH2 8128   4.814   1.790   3.339
 2730TIP3    H1 8129   4.760   1.787   3.421
 2730TIP3    H2 8130   4.786   1.875   3.299
 2731TIP3   OH2 8131   4.472   1.916   1.890
 2731TIP3    H1 8132   4.436   1.893   1.802
 2731TIP3    H2 8133   4.554   1.963   1.865
 2732TIP3   OH2 8134   4.184   1.291   2.193
 2732TIP3    H1 8135   4.148   1.288   2.283
 2732TIP3    H2 8136   4.143   1.210   2.157
 2733TIP3   OH2 8137   3.967   1.758   3.255
 2733TIP3    H1 8138   3.926   1.782   3.341
 2733TIP3    H2 8139   3.949   1.840   3.202
 2734TIP3   OH2 8140   3.855   1.644   2.755
 2734TIP3    H1 8141   3.761   1.621   2.772
 2734TIP3    H2 8142   3.866   1.605   2.665
 2735TIP3   OH2 8143   4.345   1.732   2.483
 2735TIP3    H1 8144   4.293   1.803   2.439
 2735TIP3    H2 8145   4.399   1.699   2.408
 2736TIP3   OH2 8146   4.520   2.014   3.575
 2736TIP3    H1 8147   4.498   1.939   3.633
 2736TIP3    H2 8148   4.616   2.021   3.590
 2737TIP3   OH2 8149   4.500   1.760   2.719
 2737TIP3    H1 8150   4.438   1.788   2.649
 2737TIP3    H2 8151   4.535   1.679   2.675
 2738TIP3   OH2 8152   3.840   1.267   2.159
 2738TIP3    H1 8153   3.827   1.265   2.256
 2738TIP3    H2 8154   3.762   1.320   2.131
 2739TIP3   OH2 8155   3.380   1.306   3.029
 2739TIP3    H1 8156   3.455   1.342   3.081
 2739TIP3    H2 8157   3.420   1.283   2.944
 2740TIP3   OH2 8158   3.352   1.293   2.548
 2740TIP3    H1 8159   3.395   1.331   2.469
 2740TIP3    H2 8160   3.289   1.365   2.569
 2741TIP3   OH2 8161   4.514   2.007   3.140
 2741TIP3    H1 8162   4.546   1.933   3.083
 2741TIP3    H2 8163   4.482   1.955   3.217
 2742TIP3   OH2 8164   4.184   1.465   2.812
 2742TIP3    H1 8165   4.100   1.466   2.862
 2742TIP3    H2 8166   4.250   1.472   2.883
 2743TIP3   OH2 8167   3.614   1.525   2.822
 2743TIP3    H1 8168   3.520   1.537   2.795
 2743TIP3    H2 8169   3.633   1.433   2.796
 2744TIP3   OH2 8170   3.883   1.519   2.512
 2744TIP3    H1 8171   3.975   1.536   2.487
 2744TIP3    H2 8172   3.833   1.542   2.430
 2745TIP3   OH2 8173   4.675   1.543   3.016
 2745TIP3    H1 8174   4.643   1.557   3.108
 2745TIP3    H2 8175   4.606   1.483   2.982
 2746TIP3   OH2 8176   3.730   1.552   2.291
 2746TIP3    H1 8177   3.657   1.509   2.244
 2746TIP3    H2 8178   3.780   1.589   2.215
 2747TIP3   OH2 8179   4.845   3.231   3.234
 2747TIP3    H1 8180   4.839   3.258   3.140
 2747TIP3    H2 8181   4.901   3.300   3.271
 2748TIP3   OH2 8182   3.801   2.349   3.657
 2748TIP3    H1 8183   3.878   2.378   3.708
 2748TIP3    H2 8184   3.734   2.341   3.728
 2749TIP3   OH2 8185   4.264   1.795   2.911
 2749TIP3    H1 8186   4.339   1.760   2.862
 2749TIP3    H2 8187   4.274   1.754   2.999
 2750TIP3   OH2 8188   3.790   1.282   2.792
 2750TIP3    H1 8189   3.752   1.204   2.837
 2750TIP3    H2 8190   3.826   1.244   2.711
 2751TIP3   OH2 8191   4.237   1.695   3.208
 2751TIP3    H1 8192   4.149   1.735   3.221
 2751TIP3    H2 8193   4.297   1.757   3.254
 2752TIP3   OH2 8194   3.979   2.083   2.298
 2752TIP3    H1 8195   3.906   2.018   2.286
 2752TIP3    H2 8196   3.958   2.117   2.388
 2753TIP3   OH2 8197   4.876   2.320   2.925
 2753TIP3    H1 8198   4.898   2.370   2.844
 2753TIP3    H2 8199   4.791   2.277   2.899
 2754TIP3   OH2 8200   4.435   1.393   2.164
 2754TIP3    H1 8201   4.338   1.375   2.170
 2754TIP3    H2 8202   4.442   1.488   2.186
 2755TIP3   OH2 8203   4.389   2.415   3.297
 2755TIP3    H1 8204   4.345   2.360   3.363
 2755TIP3    H2 8205   4.337   2.497   3.298
 2756TIP3   OH2 8206   4.503   1.644   2.265
 2756TIP3    H1 8207   4.599   1.651   2.279
 2756TIP3    H2 8208   4.483   1.724   2.212
 2757TIP3   OH2 8209   3.676   2.109   2.977
 2757TIP3    H1 8210   3.710   2.075   2.891
 2757TIP3    H2 8211   3.708   2.042   3.040
 2758TIP3   OH2 8212   4.122   2.234   2.120
 2758TIP3    H1 8213   4.073   2.319   2.123
 2758TIP3    H2 8214   4.067   2.179   2.180
 2759TIP3   OH2 8215   3.547   2.030   3.583
 2759TIP3    H1 8216   3.578   2.019   3.674
 2759TIP3    H2 8217   3.489   1.953   3.572
 2760TIP3   OH2 8218   4.274   2.142   3.606
 2760TIP3    H1 8219   4.202   2.083   3.573
 2760TIP3    H2 8220   4.352   2.096   3.568
 2761TIP3   OH2 8221   4.538   2.669   3.194
 2761TIP3    H1 8222   4.442   2.656   3.203
 2761TIP3    H2 8223   4.557   2.723   3.273
 2762TIP3   OH2 8224   4.946   1.736   2.098
 2762TIP3    H1 8225   4.884   1.692   2.036
 2762TIP3    H2 8226   4.942   1.826   2.058
 2763TIP3   OH2 8227   5.165   2.595   3.177
 2763TIP3    H1 8228   5.067   2.588   3.169
 2763TIP3    H2 8229   5.191   2.563   3.087
 2764TIP3   OH2 8230   4.653   2.553   2.009
 2764TIP3    H1 8231   4.618   2.486   2.069
 2764TIP3    H2 8232   4.659   2.506   1.924
 2765TIP3   OH2 8233   4.643   2.182   2.843
 2765TIP3    H1 8234   4.549   2.157   2.857
 2765TIP3    H2 8235   4.676   2.103   2.798
 2766TIP3   OH2 8236   3.771   2.410   2.596
 2766TIP3    H1 8237   3.766   2.492   2.542
 2766TIP3    H2 8238   3.677   2.393   2.612
 2767TIP3   OH2 8239   3.336   1.713   2.304
 2767TIP3    H1 8240   3.378   1.799   2.324
 2767TIP3    H2 8241   3.257   1.716   2.362
 2768TIP3   OH2 8242   3.907   2.175   2.541
 2768TIP3    H1 8243   3.871   2.265   2.559
 2768TIP3    H2 8244   3.869   2.125   2.616
 2769TIP3   OH2 8245   4.039   2.755   3.065
 2769TIP3    H1 8246   4.079   2.829   3.014
 2769TIP3    H2 8247   4.117   2.721   3.112
 2770TIP3   OH2 8248   3.689   2.649   2.449
 2770TIP3    H1 8249   3.604   2.657   2.496
 2770TIP3    H2 8250   3.721   2.742   2.452
 2771TIP3   OH2 8251   4.427   2.388   3.028
 2771TIP3    H1 8252   4.425   2.389   3.127
 2771TIP3    H2 8253   4.504   2.331   3.011
 2772TIP3   OH2 8254   4.404   2.283   1.908
 2772TIP3    H1 8255   4.456   2.257   1.987
 2772TIP3    H2 8256   4.315   2.254   1.934
 2773TIP3   OH2 8257   4.675   2.920   3.074
 2773TIP3    H1 8258   4.594   2.866   3.065
 2773TIP3    H2 8259   4.662   2.986   3.002
 2774TIP3   OH2 8260   4.741   2.755   1.727
 2774TIP3    H1 8261   4.775   2.827   1.671
 2774TIP3    H2 8262   4.662   2.799   1.763
 2775TIP3   OH2 8263   4.564   2.214   2.122
 2775TIP3    H1 8264   4.553   2.149   2.195
 2775TIP3    H2 8265   4.661   2.211   2.111
 2776TIP3   OH2 8266   3.481   2.614   3.224
 2776TIP3    H1 8267   3.532   2.542   3.264
 2776TIP3    H2 8268   3.499   2.687   3.285
 2777TIP3   OH2 8269   3.769   2.261   1.907
 2777TIP3    H1 8270   3.780   2.167   1.881
 2777TIP3    H2 8271   3.749   2.251   2.002
 2778TIP3   OH2 8272   3.714   2.267   2.178
 2778TIP3    H1 8273   3.783   2.240   2.240
 2778TIP3    H2 8274   3.717   2.365   2.187
 2779TIP3   OH2 8275   3.449   1.961   2.384
 2779TIP3    H1 8276   3.382   2.004   2.441
 2779TIP3    H2 8277   3.459   2.029   2.315
 2780TIP3   OH2 8278   4.603   1.593   3.275
 2780TIP3    H1 8279   4.681   1.634   3.316
 2780TIP3    H2 8280   4.590   1.513   3.329
 2781TIP3   OH2 8281   4.479   1.344   2.444
 2781TIP3    H1 8282   4.465   1.366   2.349
 2781TIP3    H2 8283   4.518   1.428   2.478
 2782TIP3   OH2 8284   3.981   2.464   2.128
 2782TIP3    H1 8285   3.893   2.487   2.165
 2782TIP3    H2 8286   3.994   2.539   2.068
 2783TIP3   OH2 8287   4.168   1.527   2.542
 2783TIP3    H1 8288   4.231   1.600   2.525
 2783TIP3    H2 8289   4.172   1.520   2.640
 2784TIP3   OH2 8290   4.439   1.844   3.345
 2784TIP3    H1 8291   4.444   1.895   3.427
 2784TIP3    H2 8292   4.491   1.764   3.367
 2785TIP3   OH2 8293   4.309   1.250   2.644
 2785TIP3    H1 8294   4.296   1.329   2.700
 2785TIP3    H2 8295   4.371   1.285   2.576
 2786TIP3   OH2 8296   3.726   2.539   2.198
 2786TIP3    H1 8297   3.694   2.608   2.136
 2786TIP3    H2 8298   3.708   2.581   2.284
 2787TIP3   OH2 8299   3.823   1.253   2.436
 2787TIP3    H1 8300   3.820   1.345   2.470
 2787TIP3    H2 8301   3.919   1.236   2.442
 2788TIP3   OH2 8302   5.080   1.744   3.333
 2788TIP3    H1 8303   4.982   1.744   3.342
 2788TIP3    H2 8304   5.088   1.699   3.247
 2789TIP3   OH2 8305   4.728   1.939   2.719
 2789TIP3    H1 8306   4.651   1.881   2.730
 2789TIP3    H2 8307   4.798   1.891   2.767
 2790TIP3   OH2 8308   3.442   2.165   2.189
 2790TIP3    H1 8309   3.508   2.236   2.197
 2790TIP3    H2 8310   3.486   2.110   2.121
 2791TIP3   OH2 8311   3.383   1.442   2.320
 2791TIP3    H1 8312   3.382   1.540   2.320
 2791TIP3    H2 8313   3.298   1.423   2.279
 2792TIP3   OH2 8314   4.698   2.897   2.668
 2792TIP3    H1 8315   4.654   2.943   2.593
 2792TIP3    H2 8316   4.792   2.913   2.645
 2793TIP3   OH2 8317   3.772   1.159   3.195
 2793TIP3    H1 8318   3.751   1.146   3.100
 2793TIP3    H2 8319   3.751   1.069   3.229
 2794TIP3   OH2 8320   3.311   2.384   2.574
 2794TIP3    H1 8321   3.244   2.411   2.639
 2794TIP3    H2 8322   3.276   2.425   2.492
 2795TIP3   OH2 8323   3.470   2.927   3.645
 2795TIP3    H1 8324   3.555   2.928   3.694
 2795TIP3    H2 8325   3.448   2.833   3.647
 2796TIP3   OH2 8326   3.946   2.886   3.697
 2796TIP3    H1 8327   4.042   2.884   3.695
 2796TIP3    H2 8328   3.922   2.826   3.623
 2797TIP3   OH2 8329   3.931   2.464   1.818
 2797TIP3    H1 8330   3.874   2.393   1.857
 2797TIP3    H2 8331   4.006   2.411   1.787
 2798TIP3   OH2 8332   4.590   2.793   3.448
 2798TIP3    H1 8333   4.639   2.717   3.482
 2798TIP3    H2 8334   4.657   2.864   3.457
 2799TIP3   OH2 8335   4.367   2.504   1.733
 2799TIP3    H1 8336   4.407   2.437   1.792
 2799TIP3    H2 8337   4.424   2.500   1.654
 2800TIP3   OH2 8338   3.600   2.331   3.848
 2800TIP3    H1 8339   3.618   2.235   3.852
 2800TIP3    H2 8340   3.512   2.333   3.804
 2801TIP3   OH2 8341   3.578   1.981   2.041
 2801TIP3    H1 8342   3.632   1.949   2.115
 2801TIP3    H2 8343   3.645   1.986   1.970
 2802TIP3   OH2 8344   4.226   2.413   3.618
 2802TIP3    H1 8345   4.168   2.439   3.543
 2802TIP3    H2 8346   4.231   2.315   3.606
 2803TIP3   OH2 8347   4.092   2.182   1.850
 2803TIP3    H1 8348   4.091   2.193   1.947
 2803TIP3    H2 8349   4.090   2.084   1.843
 2804TIP3   OH2 8350   4.702   2.428   3.234
 2804TIP3    H1 8351   4.774   2.474   3.186
 2804TIP3    H2 8352   4.627   2.489   3.219
 2805TIP3   OH2 8353   3.715   2.072   3.815
 2805TIP3    H1 8354   3.770   1.999   3.783
 2805TIP3    H2 8355   3.753   2.091   3.903
 2806TIP3   OH2 8356   3.786   1.887   2.264
 2806TIP3    H1 8357   3.754   1.846   2.346
 2806TIP3    H2 8358   3.820   1.809   2.215
 2807TIP3   OH2 8359   4.079   1.977   3.514
 2807TIP3    H1 8360   3.985   1.948   3.518
 2807TIP3    H2 8361   4.087   2.007   3.422
 2808TIP3   OH2 8362   3.885   1.680   2.103
 2808TIP3    H1 8363   3.859   1.686   2.009
 2808TIP3    H2 8364   3.983   1.684   2.095
 2809TIP3   OH2 8365   4.707   2.009   1.769
 2809TIP3    H1 8366   4.686   1.964   1.685
 2809TIP3    H2 8367   4.673   2.099   1.747
 2810TIP3   OH2 8368   4.194   1.742   3.607
 2810TIP3    H1 8369   4.153   1.661   3.574
 2810TIP3    H2 8370   4.138   1.811   3.564
 2811TIP3   OH2 8371   4.171   1.500   3.402
 2811TIP3    H1 8372   4.203   1.565   3.335
 2811TIP3    H2 8373   4.075   1.508   3.392
 2812TIP3   OH2 8374   4.226   2.078   3.287
 2812TIP3    H1 8375   4.297   2.082   3.221
 2812TIP3    H2 8376   4.155   2.132   3.245
 2813TIP3   OH2 8377   4.781   2.031   3.681
 2813TIP3    H1 8378   4.826   1.949   3.704
 2813TIP3    H2 8379   4.851   2.082   3.637
 2814TIP3   OH2 8380   4.835   2.275   3.412
 2814TIP3    H1 8381   4.773   2.330   3.358
 2814TIP3    H2 8382   4.920   2.301   3.371
 2815TIP3   OH2 8383   4.060   1.845   3.854
 2815TIP3    H1 8384   3.982   1.787   3.864
 2815TIP3    H2 8385   4.077   1.836   3.758
 2816TIP3   OH2 8386   4.320   1.293   3.492
 2816TIP3    H1 8387   4.274   1.375   3.462
 2816TIP3    H2 8388   4.246   1.237   3.515
 2817TIP3   OH2 8389   4.440   1.795   3.711
 2817TIP3    H1 8390   4.418   1.772   3.804
 2817TIP3    H2 8391   4.353   1.773   3.671
 2818TIP3   OH2 8392   4.675   1.743   3.566
 2818TIP3    H1 8393   4.599   1.745   3.628
 2818TIP3    H2 8394   4.746   1.708   3.623
 2819TIP3   OH2 8395   4.919   1.684   3.710
 2819TIP3    H1 8396   4.924   1.588   3.729
 2819TIP3    H2 8397   4.904   1.723   3.799
 2820TIP3   OH2 8398   3.890   1.620   3.906
 2820TIP3    H1 8399   3.897   1.539   3.854
 2820TIP3    H2 8400   3.936   1.597   3.988
 2821TIP3   OH2 8401   4.419   1.303   3.748
 2821TIP3    H1 8402   4.480   1.227   3.749
 2821TIP3    H2 8403   4.382   1.298   3.659
 2822TIP3   OH2 8404   4.478   1.518   3.906
 2822TIP3    H1 8405   4.453   1.444   3.846
 2822TIP3    H2 8406   4.396   1.572   3.906
 2823TIP3   OH2 8407   3.694   2.742   2.010
 2823TIP3    H1 8408   3.789   2.735   1.990
 2823TIP3    H2 8409   3.664   2.792   1.932
 2824TIP3   OH2 8410   3.172   2.126   2.223
 2824TIP3    H1 8411   3.267   2.144   2.210
 2824TIP3    H2 8412   3.163   2.037   2.183
 2825TIP3   OH2 8413   3.089   2.735   2.639
 2825TIP3    H1 8414   3.022   2.674   2.602
 2825TIP3    H2 8415   3.133   2.676   2.704
 2826TIP3   OH2 8416   3.223   2.584   2.826
 2826TIP3    H1 8417   3.209   2.513   2.891
 2826TIP3    H2 8418   3.274   2.647   2.881
 2827TIP3   OH2 8419   4.957   2.978   2.628
 2827TIP3    H1 8420   4.974   3.013   2.717
 2827TIP3    H2 8421   5.001   3.043   2.571
 2828TIP3   OH2 8422   4.980   3.004   2.907
 2828TIP3    H1 8423   4.934   2.917   2.903
 2828TIP3    H2 8424   5.050   2.981   2.970
 2829TIP3   OH2 8425   5.022   2.683   3.485
 2829TIP3    H1 8426   4.949   2.693   3.549
 2829TIP3    H2 8427   5.065   2.770   3.488
 2830TIP3   OH2 8428   4.843   2.195   2.101
 2830TIP3    H1 8429   4.909   2.260   2.071
 2830TIP3    H2 8430   4.887   2.157   2.180
 2831TIP3   OH2 8431   4.971   2.063   2.306
 2831TIP3    H1 8432   4.903   2.021   2.362
 2831TIP3    H2 8433   5.033   2.102   2.371
 2832TIP3   OH2 8434   5.028   2.458   2.739
 2832TIP3    H1 8435   5.078   2.390   2.689
 2832TIP3    H2 8436   5.017   2.529   2.672
 2833TIP3   OH2 8437   4.854   2.757   2.931
 2833TIP3    H1 8438   4.781   2.799   2.982
 2833TIP3    H2 8439   4.804   2.711   2.860
 2834TIP3   OH2 8440   4.908   1.972   1.950
 2834TIP3    H1 8441   4.836   1.973   1.883
 2834TIP3    H2 8442   4.878   2.048   2.005
 2835TIP3   OH2 8443   4.779   1.645   1.904
 2835TIP3    H1 8444   4.734   1.681   1.827
 2835TIP3    H2 8445   4.755   1.550   1.897
 2836TIP3   OH2 8446   4.784   1.922   2.450
 2836TIP3    H1 8447   4.790   1.825   2.442
 2836TIP3    H2 8448   4.769   1.934   2.546
 2837TIP3   OH2 8449   3.414   1.994   3.199
 2837TIP3    H1 8450   3.410   1.962   3.106
 2837TIP3    H2 8451   3.511   1.991   3.214
 2838TIP3   OH2 8452   5.076   2.348   3.306
 2838TIP3    H1 8453   5.147   2.281   3.296
 2838TIP3    H2 8454   5.101   2.416   3.242
 2839TIP3   OH2 8455   5.257   2.148   3.319
 2839TIP3    H1 8456   5.182   2.100   3.360
 2839TIP3    H2 8457   5.329   2.084   3.336
 2840TIP3   OH2 8458   4.721   1.379   1.890
 2840TIP3    H1 8459   4.794   1.346   1.946
 2840TIP3    H2 8460   4.647   1.320   1.911
 2841TIP3   OH2 8461   4.781   1.638   2.345
 2841TIP3    H1 8462   4.821   1.549   2.360
 2841TIP3    H2 8463   4.838   1.670   2.273
 2842TIP3   OH2 8464   4.941   1.808   2.841
 2842TIP3    H1 8465   5.026   1.834   2.800
 2842TIP3    H2 8466   4.954   1.846   2.930
 2843TIP3   OH2 8467   5.012   1.955   3.071
 2843TIP3    H1 8468   4.934   1.988   3.120
 2843TIP3    H2 8469   5.043   2.037   3.027
 2844TIP3   OH2 8470   3.624   1.685   3.865
 2844TIP3    H1 8471   3.721   1.679   3.852
 2844TIP3    H2 8472   3.607   1.600   3.910
 2845TIP3   OH2 8473   5.520   1.590   3.633
 2845TIP3    H1 8474   5.554   1.509   3.587
 2845TIP3    H2 8475   5.452   1.618   3.567
 2846TIP3   OH2 8476   4.889   1.388   2.383
 2846TIP3    H1 8477   4.936   1.371   2.467
 2846TIP3    H2 8478   4.827   1.311   2.381
 2847TIP3   OH2 8479   3.591   1.372   3.194
 2847TIP3    H1 8480   3.653   1.298   3.202
 2847TIP3    H2 8481   3.650   1.449   3.193
 2848TIP3   OH2 8482   3.390   1.641   3.276
 2848TIP3    H1 8483   3.439   1.648   3.192
 2848TIP3    H2 8484   3.411   1.726   3.317
 2849TIP3   OH2 8485   5.330   1.673   3.449
 2849TIP3    H1 8486   5.245   1.720   3.461
 2849TIP3    H2 8487   5.304   1.607   3.382
 2850TIP3   OH2 8488   4.969   1.319   2.017
 2850TIP3    H1 8489   5.006   1.248   1.961
 2850TIP3    H2 8490   5.036   1.390   2.010
 2851TIP3   OH2 8491   3.376   1.149   2.776
 2851TIP3    H1 8492   3.283   1.145   2.804
 2851TIP3    H2 8493   3.371   1.208   2.698
 2852TIP3   OH2 8494   4.536   2.852   2.283
 2852TIP3    H1 8495   4.587   2.842   2.200
 2852TIP3    H2 8496   4.585   2.923   2.328
 2853TIP3   OH2 8497   3.592   1.209   3.578
 2853TIP3    H1 8498   3.554   1.224   3.667
 2853TIP3    H2 8499   3.527   1.260   3.524
 2854TIP3   OH2 8500   3.637   2.658   3.668
 2854TIP3    H1 8501   3.545   2.633   3.648
 2854TIP3    H2 8502   3.641   2.639   3.763
 2855TIP3   OH2 8503   3.815   2.691   3.216
 2855TIP3    H1 8504   3.763   2.765   3.178
 2855TIP3    H2 8505   3.899   2.708   3.168
 2856TIP3   OH2 8506   4.255   2.930   3.348
 2856TIP3    H1 8507   4.293   2.937   3.438
 2856TIP3    H2 8508   4.319   2.985   3.297
 2857TIP3   OH2 8509   4.435   3.086   3.214
 2857TIP3    H1 8510   4.507   3.041   3.168
 2857TIP3    H2 8511   4.486   3.144   3.275
 2858TIP3   OH2 8512   5.230   1.444   3.311
 2858TIP3    H1 8513   5.140   1.434   3.276
 2858TIP3    H2 8514   5.265   1.352   3.301
 2859TIP3   OH2 8515   3.490   2.948   3.240
 2859TIP3    H1 8516   3.400   2.979   3.217
 2859TIP3    H2 8517   3.501   2.991   3.326
 2860TIP3   OH2 8518   3.726   2.926   3.098
 2860TIP3    H1 8519   3.639   2.938   3.143
 2860TIP3    H2 8520   3.705   2.959   3.008
 2861TIP3   OH2 8521   4.152   2.953   2.894
 2861TIP3    H1 8522   4.081   2.971   2.830
 2861TIP3    H2 8523   4.163   3.041   2.937
 2862TIP3   OH2 8524   4.420   2.892   2.947
 2862TIP3    H1 8525   4.325   2.909   2.929
 2862TIP3    H2 8526   4.462   2.968   2.904
 2863TIP3   OH2 8527   4.630   3.084   2.862
 2863TIP3    H1 8528   4.614   3.169   2.815
 2863TIP3    H2 8529   4.653   3.025   2.787
 2864TIP3   OH2 8530   3.402   2.742   2.983
 2864TIP3    H1 8531   3.427   2.713   3.073
 2864TIP3    H2 8532   3.473   2.696   2.932
 2865TIP3   OH2 8533   3.595   2.612   2.841
 2865TIP3    H1 8534   3.609   2.529   2.892
 2865TIP3    H2 8535   3.687   2.648   2.837
 2866TIP3   OH2 8536   3.863   2.706   2.844
 2866TIP3    H1 8537   3.892   2.613   2.835
 2866TIP3    H2 8538   3.906   2.728   2.929
 2867TIP3   OH2 8539   4.446   1.365   2.934
 2867TIP3    H1 8540   4.400   1.290   2.975
 2867TIP3    H2 8541   4.517   1.321   2.883
 2868TIP3   OH2 8542   4.957   1.247   2.837
 2868TIP3    H1 8543   4.993   1.297   2.761
 2868TIP3    H2 8544   4.861   1.263   2.828
 2869TIP3   OH2 8545   5.053   1.343   2.600
 2869TIP3    H1 8546   5.127   1.291   2.561
 2869TIP3    H2 8547   5.087   1.434   2.585
 2870TIP3   OH2 8548   3.688   1.074   2.950
 2870TIP3    H1 8549   3.594   1.044   2.951
 2870TIP3    H2 8550   3.733   0.987   2.945
 2871TIP3   OH2 8551   3.479   0.942   2.599
 2871TIP3    H1 8552   3.503   0.998   2.523
 2871TIP3    H2 8553   3.444   1.007   2.662
 2872TIP3   OH2 8554   4.134   1.102   2.825
 2872TIP3    H1 8555   4.184   1.148   2.756
 2872TIP3    H2 8556   4.171   1.142   2.905
 2873TIP3   OH2 8557   4.673   1.249   2.810
 2873TIP3    H1 8558   4.676   1.208   2.723
 2873TIP3    H2 8559   4.661   1.170   2.868
 2874TIP3   OH2 8560   4.705   1.175   2.374
 2874TIP3    H1 8561   4.619   1.218   2.388
 2874TIP3    H2 8562   4.691   1.089   2.420
 2875TIP3   OH2 8563   3.192   2.514   2.371
 2875TIP3    H1 8564   3.106   2.479   2.339
 2875TIP3    H2 8565   3.177   2.608   2.356
 2876TIP3   OH2 8566   3.590   1.097   2.360
 2876TIP3    H1 8567   3.638   1.037   2.301
 2876TIP3    H2 8568   3.663   1.152   2.395
 2877TIP3   OH2 8569   4.100   1.277   2.456
 2877TIP3    H1 8570   4.161   1.231   2.515
 2877TIP3    H2 8571   4.121   1.370   2.481
 2878TIP3   OH2 8572   3.961   2.698   1.957
 2878TIP3    H1 8573   4.049   2.722   1.920
 2878TIP3    H2 8574   3.938   2.624   1.897
 2879TIP3   OH2 8575   4.683   2.821   2.050
 2879TIP3    H1 8576   4.675   2.723   2.039
 2879TIP3    H2 8577   4.634   2.852   1.971
 2880TIP3   OH2 8578   3.906   1.326   3.819
 2880TIP3    H1 8579   3.861   1.283   3.893
 2880TIP3    H2 8580   3.998   1.333   3.856
 2881TIP3   OH2 8581   4.146   1.332   3.946
 2881TIP3    H1 8582   4.233   1.289   3.942
 2881TIP3    H2 8583   4.120   1.311   4.038
 2882TIP3   OH2 8584   3.265   2.540   2.012
 2882TIP3    H1 8585   3.262   2.556   2.107
 2882TIP3    H2 8586   3.352   2.496   2.000
 2883TIP3   OH2 8587   4.966   1.412   3.746
 2883TIP3    H1 8588   4.982   1.380   3.837
 2883TIP3    H2 8589   5.054   1.399   3.705
 2884TIP3   OH2 8590   4.905   2.963   3.234
 2884TIP3    H1 8591   4.827   2.933   3.184
 2884TIP3    H2 8592   4.887   3.059   3.239
 2885TIP3   OH2 8593   6.170   2.337   2.006
 2885TIP3    H1 8594   6.139   2.427   1.981
 2885TIP3    H2 8595   6.099   2.284   1.965
 2886TIP3   OH2 8596   6.184   2.345   2.379
 2886TIP3    H1 8597   6.204   2.310   2.469
 2886TIP3    H2 8598   6.129   2.277   2.339
 2887TIP3   OH2 8599   5.472   2.230   2.746
 2887TIP3    H1 8600   5.500   2.160   2.808
 2887TIP3    H2 8601   5.547   2.291   2.752
 2888TIP3   OH2 8602   6.417   2.639   2.068
 2888TIP3    H1 8603   6.401   2.569   2.133
 2888TIP3    H2 8604   6.447   2.713   2.123
 2889TIP3   OH2 8605   5.437   2.638   2.477
 2889TIP3    H1 8606   5.430   2.540   2.478
 2889TIP3    H2 8607   5.533   2.646   2.463
 2890TIP3   OH2 8608   5.150   1.845   2.257
 2890TIP3    H1 8609   5.099   1.926   2.274
 2890TIP3    H2 8610   5.081   1.789   2.217
 2891TIP3   OH2 8611   5.209   2.132   2.435
 2891TIP3    H1 8612   5.257   2.054   2.469
 2891TIP3    H2 8613   5.262   2.157   2.359
 2892TIP3   OH2 8614   6.067   3.098   2.088
 2892TIP3    H1 8615   6.106   3.031   2.028
 2892TIP3    H2 8616   6.063   3.049   2.171
 2893TIP3   OH2 8617   5.970   2.567   2.434
 2893TIP3    H1 8618   6.008   2.501   2.374
 2893TIP3    H2 8619   6.054   2.608   2.464
 2894TIP3   OH2 8620   6.976   1.884   2.425
 2894TIP3    H1 8621   7.012   1.963   2.472
 2894TIP3    H2 8622   7.017   1.894   2.337
 2895TIP3   OH2 8623   5.727   1.724   2.423
 2895TIP3    H1 8624   5.695   1.794   2.363
 2895TIP3    H2 8625   5.679   1.647   2.385
 2896TIP3   OH2 8626   6.403   1.826   2.086
 2896TIP3    H1 8627   6.493   1.814   2.126
 2896TIP3    H2 8628   6.428   1.866   2.001
 2897TIP3   OH2 8629   5.354   1.924   2.537
 2897TIP3    H1 8630   5.436   1.903   2.585
 2897TIP3    H2 8631   5.366   1.867   2.458
 2898TIP3   OH2 8632   5.787   2.117   2.325
 2898TIP3    H1 8633   5.868   2.073   2.353
 2898TIP3    H2 8634   5.736   2.041   2.289
 2899TIP3   OH2 8635   7.054   2.087   2.601
 2899TIP3    H1 8636   6.971   2.136   2.588
 2899TIP3    H2 8637   7.081   2.119   2.689
 2900TIP3   OH2 8638   5.716   1.706   2.864
 2900TIP3    H1 8639   5.656   1.742   2.797
 2900TIP3    H2 8640   5.665   1.723   2.946
 2901TIP3   OH2 8641   6.057   2.554   1.875
 2901TIP3    H1 8642   6.023   2.540   1.786
 2901TIP3    H2 8643   6.014   2.638   1.899
 2902TIP3   OH2 8644   5.824   2.482   2.658
 2902TIP3    H1 8645   5.762   2.548   2.696
 2902TIP3    H2 8646   5.864   2.533   2.584
 2903TIP3   OH2 8647   6.622   1.820   2.240
 2903TIP3    H1 8648   6.665   1.751   2.293
 2903TIP3    H2 8649   6.683   1.895   2.253
 2904TIP3   OH2 8650   5.590   1.819   2.645
 2904TIP3    H1 8651   5.651   1.892   2.671
 2904TIP3    H2 8652   5.640   1.779   2.572
 2905TIP3   OH2 8653   5.652   2.672   2.761
 2905TIP3    H1 8654   5.630   2.759   2.722
 2905TIP3    H2 8655   5.572   2.658   2.815
 2906TIP3   OH2 8656   5.045   2.366   1.992
 2906TIP3    H1 8657   5.002   2.391   1.908
 2906TIP3    H2 8658   5.075   2.452   2.026
 2907TIP3   OH2 8659   6.482   2.882   2.234
 2907TIP3    H1 8660   6.393   2.870   2.275
 2907TIP3    H2 8661   6.470   2.966   2.188
 2908TIP3   OH2 8662   6.776   1.779   2.587
 2908TIP3    H1 8663   6.704   1.840   2.569
 2908TIP3    H2 8664   6.845   1.810   2.524
 2909TIP3   OH2 8665   6.069   1.430   2.573
 2909TIP3    H1 8666   6.062   1.335   2.594
 2909TIP3    H2 8667   5.992   1.464   2.624
 2910TIP3   OH2 8668   6.182   2.931   1.903
 2910TIP3    H1 8669   6.231   2.847   1.886
 2910TIP3    H2 8670   6.248   2.994   1.866
 2911TIP3   OH2 8671   6.323   2.714   1.818
 2911TIP3    H1 8672   6.302   2.634   1.769
 2911TIP3    H2 8673   6.361   2.677   1.901
 2912TIP3   OH2 8674   6.709   2.795   2.576
 2912TIP3    H1 8675   6.699   2.717   2.518
 2912TIP3    H2 8676   6.697   2.869   2.512
 2913TIP3   OH2 8677   6.006   2.190   1.838
 2913TIP3    H1 8678   5.926   2.241   1.815
 2913TIP3    H2 8679   6.050   2.183   1.751
 2914TIP3   OH2 8680   5.962   1.972   1.549
 2914TIP3    H1 8681   6.030   2.026   1.595
 2914TIP3    H2 8682   6.020   1.909   1.502
 2915TIP3   OH2 8683   6.905   2.431   2.423
 2915TIP3    H1 8684   6.823   2.484   2.428
 2915TIP3    H2 8685   6.936   2.453   2.332
 2916TIP3   OH2 8686   6.348   2.272   1.806
 2916TIP3    H1 8687   6.295   2.296   1.885
 2916TIP3    H2 8688   6.433   2.247   1.847
 2917TIP3   OH2 8689   6.584   2.313   2.724
 2917TIP3    H1 8690   6.592   2.389   2.786
 2917TIP3    H2 8691   6.504   2.340   2.675
 2918TIP3   OH2 8692   5.579   2.270   2.222
 2918TIP3    H1 8693   5.535   2.212   2.155
 2918TIP3    H2 8694   5.656   2.216   2.248
 2919TIP3   OH2 8695   5.697   2.661   2.382
 2919TIP3    H1 8696   5.687   2.644   2.287
 2919TIP3    H2 8697   5.792   2.641   2.396
 2920TIP3   OH2 8698   5.727   2.239   2.578
 2920TIP3    H1 8699   5.747   2.228   2.483
 2920TIP3    H2 8700   5.763   2.327   2.599
 2921TIP3   OH2 8701   6.242   2.876   2.356
 2921TIP3    H1 8702   6.235   2.952   2.415
 2921TIP3    H2 8703   6.227   2.800   2.417
 2922TIP3   OH2 8704   5.859   2.796   2.899
 2922TIP3    H1 8705   5.800   2.857   2.948
 2922TIP3    H2 8706   5.793   2.742   2.851
 2923TIP3   OH2 8707   6.189   2.127   1.632
 2923TIP3    H1 8708   6.248   2.188   1.682
 2923TIP3    H2 8709   6.215   2.149   1.539
 2924TIP3   OH2 8710   5.611   2.352   3.002
 2924TIP3    H1 8711   5.617   2.439   3.046
 2924TIP3    H2 8712   5.516   2.331   3.018
 2925TIP3   OH2 8713   5.934   2.807   1.910
 2925TIP3    H1 8714   6.016   2.859   1.918
 2925TIP3    H2 8715   5.875   2.866   1.862
 2926TIP3   OH2 8716   5.651   2.961   2.990
 2926TIP3    H1 8717   5.617   2.957   2.898
 2926TIP3    H2 8718   5.570   2.941   3.043
 2927TIP3   OH2 8719   6.704   1.364   1.678
 2927TIP3    H1 8720   6.624   1.390   1.728
 2927TIP3    H2 8721   6.721   1.446   1.626
 2928TIP3   OH2 8722   5.447   2.111   2.030
 2928TIP3    H1 8723   5.381   2.156   1.973
 2928TIP3    H2 8724   5.409   2.023   2.038
 2929TIP3   OH2 8725   6.507   2.736   1.232
 2929TIP3    H1 8726   6.515   2.832   1.214
 2929TIP3    H2 8727   6.599   2.706   1.218
 2930TIP3   OH2 8728   5.231   2.495   2.934
 2930TIP3    H1 8729   5.162   2.475   2.867
 2930TIP3    H2 8730   5.267   2.407   2.956
 2931TIP3   OH2 8731   5.082   2.689   2.565
 2931TIP3    H1 8732   5.179   2.685   2.567
 2931TIP3    H2 8733   5.064   2.769   2.617
 2932TIP3   OH2 8734   6.950   3.137   2.623
 2932TIP3    H1 8735   6.949   3.042   2.641
 2932TIP3    H2 8736   6.867   3.165   2.669
 2933TIP3   OH2 8737   6.054   2.926   2.757
 2933TIP3    H1 8738   6.052   3.018   2.791
 2933TIP3    H2 8739   5.983   2.885   2.811
 2934TIP3   OH2 8740   5.816   3.052   1.712
 2934TIP3    H1 8741   5.773   3.033   1.627
 2934TIP3    H2 8742   5.789   3.144   1.730
 2935TIP3   OH2 8743   5.259   2.903   2.099
 2935TIP3    H1 8744   5.301   2.887   2.186
 2935TIP3    H2 8745   5.203   2.824   2.091
 2936TIP3   OH2 8746   6.017   2.955   1.349
 2936TIP3    H1 8747   6.075   2.885   1.312
 2936TIP3    H2 8748   6.053   2.965   1.439
 2937TIP3   OH2 8749   6.068   3.005   1.620
 2937TIP3    H1 8750   5.979   3.013   1.660
 2937TIP3    H2 8751   6.117   2.960   1.690
 2938TIP3   OH2 8752   6.841   2.270   2.900
 2938TIP3    H1 8753   6.758   2.277   2.851
 2938TIP3    H2 8754   6.859   2.174   2.894
 2939TIP3   OH2 8755   5.432   2.681   2.924
 2939TIP3    H1 8756   5.484   2.662   3.005
 2939TIP3    H2 8757   5.360   2.615   2.930
 2940TIP3   OH2 8758   5.833   1.503   2.707
 2940TIP3    H1 8759   5.745   1.471   2.679
 2940TIP3    H2 8760   5.806   1.581   2.758
 2941TIP3   OH2 8761   6.370   1.617   2.901
 2941TIP3    H1 8762   6.440   1.589   2.963
 2941TIP3    H2 8763   6.288   1.597   2.952
 2942TIP3   OH2 8764   6.598   2.045   2.814
 2942TIP3    H1 8765   6.555   2.039   2.903
 2942TIP3    H2 8766   6.582   2.138   2.790
 2943TIP3   OH2 8767   6.267   2.176   1.379
 2943TIP3    H1 8768   6.231   2.151   1.291
 2943TIP3    H2 8769   6.352   2.217   1.352
 2944TIP3   OH2 8770   5.979   1.548   1.679
 2944TIP3    H1 8771   5.941   1.543   1.769
 2944TIP3    H2 8772   5.940   1.467   1.641
 2945TIP3   OH2 8773   5.766   2.015   2.725
 2945TIP3    H1 8774   5.716   2.036   2.807
 2945TIP3    H2 8775   5.752   2.098   2.674
 2946TIP3   OH2 8776   5.645   1.904   2.237
 2946TIP3    H1 8777   5.553   1.876   2.256
 2946TIP3    H2 8778   5.657   1.864   2.148
 2947TIP3   OH2 8779   6.132   1.977   1.966
 2947TIP3    H1 8780   6.087   2.056   1.930
 2947TIP3    H2 8781   6.193   1.954   1.893
 2948TIP3   OH2 8782   6.315   2.266   3.052
 2948TIP3    H1 8783   6.293   2.194   3.116
 2948TIP3    H2 8784   6.408   2.282   3.076
 2949TIP3   OH2 8785   5.585   2.045   2.934
 2949TIP3    H1 8786   5.612   2.109   3.001
 2949TIP3    H2 8787   5.573   1.963   2.986
 2950TIP3   OH2 8788   5.636   1.525   1.645
 2950TIP3    H1 8789   5.623   1.521   1.742
 2950TIP3    H2 8790   5.557   1.576   1.618
 2951TIP3   OH2 8791   5.177   1.567   2.517
 2951TIP3    H1 8792   5.254   1.597   2.569
 2951TIP3    H2 8793   5.215   1.533   2.434
 2952TIP3   OH2 8794   5.148   1.548   2.036
 2952TIP3    H1 8795   5.192   1.585   1.956
 2952TIP3    H2 8796   5.085   1.621   2.055
 2953TIP3   OH2 8797   6.291   2.248   2.620
 2953TIP3    H1 8798   6.356   2.183   2.593
 2953TIP3    H2 8799   6.263   2.209   2.706
 2954TIP3   OH2 8800   5.985   1.751   2.312
 2954TIP3    H1 8801   5.893   1.744   2.346
 2954TIP3    H2 8802   6.032   1.709   2.385
 2955TIP3   OH2 8803   5.411   1.781   2.308
 2955TIP3    H1 8804   5.317   1.790   2.281
 2955TIP3    H2 8805   5.432   1.688   2.286
 2956TIP3   OH2 8806   5.677   1.780   1.998
 2956TIP3    H1 8807   5.770   1.789   1.969
 2956TIP3    H2 8808   5.627   1.799   1.915
 2957TIP3   OH2 8809   6.415   1.811   2.483
 2957TIP3    H1 8810   6.407   1.843   2.576
 2957TIP3    H2 8811   6.444   1.720   2.502
 2958TIP3   OH2 8812   5.525   1.812   1.777
 2958TIP3    H1 8813   5.453   1.765   1.729
 2958TIP3    H2 8814   5.576   1.847   1.701
 2959TIP3   OH2 8815   6.638   3.488   2.728
 2959TIP3    H1 8816   6.613   3.545   2.654
 2959TIP3    H2 8817   6.721   3.531   2.758
 2960TIP3   OH2 8818   5.597   2.601   3.143
 2960TIP3    H1 8819   5.677   2.629   3.191
 2960TIP3    H2 8820   5.533   2.597   3.216
 2961TIP3   OH2 8821   5.584   1.538   2.281
 2961TIP3    H1 8822   5.545   1.462   2.330
 2961TIP3    H2 8823   5.625   1.494   2.206
 2962TIP3   OH2 8824   6.036   1.942   2.700
 2962TIP3    H1 8825   5.946   1.982   2.704
 2962TIP3    H2 8826   6.092   2.010   2.740
 2963TIP3   OH2 8827   5.773   2.340   1.785
 2963TIP3    H1 8828   5.702   2.274   1.773
 2963TIP3    H2 8829   5.754   2.374   1.876
 2964TIP3   OH2 8830   6.673   2.578   2.411
 2964TIP3    H1 8831   6.698   2.628   2.330
 2964TIP3    H2 8832   6.589   2.536   2.385
 2965TIP3   OH2 8833   6.231   1.646   1.659
 2965TIP3    H1 8834   6.134   1.630   1.657
 2965TIP3    H2 8835   6.237   1.743   1.670
 2966TIP3   OH2 8836   6.173   2.658   2.781
 2966TIP3    H1 8837   6.204   2.638   2.870
 2966TIP3    H2 8838   6.132   2.746   2.791
 2967TIP3   OH2 8839   6.302   1.904   1.760
 2967TIP3    H1 8840   6.400   1.908   1.764
 2967TIP3    H2 8841   6.281   1.978   1.701
 2968TIP3   OH2 8842   5.466   2.366   2.460
 2968TIP3    H1 8843   5.503   2.335   2.375
 2968TIP3    H2 8844   5.498   2.300   2.523
 2969TIP3   OH2 8845   5.919   2.490   1.608
 2969TIP3    H1 8846   5.871   2.576   1.612
 2969TIP3    H2 8847   5.864   2.435   1.668
 2970TIP3   OH2 8848   5.348   2.282   3.072
 2970TIP3    H1 8849   5.364   2.268   3.167
 2970TIP3    H2 8850   5.277   2.217   3.055
 2971TIP3   OH2 8851   6.074   2.399   3.091
 2971TIP3    H1 8852   6.014   2.336   3.048
 2971TIP3    H2 8853   6.162   2.364   3.065
 2972TIP3   OH2 8854   6.328   2.925   2.671
 2972TIP3    H1 8855   6.233   2.919   2.693
 2972TIP3    H2 8856   6.361   2.971   2.751
 2973TIP3   OH2 8857   6.738   1.993   1.587
 2973TIP3    H1 8858   6.677   1.949   1.524
 2973TIP3    H2 8859   6.738   2.081   1.545
 2974TIP3   OH2 8860   6.960   2.848   2.666
 2974TIP3    H1 8861   6.862   2.843   2.659
 2974TIP3    H2 8862   6.985   2.819   2.576
 2975TIP3   OH2 8863   6.444   2.808   1.495
 2975TIP3    H1 8864   6.418   2.734   1.551
 2975TIP3    H2 8865   6.458   2.766   1.408
 2976TIP3   OH2 8866   6.442   2.442   2.331
 2976TIP3    H1 8867   6.347   2.419   2.343
 2976TIP3    H2 8868   6.474   2.363   2.283
 2977TIP3   OH2 8869   5.566   2.670   2.089
 2977TIP3    H1 8870   5.564   2.746   2.028
 2977TIP3    H2 8871   5.474   2.642   2.087
 2978TIP3   OH2 8872   5.132   1.970   1.790
 2978TIP3    H1 8873   5.176   2.056   1.811
 2978TIP3    H2 8874   5.054   1.975   1.850
 2979TIP3   OH2 8875   5.702   2.432   2.029
 2979TIP3    H1 8876   5.671   2.523   2.049
 2979TIP3    H2 8877   5.663   2.382   2.103
 2980TIP3   OH2 8878   5.836   3.019   2.570
 2980TIP3    H1 8879   5.873   3.080   2.504
 2980TIP3    H2 8880   5.915   2.981   2.611
 2981TIP3   OH2 8881   5.489   2.908   1.938
 2981TIP3    H1 8882   5.402   2.916   1.981
 2981TIP3    H2 8883   5.523   2.999   1.945
 2982TIP3   OH2 8884   6.224   2.644   2.513
 2982TIP3    H1 8885   6.213   2.644   2.611
 2982TIP3    H2 8886   6.307   2.596   2.503
 2983TIP3   OH2 8887   6.201   2.540   1.396
 2983TIP3    H1 8888   6.253   2.515   1.476
 2983TIP3    H2 8889   6.112   2.509   1.422
 2984TIP3   OH2 8890   6.471   3.174   2.563
 2984TIP3    H1 8891   6.390   3.119   2.555
 2984TIP3    H2 8892   6.459   3.240   2.493
 2985TIP3   OH2 8893   6.537   3.010   1.214
 2985TIP3    H1 8894   6.574   3.080   1.158
 2985TIP3    H2 8895   6.457   3.057   1.247
 2986TIP3   OH2 8896   5.554   1.788   3.078
 2986TIP3    H1 8897   5.457   1.793   3.089
 2986TIP3    H2 8898   5.578   1.724   3.147
 2987TIP3   OH2 8899   6.360   2.478   1.617
 2987TIP3    H1 8900   6.349   2.407   1.683
 2987TIP3    H2 8901   6.457   2.471   1.600
 2988TIP3   OH2 8902   5.286   2.872   2.709
 2988TIP3    H1 8903   5.332   2.796   2.748
 2988TIP3    H2 8904   5.290   2.936   2.780
 2989TIP3   OH2 8905   5.564   2.518   1.395
 2989TIP3    H1 8906   5.577   2.426   1.366
 2989TIP3    H2 8907   5.543   2.505   1.490
 2990TIP3   OH2 8908   5.508   2.523   1.668
 2990TIP3    H1 8909   5.584   2.495   1.722
 2990TIP3    H2 8910   5.513   2.621   1.674
 2991TIP3   OH2 8911   5.245   2.217   1.871
 2991TIP3    H1 8912   5.177   2.260   1.927
 2991TIP3    H2 8913   5.257   2.285   1.802
 2992TIP3   OH2 8914   6.405   1.846   2.749
 2992TIP3    H1 8915   6.478   1.892   2.795
 2992TIP3    H2 8916   6.389   1.769   2.808
 2993TIP3   OH2 8917   6.270   1.606   1.931
 2993TIP3    H1 8918   6.255   1.614   1.834
 2993TIP3    H2 8919   6.307   1.694   1.951
 2994TIP3   OH2 8920   5.777   2.721   1.617
 2994TIP3    H1 8921   5.689   2.746   1.651
 2994TIP3    H2 8922   5.791   2.790   1.551
 2995TIP3   OH2 8923   5.963   1.777   2.034
 2995TIP3    H1 8924   6.022   1.851   2.007
 2995TIP3    H2 8925   5.966   1.785   2.131
 2996TIP3   OH2 8926   6.240   2.102   2.841
 2996TIP3    H1 8927   6.258   2.158   2.919
 2996TIP3    H2 8928   6.289   2.021   2.864
 2997TIP3   OH2 8929   6.104   1.503   2.126
 2997TIP3    H1 8930   6.097   1.580   2.184
 2997TIP3    H2 8931   6.163   1.538   2.055
 2998TIP3   OH2 8932   5.521   2.795   1.684
 2998TIP3    H1 8933   5.491   2.864   1.620
 2998TIP3    H2 8934   5.504   2.839   1.769
 2999TIP3   OH2 8935   5.617   1.509   1.922
 2999TIP3    H1 8936   5.615   1.599   1.959
 2999TIP3    H2 8937   5.713   1.491   1.927
 3000TIP3   OH2 8938   6.869   2.006   2.821
 3000TIP3    H1 8939   6.771   1.999   2.821
 3000TIP3    H2 8940   6.891   1.960   2.740
 3001TIP3   OH2 8941   6.527   2.198   2.210
 3001TIP3    H1 8942   6.466   2.125   2.214
 3001TIP3    H2 8943   6.607   2.161   2.254
 3002TIP3   OH2 8944   5.238   2.422   1.675
 3002TIP3    H1 8945   5.306   2.491   1.683
 3002TIP3    H2 8946   5.281   2.365   1.608
 3003TIP3   OH2 8947   5.180   1.700   1.811
 3003TIP3    H1 8948   5.179   1.798   1.807
 3003TIP3    H2 8949   5.101   1.677   1.761
 3004TIP3   OH2 8950   6.491   3.155   2.155
 3004TIP3    H1 8951   6.447   3.200   2.080
 3004TIP3    H2 8952   6.584   3.160   2.128
 3005TIP3   OH2 8953   5.569   1.420   2.681
 3005TIP3    H1 8954   5.538   1.385   2.595
 3005TIP3    H2 8955   5.559   1.342   2.740
 3006TIP3   OH2 8956   5.110   2.646   2.061
 3006TIP3    H1 8957   5.042   2.670   2.125
 3006TIP3    H2 8958   5.073   2.685   1.978
 3007TIP3   OH2 8959   5.267   3.175   3.130
 3007TIP3    H1 8960   5.352   3.162   3.174
 3007TIP3    H2 8961   5.235   3.083   3.126
 3008TIP3   OH2 8962   5.734   3.149   3.179
 3008TIP3    H1 8963   5.829   3.136   3.192
 3008TIP3    H2 8964   5.717   3.084   3.108
 3009TIP3   OH2 8965   5.728   2.721   1.307
 3009TIP3    H1 8966   5.673   2.648   1.344
 3009TIP3    H2 8967   5.803   2.670   1.271
 3010TIP3   OH2 8968   6.390   3.048   2.907
 3010TIP3    H1 8969   6.378   2.981   2.979
 3010TIP3    H2 8970   6.465   3.101   2.941
 3011TIP3   OH2 8971   6.162   2.761   1.219
 3011TIP3    H1 8972   6.206   2.696   1.278
 3011TIP3    H2 8973   6.218   2.758   1.139
 3012TIP3   OH2 8974   5.395   2.588   3.334
 3012TIP3    H1 8975   5.412   2.492   3.341
 3012TIP3    H2 8976   5.307   2.590   3.289
 3013TIP3   OH2 8977   5.372   2.237   1.529
 3013TIP3    H1 8978   5.429   2.204   1.601
 3013TIP3    H2 8979   5.439   2.242   1.456
 3014TIP3   OH2 8980   6.002   2.674   3.109
 3014TIP3    H1 8981   5.963   2.691   3.022
 3014TIP3    H2 8982   6.035   2.581   3.100
 3015TIP3   OH2 8983   5.886   2.438   1.338
 3015TIP3    H1 8984   5.888   2.449   1.435
 3015TIP3    H2 8985   5.887   2.340   1.331
 3016TIP3   OH2 8986   6.493   2.682   2.710
 3016TIP3    H1 8987   6.570   2.727   2.670
 3016TIP3    H2 8988   6.424   2.751   2.699
 3017TIP3   OH2 8989   5.515   2.326   3.319
 3017TIP3    H1 8990   5.588   2.267   3.297
 3017TIP3    H2 8991   5.541   2.355   3.409
 3018TIP3   OH2 8992   5.582   2.142   1.751
 3018TIP3    H1 8993   5.552   2.097   1.831
 3018TIP3    H2 8994   5.618   2.068   1.698
 3019TIP3   OH2 8995   5.850   2.207   2.978
 3019TIP3    H1 8996   5.772   2.267   2.978
 3019TIP3    H2 8997   5.900   2.241   2.900
 3020TIP3   OH2 8998   5.682   1.938   1.590
 3020TIP3    H1 8999   5.656   1.942   1.496
 3020TIP3    H2 9000   5.780   1.940   1.582
 3021TIP3   OH2 9001   6.365   2.607   3.110
 3021TIP3    H1 9002   6.452   2.587   3.074
 3021TIP3    H2 9003   6.360   2.545   3.185
 3022TIP3   OH2 9004   6.501   2.266   1.257
 3022TIP3    H1 9005   6.481   2.220   1.172
 3022TIP3    H2 9006   6.468   2.356   1.233
 3023TIP3   OH2 9007   5.968   1.995   3.105
 3023TIP3    H1 9008   5.972   1.915   3.048
 3023TIP3    H2 9009   5.927   2.061   3.046
 3024TIP3   OH2 9010   5.974   1.781   2.917
 3024TIP3    H1 9011   6.003   1.823   2.833
 3024TIP3    H2 9012   5.881   1.758   2.895
 3025TIP3   OH2 9013   6.000   2.314   2.782
 3025TIP3    H1 9014   6.085   2.333   2.741
 3025TIP3    H2 9015   5.942   2.381   2.740
 3026TIP3   OH2 9016   6.582   2.281   3.163
 3026TIP3    H1 9017   6.629   2.200   3.187
 3026TIP3    H2 9018   6.654   2.339   3.135
 3027TIP3   OH2 9019   6.626   2.533   2.894
 3027TIP3    H1 9020   6.568   2.590   2.838
 3027TIP3    H2 9021   6.714   2.557   2.857
 3028TIP3   OH2 9022   5.851   2.105   3.336
 3028TIP3    H1 9023   5.769   2.053   3.341
 3028TIP3    H2 9024   5.888   2.075   3.250
 3029TIP3   OH2 9025   6.108   1.543   2.978
 3029TIP3    H1 9026   6.057   1.625   2.959
 3029TIP3    H2 9027   6.039   1.474   2.969
 3030TIP3   OH2 9028   6.234   2.049   3.196
 3030TIP3    H1 9029   6.231   2.034   3.292
 3030TIP3    H2 9030   6.143   2.022   3.172
 3031TIP3   OH2 9031   6.470   1.994   3.046
 3031TIP3    H1 9032   6.398   1.997   3.112
 3031TIP3    H2 9033   6.546   1.966   3.101
 3032TIP3   OH2 9034   6.694   1.937   3.197
 3032TIP3    H1 9035   6.712   1.842   3.215
 3032TIP3    H2 9036   6.694   1.976   3.286
 3033TIP3   OH2 9037   5.690   1.877   3.387
 3033TIP3    H1 9038   5.691   1.785   3.353
 3033TIP3    H2 9039   5.779   1.885   3.424
 3034TIP3   OH2 9040   6.199   1.556   3.238
 3034TIP3    H1 9041   6.269   1.487   3.235
 3034TIP3    H2 9042   6.162   1.547   3.148
 3035TIP3   OH2 9043   6.269   1.771   3.395
 3035TIP3    H1 9044   6.248   1.698   3.332
 3035TIP3    H2 9045   6.188   1.826   3.390
 3036TIP3   OH2 9046   5.491   2.999   1.499
 3036TIP3    H1 9047   5.586   2.993   1.477
 3036TIP3    H2 9048   5.460   3.048   1.420
 3037TIP3   OH2 9049   4.969   2.379   1.713
 3037TIP3    H1 9050   5.063   2.400   1.697
 3037TIP3    H2 9051   4.961   2.291   1.671
 3038TIP3   OH2 9052   4.887   2.991   2.126
 3038TIP3    H1 9053   4.819   2.932   2.088
 3038TIP3    H2 9054   4.929   2.931   2.191
 3039TIP3   OH2 9055   5.021   2.840   2.314
 3039TIP3    H1 9056   5.004   2.768   2.377
 3039TIP3    H2 9057   5.066   2.904   2.372
 3040TIP3   OH2 9058   6.750   3.317   2.114
 3040TIP3    H1 9059   6.781   3.286   2.202
 3040TIP3    H2 9060   6.823   3.286   2.056
 3041TIP3   OH2 9061   6.797   3.241   2.371
 3041TIP3    H1 9062   6.746   3.159   2.389
 3041TIP3    H2 9063   6.857   3.241   2.447
 3042TIP3   OH2 9064   6.819   2.941   2.966
 3042TIP3    H1 9065   6.749   2.950   3.033
 3042TIP3    H2 9066   6.863   3.028   2.971
 3043TIP3   OH2 9067   6.637   2.454   1.588
 3043TIP3    H1 9068   6.704   2.517   1.555
 3043TIP3    H2 9069   6.683   2.416   1.666
 3044TIP3   OH2 9070   6.766   2.324   1.792
 3044TIP3    H1 9071   6.700   2.281   1.850
 3044TIP3    H2 9072   6.833   2.357   1.855
 3045TIP3   OH2 9073   6.818   2.712   2.220
 3045TIP3    H1 9074   6.875   2.645   2.177
 3045TIP3    H2 9075   6.812   2.782   2.152
 3046TIP3   OH2 9076   6.650   3.012   2.416
 3046TIP3    H1 9077   6.581   3.050   2.474
 3046TIP3    H2 9078   6.597   2.964   2.349
 3047TIP3   OH2 9079   6.704   2.230   1.438
 3047TIP3    H1 9080   6.633   2.229   1.370
 3047TIP3    H2 9081   6.674   2.306   1.492
 3048TIP3   OH2 9082   6.572   1.907   1.393
 3048TIP3    H1 9083   6.532   1.935   1.310
 3048TIP3    H2 9084   6.547   1.811   1.393
 3049TIP3   OH2 9085   6.579   2.180   1.936
 3049TIP3    H1 9086   6.590   2.084   1.925
 3049TIP3    H2 9087   6.570   2.191   2.033
 3050TIP3   OH2 9088   5.205   2.249   2.686
 3050TIP3    H1 9089   5.202   2.217   2.593
 3050TIP3    H2 9090   5.303   2.250   2.701
 3051TIP3   OH2 9091   6.870   2.603   2.792
 3051TIP3    H1 9092   6.941   2.536   2.785
 3051TIP3    H2 9093   6.903   2.674   2.734
 3052TIP3   OH2 9094   7.053   2.407   2.806
 3052TIP3    H1 9095   6.981   2.356   2.848
 3052TIP3    H2 9096   7.128   2.345   2.821
 3053TIP3   OH2 9097   6.510   1.645   1.397
 3053TIP3    H1 9098   6.591   1.602   1.431
 3053TIP3    H2 9099   6.446   1.572   1.394
 3054TIP3   OH2 9100   6.577   1.899   1.835
 3054TIP3    H1 9101   6.614   1.809   1.851
 3054TIP3    H2 9102   6.634   1.926   1.761
 3055TIP3   OH2 9103   6.737   2.072   2.326
 3055TIP3    H1 9104   6.824   2.095   2.283
 3055TIP3    H2 9105   6.757   2.107   2.416
 3056TIP3   OH2 9106   6.804   2.212   2.558
 3056TIP3    H1 9107   6.731   2.251   2.610
 3056TIP3    H2 9108   6.841   2.292   2.514
 3057TIP3   OH2 9109   5.418   1.929   3.358
 3057TIP3    H1 9110   5.515   1.929   3.366
 3057TIP3    H2 9111   5.396   1.843   3.399
 3058TIP3   OH2 9112   7.253   1.800   3.113
 3058TIP3    H1 9113   7.316   1.735   3.074
 3058TIP3    H2 9114   7.231   1.857   3.036
 3059TIP3   OH2 9115   6.679   1.646   1.875
 3059TIP3    H1 9116   6.735   1.626   1.953
 3059TIP3    H2 9117   6.623   1.566   1.870
 3060TIP3   OH2 9118   5.385   1.629   2.690
 3060TIP3    H1 9119   5.446   1.553   2.699
 3060TIP3    H2 9120   5.449   1.702   2.682
 3061TIP3   OH2 9121   5.187   1.902   2.763
 3061TIP3    H1 9122   5.235   1.897   2.678
 3061TIP3    H2 9123   5.214   1.989   2.795
 3062TIP3   OH2 9124   7.128   1.943   2.915
 3062TIP3    H1 9125   7.042   1.981   2.941
 3062TIP3    H2 9126   7.099   1.867   2.861
 3063TIP3   OH2 9127   6.765   1.573   1.504
 3063TIP3    H1 9128   6.807   1.504   1.449
 3063TIP3    H2 9129   6.830   1.646   1.499
 3064TIP3   OH2 9130   5.172   1.411   2.267
 3064TIP3    H1 9131   5.078   1.402   2.291
 3064TIP3    H2 9132   5.167   1.467   2.186
 3065TIP3   OH2 9133   6.342   3.111   1.776
 3065TIP3    H1 9134   6.380   3.088   1.688
 3065TIP3    H2 9135   6.390   3.192   1.794
 3066TIP3   OH2 9136   5.393   1.494   3.081
 3066TIP3    H1 9137   5.338   1.481   3.161
 3066TIP3    H2 9138   5.326   1.527   3.018
 3067TIP3   OH2 9139   5.429   2.922   3.159
 3067TIP3    H1 9140   5.339   2.890   3.141
 3067TIP3    H2 9141   5.445   2.889   3.248
 3068TIP3   OH2 9142   5.611   2.941   2.707
 3068TIP3    H1 9143   5.546   2.985   2.651
 3068TIP3    H2 9144   5.695   2.966   2.661
 3069TIP3   OH2 9145   6.053   3.193   2.836
 3069TIP3    H1 9146   6.093   3.190   2.926
 3069TIP3    H2 9147   6.121   3.245   2.788
 3070TIP3   OH2 9148   6.239   3.342   2.697
 3070TIP3    H1 9149   6.314   3.284   2.676
 3070TIP3    H2 9150   6.283   3.403   2.760
 3071TIP3   OH2 9151   7.026   1.700   2.800
 3071TIP3    H1 9152   6.935   1.681   2.771
 3071TIP3    H2 9153   7.066   1.611   2.791
 3072TIP3   OH2 9154   5.286   3.198   2.740
 3072TIP3    H1 9155   5.198   3.229   2.711
 3072TIP3    H2 9156   5.292   3.242   2.825
 3073TIP3   OH2 9157   5.471   3.233   2.541
 3073TIP3    H1 9158   5.438   3.190   2.622
 3073TIP3    H2 9159   5.410   3.309   2.542
 3074TIP3   OH2 9160   5.945   3.212   2.375
 3074TIP3    H1 9161   5.939   3.252   2.286
 3074TIP3    H2 9162   5.951   3.293   2.431
 3075TIP3   OH2 9163   6.213   3.159   2.426
 3075TIP3    H1 9164   6.116   3.147   2.419
 3075TIP3    H2 9165   6.219   3.251   2.399
 3076TIP3   OH2 9166   6.454   3.387   2.298
 3076TIP3    H1 9167   6.361   3.413   2.305
 3076TIP3    H2 9168   6.449   3.294   2.266
 3077TIP3   OH2 9169   5.206   2.998   2.470
 3077TIP3    H1 9170   5.222   2.967   2.562
 3077TIP3    H2 9171   5.276   2.949   2.424
 3078TIP3   OH2 9172   5.408   2.864   2.336
 3078TIP3    H1 9173   5.392   2.781   2.386
 3078TIP3    H2 9174   5.502   2.850   2.318
 3079TIP3   OH2 9175   6.220   1.606   2.390
 3079TIP3    H1 9176   6.181   1.550   2.461
 3079TIP3    H2 9177   6.298   1.552   2.365
 3080TIP3   OH2 9178   6.751   1.511   2.327
 3080TIP3    H1 9179   6.794   1.550   2.248
 3080TIP3    H2 9180   6.656   1.517   2.305
 3081TIP3   OH2 9181   6.848   1.602   2.089
 3081TIP3    H1 9182   6.921   1.547   2.053
 3081TIP3    H2 9183   6.886   1.691   2.071
 3082TIP3   OH2 9184   5.481   1.328   2.433
 3082TIP3    H1 9185   5.388   1.295   2.436
 3082TIP3    H2 9186   5.529   1.242   2.430
 3083TIP3   OH2 9187   5.270   1.199   2.085
 3083TIP3    H1 9188   5.299   1.254   2.010
 3083TIP3    H2 9189   5.242   1.266   2.150
 3084TIP3   OH2 9190   5.925   1.361   2.316
 3084TIP3    H1 9191   5.988   1.402   2.254
 3084TIP3    H2 9192   5.955   1.394   2.402
 3085TIP3   OH2 9193   6.460   1.508   2.295
 3085TIP3    H1 9194   6.476   1.463   2.211
 3085TIP3    H2 9195   6.455   1.431   2.357
 3086TIP3   OH2 9196   6.504   1.429   1.862
 3086TIP3    H1 9197   6.414   1.466   1.868
 3086TIP3    H2 9198   6.491   1.344   1.910
 3087TIP3   OH2 9199   4.985   2.773   1.859
 3087TIP3    H1 9200   4.899   2.738   1.827
 3087TIP3    H2 9201   4.974   2.866   1.835
 3088TIP3   OH2 9202   5.386   1.356   1.845
 3088TIP3    H1 9203   5.432   1.292   1.787
 3088TIP3    H2 9204   5.460   1.409   1.880
 3089TIP3   OH2 9205   5.893   1.531   1.941
 3089TIP3    H1 9206   5.950   1.479   1.999
 3089TIP3    H2 9207   5.919   1.622   1.969
 3090TIP3   OH2 9208   5.758   2.956   1.445
 3090TIP3    H1 9209   5.846   2.979   1.408
 3090TIP3    H2 9210   5.735   2.882   1.384
 3091TIP3   OH2 9211   6.473   3.075   1.537
 3091TIP3    H1 9212   6.467   2.978   1.524
 3091TIP3    H2 9213   6.429   3.108   1.456
 3092TIP3   OH2 9214   5.682   1.604   3.331
 3092TIP3    H1 9215   5.651   1.527   3.381
 3092TIP3    H2 9216   5.779   1.601   3.353
 3093TIP3   OH2 9217   5.935   1.595   3.428
 3093TIP3    H1 9218   6.024   1.579   3.393
 3093TIP3    H2 9219   5.938   1.545   3.511
 3094TIP3   OH2 9220   5.061   2.794   1.498
 3094TIP3    H1 9221   5.060   2.817   1.591
 3094TIP3    H2 9222   5.149   2.751   1.487
 3095TIP3   OH2 9223   6.764   1.669   3.231
 3095TIP3    H1 9224   6.782   1.637   3.322
 3095TIP3    H2 9225   6.853   1.664   3.191
 3096TIP3   OH2 9226   6.705   3.220   2.720
 3096TIP3    H1 9227   6.623   3.189   2.678
 3096TIP3    H2 9228   6.686   3.316   2.728
 3097TIP3   OH2 9229   7.263   2.484   2.238
 3097TIP3    H1 9230   7.288   2.415   2.303
 3097TIP3    H2 9231   7.341   2.540   2.239
 3098TIP3   OH2 9232   7.233   2.899   1.962
 3098TIP3    H1 9233   7.229   2.801   1.962
 3098TIP3    H2 9234   7.330   2.911   1.953
 3099TIP3   OH2 9235   6.941   2.099   1.744
 3099TIP3    H1 9236   6.893   2.182   1.758
 3099TIP3    H2 9237   6.872   2.045   1.701
 3100TIP3   OH2 9238   7.004   2.387   1.922
 3100TIP3    H1 9239   7.052   2.308   1.956
 3100TIP3    H2 9240   7.060   2.412   1.847
 3101TIP3   OH2 9241   7.872   3.321   1.545
 3101TIP3    H1 9242   7.966   3.294   1.549
 3101TIP3    H2 9243   7.849   3.328   1.639
 3102TIP3   OH2 9244   7.748   2.816   1.907
 3102TIP3    H1 9245   7.755   2.756   1.831
 3102TIP3    H2 9246   7.841   2.836   1.926
 3103TIP3   OH2 9247   7.487   1.983   1.929
 3103TIP3    H1 9248   7.507   2.046   1.858
 3103TIP3    H2 9249   7.459   1.905   1.878
 3104TIP3   OH2 9250   7.152   2.181   2.022
 3104TIP3    H1 9251   7.233   2.160   2.073
 3104TIP3    H2 9252   7.168   2.126   1.942
 3105TIP3   OH2 9253   7.576   2.382   1.818
 3105TIP3    H1 9254   7.668   2.348   1.831
 3105TIP3    H2 9255   7.533   2.299   1.786
 3106TIP3   OH2 9256   7.516   1.970   2.359
 3106TIP3    H1 9257   7.455   2.000   2.289
 3106TIP3    H2 9258   7.462   1.986   2.439
 3107TIP3   OH2 9259   7.619   2.737   2.146
 3107TIP3    H1 9260   7.555   2.800   2.187
 3107TIP3    H2 9261   7.652   2.790   2.071
 3108TIP3   OH2 9262   7.376   2.083   2.148
 3108TIP3    H1 9263   7.446   2.149   2.170
 3108TIP3    H2 9264   7.419   2.040   2.070
 3109TIP3   OH2 9265   7.449   2.931   2.243
 3109TIP3    H1 9266   7.421   3.017   2.207
 3109TIP3    H2 9267   7.371   2.912   2.300
 3110TIP3   OH2 9268   6.838   2.622   1.479
 3110TIP3    H1 9269   6.801   2.647   1.392
 3110TIP3    H2 9270   6.871   2.708   1.512
 3111TIP3   OH2 9271   7.368   2.527   1.709
 3111TIP3    H1 9272   7.328   2.468   1.641
 3111TIP3    H2 9273   7.445   2.473   1.738
 3112TIP3   OH2 9274   7.496   2.938   1.855
 3112TIP3    H1 9275   7.473   2.906   1.766
 3112TIP3    H2 9276   7.584   2.897   1.870
 3113TIP3   OH2 9277   7.515   2.494   2.064
 3113TIP3    H1 9278   7.539   2.466   1.973
 3113TIP3    H2 9279   7.549   2.585   2.070
 3114TIP3   OH2 9280   7.657   3.052   2.380
 3114TIP3    H1 9281   7.601   3.114   2.432
 3114TIP3    H2 9282   7.588   2.999   2.336
 3115TIP3   OH2 9283   7.404   2.620   2.485
 3115TIP3    H1 9284   7.407   2.704   2.535
 3115TIP3    H2 9285   7.312   2.592   2.503
 3116TIP3   OH2 9286   7.731   3.100   1.433
 3116TIP3    H1 9287   7.764   3.189   1.450
 3116TIP3    H2 9288   7.678   3.111   1.353
 3117TIP3   OH2 9289   7.449   3.215   2.474
 3117TIP3    H1 9290   7.410   3.216   2.385
 3117TIP3    H2 9291   7.370   3.197   2.531
 3118TIP3   OH2 9292   7.243   2.368   1.516
 3118TIP3    H1 9293   7.177   2.410   1.457
 3118TIP3    H2 9294   7.206   2.280   1.528
 3119TIP3   OH2 9295   7.026   2.752   2.422
 3119TIP3    H1 9296   6.962   2.725   2.353
 3119TIP3    H2 9297   7.065   2.666   2.449
 3120TIP3   OH2 9298   6.888   2.952   2.056
 3120TIP3    H1 9299   6.975   2.920   2.029
 3120TIP3    H2 9300   6.912   3.011   2.129
 3121TIP3   OH2 9301   7.851   3.181   2.230
 3121TIP3    H1 9302   7.848   3.271   2.273
 3121TIP3    H2 9303   7.781   3.137   2.285
 3122TIP3   OH2 9304   7.612   3.306   1.196
 3122TIP3    H1 9305   7.569   3.286   1.111
 3122TIP3    H2 9306   7.579   3.396   1.215
 3123TIP3   OH2 9307   7.048   3.158   1.581
 3123TIP3    H1 9308   7.095   3.148   1.667
 3123TIP3    H2 9309   7.000   3.074   1.577
 3124TIP3   OH2 9310   7.881   3.272   1.136
 3124TIP3    H1 9311   7.786   3.281   1.160
 3124TIP3    H2 9312   7.896   3.177   1.152
 3125TIP3   OH2 9313   7.232   2.933   2.407
 3125TIP3    H1 9314   7.280   2.920   2.491
 3125TIP3    H2 9315   7.157   2.870   2.417
 3126TIP3   OH2 9316   7.611   1.749   2.214
 3126TIP3    H1 9317   7.523   1.728   2.178
 3126TIP3    H2 9318   7.595   1.835   2.255
 3127TIP3   OH2 9319   7.557   2.280   2.221
 3127TIP3    H1 9320   7.502   2.296   2.300
 3127TIP3    H2 9321   7.534   2.357   2.164
 3128TIP3   OH2 9322   7.445   2.163   1.720
 3128TIP3    H1 9323   7.357   2.128   1.745
 3128TIP3    H2 9324   7.459   2.118   1.634
 3129TIP3   OH2 9325   7.371   2.300   2.426
 3129TIP3    H1 9326   7.422   2.351   2.491
 3129TIP3    H2 9327   7.362   2.214   2.472
 3130TIP3   OH2 9328   7.395   1.725   1.131
 3130TIP3    H1 9329   7.408   1.765   1.218
 3130TIP3    H2 9330   7.360   1.798   1.079
 3131TIP3   OH2 9331   6.974   1.823   2.004
 3131TIP3    H1 9332   7.048   1.856   2.058
 3131TIP3    H2 9333   7.018   1.789   1.924
 3132TIP3   OH2 9334   6.941   1.804   1.524
 3132TIP3    H1 9335   6.985   1.843   1.445
 3132TIP3    H2 9336   6.880   1.877   1.544
 3133TIP3   OH2 9337   7.207   2.041   1.791
 3133TIP3    H1 9338   7.112   2.042   1.766
 3133TIP3    H2 9339   7.234   1.948   1.776
 3134TIP3   OH2 9340   7.485   2.038   1.476
 3134TIP3    H1 9341   7.569   2.048   1.428
 3134TIP3    H2 9342   7.420   2.052   1.403
 3135TIP3   OH2 9343   7.324   2.062   1.262
 3135TIP3    H1 9344   7.248   2.026   1.213
 3135TIP3    H2 9345   7.376   2.101   1.189
 3136TIP3   OH2 9346   7.395   2.860   2.631
 3136TIP3    H1 9347   7.474   2.886   2.681
 3136TIP3    H2 9348   7.329   2.856   2.704
 3137TIP3   OH2 9349   7.368   1.798   1.761
 3137TIP3    H1 9350   7.334   1.726   1.819
 3137TIP3    H2 9351   7.423   1.747   1.700
 3138TIP3   OH2 9352   7.823   2.206   2.204
 3138TIP3    H1 9353   7.729   2.232   2.200
 3138TIP3    H2 9354   7.869   2.282   2.243
 3139TIP3   OH2 9355   7.536   2.626   1.271
 3139TIP3    H1 9356   7.489   2.540   1.264
 3139TIP3    H2 9357   7.545   2.638   1.368
 3140TIP3   OH2 9358   7.988   2.938   2.254
 3140TIP3    H1 9359   7.990   2.899   2.343
 3140TIP3    H2 9360   7.929   3.014   2.266
 3141TIP3   OH2 9361   7.265   2.625   1.947
 3141TIP3    H1 9362   7.296   2.593   1.861
 3141TIP3    H2 9363   7.296   2.557   2.008
 3142TIP3   OH2 9364   7.676   2.744   1.066
 3142TIP3    H1 9365   7.652   2.835   1.095
 3142TIP3    H2 9366   7.645   2.693   1.144
 3143TIP3   OH2 9367   7.144   2.544   2.560
 3143TIP3    H1 9368   7.169   2.530   2.654
 3143TIP3    H2 9369   7.080   2.472   2.547
 3144TIP3   OH2 9370   7.877   2.654   2.579
 3144TIP3    H1 9371   7.821   2.595   2.527
 3144TIP3    H2 9372   7.962   2.605   2.574
 3145TIP3   OH2 9373   7.364   2.926   1.579
 3145TIP3    H1 9374   7.367   3.004   1.520
 3145TIP3    H2 9375   7.271   2.901   1.572
 3146TIP3   OH2 9376   6.925   2.230   1.272
 3146TIP3    H1 9377   6.971   2.313   1.295
 3146TIP3    H2 9378   6.849   2.233   1.335
 3147TIP3   OH2 9379   7.517   2.692   1.541
 3147TIP3    H1 9380   7.474   2.779   1.543
 3147TIP3    H2 9381   7.461   2.640   1.601
 3148TIP3   OH2 9382   7.631   3.266   2.038
 3148TIP3    H1 9383   7.667   3.342   1.988
 3148TIP3    H2 9384   7.706   3.241   2.094
 3149TIP3   OH2 9385   7.282   3.163   1.424
 3149TIP3    H1 9386   7.196   3.175   1.468
 3149TIP3    H2 9387   7.316   3.256   1.425
 3150TIP3   OH2 9388   7.352   2.049   2.569
 3150TIP3    H1 9389   7.256   2.041   2.582
 3150TIP3    H2 9390   7.386   1.989   2.639
 3151TIP3   OH2 9391   7.066   3.123   2.203
 3151TIP3    H1 9392   7.126   3.054   2.234
 3151TIP3    H2 9393   7.089   3.195   2.264
 3152TIP3   OH2 9394   7.355   2.774   0.885
 3152TIP3    H1 9395   7.357   2.683   0.853
 3152TIP3    H2 9396   7.338   2.761   0.980
 3153TIP3   OH2 9397   7.307   2.776   1.159
 3153TIP3    H1 9398   7.391   2.744   1.198
 3153TIP3    H2 9399   7.316   2.873   1.168
 3154TIP3   OH2 9400   7.040   2.471   1.358
 3154TIP3    H1 9401   6.973   2.517   1.412
 3154TIP3    H2 9402   7.056   2.539   1.289
 3155TIP3   OH2 9403   7.575   2.991   1.118
 3155TIP3    H1 9404   7.484   3.014   1.141
 3155TIP3    H2 9405   7.594   3.058   1.051
 3156TIP3   OH2 9406   7.313   3.053   1.169
 3156TIP3    H1 9407   7.281   3.122   1.107
 3156TIP3    H2 9408   7.299   3.097   1.256
 3157TIP3   OH2 9409   7.420   1.773   1.411
 3157TIP3    H1 9410   7.409   1.858   1.458
 3157TIP3    H2 9411   7.506   1.788   1.368
 3158TIP3   OH2 9412   7.035   2.678   1.162
 3158TIP3    H1 9413   7.107   2.744   1.172
 3158TIP3    H2 9414   7.077   2.622   1.093
 3159TIP3   OH2 9415   6.976   1.963   1.308
 3159TIP3    H1 9416   6.972   2.059   1.296
 3159TIP3    H2 9417   6.912   1.931   1.243
 3160TIP3   OH2 9418   7.344   1.680   2.171
 3160TIP3    H1 9419   7.333   1.641   2.082
 3160TIP3    H2 9420   7.347   1.601   2.229
 3161TIP3   OH2 9421   6.905   2.903   1.549
 3161TIP3    H1 9422   6.829   2.929   1.603
 3161TIP3    H2 9423   6.878   2.941   1.462
 3162TIP3   OH2 9424   7.065   3.442   2.618
 3162TIP3    H1 9425   7.149   3.445   2.668
 3162TIP3    H2 9426   7.046   3.347   2.621
 3163TIP3   OH2 9427   7.537   3.404   2.662
 3163TIP3    H1 9428   7.631   3.386   2.680
 3163TIP3    H2 9429   7.518   3.339   2.591
 3164TIP3   OH2 9430   7.518   2.975   0.797
 3164TIP3    H1 9431   7.455   2.906   0.828
 3164TIP3    H2 9432   7.602   2.927   0.805
 3165TIP3   OH2 9433   7.192   2.845   2.820
 3165TIP3    H1 9434   7.208   2.750   2.832
 3165TIP3    H2 9435   7.104   2.846   2.777
 3166TIP3   OH2 9436   7.171   2.494   1.014
 3166TIP3    H1 9437   7.228   2.464   1.087
 3166TIP3    H2 9438   7.237   2.497   0.941
 3167TIP3   OH2 9439   7.814   2.932   2.591
 3167TIP3    H1 9440   7.758   2.942   2.511
 3167TIP3    H2 9441   7.836   2.836   2.589
 3168TIP3   OH2 9442   7.664   2.677   0.809
 3168TIP3    H1 9443   7.683   2.712   0.899
 3168TIP3    H2 9444   7.594   2.615   0.833
 3169TIP3   OH2 9445   7.315   2.577   2.800
 3169TIP3    H1 9446   7.390   2.518   2.784
 3169TIP3    H2 9447   7.339   2.612   2.889
 3170TIP3   OH2 9448   7.377   2.395   1.235
 3170TIP3    H1 9449   7.350   2.350   1.317
 3170TIP3    H2 9450   7.419   2.323   1.184
 3171TIP3   OH2 9451   7.620   2.458   2.468
 3171TIP3    H1 9452   7.546   2.522   2.480
 3171TIP3    H2 9453   7.679   2.508   2.409
 3172TIP3   OH2 9454   7.482   2.187   1.074
 3172TIP3    H1 9455   7.450   2.199   0.981
 3172TIP3    H2 9456   7.574   2.162   1.054
 3173TIP3   OH2 9457   7.770   2.258   2.589
 3173TIP3    H1 9458   7.776   2.172   2.544
 3173TIP3    H2 9459   7.711   2.309   2.532
 3174TIP3   OH2 9460   7.780   2.038   2.411
 3174TIP3    H1 9461   7.787   2.074   2.320
 3174TIP3    H2 9462   7.693   1.993   2.405
 3175TIP3   OH2 9463   7.789   2.585   2.292
 3175TIP3    H1 9464   7.795   2.502   2.243
 3175TIP3    H2 9465   7.720   2.637   2.244
 3176TIP3   OH2 9466   7.642   2.368   2.815
 3176TIP3    H1 9467   7.581   2.295   2.836
 3176TIP3    H2 9468   7.684   2.336   2.733
 3177TIP3   OH2 9469   7.486   2.145   2.877
 3177TIP3    H1 9470   7.493   2.054   2.843
 3177TIP3    H2 9471   7.525   2.133   2.967
 3178TIP3   OH2 9472   7.275   3.258   0.985
 3178TIP3    H1 9473   7.372   3.252   0.972
 3178TIP3    H2 9474   7.251   3.307   0.904
 3179TIP3   OH2 9475   6.766   2.636   1.202
 3179TIP3    H1 9476   6.860   2.658   1.184
 3179TIP3    H2 9477   6.759   2.548   1.159
 3180TIP3   OH2 9478   6.678   3.248   1.614
 3180TIP3    H1 9479   6.613   3.185   1.573
 3180TIP3    H2 9480   6.722   3.189   1.678
 3181TIP3   OH2 9481   6.808   3.099   1.806
 3181TIP3    H1 9482   6.807   3.022   1.864
 3181TIP3    H2 9483   6.870   3.157   1.855
 3182TIP3   OH2 9484   7.000   2.512   2.170
 3182TIP3    H1 9485   6.998   2.475   2.080
 3182TIP3    H2 9486   7.096   2.510   2.189
 3183TIP3   OH2 9487   7.219   2.195   2.843
 3183TIP3    H1 9488   7.317   2.189   2.847
 3183TIP3    H2 9489   7.196   2.108   2.883
 3184TIP3   OH2 9490   7.172   1.892   2.186
 3184TIP3    H1 9491   7.229   1.812   2.188
 3184TIP3    H2 9492   7.239   1.962   2.177
 3185TIP3   OH2 9493   6.978   2.164   2.242
 3185TIP3    H1 9494   7.031   2.152   2.160
 3185TIP3    H2 9495   7.023   2.238   2.283
 3186TIP3   OH2 9496   6.965   1.662   1.751
 3186TIP3    H1 9497   6.871   1.660   1.774
 3186TIP3    H2 9498   6.965   1.721   1.672
 3187TIP3   OH2 9499   7.186   1.760   2.571
 3187TIP3    H1 9500   7.133   1.742   2.651
 3187TIP3    H2 9501   7.117   1.779   2.506
 3188TIP3   OH2 9502   7.228   3.172   2.639
 3188TIP3    H1 9503   7.135   3.146   2.627
 3188TIP3    H2 9504   7.242   3.154   2.733
 3189TIP3   OH2 9505   7.405   3.200   2.186
 3189TIP3    H1 9506   7.359   3.278   2.148
 3189TIP3    H2 9507   7.491   3.213   2.141
 3190TIP3   OH2 9508   7.841   3.434   2.326
 3190TIP3    H1 9509   7.884   3.439   2.415
 3190TIP3    H2 9510   7.889   3.502   2.275
 3191TIP3   OH2 9511   7.979   3.600   2.150
 3191TIP3    H1 9512   8.028   3.596   2.065
 3191TIP3    H2 9513   8.027   3.671   2.196
 3192TIP3   OH2 9514   7.093   3.455   2.220
 3192TIP3    H1 9515   7.020   3.506   2.185
 3192TIP3    H2 9516   7.109   3.500   2.305
 3193TIP3   OH2 9517   7.322   3.434   2.067
 3193TIP3    H1 9518   7.237   3.445   2.115
 3193TIP3    H2 9519   7.300   3.467   1.978
 3194TIP3   OH2 9520   7.738   3.463   1.865
 3194TIP3    H1 9521   7.663   3.480   1.805
 3194TIP3    H2 9522   7.752   3.553   1.902
 3195TIP3   OH2 9523   7.984   3.333   1.914
 3195TIP3    H1 9524   7.897   3.367   1.884
 3195TIP3    H2 9525   8.040   3.412   1.898
 3196TIP3   OH2 9526   6.987   3.248   1.966
 3196TIP3    H1 9527   7.020   3.218   2.054
 3196TIP3    H2 9528   7.058   3.208   1.911
 3197TIP3   OH2 9529   7.182   3.129   1.820
 3197TIP3    H1 9530   7.199   3.044   1.866
 3197TIP3    H2 9531   7.273   3.165   1.812
 3198TIP3   OH2 9532   7.450   3.222   1.819
 3198TIP3    H1 9533   7.479   3.130   1.801
 3198TIP3    H2 9534   7.498   3.238   1.902
 3199TIP3   OH2 9535   7.273   1.593   1.913
 3199TIP3    H1 9536   7.184   1.554   1.922
 3199TIP3    H2 9537   7.327   1.510   1.912
 3200TIP3   OH2 9538   7.058   1.454   1.575
 3200TIP3    H1 9539   7.086   1.509   1.500
 3200TIP3    H2 9540   7.035   1.521   1.642
 3201TIP3   OH2 9541   6.778   3.029   1.349
 3201TIP3    H1 9542   6.693   2.996   1.314
 3201TIP3    H2 9543   6.771   3.122   1.321
 3202TIP3   OH2 9544   7.180   1.611   1.341
 3202TIP3    H1 9545   7.234   1.548   1.293
 3202TIP3    H2 9546   7.248   1.674   1.372
 3203TIP3   OH2 9547   7.542   3.212   0.939
 3203TIP3    H1 9548   7.634   3.224   0.907
 3203TIP3    H2 9549   7.515   3.141   0.877
 3204TIP3   OH2 9550   7.477   1.869   2.805
 3204TIP3    H1 9551   7.444   1.796   2.860
 3204TIP3    H2 9552   7.572   1.869   2.833
 3205TIP3   OH2 9553   7.717   1.862   2.935
 3205TIP3    H1 9554   7.796   1.824   2.891
 3205TIP3    H2 9555   7.702   1.794   3.004
 3206TIP3   OH2 9556   6.857   3.048   0.985
 3206TIP3    H1 9557   6.864   3.075   1.078
 3206TIP3    H2 9558   6.944   3.006   0.968
 3207TIP3   OH2 9559   0.422   3.379   3.174
 3207TIP3    H1 9560   0.394   3.470   3.154
 3207TIP3    H2 9561   0.337   3.334   3.171
 3208TIP3   OH2 9562   0.416   3.378   3.567
 3208TIP3    H1 9563   0.454   3.359   3.654
 3208TIP3    H2 9564   0.377   3.292   3.544
 3209TIP3   OH2 9565  -0.252   3.267   3.893
 3209TIP3    H1 9566  -0.274   3.205   3.964
 3209TIP3    H2 9567  -0.195   3.329   3.939
 3210TIP3   OH2 9568   0.662   3.682   3.247
 3210TIP3    H1 9569   0.653   3.613   3.314
 3210TIP3    H2 9570   0.698   3.756   3.299
 3211TIP3   OH2 9571  -0.303   3.664   3.582
 3211TIP3    H1 9572  -0.321   3.569   3.603
 3211TIP3    H2 9573  -0.222   3.677   3.633
 3212TIP3   OH2 9574  -0.525   3.175   3.560
 3212TIP3    H1 9575  -0.499   3.125   3.639
 3212TIP3    H2 9576  -0.465   3.250   3.564
 3213TIP3   OH2 9577   0.315   4.143   3.267
 3213TIP3    H1 9578   0.354   4.078   3.205
 3213TIP3    H2 9579   0.322   4.095   3.350
 3214TIP3   OH2 9580   0.221   3.608   3.608
 3214TIP3    H1 9581   0.260   3.527   3.570
 3214TIP3    H2 9582   0.304   3.654   3.632
 3215TIP3   OH2 9583   1.257   2.923   3.587
 3215TIP3    H1 9584   1.265   3.007   3.638
 3215TIP3    H2 9585   1.280   2.954   3.497
 3216TIP3   OH2 9586   0.635   3.112   3.639
 3216TIP3    H1 9587   0.668   3.024   3.665
 3216TIP3    H2 9588   0.599   3.092   3.550
 3217TIP3   OH2 9589  -0.031   2.767   3.607
 3217TIP3    H1 9590  -0.047   2.840   3.543
 3217TIP3    H2 9591  -0.075   2.693   3.560
 3218TIP3   OH2 9592   0.673   2.856   3.227
 3218TIP3    H1 9593   0.741   2.833   3.294
 3218TIP3    H2 9594   0.730   2.894   3.158
 3219TIP3   OH2 9595  -0.395   2.970   3.716
 3219TIP3    H1 9596  -0.314   2.961   3.771
 3219TIP3    H2 9597  -0.366   2.926   3.634
 3220TIP3   OH2 9598   0.051   3.167   3.490
 3220TIP3    H1 9599   0.142   3.142   3.516
 3220TIP3    H2 9600   0.010   3.080   3.472
 3221TIP3   OH2 9601   1.294   3.121   3.779
 3221TIP3    H1 9602   1.216   3.178   3.758
 3221TIP3    H2 9603   1.322   3.161   3.864
 3222TIP3   OH2 9604  -0.035   2.749   4.045
 3222TIP3    H1 9605  -0.090   2.794   3.978
 3222TIP3    H2 9606  -0.087   2.767   4.126
 3223TIP3   OH2 9607   0.300   3.597   3.052
 3223TIP3    H1 9608   0.271   3.592   2.960
 3223TIP3    H2 9609   0.261   3.682   3.080
 3224TIP3   OH2 9610   0.071   3.531   3.835
 3224TIP3    H1 9611   0.012   3.594   3.880
 3224TIP3    H2 9612   0.112   3.585   3.766
 3225TIP3   OH2 9613   0.876   2.850   3.414
 3225TIP3    H1 9614   0.836   2.822   3.498
 3225TIP3    H2 9615   0.923   2.932   3.440
 3226TIP3   OH2 9616  -0.158   2.866   3.826
 3226TIP3    H1 9617  -0.099   2.940   3.852
 3226TIP3    H2 9618  -0.105   2.828   3.752
 3227TIP3   OH2 9619  -0.118   3.708   3.956
 3227TIP3    H1 9620  -0.173   3.759   3.894
 3227TIP3    H2 9621  -0.187   3.666   4.011
 3228TIP3   OH2 9622   0.730   3.929   3.412
 3228TIP3    H1 9623   0.639   3.919   3.449
 3228TIP3    H2 9624   0.722   4.013   3.364
 3229TIP3   OH2 9625   1.007   2.833   3.710
 3229TIP3    H1 9626   0.913   2.824   3.733
 3229TIP3    H2 9627   1.014   2.927   3.687
 3230TIP3   OH2 9628   0.295   2.475   3.726
 3230TIP3    H1 9629   0.321   2.391   3.765
 3230TIP3    H2 9630   0.227   2.506   3.790
 3231TIP3   OH2 9631   0.427   3.975   3.078
 3231TIP3    H1 9632   0.478   3.892   3.060
 3231TIP3    H2 9633   0.492   4.041   3.045
 3232TIP3   OH2 9634   0.568   3.756   2.998
 3232TIP3    H1 9635   0.554   3.675   2.947
 3232TIP3    H2 9636   0.607   3.722   3.081
 3233TIP3   OH2 9637   0.959   3.840   3.752
 3233TIP3    H1 9638   0.948   3.760   3.696
 3233TIP3    H2 9639   0.944   3.913   3.688
 3234TIP3   OH2 9640   0.243   3.216   3.003
 3234TIP3    H1 9641   0.171   3.280   2.987
 3234TIP3    H2 9642   0.297   3.226   2.923
 3235TIP3   OH2 9643   1.155   3.475   3.599
 3235TIP3    H1 9644   1.071   3.527   3.605
 3235TIP3    H2 9645   1.184   3.502   3.509
 3236TIP3   OH2 9646   0.596   3.306   2.978
 3236TIP3    H1 9647   0.542   3.332   3.056
 3236TIP3    H2 9648   0.681   3.285   3.021
 3237TIP3   OH2 9649   0.833   3.352   3.892
 3237TIP3    H1 9650   0.836   3.430   3.952
 3237TIP3    H2 9651   0.745   3.364   3.852
 3238TIP3   OH2 9652  -0.162   3.306   3.394
 3238TIP3    H1 9653  -0.199   3.245   3.328
 3238TIP3    H2 9654  -0.083   3.256   3.425
 3239TIP3   OH2 9655  -0.019   3.743   3.539
 3239TIP3    H1 9656  -0.055   3.686   3.470
 3239TIP3    H2 9657   0.068   3.700   3.558
 3240TIP3   OH2 9658   0.008   3.276   3.747
 3240TIP3    H1 9659   0.025   3.268   3.651
 3240TIP3    H2 9660   0.027   3.370   3.766
 3241TIP3   OH2 9661   0.486   3.923   3.531
 3241TIP3    H1 9662   0.483   3.999   3.592
 3241TIP3    H2 9663   0.476   3.846   3.591
 3242TIP3   OH2 9664   0.091   3.866   4.049
 3242TIP3    H1 9665   0.073   3.886   4.142
 3242TIP3    H2 9666   0.024   3.797   4.029
 3243TIP3   OH2 9667   0.436   3.173   2.802
 3243TIP3    H1 9668   0.492   3.232   2.857
 3243TIP3    H2 9669   0.464   3.200   2.711
 3244TIP3   OH2 9670  -0.150   3.404   4.174
 3244TIP3    H1 9671  -0.145   3.485   4.229
 3244TIP3    H2 9672  -0.246   3.390   4.171
 3245TIP3   OH2 9673   0.182   3.854   3.084
 3245TIP3    H1 9674   0.267   3.901   3.092
 3245TIP3    H2 9675   0.125   3.919   3.041
 3246TIP3   OH2 9676  -0.137   4.036   4.171
 3246TIP3    H1 9677  -0.135   4.019   4.075
 3246TIP3    H2 9678  -0.194   3.964   4.205
 3247TIP3   OH2 9679   0.958   2.415   2.860
 3247TIP3    H1 9680   0.872   2.433   2.903
 3247TIP3    H2 9681   0.970   2.495   2.805
 3248TIP3   OH2 9682  -0.286   3.145   3.188
 3248TIP3    H1 9683  -0.362   3.185   3.139
 3248TIP3    H2 9684  -0.330   3.073   3.234
 3249TIP3   OH2 9685   0.756   3.781   2.403
 3249TIP3    H1 9686   0.765   3.877   2.391
 3249TIP3    H2 9687   0.848   3.751   2.390
 3250TIP3   OH2 9688   1.197   4.185   3.798
 3250TIP3    H1 9689   1.197   4.089   3.814
 3250TIP3    H2 9690   1.114   4.210   3.845
 3251TIP3   OH2 9691   0.302   3.978   3.925
 3251TIP3    H1 9692   0.301   4.067   3.965
 3251TIP3    H2 9693   0.229   3.935   3.975
 3252TIP3   OH2 9694   0.061   4.094   2.890
 3252TIP3    H1 9695   0.021   4.079   2.802
 3252TIP3    H2 9696   0.034   4.185   2.910
 3253TIP3   OH2 9697   0.265   3.999   2.525
 3253TIP3    H1 9698   0.325   3.930   2.488
 3253TIP3    H2 9699   0.303   4.012   2.614
 3254TIP3   OH2 9700   0.315   4.052   2.796
 3254TIP3    H1 9701   0.229   4.056   2.841
 3254TIP3    H2 9702   0.371   4.011   2.864
 3255TIP3   OH2 9703   1.093   3.314   4.071
 3255TIP3    H1 9704   1.001   3.329   4.043
 3255TIP3    H2 9705   1.097   3.217   4.074
 3256TIP3   OH2 9706   0.078   2.545   3.892
 3256TIP3    H1 9707  -0.010   2.515   3.862
 3256TIP3    H2 9708   0.053   2.626   3.941
 3257TIP3   OH2 9709   0.862   3.095   3.999
 3257TIP3    H1 9710   0.807   3.085   4.080
 3257TIP3    H2 9711   0.830   3.180   3.963
 3258TIP3   OH2 9712   0.505   3.232   2.552
 3258TIP3    H1 9713   0.476   3.199   2.464
 3258TIP3    H2 9714   0.594   3.267   2.528
 3259TIP3   OH2 9715   0.219   2.677   2.848
 3259TIP3    H1 9716   0.198   2.646   2.939
 3259TIP3    H2 9717   0.194   2.595   2.799
 3260TIP3   OH2 9718   0.014   3.060   3.906
 3260TIP3    H1 9719  -0.039   3.085   3.984
 3260TIP3    H2 9720   0.006   3.141   3.850
 3261TIP3   OH2 9721  -0.106   2.948   3.418
 3261TIP3    H1 9722  -0.198   2.922   3.436
 3261TIP3    H2 9723  -0.093   2.907   3.330
 3262TIP3   OH2 9724   0.388   3.029   3.143
 3262TIP3    H1 9725   0.336   3.100   3.100
 3262TIP3    H2 9726   0.451   3.005   3.072
 3263TIP3   OH2 9727   0.562   3.311   4.225
 3263TIP3    H1 9728   0.544   3.241   4.292
 3263TIP3    H2 9729   0.651   3.339   4.253
 3264TIP3   OH2 9730   0.549   3.060   3.381
 3264TIP3    H1 9731   0.484   3.086   3.313
 3264TIP3    H2 9732   0.583   2.978   3.340
 3265TIP3   OH2 9733  -0.163   3.080   4.117
 3265TIP3    H1 9734  -0.140   3.151   4.179
 3265TIP3    H2 9735  -0.169   3.002   4.175
 3266TIP3   OH2 9736  -0.558   2.631   3.694
 3266TIP3    H1 9737  -0.482   2.653   3.752
 3266TIP3    H2 9738  -0.520   2.572   3.630
 3267TIP3   OH2 9739   0.550   3.309   3.802
 3267TIP3    H1 9740   0.588   3.237   3.745
 3267TIP3    H2 9741   0.526   3.255   3.881
 3268TIP3   OH2 9742   0.224   2.784   3.478
 3268TIP3    H1 9743   0.150   2.770   3.541
 3268TIP3    H2 9744   0.301   2.754   3.530
 3269TIP3   OH2 9745  -0.341   2.817   3.480
 3269TIP3    H1 9746  -0.433   2.792   3.470
 3269TIP3    H2 9747  -0.294   2.732   3.465
 3270TIP3   OH2 9748  -0.072   2.826   3.174
 3270TIP3    H1 9749   0.026   2.835   3.173
 3270TIP3    H2 9750  -0.098   2.864   3.088
 3271TIP3   OH2 9751   0.715   2.850   3.674
 3271TIP3    H1 9752   0.691   2.853   3.769
 3271TIP3    H2 9753   0.674   2.765   3.651
 3272TIP3   OH2 9754  -0.212   2.884   2.933
 3272TIP3    H1 9755  -0.295   2.850   2.970
 3272TIP3    H2 9756  -0.194   2.817   2.866
 3273TIP3   OH2 9757   0.887   4.535   3.901
 3273TIP3    H1 9758   0.890   4.555   3.805
 3273TIP3    H2 9759   0.970   4.578   3.932
 3274TIP3   OH2 9760  -0.156   3.639   4.338
 3274TIP3    H1 9761  -0.077   3.663   4.391
 3274TIP3    H2 9762  -0.225   3.685   4.389
 3275TIP3   OH2 9763   0.307   3.102   3.579
 3275TIP3    H1 9764   0.375   3.050   3.534
 3275TIP3    H2 9765   0.305   3.060   3.667
 3276TIP3   OH2 9766  -0.178   2.589   3.452
 3276TIP3    H1 9767  -0.199   2.507   3.502
 3276TIP3    H2 9768  -0.124   2.554   3.379
 3277TIP3   OH2 9769   0.284   3.005   3.854
 3277TIP3    H1 9770   0.195   3.036   3.878
 3277TIP3    H2 9771   0.343   3.058   3.911
 3278TIP3   OH2 9772   0.021   3.384   2.957
 3278TIP3    H1 9773  -0.047   3.314   2.950
 3278TIP3    H2 9774   0.005   3.418   3.048
 3279TIP3   OH2 9775   0.920   3.620   3.591
 3279TIP3    H1 9776   0.947   3.669   3.510
 3279TIP3    H2 9777   0.835   3.579   3.564
 3280TIP3   OH2 9778   0.487   2.706   2.820
 3280TIP3    H1 9779   0.400   2.686   2.859
 3280TIP3    H2 9780   0.517   2.790   2.862
 3281TIP3   OH2 9781   0.419   3.706   3.956
 3281TIP3    H1 9782   0.451   3.675   4.041
 3281TIP3    H2 9783   0.381   3.792   3.976
 3282TIP3   OH2 9784   0.552   2.948   2.919
 3282TIP3    H1 9785   0.647   2.949   2.945
 3282TIP3    H2 9786   0.544   3.035   2.873
 3283TIP3   OH2 9787  -0.289   3.393   3.636
 3283TIP3    H1 9788  -0.232   3.349   3.571
 3283TIP3    H2 9789  -0.275   3.342   3.719
 3284TIP3   OH2 9790   0.164   3.533   2.778
 3284TIP3    H1 9791   0.117   3.620   2.784
 3284TIP3    H2 9792   0.113   3.481   2.844
 3285TIP3   OH2 9793   0.324   3.443   4.270
 3285TIP3    H1 9794   0.267   3.381   4.222
 3285TIP3    H2 9795   0.413   3.409   4.246
 3286TIP3   OH2 9796   0.578   3.979   3.850
 3286TIP3    H1 9797   0.482   3.966   3.864
 3286TIP3    H2 9798   0.604   4.020   3.934
 3287TIP3   OH2 9799   0.988   3.037   2.763
 3287TIP3    H1 9800   0.926   2.993   2.700
 3287TIP3    H2 9801   0.987   3.126   2.721
 3288TIP3   OH2 9802   1.209   3.897   3.841
 3288TIP3    H1 9803   1.112   3.889   3.834
 3288TIP3    H2 9804   1.235   3.866   3.751
 3289TIP3   OH2 9805   0.682   3.844   2.664
 3289TIP3    H1 9806   0.679   3.772   2.728
 3289TIP3    H2 9807   0.707   3.800   2.581
 3290TIP3   OH2 9808   0.685   3.485   3.501
 3290TIP3    H1 9809   0.593   3.458   3.518
 3290TIP3    H2 9810   0.721   3.404   3.461
 3291TIP3   OH2 9811  -0.183   3.709   3.253
 3291TIP3    H1 9812  -0.190   3.791   3.201
 3291TIP3    H2 9813  -0.266   3.707   3.302
 3292TIP3   OH2 9814   7.532   1.406   1.347
 3292TIP3    H1 9815   7.593   1.478   1.371
 3292TIP3    H2 9816   7.457   1.425   1.405
 3293TIP3   OH2 9817  -0.050   3.472   3.200
 3293TIP3    H1 9818  -0.083   3.563   3.219
 3293TIP3    H2 9819  -0.082   3.423   3.278
 3294TIP3   OH2 9820   0.091   4.059   3.728
 3294TIP3    H1 9821   0.141   4.126   3.676
 3294TIP3    H2 9822   0.164   4.018   3.779
 3295TIP3   OH2 9823  -0.269   3.956   3.115
 3295TIP3    H1 9824  -0.349   3.976   3.165
 3295TIP3    H2 9825  -0.227   4.045   3.113
 3296TIP3   OH2 9826   0.473   3.691   3.688
 3296TIP3    H1 9827   0.460   3.689   3.786
 3296TIP3    H2 9828   0.552   3.636   3.679
 3297TIP3   OH2 9829   0.449   3.582   2.576
 3297TIP3    H1 9830   0.504   3.557   2.653
 3297TIP3    H2 9831   0.361   3.561   2.609
 3298TIP3   OH2 9832   0.719   4.225   3.744
 3298TIP3    H1 9833   0.643   4.163   3.740
 3298TIP3    H2 9834   0.700   4.284   3.668
 3299TIP3   OH2 9835   0.791   4.061   2.393
 3299TIP3    H1 9836   0.832   4.141   2.355
 3299TIP3    H2 9837   0.705   4.101   2.418
 3300TIP3   OH2 9838  -0.186   2.823   4.274
 3300TIP3    H1 9839  -0.277   2.815   4.307
 3300TIP3    H2 9840  -0.138   2.770   4.340
 3301TIP3   OH2 9841   0.609   3.517   2.794
 3301TIP3    H1 9842   0.600   3.446   2.860
 3301TIP3    H2 9843   0.706   3.513   2.777
 3302TIP3   OH2 9844  -0.184   3.562   2.572
 3302TIP3    H1 9845  -0.171   3.467   2.550
 3302TIP3    H2 9846  -0.207   3.556   2.667
 3303TIP3   OH2 9847  -0.236   3.570   2.846
 3303TIP3    H1 9848  -0.162   3.543   2.901
 3303TIP3    H2 9849  -0.231   3.668   2.851
 3304TIP3   OH2 9850  -0.495   3.260   3.058
 3304TIP3    H1 9851  -0.531   3.319   3.126
 3304TIP3    H2 9852  -0.481   3.324   2.985
 3305TIP3   OH2 9853   0.645   2.883   3.942
 3305TIP3    H1 9854   0.716   2.915   4.000
 3305TIP3    H2 9855   0.649   2.787   3.957
 3306TIP3   OH2 9856   0.515   2.658   3.109
 3306TIP3    H1 9857   0.530   2.673   3.014
 3306TIP3    H2 9858   0.565   2.732   3.150
 3307TIP3   OH2 9859   0.024   3.764   2.790
 3307TIP3    H1 9860  -0.060   3.793   2.828
 3307TIP3    H2 9861   0.044   3.840   2.732
 3308TIP3   OH2 9862   0.202   2.834   3.210
 3308TIP3    H1 9863   0.271   2.902   3.195
 3308TIP3    H2 9864   0.212   2.819   3.307
 3309TIP3   OH2 9865   0.485   3.145   4.011
 3309TIP3    H1 9866   0.507   3.199   4.090
 3309TIP3    H2 9867   0.536   3.064   4.027
 3310TIP3   OH2 9868   0.356   2.551   3.310
 3310TIP3    H1 9869   0.382   2.605   3.386
 3310TIP3    H2 9870   0.414   2.590   3.240
 3311TIP3   OH2 9871  -0.232   3.841   2.861
 3311TIP3    H1 9872  -0.259   3.911   2.797
 3311TIP3    H2 9873  -0.248   3.886   2.947
 3312TIP3   OH2 9874  -0.123   2.560   3.114
 3312TIP3    H1 9875  -0.116   2.652   3.143
 3312TIP3    H2 9876  -0.029   2.537   3.100
 3313TIP3   OH2 9877   1.123   3.038   4.004
 3313TIP3    H1 9878   1.025   3.040   4.009
 3313TIP3    H2 9879   1.137   3.033   3.909
 3314TIP3   OH2 9880   0.775   3.239   3.383
 3314TIP3    H1 9881   0.697   3.183   3.398
 3314TIP3    H2 9882   0.844   3.191   3.434
 3315TIP3   OH2 9883  -0.508   3.477   2.887
 3315TIP3    H1 9884  -0.431   3.535   2.876
 3315TIP3    H2 9885  -0.492   3.419   2.810
 3316TIP3   OH2 9886   0.739   4.203   3.329
 3316TIP3    H1 9887   0.699   4.255   3.257
 3316TIP3    H2 9888   0.834   4.218   3.310
 3317TIP3   OH2 9889  -0.186   2.462   3.856
 3317TIP3    H1 9890  -0.214   2.421   3.773
 3317TIP3    H2 9891  -0.190   2.385   3.918
 3318TIP3   OH2 9892  -0.015   4.203   4.356
 3318TIP3    H1 9893   0.077   4.185   4.377
 3318TIP3    H2 9894  -0.033   4.136   4.288
 3319TIP3   OH2 9895  -0.023   3.767   2.480
 3319TIP3    H1 9896  -0.076   3.693   2.518
 3319TIP3    H2 9897   0.054   3.718   2.445
 3320TIP3   OH2 9898   0.636   4.086   4.104
 3320TIP3    H1 9899   0.661   4.012   4.161
 3320TIP3    H2 9900   0.708   4.149   4.121
 3321TIP3   OH2 9901   0.412   3.805   2.394
 3321TIP3    H1 9902   0.462   3.749   2.457
 3321TIP3    H2 9903   0.469   3.805   2.315
 3322TIP3   OH2 9904  -0.379   3.295   2.724
 3322TIP3    H1 9905  -0.316   3.260   2.789
 3322TIP3    H2 9906  -0.322   3.297   2.644
 3323TIP3   OH2 9907   0.234   3.717   4.278
 3323TIP3    H1 9908   0.215   3.688   4.188
 3323TIP3    H2 9909   0.300   3.650   4.305
 3324TIP3   OH2 9910   0.135   3.476   2.513
 3324TIP3    H1 9911   0.138   3.494   2.609
 3324TIP3    H2 9912   0.102   3.385   2.510
 3325TIP3   OH2 9913   0.742   3.728   3.891
 3325TIP3    H1 9914   0.819   3.771   3.848
 3325TIP3    H2 9915   0.673   3.793   3.875
 3326TIP3   OH2 9916  -0.232   3.355   4.510
 3326TIP3    H1 9917  -0.159   3.321   4.457
 3326TIP3    H2 9918  -0.186   3.401   4.583
 3327TIP3   OH2 9919  -0.172   3.171   2.937
 3327TIP3    H1 9920  -0.194   3.171   3.033
 3327TIP3    H2 9921  -0.179   3.075   2.919
 3328TIP3   OH2 9922   0.095   3.251   4.156
 3328TIP3    H1 9923   0.019   3.313   4.155
 3328TIP3    H2 9924   0.149   3.284   4.080
 3329TIP3   OH2 9925   0.746   3.311   2.437
 3329TIP3    H1 9926   0.729   3.263   2.352
 3329TIP3    H2 9927   0.713   3.400   2.411
 3330TIP3   OH2 9928   0.220   3.042   4.284
 3330TIP3    H1 9929   0.225   2.962   4.227
 3330TIP3    H2 9930   0.176   3.106   4.224
 3331TIP3   OH2 9931   0.225   2.831   4.087
 3331TIP3    H1 9932   0.254   2.866   4.001
 3331TIP3    H2 9933   0.132   2.806   4.069
 3332TIP3   OH2 9934   0.247   3.361   3.965
 3332TIP3    H1 9935   0.332   3.364   3.919
 3332TIP3    H2 9936   0.193   3.424   3.912
 3333TIP3   OH2 9937   0.827   3.330   4.333
 3333TIP3    H1 9938   0.882   3.254   4.355
 3333TIP3    H2 9939   0.891   3.400   4.316
 3334TIP3   OH2 9940   0.881   3.567   4.064
 3334TIP3    H1 9941   0.817   3.626   4.018
 3334TIP3    H2 9942   0.966   3.599   4.029
 3335TIP3   OH2 9943   0.092   3.164   4.509
 3335TIP3    H1 9944   0.038   3.083   4.521
 3335TIP3    H2 9945   0.133   3.146   4.422
 3336TIP3   OH2 9946   0.346   2.582   4.162
 3336TIP3    H1 9947   0.312   2.668   4.133
 3336TIP3    H2 9948   0.271   2.522   4.145
 3337TIP3   OH2 9949   0.486   3.092   4.369
 3337TIP3    H1 9950   0.481   3.086   4.466
 3337TIP3    H2 9951   0.395   3.066   4.345
 3338TIP3   OH2 9952   0.721   3.033   4.221
 3338TIP3    H1 9953   0.646   3.044   4.283
 3338TIP3    H2 9954   0.795   3.012   4.281
 3339TIP3   OH2 9955   0.957   2.991   4.374
 3339TIP3    H1 9956   0.968   2.895   4.393
 3339TIP3    H2 9957   0.946   3.029   4.464
 3340TIP3   OH2 9958  -0.041   2.934   4.568
 3340TIP3    H1 9959  -0.047   2.843   4.532
 3340TIP3    H2 9960  -0.004   2.916   4.656
 3341TIP3   OH2 9961   0.448   2.598   4.415
 3341TIP3    H1 9962   0.517   2.528   4.407
 3341TIP3    H2 9963   0.414   2.597   4.323
 3342TIP3   OH2 9964   0.514   2.810   4.576
 3342TIP3    H1 9965   0.495   2.740   4.509
 3342TIP3    H2 9966   0.438   2.870   4.565
 3343TIP3   OH2 9967  -0.261   4.033   2.668
 3343TIP3    H1 9968  -0.165   4.035   2.651
 3343TIP3    H2 9969  -0.292   4.092   2.597
 3344TIP3   OH2 9970   0.996   4.286   3.285
 3344TIP3    H1 9971   1.035   4.321   3.366
 3344TIP3    H2 9972   1.064   4.309   3.218
 3345TIP3   OH2 9973   1.027   4.311   3.576
 3345TIP3    H1 9974   0.980   4.225   3.565
 3345TIP3    H2 9975   1.099   4.282   3.635
 3346TIP3   OH2 9976   1.067   3.985   4.145
 3346TIP3    H1 9977   0.996   3.993   4.211
 3346TIP3    H2 9978   1.110   4.073   4.149
 3347TIP3   OH2 9979   0.885   3.500   2.765
 3347TIP3    H1 9980   0.953   3.564   2.734
 3347TIP3    H2 9981   0.931   3.461   2.843
 3348TIP3   OH2 9982   1.014   3.366   2.968
 3348TIP3    H1 9983   0.948   3.325   3.028
 3348TIP3    H2 9984   1.079   3.403   3.031
 3349TIP3   OH2 9985   1.067   3.750   3.403
 3349TIP3    H1 9986   1.120   3.686   3.353
 3349TIP3    H2 9987   1.077   3.831   3.350
 3350TIP3   OH2 9988   0.899   4.061   3.592
 3350TIP3    H1 9989   0.827   4.097   3.646
 3350TIP3    H2 9990   0.851   4.011   3.522
 3351TIP3   OH2 9991   0.952   3.275   2.615
 3351TIP3    H1 9992   0.880   3.274   2.548
 3351TIP3    H2 9993   0.924   3.351   2.668
 3352TIP3   OH2 9994   0.815   2.951   2.571
 3352TIP3    H1 9995   0.778   2.976   2.486
 3352TIP3    H2 9996   0.797   2.854   2.569
 3353TIP3   OH2 9997   0.825   3.223   3.113
 3353TIP3    H1 9998   0.838   3.128   3.107
 3353TIP3    H2 9999   0.812   3.236   3.210
 3354TIP3   OH210000   1.123   3.651   3.968
 3354TIP3    H110001   1.193   3.582   3.959
 3354TIP3    H210002   1.154   3.720   3.907
 3355TIP3   OH210003   1.306   3.451   3.977
 3355TIP3    H110004   1.230   3.403   4.019
 3355TIP3    H210005   1.377   3.387   3.995
 3356TIP3   OH210006   0.767   2.687   2.562
 3356TIP3    H110007   0.837   2.640   2.611
 3356TIP3    H210008   0.691   2.625   2.564
 3357TIP3   OH210009   0.822   2.938   3.003
 3357TIP3    H110010   0.864   2.850   3.018
 3357TIP3    H210011   0.881   2.972   2.933
 3358TIP3   OH210012   0.986   3.102   3.509
 3358TIP3    H110013   1.070   3.128   3.464
 3358TIP3    H210014   0.996   3.153   3.592
 3359TIP3   OH210015   1.053   3.254   3.732
 3359TIP3    H110016   0.978   3.287   3.787
 3359TIP3    H210017   1.085   3.337   3.692
 3360TIP3   OH210018  -0.314   2.883   4.602
 3360TIP3    H110019  -0.237   2.934   4.568
 3360TIP3    H210020  -0.387   2.948   4.595
 3361TIP3   OH210021   1.504   2.847   4.291
 3361TIP3    H110022   1.566   2.784   4.249
 3361TIP3    H210023   1.477   2.902   4.214
 3362TIP3   OH210024   0.931   2.691   3.046
 3362TIP3    H110025   0.987   2.675   3.123
 3362TIP3    H210026   0.874   2.611   3.045
 3363TIP3   OH210027  -0.355   2.677   3.870
 3363TIP3    H110028  -0.293   2.601   3.877
 3363TIP3    H210029  -0.291   2.750   3.856
 3364TIP3   OH210030   1.378   2.986   4.095
 3364TIP3    H110031   1.295   3.029   4.126
 3364TIP3    H210032   1.340   2.916   4.039
 3365TIP3   OH210033   1.016   2.620   2.685
 3365TIP3    H110034   1.049   2.550   2.624
 3365TIP3    H210035   1.082   2.690   2.672
 3366TIP3   OH210036   0.574   4.172   2.963
 3366TIP3    H110037   0.597   4.146   2.870
 3366TIP3    H210038   0.659   4.211   2.987
 3367TIP3   OH210039  -0.368   2.534   4.266
 3367TIP3    H110040  -0.401   2.533   4.357
 3367TIP3    H210041  -0.429   2.596   4.223
 3368TIP3   OH210042  -0.144   4.022   3.883
 3368TIP3    H110043  -0.143   4.078   3.804
 3368TIP3    H210044  -0.051   3.993   3.881
 3369TIP3   OH210045   0.299   4.240   4.015
 3369TIP3    H110046   0.339   4.232   4.105
 3369TIP3    H210047   0.369   4.290   3.968
 3370TIP3   OH210048   0.481   4.392   3.873
 3370TIP3    H110049   0.550   4.338   3.833
 3370TIP3    H210050   0.534   4.446   3.936
 3371TIP3   OH210051   1.281   2.745   3.970
 3371TIP3    H110052   1.188   2.724   3.948
 3371TIP3    H210053   1.318   2.654   3.965
 3372TIP3   OH210054  -0.224   4.268   3.690
 3372TIP3    H110055  -0.268   4.285   3.775
 3372TIP3    H210056  -0.283   4.204   3.647
 3373TIP3   OH210057   0.198   4.256   3.562
 3373TIP3    H110058   0.147   4.280   3.484
 3373TIP3    H210059   0.215   4.343   3.604
 3374TIP3   OH210060   0.468   4.196   3.612
 3374TIP3    H110061   0.374   4.211   3.589
 3374TIP3    H210062   0.513   4.267   3.564
 3375TIP3   OH210063   0.669   4.387   3.523
 3375TIP3    H110064   0.657   4.470   3.472
 3375TIP3    H210065   0.698   4.325   3.452
 3376TIP3   OH210066  -0.356   3.919   3.502
 3376TIP3    H110067  -0.351   3.828   3.539
 3376TIP3    H210068  -0.261   3.942   3.500
 3377TIP3   OH210069  -0.081   4.012   3.513
 3377TIP3    H110070  -0.056   3.918   3.496
 3377TIP3    H210071  -0.025   4.026   3.592
 3378TIP3   OH210072   0.459   2.653   3.566
 3378TIP3    H110073   0.429   2.596   3.640
 3378TIP3    H210074   0.549   2.618   3.550
 3379TIP3   OH210075  -0.285   2.367   3.598
 3379TIP3    H110076  -0.360   2.310   3.621
 3379TIP3    H210077  -0.214   2.298   3.597
 3380TIP3   OH210078   0.167   2.417   3.490
 3380TIP3    H110079   0.229   2.460   3.430
 3380TIP3    H210080   0.207   2.439   3.577
 3381TIP3   OH210081   0.708   2.559   3.474
 3381TIP3    H110082   0.724   2.510   3.392
 3381TIP3    H210083   0.702   2.484   3.538
 3382TIP3   OH210084   0.751   2.474   3.044
 3382TIP3    H110085   0.660   2.505   3.045
 3382TIP3    H210086   0.741   2.387   3.088
 3383TIP3   OH210087   0.160   2.583   3.110
 3383TIP3    H110088   0.209   2.530   3.175
 3383TIP3    H210089   0.174   2.672   3.150
 3384TIP3   OH210090   0.009   4.000   2.623
 3384TIP3    H110091   0.098   4.022   2.587
 3384TIP3    H210092  -0.014   3.926   2.562
 3385TIP3   OH210093   0.658   4.108   2.719
 3385TIP3    H110094   0.678   4.014   2.702
 3385TIP3    H210095   0.682   4.148   2.634
 3386TIP3   OH210096  -0.063   2.657   4.494
 3386TIP3    H110097  -0.100   2.586   4.551
 3386TIP3    H210098   0.030   2.655   4.527
 3387TIP3   OH210099   0.184   2.653   4.622
 3387TIP3    H110100   0.269   2.633   4.579
 3387TIP3    H210101   0.176   2.579   4.685
 3388TIP3   OH210102   1.018   2.722   4.413
 3388TIP3    H110103   1.033   2.689   4.504
 3388TIP3    H210104   1.106   2.712   4.373
 3389TIP3   OH210105   0.951   4.267   3.898
 3389TIP3    H110106   0.872   4.235   3.850
 3389TIP3    H210107   0.930   4.361   3.908
 3390TIP3   OH210108   2.218   3.639   2.664
 3390TIP3    H110109   2.188   3.729   2.644
 3390TIP3    H210110   2.142   3.587   2.633
 3391TIP3   OH210111   2.217   3.638   3.050
 3391TIP3    H110112   2.251   3.611   3.138
 3391TIP3    H210113   2.175   3.556   3.020
 3392TIP3   OH210114   1.515   3.531   3.412
 3392TIP3    H110115   1.544   3.462   3.475
 3392TIP3    H210116   1.593   3.588   3.410
 3393TIP3   OH210117   2.461   3.941   2.731
 3393TIP3    H110118   2.444   3.871   2.796
 3393TIP3    H210119   2.491   4.015   2.787
 3394TIP3   OH210120   1.488   3.943   3.135
 3394TIP3    H110121   1.478   3.845   3.137
 3394TIP3    H210122   1.585   3.951   3.134
 3395TIP3   OH210123   1.195   3.148   2.919
 3395TIP3    H110124   1.143   3.229   2.935
 3395TIP3    H210125   1.126   3.090   2.881
 3396TIP3   OH210126   1.251   3.432   3.097
 3396TIP3    H110127   1.300   3.354   3.131
 3396TIP3    H210128   1.309   3.462   3.026
 3397TIP3   OH210129   2.110   4.401   2.749
 3397TIP3    H110130   2.154   4.331   2.696
 3397TIP3    H210131   2.106   4.360   2.836
 3398TIP3   OH210132   2.014   3.865   3.096
 3398TIP3    H110133   2.053   3.787   3.052
 3398TIP3    H210134   2.098   3.910   3.121
 3399TIP3   OH210135   3.030   3.184   3.095
 3399TIP3    H110136   3.059   3.266   3.139
 3399TIP3    H210137   3.049   3.204   3.002
 3400TIP3   OH210138   2.429   3.365   3.126
 3400TIP3    H110139   2.470   3.279   3.148
 3400TIP3    H210140   2.396   3.347   3.036
 3401TIP3   OH210141   1.768   3.024   3.092
 3401TIP3    H110142   1.746   3.096   3.030
 3401TIP3    H210143   1.721   2.950   3.049
 3402TIP3   OH210144   2.461   3.115   2.714
 3402TIP3    H110145   2.532   3.099   2.781
 3402TIP3    H210146   2.514   3.151   2.641
 3403TIP3   OH210147   1.397   3.225   3.201
 3403TIP3    H110148   1.481   3.206   3.248
 3403TIP3    H210149   1.409   3.169   3.122
 3404TIP3   OH210150   1.839   3.423   2.994
 3404TIP3    H110151   1.933   3.398   3.007
 3404TIP3    H210152   1.800   3.339   2.962
 3405TIP3   OH210153   3.103   3.393   3.263
 3405TIP3    H110154   3.018   3.438   3.245
 3405TIP3    H210155   3.118   3.418   3.355
 3406TIP3   OH210156   1.762   3.006   3.527
 3406TIP3    H110157   1.702   3.044   3.460
 3406TIP3    H210158   1.710   3.024   3.609
 3407TIP3   OH210159   2.109   3.859   2.534
 3407TIP3    H110160   2.064   3.839   2.450
 3407TIP3    H210161   2.062   3.941   2.561
 3408TIP3   OH210162   1.869   3.784   3.321
 3408TIP3    H110163   1.807   3.850   3.359
 3408TIP3    H210164   1.910   3.834   3.248
 3409TIP3   OH210165   2.669   3.119   2.890
 3409TIP3    H110166   2.651   3.074   2.973
 3409TIP3    H210167   2.719   3.197   2.919
 3410TIP3   OH210168   1.632   3.121   3.311
 3410TIP3    H110169   1.694   3.194   3.335
 3410TIP3    H210170   1.681   3.081   3.236
 3411TIP3   OH210171   1.696   3.978   3.421
 3411TIP3    H110172   1.670   4.065   3.385
 3411TIP3    H210173   1.618   3.960   3.477
 3412TIP3   OH210174   1.087   3.667   2.656
 3412TIP3    H110175   1.047   3.697   2.573
 3412TIP3    H210176   1.113   3.752   2.697
 3413TIP3   OH210177   2.529   4.184   2.896
 3413TIP3    H110178   2.439   4.175   2.936
 3413TIP3    H210179   2.520   4.271   2.851
 3414TIP3   OH210180   2.822   3.082   3.260
 3414TIP3    H110181   2.734   3.110   3.229
 3414TIP3    H210182   2.881   3.115   3.189
 3415TIP3   OH210183   2.116   2.725   3.243
 3415TIP3    H110184   2.102   2.630   3.260
 3415TIP3    H210185   2.039   2.764   3.290
 3416TIP3   OH210186   2.228   4.230   2.567
 3416TIP3    H110187   2.278   4.147   2.550
 3416TIP3    H210188   2.291   4.295   2.528
 3417TIP3   OH210189   2.373   4.015   2.480
 3417TIP3    H110190   2.332   3.936   2.444
 3417TIP3    H210191   2.411   3.981   2.564
 3418TIP3   OH210192   2.755   4.095   3.240
 3418TIP3    H110193   2.743   4.017   3.181
 3418TIP3    H210194   2.738   4.169   3.178
 3419TIP3   OH210195   2.048   3.490   2.499
 3419TIP3    H110196   1.967   3.541   2.479
 3419TIP3    H210197   2.091   3.486   2.412
 3420TIP3   OH210198   2.004   3.276   2.215
 3420TIP3    H110199   2.074   3.327   2.261
 3420TIP3    H210200   2.060   3.212   2.165
 3421TIP3   OH210201   2.951   3.733   3.085
 3421TIP3    H110202   2.867   3.784   3.090
 3421TIP3    H210203   2.981   3.758   2.995
 3422TIP3   OH210204   2.396   3.573   2.468
 3422TIP3    H110205   2.341   3.596   2.546
 3422TIP3    H210206   2.480   3.548   2.513
 3423TIP3   OH210207   2.630   3.610   3.383
 3423TIP3    H110208   2.626   3.693   3.435
 3423TIP3    H210209   2.543   3.614   3.338
 3424TIP3   OH210210   1.628   3.569   2.886
 3424TIP3    H110211   1.585   3.511   2.819
 3424TIP3    H210212   1.704   3.514   2.915
 3425TIP3   OH210213   1.761   3.988   3.030
 3425TIP3    H110214   1.736   3.943   2.948
 3425TIP3    H210215   1.849   3.949   3.049
 3426TIP3   OH210216   1.766   3.539   3.241
 3426TIP3    H110217   1.797   3.517   3.151
 3426TIP3    H210218   1.808   3.626   3.258
 3427TIP3   OH210219   2.288   4.178   3.017
 3427TIP3    H110220   2.277   4.257   3.073
 3427TIP3    H210221   2.273   4.104   3.080
 3428TIP3   OH210222   1.902   4.097   3.564
 3428TIP3    H110223   1.842   4.158   3.611
 3428TIP3    H210224   1.837   4.044   3.514
 3429TIP3   OH210225   2.236   3.428   2.296
 3429TIP3    H110226   2.294   3.490   2.347
 3429TIP3    H210227   2.263   3.450   2.203
 3430TIP3   OH210228   1.656   3.652   3.666
 3430TIP3    H110229   1.661   3.739   3.710
 3430TIP3    H210230   1.562   3.631   3.681
 3431TIP3   OH210231   1.980   4.106   2.574
 3431TIP3    H110232   2.062   4.159   2.583
 3431TIP3    H210233   1.920   4.166   2.528
 3432TIP3   OH210234   1.695   4.264   3.653
 3432TIP3    H110235   1.660   4.262   3.562
 3432TIP3    H210236   1.616   4.242   3.707
 3433TIP3   OH210237   2.750   2.670   2.344
 3433TIP3    H110238   2.669   2.688   2.396
 3433TIP3    H210239   2.762   2.755   2.297
 3434TIP3   OH210240   1.493   3.413   2.691
 3434TIP3    H110241   1.425   3.457   2.636
 3434TIP3    H210242   1.456   3.325   2.702
 3435TIP3   OH210243   2.551   4.037   1.893
 3435TIP3    H110244   2.559   4.134   1.878
 3435TIP3    H210245   2.644   4.008   1.880
 3436TIP3   OH210246   1.275   3.796   3.598
 3436TIP3    H110247   1.209   3.774   3.529
 3436TIP3    H210248   1.313   3.709   3.621
 3437TIP3   OH210249   1.136   3.974   3.265
 3437TIP3    H110250   1.213   3.982   3.207
 3437TIP3    H210251   1.104   4.065   3.270
 3438TIP3   OH210252   2.993   4.441   3.288
 3438TIP3    H110253   2.992   4.344   3.302
 3438TIP3    H210254   2.909   4.466   3.333
 3439TIP3   OH210255   2.097   4.227   3.420
 3439TIP3    H110256   2.095   4.319   3.454
 3439TIP3    H210257   2.026   4.186   3.475
 3440TIP3   OH210258   1.853   4.354   2.375
 3440TIP3    H110259   1.814   4.328   2.289
 3440TIP3    H210260   1.830   4.448   2.382
 3441TIP3   OH210261   1.310   4.216   2.753
 3441TIP3    H110262   1.342   4.187   2.842
 3441TIP3    H210263   1.214   4.197   2.761
 3442TIP3   OH210264   2.061   4.257   2.013
 3442TIP3    H110265   2.120   4.187   1.976
 3442TIP3    H210266   2.096   4.265   2.104
 3443TIP3   OH210267   2.108   4.306   2.285
 3443TIP3    H110268   2.021   4.310   2.329
 3443TIP3    H210269   2.162   4.264   2.354
 3444TIP3   OH210270   2.884   3.571   3.561
 3444TIP3    H110271   2.799   3.581   3.515
 3444TIP3    H210272   2.899   3.475   3.554
 3445TIP3   OH210273   1.479   3.980   3.587
 3445TIP3    H110274   1.529   3.961   3.669
 3445TIP3    H210275   1.405   3.916   3.593
 3446TIP3   OH210276   1.879   2.802   3.372
 3446TIP3    H110277   1.790   2.771   3.344
 3446TIP3    H210278   1.852   2.883   3.420
 3447TIP3   OH210279   2.413   2.916   3.566
 3447TIP3    H110280   2.482   2.890   3.630
 3447TIP3    H210281   2.330   2.897   3.614
 3448TIP3   OH210282   2.651   3.347   3.485
 3448TIP3    H110283   2.601   3.343   3.570
 3448TIP3    H210284   2.626   3.435   3.450
 3449TIP3   OH210285   2.315   3.471   2.041
 3449TIP3    H110286   2.277   3.450   1.954
 3449TIP3    H210287   2.395   3.522   2.015
 3450TIP3   OH210288   2.029   2.847   2.345
 3450TIP3    H110289   1.992   2.844   2.435
 3450TIP3    H210290   1.985   2.768   2.307
 3451TIP3   OH210291   1.810   3.317   3.390
 3451TIP3    H110292   1.760   3.338   3.471
 3451TIP3    H210293   1.795   3.398   3.337
 3452TIP3   OH210294   1.694   3.204   2.904
 3452TIP3    H110295   1.601   3.177   2.922
 3452TIP3    H210296   1.706   3.164   2.815
 3453TIP3   OH210297   2.186   3.291   2.633
 3453TIP3    H110298   2.133   3.362   2.590
 3453TIP3    H210299   2.239   3.257   2.559
 3454TIP3   OH210300   2.360   3.567   3.716
 3454TIP3    H110301   2.337   3.494   3.779
 3454TIP3    H210302   2.454   3.580   3.739
 3455TIP3   OH210303   2.342   3.317   2.869
 3455TIP3    H110304   2.279   3.345   2.799
 3455TIP3    H210305   2.376   3.236   2.826
 3456TIP3   OH210306   1.630   3.346   3.599
 3456TIP3    H110307   1.656   3.410   3.666
 3456TIP3    H210308   1.621   3.264   3.651
 3457TIP3   OH210309   1.685   2.828   2.308
 3457TIP3    H110310   1.670   2.823   2.404
 3457TIP3    H210311   1.604   2.875   2.279
 3458TIP3   OH210312   1.214   2.875   3.178
 3458TIP3    H110313   1.294   2.892   3.232
 3458TIP3    H210314   1.245   2.817   3.107
 3459TIP3   OH210315   1.194   2.851   2.700
 3459TIP3    H110316   1.237   2.888   2.620
 3459TIP3    H210317   1.131   2.923   2.719
 3460TIP3   OH210318   2.352   3.563   3.292
 3460TIP3    H110319   2.386   3.492   3.233
 3460TIP3    H210320   2.323   3.509   3.368
 3461TIP3   OH210321   2.025   3.026   2.964
 3461TIP3    H110322   1.942   3.025   3.016
 3461TIP3    H210323   2.092   3.022   3.034
 3462TIP3   OH210324   1.456   3.083   2.972
 3462TIP3    H110325   1.361   3.091   2.946
 3462TIP3    H210326   1.475   2.990   2.952
 3463TIP3   OH210327   1.723   3.079   2.662
 3463TIP3    H110328   1.816   3.093   2.637
 3463TIP3    H210329   1.674   3.100   2.579
 3464TIP3   OH210330   2.513   3.102   3.165
 3464TIP3    H110331   2.483   3.114   3.258
 3464TIP3    H210332   2.445   3.041   3.132
 3465TIP3   OH210333   1.569   3.114   2.441
 3465TIP3    H110334   1.498   3.066   2.395
 3465TIP3    H210335   1.620   3.148   2.364
 3466TIP3   OH210336   2.686   4.791   3.387
 3466TIP3    H110337   2.684   4.815   3.293
 3466TIP3    H210338   2.766   4.838   3.418
 3467TIP3   OH210339   1.642   3.901   3.806
 3467TIP3    H110340   1.721   3.931   3.855
 3467TIP3    H210341   1.577   3.897   3.879
 3468TIP3   OH210342   2.104   3.356   3.063
 3468TIP3    H110343   2.176   3.314   3.015
 3468TIP3    H210344   2.109   3.312   3.151
 3469TIP3   OH210345   1.629   2.840   2.944
 3469TIP3    H110346   1.590   2.763   2.991
 3469TIP3    H210347   1.668   2.798   2.866
 3470TIP3   OH210348   2.081   3.255   3.349
 3470TIP3    H110349   1.991   3.288   3.366
 3470TIP3    H210350   2.137   3.315   3.402
 3471TIP3   OH210351   1.818   3.642   2.447
 3471TIP3    H110352   1.746   3.575   2.436
 3471TIP3    H210353   1.798   3.675   2.538
 3472TIP3   OH210354   2.717   3.878   3.075
 3472TIP3    H110355   2.741   3.928   2.994
 3472TIP3    H210356   2.632   3.835   3.049
 3473TIP3   OH210357   2.274   2.956   2.303
 3473TIP3    H110358   2.179   2.933   2.318
 3473TIP3    H210359   2.280   3.048   2.335
 3474TIP3   OH210360   2.219   3.962   3.443
 3474TIP3    H110361   2.243   3.938   3.533
 3474TIP3    H210362   2.177   4.049   3.454
 3475TIP3   OH210363   2.344   3.200   2.415
 3475TIP3    H110364   2.440   3.208   2.431
 3475TIP3    H210365   2.324   3.282   2.364
 3476TIP3   OH210366   1.513   3.667   3.122
 3476TIP3    H110367   1.550   3.636   3.037
 3476TIP3    H210368   1.551   3.603   3.185
 3477TIP3   OH210369   1.963   3.791   2.271
 3477TIP3    H110370   1.916   3.877   2.276
 3477TIP3    H210371   1.908   3.736   2.330
 3478TIP3   OH210372   1.393   3.583   3.735
 3478TIP3    H110373   1.410   3.569   3.830
 3478TIP3    H210374   1.322   3.519   3.719
 3479TIP3   OH210375   2.118   3.701   3.754
 3479TIP3    H110376   2.057   3.639   3.710
 3479TIP3    H210377   2.205   3.664   3.727
 3480TIP3   OH210378   2.376   4.225   3.337
 3480TIP3    H110379   2.280   4.219   3.352
 3480TIP3    H210380   2.404   4.274   3.417
 3481TIP3   OH210381   2.787   3.293   2.248
 3481TIP3    H110382   2.726   3.248   2.186
 3481TIP3    H210383   2.782   3.383   2.209
 3482TIP3   OH210384   3.006   4.151   3.329
 3482TIP3    H110385   2.908   4.145   3.321
 3482TIP3    H210386   3.032   4.121   3.239
 3483TIP3   OH210387   2.488   4.111   2.158
 3483TIP3    H110388   2.461   4.040   2.218
 3483TIP3    H210389   2.500   4.064   2.073
 3484TIP3   OH210390   2.483   3.741   2.991
 3484TIP3    H110391   2.390   3.716   3.006
 3484TIP3    H210392   2.517   3.660   2.948
 3485TIP3   OH210393   1.610   3.966   2.750
 3485TIP3    H110394   1.604   4.043   2.690
 3485TIP3    H210395   1.517   3.945   2.764
 3486TIP3   OH210396   1.177   3.272   2.454
 3486TIP3    H110397   1.220   3.357   2.475
 3486TIP3    H210398   1.099   3.276   2.514
 3487TIP3   OH210399   1.748   3.733   2.691
 3487TIP3    H110400   1.712   3.822   2.711
 3487TIP3    H210401   1.712   3.681   2.765
 3488TIP3   OH210402   1.881   4.312   3.216
 3488TIP3    H110403   1.927   4.383   3.167
 3488TIP3    H210404   1.955   4.273   3.265
 3489TIP3   OH210405   1.529   4.196   2.596
 3489TIP3    H110406   1.442   4.193   2.643
 3489TIP3    H210407   1.552   4.288   2.606
 3490TIP3   OH210408   2.268   3.946   3.175
 3490TIP3    H110409   2.257   3.945   3.273
 3490TIP3    H210410   2.346   3.891   3.164
 3491TIP3   OH210411   2.244   3.841   2.058
 3491TIP3    H110412   2.297   3.815   2.137
 3491TIP3    H210413   2.156   3.811   2.084
 3492TIP3   OH210414   2.517   4.478   3.227
 3492TIP3    H110415   2.439   4.420   3.223
 3492TIP3    H210416   2.499   4.541   3.154
 3493TIP3   OH210417   2.583   4.312   1.878
 3493TIP3    H110418   2.621   4.385   1.825
 3493TIP3    H210419   2.503   4.357   1.911
 3494TIP3   OH210420   1.604   3.086   3.744
 3494TIP3    H110421   1.510   3.094   3.767
 3494TIP3    H210422   1.638   3.034   3.819
 3495TIP3   OH210423   2.405   3.772   2.273
 3495TIP3    H110424   2.394   3.707   2.345
 3495TIP3    H210425   2.502   3.769   2.262
 3496TIP3   OH210426   1.328   4.186   3.377
 3496TIP3    H110427   1.354   4.095   3.396
 3496TIP3    H210428   1.360   4.231   3.457
 3497TIP3   OH210429   1.608   3.819   2.058
 3497TIP3    H110430   1.621   3.727   2.029
 3497TIP3    H210431   1.588   3.807   2.153
 3498TIP3   OH210432   1.554   3.823   2.329
 3498TIP3    H110433   1.624   3.794   2.389
 3498TIP3    H210434   1.559   3.921   2.337
 3499TIP3   OH210435   1.288   3.519   2.536
 3499TIP3    H110436   1.221   3.563   2.593
 3499TIP3    H210437   1.299   3.587   2.467
 3500TIP3   OH210438   2.443   3.152   3.425
 3500TIP3    H110439   2.520   3.192   3.468
 3500TIP3    H210440   2.427   3.072   3.479
 3501TIP3   OH210441   2.323   2.903   2.592
 3501TIP3    H110442   2.306   2.928   2.499
 3501TIP3    H210443   2.361   2.985   2.629
 3502TIP3   OH210444   1.824   4.023   2.281
 3502TIP3    H110445   1.736   4.047   2.315
 3502TIP3    H210446   1.834   4.087   2.210
 3503TIP3   OH210447   2.010   3.085   2.694
 3503TIP3    H110448   2.072   3.159   2.678
 3503TIP3    H210449   2.013   3.077   2.791
 3504TIP3   OH210450   2.279   3.403   3.500
 3504TIP3    H110451   2.301   3.457   3.579
 3504TIP3    H210452   2.332   3.323   3.515
 3505TIP3   OH210453   2.152   2.809   2.795
 3505TIP3    H110454   2.143   2.887   2.853
 3505TIP3    H210455   2.213   2.843   2.727
 3506TIP3   OH210456   1.568   4.095   2.343
 3506TIP3    H110457   1.535   4.166   2.283
 3506TIP3    H210458   1.548   4.134   2.431
 3507TIP3   OH210459   1.665   2.811   2.585
 3507TIP3    H110460   1.661   2.901   2.622
 3507TIP3    H210461   1.761   2.794   2.592
 3508TIP3   OH210462   2.917   3.303   3.480
 3508TIP3    H110463   2.820   3.303   3.491
 3508TIP3    H210464   2.925   3.258   3.395
 3509TIP3   OH210465   2.569   3.498   2.869
 3509TIP3    H110466   2.492   3.439   2.882
 3509TIP3    H210467   2.640   3.450   2.918
 3510TIP3   OH210468   1.281   3.723   2.338
 3510TIP3    H110469   1.347   3.793   2.348
 3510TIP3    H210470   1.327   3.667   2.272
 3511TIP3   OH210471   1.226   3.001   2.475
 3511TIP3    H110472   1.220   3.099   2.470
 3511TIP3    H210473   1.153   2.973   2.418
 3512TIP3   OH210474   2.537   4.456   2.818
 3512TIP3    H110475   2.495   4.503   2.743
 3512TIP3    H210476   2.632   4.475   2.797
 3513TIP3   OH210477   1.614   2.720   3.346
 3513TIP3    H110478   1.583   2.687   3.258
 3513TIP3    H210479   1.600   2.642   3.403
 3514TIP3   OH210480   1.138   3.927   2.728
 3514TIP3    H110481   1.089   3.988   2.786
 3514TIP3    H210482   1.124   3.971   2.642
 3515TIP3   OH210483   1.312   4.488   3.795
 3515TIP3    H110484   1.397   4.487   3.845
 3515TIP3    H210485   1.290   4.393   3.797
 3516TIP3   OH210486   1.791   4.448   3.839
 3516TIP3    H110487   1.884   4.424   3.848
 3516TIP3    H210488   1.763   4.386   3.768
 3517TIP3   OH210489   1.773   4.022   1.973
 3517TIP3    H110490   1.716   3.950   2.008
 3517TIP3    H210491   1.847   3.971   1.937
 3518TIP3   OH210492   2.430   4.355   3.573
 3518TIP3    H110493   2.420   4.284   3.641
 3518TIP3    H210494   2.507   4.404   3.607
 3519TIP3   OH210495   2.208   4.063   1.883
 3519TIP3    H110496   2.250   3.997   1.942
 3519TIP3    H210497   2.264   4.059   1.804
 3520TIP3   OH210498   1.441   3.891   3.996
 3520TIP3    H110499   1.456   3.795   4.007
 3520TIP3    H210500   1.353   3.893   3.954
 3521TIP3   OH210501   1.419   3.539   2.192
 3521TIP3    H110502   1.473   3.504   2.265
 3521TIP3    H210503   1.486   3.543   2.120
 3522TIP3   OH210504   2.048   3.975   3.771
 3522TIP3    H110505   2.005   3.992   3.685
 3522TIP3    H210506   2.079   3.882   3.763
 3523TIP3   OH210507   1.932   3.740   2.001
 3523TIP3    H110508   1.932   3.751   2.098
 3523TIP3    H210509   1.932   3.642   1.994
 3524TIP3   OH210510   2.540   3.984   3.379
 3524TIP3    H110511   2.615   4.029   3.335
 3524TIP3    H210512   2.468   4.049   3.364
 3525TIP3   OH210513   1.563   3.627   3.980
 3525TIP3    H110514   1.635   3.567   3.961
 3525TIP3    H210515   1.587   3.658   4.069
 3526TIP3   OH210516   1.627   3.444   2.414
 3526TIP3    H110517   1.596   3.402   2.496
 3526TIP3    H210518   1.662   3.368   2.364
 3527TIP3   OH210519   1.894   3.508   3.642
 3527TIP3    H110520   1.816   3.567   3.642
 3527TIP3    H210521   1.945   3.543   3.565
 3528TIP3   OH210522   1.726   3.239   2.253
 3528TIP3    H110523   1.700   3.243   2.159
 3528TIP3    H210524   1.823   3.242   2.245
 3529TIP3   OH210525   2.413   3.910   3.776
 3529TIP3    H110526   2.490   3.879   3.728
 3529TIP3    H210527   2.407   3.844   3.848
 3530TIP3   OH210528   2.549   3.567   1.918
 3530TIP3    H110529   2.526   3.523   1.834
 3530TIP3    H210530   2.516   3.658   1.898
 3531TIP3   OH210531   2.018   3.297   3.767
 3531TIP3    H110532   2.018   3.218   3.710
 3531TIP3    H210533   1.973   3.364   3.709
 3532TIP3   OH210534   2.020   3.083   3.575
 3532TIP3    H110535   2.048   3.124   3.490
 3532TIP3    H210536   1.927   3.060   3.556
 3533TIP3   OH210537   2.045   3.617   3.449
 3533TIP3    H110538   2.130   3.628   3.403
 3533TIP3    H210539   1.989   3.683   3.402
 3534TIP3   OH210540   2.625   3.583   3.825
 3534TIP3    H110541   2.671   3.502   3.853
 3534TIP3    H210542   2.698   3.639   3.795
 3535TIP3   OH210543   2.670   3.839   3.565
 3535TIP3    H110544   2.612   3.892   3.506
 3535TIP3    H210545   2.758   3.859   3.526
 3536TIP3   OH210546   1.896   3.406   3.999
 3536TIP3    H110547   1.828   3.338   4.016
 3536TIP3    H210548   1.930   3.378   3.912
 3537TIP3   OH210549   2.152   2.845   3.643
 3537TIP3    H110550   2.102   2.927   3.621
 3537TIP3    H210551   2.083   2.777   3.632
 3538TIP3   OH210552   2.279   3.350   3.859
 3538TIP3    H110553   2.268   3.335   3.954
 3538TIP3    H210554   2.188   3.325   3.829
 3539TIP3   OH210555   2.515   3.296   3.712
 3539TIP3    H110556   2.442   3.300   3.776
 3539TIP3    H210557   2.590   3.267   3.768
 3540TIP3   OH210558   2.748   3.237   3.856
 3540TIP3    H110559   2.759   3.142   3.878
 3540TIP3    H210560   2.740   3.278   3.945
 3541TIP3   OH210561   1.734   3.186   4.053
 3541TIP3    H110562   1.741   3.093   4.022
 3541TIP3    H210563   1.772   3.177   4.143
 3542TIP3   OH210564   2.247   2.856   3.901
 3542TIP3    H110565   2.313   2.784   3.895
 3542TIP3    H210566   2.206   2.850   3.812
 3543TIP3   OH210567   2.314   3.072   4.057
 3543TIP3    H110568   2.291   3.000   3.995
 3543TIP3    H210569   2.234   3.130   4.053
 3544TIP3   OH210570   1.537   4.309   2.165
 3544TIP3    H110571   1.631   4.297   2.142
 3544TIP3    H210572   1.505   4.351   2.083
 3545TIP3   OH210573   1.012   3.681   2.371
 3545TIP3    H110574   1.107   3.702   2.360
 3545TIP3    H210575   1.007   3.591   2.332
 3546TIP3   OH210576   2.791   4.547   2.777
 3546TIP3    H110577   2.818   4.577   2.865
 3546TIP3    H210578   2.858   4.586   2.719
 3547TIP3   OH210579   2.820   4.565   3.059
 3547TIP3    H110580   2.775   4.477   3.055
 3547TIP3    H210581   2.895   4.542   3.115
 3548TIP3   OH210582   2.866   4.242   3.632
 3548TIP3    H110583   2.793   4.251   3.697
 3548TIP3    H210584   2.908   4.331   3.637
 3549TIP3   OH210585   2.684   3.753   2.250
 3549TIP3    H110586   2.751   3.818   2.221
 3549TIP3    H210587   2.728   3.715   2.330
 3550TIP3   OH210588   2.811   3.621   2.455
 3550TIP3    H110589   2.745   3.579   2.514
 3550TIP3    H210590   2.876   3.658   2.519
 3551TIP3   OH210591   2.867   4.015   2.887
 3551TIP3    H110592   2.919   3.948   2.839
 3551TIP3    H210593   2.861   4.088   2.821
 3552TIP3   OH210594   2.695   4.315   3.081
 3552TIP3    H110595   2.624   4.356   3.133
 3552TIP3    H210596   2.645   4.268   3.011
 3553TIP3   OH210597   2.748   3.529   2.101
 3553TIP3    H110598   2.677   3.533   2.033
 3553TIP3    H210599   2.721   3.604   2.157
 3554TIP3   OH210600   2.624   3.196   2.053
 3554TIP3    H110601   2.574   3.243   1.985
 3554TIP3    H210602   2.598   3.103   2.036
 3555TIP3   OH210603   2.624   3.479   2.601
 3555TIP3    H110604   2.631   3.383   2.595
 3555TIP3    H210605   2.609   3.493   2.697
 3556TIP3   OH210606   1.250   3.549   3.349
 3556TIP3    H110607   1.248   3.519   3.256
 3556TIP3    H210608   1.348   3.552   3.365
 3557TIP3   OH210609   2.915   3.904   3.459
 3557TIP3    H110610   2.986   3.837   3.448
 3557TIP3    H210611   2.942   3.972   3.395
 3558TIP3   OH210612   3.099   3.707   3.468
 3558TIP3    H110613   3.024   3.657   3.508
 3558TIP3    H210614   3.172   3.643   3.485
 3559TIP3   OH210615   2.567   2.924   2.019
 3559TIP3    H110616   2.636   2.906   2.086
 3559TIP3    H210617   2.488   2.878   2.055
 3560TIP3   OH210618   2.621   3.195   2.495
 3560TIP3    H110619   2.661   3.106   2.510
 3560TIP3    H210620   2.680   3.228   2.425
 3561TIP3   OH210621   2.781   3.366   2.990
 3561TIP3    H110622   2.867   3.391   2.950
 3561TIP3    H210623   2.794   3.404   3.080
 3562TIP3   OH210624   2.851   3.512   3.220
 3562TIP3    H110625   2.775   3.545   3.271
 3562TIP3    H210626   2.884   3.594   3.177
 3563TIP3   OH210627   1.469   3.233   4.008
 3563TIP3    H110628   1.566   3.230   4.021
 3563TIP3    H210629   1.443   3.152   4.057
 3564TIP3   OH210630   3.304   3.105   3.777
 3564TIP3    H110631   3.363   3.039   3.734
 3564TIP3    H210632   3.273   3.158   3.701
 3565TIP3   OH210633   2.731   2.945   2.531
 3565TIP3    H110634   2.777   2.929   2.616
 3565TIP3    H210635   2.669   2.869   2.531
 3566TIP3   OH210636   1.430   2.928   3.359
 3566TIP3    H110637   1.494   2.854   3.364
 3566TIP3    H210638   1.489   3.003   3.347
 3567TIP3   OH210639   1.232   3.199   3.428
 3567TIP3    H110640   1.279   3.198   3.342
 3567TIP3    H210641   1.254   3.287   3.460
 3568TIP3   OH210642   3.173   3.242   3.583
 3568TIP3    H110643   3.089   3.285   3.609
 3568TIP3    H210644   3.138   3.171   3.525
 3569TIP3   OH210645   2.806   2.882   2.163
 3569TIP3    H110646   2.850   2.808   2.117
 3569TIP3    H210647   2.876   2.951   2.163
 3570TIP3   OH210648   1.217   2.713   2.931
 3570TIP3    H110649   1.122   2.704   2.948
 3570TIP3    H210650   1.217   2.769   2.851
 3571TIP3   OH210651   2.372   4.416   2.432
 3571TIP3    H110652   2.423   4.401   2.350
 3571TIP3    H210653   2.431   4.477   2.480
 3572TIP3   OH210654   1.439   2.788   3.744
 3572TIP3    H110655   1.391   2.791   3.829
 3572TIP3    H210656   1.392   2.855   3.691
 3573TIP3   OH210657   1.475   4.219   3.819
 3573TIP3    H110658   1.383   4.191   3.802
 3573TIP3    H210659   1.486   4.195   3.911
 3574TIP3   OH210660   1.656   4.250   3.367
 3574TIP3    H110661   1.603   4.321   3.327
 3574TIP3    H210662   1.741   4.266   3.321
 3575TIP3   OH210663   2.097   4.493   3.503
 3575TIP3    H110664   2.139   4.491   3.592
 3575TIP3    H210665   2.164   4.544   3.452
 3576TIP3   OH210666   2.277   4.646   3.362
 3576TIP3    H110667   2.347   4.593   3.322
 3576TIP3    H210668   2.329   4.703   3.424
 3577TIP3   OH210669   3.073   3.005   3.461
 3577TIP3    H110670   2.982   2.997   3.429
 3577TIP3    H210671   3.104   2.913   3.451
 3578TIP3   OH210672   1.336   4.520   3.386
 3578TIP3    H110673   1.244   4.546   3.365
 3578TIP3    H210674   1.338   4.536   3.481
 3579TIP3   OH210675   1.567   4.490   3.244
 3579TIP3    H110676   1.483   4.502   3.296
 3579TIP3    H210677   1.533   4.500   3.154
 3580TIP3   OH210678   1.995   4.513   3.046
 3580TIP3    H110679   1.922   4.532   2.983
 3580TIP3    H210680   2.006   4.599   3.091
 3581TIP3   OH210681   2.262   4.451   3.098
 3581TIP3    H110682   2.169   4.469   3.077
 3581TIP3    H210683   2.307   4.526   3.055
 3582TIP3   OH210684   2.466   4.642   3.011
 3582TIP3    H110685   2.454   4.726   2.962
 3582TIP3    H210686   2.494   4.581   2.939
 3583TIP3   OH210687   1.249   4.314   3.146
 3583TIP3    H110688   1.281   4.281   3.234
 3583TIP3    H210689   1.302   4.256   3.087
 3584TIP3   OH210690   1.431   4.169   2.996
 3584TIP3    H110691   1.445   4.084   3.045
 3584TIP3    H210692   1.523   4.202   2.991
 3585TIP3   OH210693   1.708   4.269   2.994
 3585TIP3    H110694   1.733   4.175   2.981
 3585TIP3    H210695   1.754   4.284   3.079
 3586TIP3   OH210696   2.278   2.920   3.083
 3586TIP3    H110697   2.234   2.850   3.135
 3586TIP3    H210698   2.350   2.872   3.039
 3587TIP3   OH210699   2.800   2.801   2.985
 3587TIP3    H110700   2.834   2.853   2.910
 3587TIP3    H210701   2.704   2.819   2.980
 3588TIP3   OH210702   2.895   2.901   2.749
 3588TIP3    H110703   2.969   2.849   2.710
 3588TIP3    H210704   2.928   2.992   2.735
 3589TIP3   OH210705   1.523   2.629   3.099
 3589TIP3    H110706   1.429   2.599   3.102
 3589TIP3    H210707   1.569   2.543   3.092
 3590TIP3   OH210708   1.327   2.502   2.750
 3590TIP3    H110709   1.348   2.556   2.672
 3590TIP3    H210710   1.291   2.567   2.812
 3591TIP3   OH210711   1.973   2.659   2.979
 3591TIP3    H110712   2.029   2.709   2.917
 3591TIP3    H210713   1.994   2.700   3.063
 3592TIP3   OH210714   2.517   2.809   2.960
 3592TIP3    H110715   2.515   2.767   2.873
 3592TIP3    H210716   2.504   2.730   3.019
 3593TIP3   OH210717   2.546   2.733   2.525
 3593TIP3    H110718   2.460   2.776   2.541
 3593TIP3    H210719   2.532   2.647   2.570
 3594TIP3   OH210720   1.046   4.066   2.511
 3594TIP3    H110721   0.957   4.047   2.476
 3594TIP3    H210722   1.024   4.128   2.584
 3595TIP3   OH210723   1.430   2.658   2.512
 3595TIP3    H110724   1.473   2.594   2.452
 3595TIP3    H210725   1.506   2.709   2.545
 3596TIP3   OH210726   1.942   2.835   2.607
 3596TIP3    H110727   2.000   2.788   2.668
 3596TIP3    H210728   1.964   2.928   2.633
 3597TIP3   OH210729   1.802   4.259   2.108
 3597TIP3    H110730   1.891   4.280   2.071
 3597TIP3    H210731   1.779   4.184   2.048
 3598TIP3   OH210732   2.520   4.378   2.202
 3598TIP3    H110733   2.513   4.280   2.190
 3598TIP3    H210734   2.476   4.409   2.120
 3599TIP3   OH210735   1.734   2.909   3.985
 3599TIP3    H110736   1.697   2.841   4.044
 3599TIP3    H210737   1.827   2.909   4.015
 3600TIP3   OH210738   1.981   2.905   4.107
 3600TIP3    H110739   2.069   2.880   4.072
 3600TIP3    H210740   1.968   2.838   4.176
 3601TIP3   OH210741   1.107   4.099   2.168
 3601TIP3    H110742   1.098   4.105   2.264
 3601TIP3    H210743   1.194   4.055   2.158
 3602TIP3   OH210744   2.809   2.967   3.895
 3602TIP3    H110745   2.826   2.939   3.987
 3602TIP3    H210746   2.898   2.963   3.856
 3603TIP3   OH210747   2.746   4.521   3.388
 3603TIP3    H110748   2.667   4.490   3.338
 3603TIP3    H210749   2.726   4.617   3.393
 3604TIP3   OH210750   4.014   3.894   2.151
 3604TIP3    H110751   3.985   3.986   2.131
 3604TIP3    H210752   3.936   3.845   2.121
 3605TIP3   OH210753   4.016   3.892   2.535
 3605TIP3    H110754   4.047   3.869   2.625
 3605TIP3    H210755   3.970   3.811   2.508
 3606TIP3   OH210756   3.311   3.787   2.899
 3606TIP3    H110757   3.340   3.718   2.962
 3606TIP3    H210758   3.387   3.846   2.899
 3607TIP3   OH210759   4.258   4.196   2.218
 3607TIP3    H110760   4.240   4.130   2.287
 3607TIP3    H210761   4.286   4.273   2.270
 3608TIP3   OH210762   3.283   4.199   2.623
 3608TIP3    H110763   3.275   4.101   2.624
 3608TIP3    H210764   3.380   4.209   2.618
 3609TIP3   OH210765   2.991   3.401   2.406
 3609TIP3    H110766   2.943   3.484   2.425
 3609TIP3    H210767   2.920   3.348   2.367
 3610TIP3   OH210768   3.048   3.689   2.584
 3610TIP3    H110769   3.097   3.611   2.619
 3610TIP3    H210770   3.109   3.723   2.517
 3611TIP3   OH210771   3.906   4.658   2.233
 3611TIP3    H110772   3.950   4.586   2.183
 3611TIP3    H210773   3.898   4.620   2.321
 3612TIP3   OH210774   3.810   4.120   2.583
 3612TIP3    H110775   3.850   4.045   2.537
 3612TIP3    H210776   3.893   4.167   2.609
 3613TIP3   OH210777   4.831   3.439   2.583
 3613TIP3    H110778   4.856   3.523   2.627
 3613TIP3    H210779   4.839   3.463   2.489
 3614TIP3   OH210780   4.226   3.620   2.614
 3614TIP3    H110781   4.266   3.533   2.634
 3614TIP3    H210782   4.192   3.604   2.524
 3615TIP3   OH210783   3.565   3.280   2.578
 3615TIP3    H110784   3.542   3.353   2.517
 3615TIP3    H210785   3.515   3.207   2.536
 3616TIP3   OH210786   4.258   3.372   2.202
 3616TIP3    H110787   4.330   3.356   2.267
 3616TIP3    H210788   4.310   3.408   2.127
 3617TIP3   OH210789   3.195   3.483   2.687
 3617TIP3    H110790   3.278   3.463   2.736
 3617TIP3    H210791   3.209   3.426   2.608
 3618TIP3   OH210792   3.636   3.680   2.480
 3618TIP3    H110793   3.729   3.655   2.494
 3618TIP3    H210794   3.596   3.596   2.448
 3619TIP3   OH210795   4.899   3.649   2.752
 3619TIP3    H110796   4.815   3.696   2.732
 3619TIP3    H210797   4.919   3.685   2.840
 3620TIP3   OH210798   3.558   3.264   3.015
 3620TIP3    H110799   3.498   3.301   2.948
 3620TIP3    H210800   3.506   3.280   3.096
 3621TIP3   OH210801   3.904   4.116   2.020
 3621TIP3    H110802   3.860   4.100   1.936
 3621TIP3    H210803   3.860   4.198   2.049
 3622TIP3   OH210804   3.664   4.040   2.808
 3622TIP3    H110805   3.603   4.107   2.846
 3622TIP3    H210806   3.706   4.090   2.735
 3623TIP3   OH210807   4.466   3.374   2.378
 3623TIP3    H110808   4.442   3.335   2.463
 3623TIP3    H210809   4.515   3.454   2.405
 3624TIP3   OH210810   3.430   3.379   2.798
 3624TIP3    H110811   3.491   3.452   2.822
 3624TIP3    H210812   3.480   3.339   2.723
 3625TIP3   OH210813   3.493   4.235   2.907
 3625TIP3    H110814   3.468   4.322   2.870
 3625TIP3    H210815   3.414   4.218   2.963
 3626TIP3   OH210816   2.886   3.924   2.143
 3626TIP3    H110817   2.845   3.952   2.059
 3626TIP3    H210818   2.917   4.010   2.179
 3627TIP3   OH210819   4.326   4.440   2.381
 3627TIP3    H110820   4.236   4.431   2.422
 3627TIP3    H210821   4.318   4.527   2.337
 3628TIP3   OH210822   4.619   3.336   2.746
 3628TIP3    H110823   4.531   3.365   2.717
 3628TIP3    H210824   4.676   3.371   2.675
 3629TIP3   OH210825   3.914   2.981   2.732
 3629TIP3    H110826   3.896   2.887   2.748
 3629TIP3    H210827   3.836   3.021   2.778
 3630TIP3   OH210828   4.027   4.484   2.056
 3630TIP3    H110829   4.077   4.402   2.035
 3630TIP3    H210830   4.088   4.550   2.016
 3631TIP3   OH210831   4.172   4.268   1.966
 3631TIP3    H110832   4.126   4.190   1.932
 3631TIP3    H210833   4.209   4.235   2.050
 3632TIP3   OH210834   4.551   4.351   2.727
 3632TIP3    H110835   4.539   4.274   2.667
 3632TIP3    H210836   4.532   4.426   2.667
 3633TIP3   OH210837   3.843   3.744   1.985
 3633TIP3    H110838   3.763   3.797   1.967
 3633TIP3    H210839   3.888   3.745   1.899
 3634TIP3   OH210840   3.802   3.532   1.698
 3634TIP3    H110841   3.867   3.583   1.748
 3634TIP3    H210842   3.861   3.469   1.651
 3635TIP3   OH210843   4.747   3.987   2.571
 3635TIP3    H110844   4.664   4.040   2.577
 3635TIP3    H210845   4.778   4.015   2.482
 3636TIP3   OH210846   4.192   3.827   1.955
 3636TIP3    H110847   4.136   3.852   2.033
 3636TIP3    H210848   4.276   3.804   2.000
 3637TIP3   OH210849   4.426   3.866   2.870
 3637TIP3    H110850   4.424   3.950   2.921
 3637TIP3    H210851   4.339   3.871   2.825
 3638TIP3   OH210852   3.423   3.825   2.373
 3638TIP3    H110853   3.383   3.767   2.305
 3638TIP3    H210854   3.500   3.772   2.403
 3639TIP3   OH210855   3.553   4.237   2.521
 3639TIP3    H110856   3.533   4.199   2.434
 3639TIP3    H210857   3.643   4.202   2.539
 3640TIP3   OH210858   3.562   3.796   2.727
 3640TIP3    H110859   3.594   3.775   2.637
 3640TIP3    H210860   3.603   3.883   2.746
 3641TIP3   OH210861   4.087   4.434   2.505
 3641TIP3    H110862   4.072   4.516   2.556
 3641TIP3    H210863   4.069   4.363   2.569
 3642TIP3   OH210864   3.699   4.353   3.051
 3642TIP3    H110865   3.638   4.415   3.098
 3642TIP3    H210866   3.633   4.300   3.001
 3643TIP3   OH210867   4.032   3.685   1.782
 3643TIP3    H110868   4.090   3.747   1.833
 3643TIP3    H210869   4.058   3.707   1.689
 3644TIP3   OH210870   3.453   3.909   3.153
 3644TIP3    H110871   3.458   3.996   3.197
 3644TIP3    H210872   3.358   3.888   3.168
 3645TIP3   OH210873   3.777   4.363   2.058
 3645TIP3    H110874   3.857   4.417   2.070
 3645TIP3    H210875   3.715   4.426   2.017
 3646TIP3   OH210876   3.492   4.520   3.138
 3646TIP3    H110877   3.457   4.521   3.048
 3646TIP3    H210878   3.412   4.499   3.192
 3647TIP3   OH210879   4.548   2.926   1.832
 3647TIP3    H110880   4.465   2.947   1.881
 3647TIP3    H210881   4.561   3.009   1.782
 3648TIP3   OH210882   3.292   3.668   2.174
 3648TIP3    H110883   3.223   3.713   2.120
 3648TIP3    H210884   3.250   3.583   2.191
 3649TIP3   OH210885   4.346   4.293   1.379
 3649TIP3    H110886   4.354   4.390   1.365
 3649TIP3    H210887   4.439   4.265   1.367
 3650TIP3   OH210888   3.071   4.052   3.085
 3650TIP3    H110889   3.004   4.031   3.017
 3650TIP3    H210890   3.108   3.965   3.108
 3651TIP3   OH210891   2.926   4.246   2.716
 3651TIP3    H110892   3.022   4.239   2.707
 3651TIP3    H210893   2.917   4.324   2.773
 3652TIP3   OH210894   4.790   4.698   2.776
 3652TIP3    H110895   4.788   4.602   2.791
 3652TIP3    H210896   4.707   4.725   2.821
 3653TIP3   OH210897   3.895   4.482   2.908
 3653TIP3    H110898   3.893   4.574   2.941
 3653TIP3    H210899   3.824   4.442   2.963
 3654TIP3   OH210900   3.658   4.610   1.861
 3654TIP3    H110901   3.612   4.594   1.777
 3654TIP3    H210902   3.626   4.699   1.886
 3655TIP3   OH210903   3.094   4.459   2.245
 3655TIP3    H110904   3.142   4.451   2.331
 3655TIP3    H210905   3.041   4.378   2.247
 3656TIP3   OH210906   3.857   4.513   1.499
 3656TIP3    H110907   3.916   4.443   1.463
 3656TIP3    H210908   3.892   4.524   1.590
 3657TIP3   OH210909   3.909   4.561   1.769
 3657TIP3    H110910   3.820   4.571   1.810
 3657TIP3    H210911   3.960   4.525   1.843
 3658TIP3   OH210912   4.680   3.826   3.049
 3658TIP3    H110913   4.595   3.840   3.004
 3658TIP3    H210914   4.692   3.729   3.040
 3659TIP3   OH210915   3.275   4.235   3.072
 3659TIP3    H110916   3.325   4.219   3.155
 3659TIP3    H210917   3.201   4.172   3.080
 3660TIP3   OH210918   3.675   3.059   2.858
 3660TIP3    H110919   3.586   3.028   2.831
 3660TIP3    H210920   3.649   3.140   2.907
 3661TIP3   OH210921   4.208   3.172   3.053
 3661TIP3    H110922   4.275   3.148   3.119
 3661TIP3    H210923   4.123   3.155   3.099
 3662TIP3   OH210924   4.451   3.606   2.974
 3662TIP3    H110925   4.398   3.601   3.057
 3662TIP3    H210926   4.424   3.692   2.937
 3663TIP3   OH210927   4.107   3.727   1.525
 3663TIP3    H110928   4.074   3.706   1.436
 3663TIP3    H210929   4.187   3.779   1.503
 3664TIP3   OH210930   3.821   3.106   1.830
 3664TIP3    H110931   3.786   3.103   1.921
 3664TIP3    H210932   3.780   3.024   1.795
 3665TIP3   OH210933   3.607   3.574   2.877
 3665TIP3    H110934   3.557   3.595   2.958
 3665TIP3    H210935   3.591   3.656   2.824
 3666TIP3   OH210936   3.491   3.460   2.390
 3666TIP3    H110937   3.398   3.435   2.409
 3666TIP3    H210938   3.502   3.419   2.301
 3667TIP3   OH210939   3.981   3.546   2.119
 3667TIP3    H110940   3.929   3.617   2.077
 3667TIP3    H210941   4.035   3.514   2.044
 3668TIP3   OH210942   4.155   3.821   3.201
 3668TIP3    H110943   4.132   3.751   3.266
 3668TIP3    H210944   4.247   3.840   3.226
 3669TIP3   OH210945   4.138   3.573   2.357
 3669TIP3    H110946   4.076   3.605   2.288
 3669TIP3    H210947   4.170   3.493   2.312
 3670TIP3   OH210948   3.426   3.602   3.085
 3670TIP3    H110949   3.452   3.666   3.153
 3670TIP3    H210950   3.414   3.521   3.137
 3671TIP3   OH210951   3.476   3.082   1.795
 3671TIP3    H110952   3.466   3.079   1.892
 3671TIP3    H210953   3.398   3.135   1.770
 3672TIP3   OH210954   3.020   3.124   2.664
 3672TIP3    H110955   3.093   3.157   2.720
 3672TIP3    H210956   3.064   3.092   2.584
 3673TIP3   OH210957   2.987   3.105   2.184
 3673TIP3    H110958   3.034   3.143   2.106
 3673TIP3    H210959   2.927   3.179   2.205
 3674TIP3   OH210960   4.148   3.819   2.778
 3674TIP3    H110961   4.182   3.747   2.720
 3674TIP3    H210962   4.118   3.766   2.855
 3675TIP3   OH210963   3.820   3.279   2.451
 3675TIP3    H110964   3.737   3.280   2.502
 3675TIP3    H210965   3.887   3.282   2.522
 3676TIP3   OH210966   3.253   3.340   2.458
 3676TIP3    H110967   3.158   3.348   2.432
 3676TIP3    H210968   3.274   3.247   2.437
 3677TIP3   OH210969   3.520   3.333   2.149
 3677TIP3    H110970   3.613   3.350   2.126
 3677TIP3    H210971   3.471   3.355   2.066
 3678TIP3   OH210972   4.311   3.356   2.650
 3678TIP3    H110973   4.282   3.370   2.743
 3678TIP3    H210974   4.240   3.297   2.618
 3679TIP3   OH210975   3.366   3.367   1.927
 3679TIP3    H110976   3.294   3.323   1.878
 3679TIP3    H210977   3.417   3.405   1.852
 3680TIP3   OH210978   4.482   5.047   2.874
 3680TIP3    H110979   4.479   5.073   2.780
 3680TIP3    H210980   4.561   5.096   2.905
 3681TIP3   OH210981   3.438   4.158   3.293
 3681TIP3    H110982   3.518   4.187   3.342
 3681TIP3    H210983   3.373   4.155   3.367
 3682TIP3   OH210984   3.900   3.611   2.549
 3682TIP3    H110985   3.975   3.572   2.502
 3682TIP3    H210986   3.906   3.569   2.637
 3683TIP3   OH210987   3.422   3.097   2.431
 3683TIP3    H110988   3.385   3.020   2.479
 3683TIP3    H210989   3.467   3.054   2.358
 3684TIP3   OH210990   3.877   3.511   2.837
 3684TIP3    H110991   3.787   3.545   2.852
 3684TIP3    H210992   3.933   3.573   2.889
 3685TIP3   OH210993   3.615   3.897   1.934
 3685TIP3    H110994   3.542   3.833   1.922
 3685TIP3    H210995   3.595   3.932   2.024
 3686TIP3   OH210996   4.514   4.133   2.561
 3686TIP3    H110997   4.538   4.185   2.481
 3686TIP3    H210998   4.429   4.093   2.536
 3687TIP3   OH210999   4.071   3.210   1.796
 3687TIP3    H111000   3.975   3.191   1.806
 3687TIP3    H211001   4.079   3.304   1.822
 3688TIP3   OH211002   4.012   4.216   2.932
 3688TIP3    H111003   4.040   4.198   3.022
 3688TIP3    H211004   3.974   4.306   2.938
 3689TIP3   OH211005   4.140   3.458   1.901
 3689TIP3    H111006   4.236   3.466   1.916
 3689TIP3    H211007   4.120   3.539   1.850
 3690TIP3   OH211008   3.306   3.921   2.609
 3690TIP3    H111009   3.345   3.891   2.524
 3690TIP3    H211010   3.348   3.861   2.672
 3691TIP3   OH211011   3.759   4.047   1.756
 3691TIP3    H111012   3.711   4.134   1.759
 3691TIP3    H211013   3.704   3.993   1.817
 3692TIP3   OH211014   3.189   3.840   3.222
 3692TIP3    H111015   3.208   3.827   3.318
 3692TIP3    H211016   3.119   3.774   3.207
 3693TIP3   OH211017   3.914   3.957   3.241
 3693TIP3    H111018   3.853   3.896   3.197
 3693TIP3    H211019   4.001   3.922   3.212
 3694TIP3   OH211020   4.173   4.473   2.829
 3694TIP3    H111021   4.076   4.475   2.841
 3694TIP3    H211022   4.202   4.527   2.905
 3695TIP3   OH211023   4.583   3.550   1.734
 3695TIP3    H111024   4.521   3.506   1.672
 3695TIP3    H211025   4.578   3.640   1.695
 3696TIP3   OH211026   4.801   4.406   2.816
 3696TIP3    H111027   4.703   4.401   2.807
 3696TIP3    H211028   4.827   4.377   2.726
 3697TIP3   OH211029   4.286   4.368   1.645
 3697TIP3    H111030   4.256   4.300   1.706
 3697TIP3    H211031   4.296   4.320   1.561
 3698TIP3   OH211032   4.280   3.997   2.479
 3698TIP3    H111033   4.186   3.973   2.493
 3698TIP3    H211034   4.312   3.917   2.434
 3699TIP3   OH211035   3.409   4.225   2.233
 3699TIP3    H111036   3.407   4.306   2.180
 3699TIP3    H211037   3.315   4.209   2.246
 3700TIP3   OH211038   2.972   3.529   1.940
 3700TIP3    H111039   3.017   3.614   1.961
 3700TIP3    H211040   2.895   3.533   2.000
 3701TIP3   OH211041   3.543   3.989   2.177
 3701TIP3    H111042   3.509   4.079   2.195
 3701TIP3    H211043   3.507   3.939   2.253
 3702TIP3   OH211044   3.677   4.568   2.703
 3702TIP3    H111045   3.719   4.641   2.652
 3702TIP3    H211046   3.754   4.533   2.751
 3703TIP3   OH211047   3.327   4.463   2.087
 3703TIP3    H111048   3.241   4.473   2.133
 3703TIP3    H211049   3.360   4.556   2.089
 3704TIP3   OH211050   4.062   4.201   2.664
 3704TIP3    H111051   4.052   4.201   2.761
 3704TIP3    H211052   4.145   4.151   2.653
 3705TIP3   OH211053   4.041   4.094   1.545
 3705TIP3    H111054   4.093   4.068   1.625
 3705TIP3    H211055   3.952   4.070   1.574
 3706TIP3   OH211056   4.313   4.734   2.711
 3706TIP3    H111057   4.232   4.679   2.704
 3706TIP3    H211058   4.298   4.799   2.639
 3707TIP3   OH211059   4.378   4.569   1.364
 3707TIP3    H111060   4.413   4.641   1.310
 3707TIP3    H211061   4.299   4.614   1.400
 3708TIP3   OH211062   3.398   3.345   3.229
 3708TIP3    H111063   3.301   3.350   3.243
 3708TIP3    H211064   3.426   3.290   3.304
 3709TIP3   OH211065   4.201   4.025   1.759
 3709TIP3    H111066   4.191   3.962   1.833
 3709TIP3    H211067   4.299   4.025   1.748
 3710TIP3   OH211068   3.114   4.429   2.862
 3710TIP3    H111069   3.169   4.357   2.897
 3710TIP3    H211070   3.142   4.502   2.919
 3711TIP3   OH211071   3.407   4.075   1.545
 3711TIP3    H111072   3.418   3.981   1.519
 3711TIP3    H211073   3.386   4.066   1.640
 3712TIP3   OH211074   3.350   4.081   1.817
 3712TIP3    H111075   3.422   4.056   1.876
 3712TIP3    H211076   3.352   4.179   1.823
 3713TIP3   OH211077   3.084   3.774   2.021
 3713TIP3    H111078   3.018   3.818   2.078
 3713TIP3    H211079   3.097   3.842   1.953
 3714TIP3   OH211080   4.244   3.405   2.909
 3714TIP3    H111081   4.315   3.449   2.958
 3714TIP3    H211082   4.224   3.327   2.965
 3715TIP3   OH211083   4.120   3.159   2.079
 3715TIP3    H111084   4.103   3.182   1.986
 3715TIP3    H211085   4.157   3.242   2.115
 3716TIP3   OH211086   3.617   4.277   1.765
 3716TIP3    H111087   3.530   4.302   1.801
 3716TIP3    H211088   3.633   4.354   1.707
 3717TIP3   OH211089   3.805   3.341   2.180
 3717TIP3    H111090   3.868   3.415   2.164
 3717TIP3    H211091   3.809   3.334   2.278
 3718TIP3   OH211092   4.075   3.659   2.987
 3718TIP3    H111093   4.095   3.717   3.064
 3718TIP3    H211094   4.128   3.580   3.007
 3719TIP3   OH211095   3.948   3.066   2.282
 3719TIP3    H111096   3.935   3.145   2.338
 3719TIP3    H211097   4.009   3.101   2.214
 3720TIP3   OH211098   3.361   4.352   1.835
 3720TIP3    H111099   3.332   4.422   1.772
 3720TIP3    H211100   3.345   4.396   1.921
 3721TIP3   OH211101   3.461   3.067   2.071
 3721TIP3    H111102   3.458   3.158   2.109
 3721TIP3    H211103   3.557   3.050   2.079
 3722TIP3   OH211104   4.716   3.554   2.970
 3722TIP3    H111105   4.618   3.555   2.980
 3722TIP3    H211106   4.724   3.524   2.878
 3723TIP3   OH211107   4.366   3.752   2.356
 3723TIP3    H111108   4.288   3.695   2.370
 3723TIP3    H211109   4.436   3.705   2.406
 3724TIP3   OH211110   3.078   3.980   1.826
 3724TIP3    H111111   3.144   4.051   1.835
 3724TIP3    H211112   3.123   3.925   1.759
 3725TIP3   OH211113   3.021   3.259   1.959
 3725TIP3    H111114   3.025   3.357   1.957
 3725TIP3    H211115   2.934   3.242   1.922
 3726TIP3   OH211116   4.334   4.710   2.304
 3726TIP3    H111117   4.291   4.757   2.229
 3726TIP3    H211118   4.429   4.729   2.284
 3727TIP3   OH211119   3.412   2.978   2.830
 3727TIP3    H111120   3.379   2.944   2.745
 3727TIP3    H211121   3.400   2.901   2.889
 3728TIP3   OH211122   2.947   4.195   2.211
 3728TIP3    H111123   2.881   4.226   2.274
 3728TIP3    H211124   2.915   4.239   2.128
 3729TIP3   OH211125   3.107   4.742   3.286
 3729TIP3    H111126   3.194   4.743   3.332
 3729TIP3    H211127   3.088   4.647   3.283
 3730TIP3   OH211128   3.584   4.702   3.329
 3730TIP3    H111129   3.679   4.685   3.338
 3730TIP3    H211130   3.560   4.641   3.257
 3731TIP3   OH211131   3.568   4.279   1.455
 3731TIP3    H111132   3.512   4.207   1.494
 3731TIP3    H211133   3.643   4.227   1.423
 3732TIP3   OH211134   4.227   4.610   3.061
 3732TIP3    H111135   4.218   4.540   3.130
 3732TIP3    H211136   4.303   4.661   3.094
 3733TIP3   OH211137   4.004   4.318   1.369
 3733TIP3    H111138   4.049   4.255   1.428
 3733TIP3    H211139   4.060   4.318   1.289
 3734TIP3   OH211140   3.236   4.147   3.485
 3734TIP3    H111141   3.253   4.051   3.492
 3734TIP3    H211142   3.149   4.148   3.440
 3735TIP3   OH211143   3.214   3.794   1.680
 3735TIP3    H111144   3.270   3.765   1.753
 3735TIP3    H211145   3.281   3.800   1.608
 3736TIP3   OH211146   3.843   4.233   3.259
 3736TIP3    H111147   3.802   4.251   3.172
 3736TIP3    H211148   3.874   4.140   3.250
 3737TIP3   OH211149   3.728   3.995   1.486
 3737TIP3    H111150   3.728   4.008   1.583
 3737TIP3    H211151   3.725   3.897   1.481
 3738TIP3   OH211152   4.335   4.241   2.865
 3738TIP3    H111153   4.411   4.285   2.822
 3738TIP3    H211154   4.265   4.308   2.852
 3739TIP3   OH211155   3.357   3.882   3.466
 3739TIP3    H111156   3.430   3.823   3.447
 3739TIP3    H211157   3.382   3.914   3.556
 3740TIP3   OH211158   3.420   3.701   1.900
 3740TIP3    H111159   3.392   3.662   1.984
 3740TIP3    H211160   3.456   3.624   1.852
 3741TIP3   OH211161   3.691   3.764   3.128
 3741TIP3    H111162   3.613   3.823   3.129
 3741TIP3    H211163   3.741   3.799   3.051
 3742TIP3   OH211164   3.523   3.494   1.741
 3742TIP3    H111165   3.497   3.501   1.646
 3742TIP3    H211166   3.620   3.499   1.733
 3743TIP3   OH211167   4.206   4.165   3.262
 3743TIP3    H111168   4.287   4.139   3.218
 3743TIP3    H211169   4.201   4.102   3.336
 3744TIP3   OH211170   4.344   3.823   1.406
 3744TIP3    H111171   4.321   3.779   1.321
 3744TIP3    H211172   4.312   3.914   1.385
 3745TIP3   OH211173   3.816   3.554   3.252
 3745TIP3    H111174   3.814   3.475   3.195
 3745TIP3    H211175   3.771   3.621   3.196
 3746TIP3   OH211176   3.818   3.338   3.061
 3746TIP3    H111177   3.843   3.381   2.977
 3746TIP3    H211178   3.723   3.316   3.043
 3747TIP3   OH211179   3.841   3.873   2.933
 3747TIP3    H111180   3.927   3.889   2.891
 3747TIP3    H211181   3.784   3.939   2.890
 3748TIP3   OH211182   4.422   3.840   3.313
 3748TIP3    H111183   4.475   3.761   3.332
 3748TIP3    H211184   4.490   3.903   3.284
 3749TIP3   OH211185   4.466   4.093   3.049
 3749TIP3    H111186   4.407   4.148   2.992
 3749TIP3    H211187   4.553   4.116   3.010
 3750TIP3   OH211188   3.693   3.661   3.485
 3750TIP3    H111189   3.624   3.594   3.502
 3750TIP3    H211190   3.726   3.633   3.397
 3751TIP3   OH211191   3.948   3.101   3.130
 3751TIP3    H111192   3.898   3.183   3.107
 3751TIP3    H211193   3.878   3.033   3.119
 3752TIP3   OH211194   4.076   3.604   3.345
 3752TIP3    H111195   4.063   3.594   3.441
 3752TIP3    H211196   3.986   3.582   3.314
 3753TIP3   OH211197   4.310   3.548   3.197
 3753TIP3    H111198   4.236   3.557   3.260
 3753TIP3    H211199   4.384   3.523   3.256
 3754TIP3   OH211200   4.547   3.495   3.347
 3754TIP3    H111201   4.554   3.400   3.367
 3754TIP3    H211202   4.537   3.535   3.437
 3755TIP3   OH211203   3.531   3.442   3.539
 3755TIP3    H111204   3.535   3.349   3.508
 3755TIP3    H211205   3.567   3.433   3.629
 3756TIP3   OH211206   4.044   3.111   3.387
 3756TIP3    H111207   4.108   3.038   3.378
 3756TIP3    H211208   4.000   3.108   3.299
 3757TIP3   OH211209   4.108   3.327   3.547
 3757TIP3    H111210   4.085   3.257   3.482
 3757TIP3    H211211   4.030   3.386   3.542
 3758TIP3   OH211212   3.330   4.552   1.647
 3758TIP3    H111213   3.426   4.549   1.628
 3758TIP3    H211214   3.301   4.605   1.570
 3759TIP3   OH211215   2.809   3.938   1.862
 3759TIP3    H111216   2.904   3.960   1.848
 3759TIP3    H211217   2.803   3.850   1.820
 3760TIP3   OH211218   2.724   4.549   2.279
 3760TIP3    H111219   2.658   4.487   2.240
 3760TIP3    H211220   2.769   4.490   2.343
 3761TIP3   OH211221   2.860   4.397   2.464
 3761TIP3    H111222   2.849   4.326   2.529
 3761TIP3    H211223   2.912   4.461   2.516
 3762TIP3   OH211224   4.590   4.797   2.264
 3762TIP3    H111225   4.613   4.832   2.352
 3762TIP3    H211226   4.649   4.847   2.206
 3763TIP3   OH211227   4.615   4.821   2.545
 3763TIP3    H111228   4.572   4.733   2.542
 3763TIP3    H211229   4.690   4.800   2.603
 3764TIP3   OH211230   4.663   4.498   3.118
 3764TIP3    H111231   4.590   4.508   3.183
 3764TIP3    H211232   4.705   4.586   3.122
 3765TIP3   OH211233   4.481   4.009   1.737
 3765TIP3    H111234   4.546   4.076   1.708
 3765TIP3    H211235   4.525   3.972   1.816
 3766TIP3   OH211236   4.608   3.876   1.941
 3766TIP3    H111237   4.541   3.837   2.000
 3766TIP3    H211238   4.672   3.915   2.004
 3767TIP3   OH211239   4.664   4.272   2.375
 3767TIP3    H111240   4.714   4.206   2.323
 3767TIP3    H211241   4.657   4.347   2.312
 3768TIP3   OH211242   4.491   4.570   2.569
 3768TIP3    H111243   4.420   4.615   2.619
 3768TIP3    H211244   4.440   4.525   2.498
 3769TIP3   OH211245   4.545   3.785   1.588
 3769TIP3    H111246   4.473   3.789   1.520
 3769TIP3    H211247   4.518   3.861   1.643
 3770TIP3   OH211248   4.419   3.457   1.540
 3770TIP3    H111249   4.369   3.498   1.468
 3770TIP3    H211250   4.393   3.362   1.529
 3771TIP3   OH211251   4.421   3.736   2.088
 3771TIP3    H111252   4.427   3.640   2.081
 3771TIP3    H211253   4.405   3.750   2.184
 3772TIP3   OH211254   3.046   3.809   2.835
 3772TIP3    H111255   3.043   3.776   2.743
 3772TIP3    H211256   3.143   3.810   2.851
 3773TIP3   OH211257   4.709   4.161   2.944
 3773TIP3    H111258   4.782   4.096   2.933
 3773TIP3    H211259   4.736   4.232   2.883
 3774TIP3   OH211260   4.892   3.963   2.953
 3774TIP3    H111261   4.818   3.915   2.995
 3774TIP3    H211262   4.965   3.900   2.970
 3775TIP3   OH211263   4.360   3.190   1.523
 3775TIP3    H111264   4.431   3.161   1.584
 3775TIP3    H211265   4.284   3.135   1.548
 3776TIP3   OH211266   4.417   3.452   1.982
 3776TIP3    H111267   4.458   3.363   1.996
 3776TIP3    H211268   4.475   3.486   1.911
 3777TIP3   OH211269   4.579   3.620   2.478
 3777TIP3    H111270   4.664   3.647   2.437
 3777TIP3    H211271   4.590   3.661   2.566
 3778TIP3   OH211272   4.648   3.768   2.707
 3778TIP3    H111273   4.571   3.802   2.758
 3778TIP3    H211274   4.679   3.850   2.664
 3779TIP3   OH211275   3.264   3.494   3.507
 3779TIP3    H111276   3.362   3.489   3.512
 3779TIP3    H211277   3.241   3.409   3.548
 3780TIP3   OH211278   5.131   3.369   3.268
 3780TIP3    H111279   5.174   3.299   3.214
 3780TIP3    H211280   5.080   3.416   3.198
 3781TIP3   OH211281   4.528   3.201   2.019
 3781TIP3    H111282   4.573   3.185   2.104
 3781TIP3    H211283   4.465   3.126   2.017
 3782TIP3   OH211284   3.226   3.187   2.836
 3782TIP3    H111285   3.288   3.112   2.848
 3782TIP3    H211286   3.288   3.262   2.832
 3783TIP3   OH211287   3.027   3.459   2.912
 3783TIP3    H111288   3.077   3.458   2.828
 3783TIP3    H211289   3.054   3.544   2.949
 3784TIP3   OH211290   4.970   3.491   3.085
 3784TIP3    H111291   4.890   3.540   3.113
 3784TIP3    H211292   4.929   3.431   3.019
 3785TIP3   OH211293   4.606   3.134   1.656
 3785TIP3    H111294   4.644   3.065   1.599
 3785TIP3    H211295   4.671   3.206   1.649
 3786TIP3   OH211296   3.012   2.961   2.411
 3786TIP3    H111297   2.920   2.958   2.443
 3786TIP3    H211298   3.006   3.022   2.335
 3787TIP3   OH211299   4.172   4.667   1.920
 3787TIP3    H111300   4.223   4.657   1.837
 3787TIP3    H211301   4.222   4.736   1.967
 3788TIP3   OH211302   3.232   3.041   3.226
 3788TIP3    H111303   3.183   3.038   3.309
 3788TIP3    H211304   3.166   3.082   3.167
 3789TIP3   OH211305   3.271   4.474   3.303
 3789TIP3    H111306   3.179   4.447   3.288
 3789TIP3    H211307   3.284   4.453   3.396
 3790TIP3   OH211308   3.451   4.506   2.852
 3790TIP3    H111309   3.403   4.582   2.813
 3790TIP3    H211310   3.537   4.519   2.807
 3791TIP3   OH211311   3.893   4.748   2.989
 3791TIP3    H111312   3.934   4.748   3.078
 3791TIP3    H211313   3.959   4.800   2.938
 3792TIP3   OH211314   4.073   4.902   2.851
 3792TIP3    H111315   4.144   4.852   2.809
 3792TIP3    H211316   4.124   4.959   2.911
 3793TIP3   OH211317   4.869   3.263   2.946
 3793TIP3    H111318   4.778   3.262   2.911
 3793TIP3    H211319   4.895   3.169   2.935
 3794TIP3   OH211320   3.125   4.761   2.877
 3794TIP3    H111321   3.036   4.794   2.854
 3794TIP3    H211322   3.139   4.804   2.962
 3795TIP3   OH211323   3.362   4.740   2.735
 3795TIP3    H111324   3.275   4.752   2.778
 3795TIP3    H211325   3.344   4.773   2.645
 3796TIP3   OH211326   3.788   4.767   2.533
 3796TIP3    H111327   3.719   4.787   2.467
 3796TIP3    H211328   3.800   4.855   2.574
 3797TIP3   OH211329   4.057   4.706   2.584
 3797TIP3    H111330   3.963   4.724   2.565
 3797TIP3    H211331   4.101   4.781   2.541
 3798TIP3   OH211332   4.263   4.898   2.498
 3798TIP3    H111333   4.249   4.983   2.451
 3798TIP3    H211334   4.289   4.839   2.424
 3799TIP3   OH211335   3.037   4.554   2.621
 3799TIP3    H111336   3.064   4.528   2.711
 3799TIP3    H211337   3.109   4.511   2.569
 3800TIP3   OH211338   3.232   4.427   2.479
 3800TIP3    H111339   3.247   4.343   2.529
 3800TIP3    H211340   3.323   4.464   2.475
 3801TIP3   OH211341   3.498   4.520   2.484
 3801TIP3    H111342   3.529   4.428   2.473
 3801TIP3    H211343   3.545   4.543   2.566
 3802TIP3   OH211344   4.077   3.178   2.573
 3802TIP3    H111345   4.030   3.109   2.623
 3802TIP3    H211346   4.146   3.128   2.527
 3803TIP3   OH211347   4.597   3.056   2.473
 3803TIP3    H111348   4.631   3.110   2.398
 3803TIP3    H211349   4.501   3.075   2.469
 3804TIP3   OH211350   4.692   3.155   2.237
 3804TIP3    H111351   4.765   3.105   2.196
 3804TIP3    H211352   4.724   3.247   2.223
 3805TIP3   OH211353   3.321   2.885   2.583
 3805TIP3    H111354   3.229   2.852   2.587
 3805TIP3    H211355   3.370   2.800   2.580
 3806TIP3   OH211356   3.104   2.759   2.231
 3806TIP3    H111357   3.136   2.816   2.160
 3806TIP3    H211358   3.079   2.823   2.300
 3807TIP3   OH211359   3.768   2.916   2.464
 3807TIP3    H111360   3.825   2.967   2.405
 3807TIP3    H211361   3.785   2.958   2.550
 3808TIP3   OH211362   4.315   3.065   2.447
 3808TIP3    H111363   4.307   3.028   2.359
 3808TIP3    H211364   4.301   2.986   2.504
 3809TIP3   OH211365   4.343   2.990   2.012
 3809TIP3    H111366   4.257   3.034   2.027
 3809TIP3    H211367   4.327   2.904   2.056
 3810TIP3   OH211368   2.825   4.330   2.011
 3810TIP3    H111369   2.740   4.297   1.978
 3810TIP3    H211370   2.817   4.424   1.988
 3811TIP3   OH211371   3.227   2.917   1.993
 3811TIP3    H111372   3.274   2.853   1.937
 3811TIP3    H211373   3.301   2.970   2.030
 3812TIP3   OH211374   3.738   3.091   2.094
 3812TIP3    H111375   3.797   3.044   2.155
 3812TIP3    H211376   3.759   3.184   2.119
 3813TIP3   OH211377   3.599   4.512   1.596
 3813TIP3    H111378   3.685   4.538   1.558
 3813TIP3    H211379   3.576   4.439   1.535
 3814TIP3   OH211380   4.318   4.635   1.688
 3814TIP3    H111381   4.310   4.538   1.676
 3814TIP3    H211382   4.271   4.668   1.608
 3815TIP3   OH211383   3.529   3.167   3.474
 3815TIP3    H111384   3.493   3.097   3.531
 3815TIP3    H211385   3.623   3.166   3.504
 3816TIP3   OH211386   3.778   3.163   3.594
 3816TIP3    H111387   3.864   3.137   3.559
 3816TIP3    H211388   3.763   3.094   3.662
 3817TIP3   OH211389   2.900   4.348   1.649
 3817TIP3    H111390   2.904   4.377   1.741
 3817TIP3    H211391   2.989   4.307   1.635
 3818TIP3   OH211392   4.605   3.222   3.382
 3818TIP3    H111393   4.622   3.196   3.475
 3818TIP3    H211394   4.694   3.218   3.343
 3819TIP3   OH211395   4.542   4.778   2.873
 3819TIP3    H111396   4.463   4.747   2.824
 3819TIP3    H211397   4.523   4.873   2.879
 3820TIP3   OH211398   5.816   4.158   1.636
 3820TIP3    H111399   5.779   4.245   1.610
 3820TIP3    H211400   5.737   4.102   1.627
 3821TIP3   OH211401   5.796   4.144   2.022
 3821TIP3    H111402   5.829   4.100   2.102
 3821TIP3    H211403   5.755   4.068   1.976
 3822TIP3   OH211404   5.110   4.044   2.383
 3822TIP3    H111405   5.138   3.977   2.448
 3822TIP3    H211406   5.183   4.107   2.388
 3823TIP3   OH211407   6.054   4.452   1.703
 3823TIP3    H111408   6.035   4.383   1.767
 3823TIP3    H211409   6.084   4.526   1.759
 3824TIP3   OH211410   5.080   4.454   2.109
 3824TIP3    H111411   5.071   4.357   2.110
 3824TIP3    H211412   5.176   4.464   2.104
 3825TIP3   OH211413   4.783   3.656   1.893
 3825TIP3    H111414   4.738   3.740   1.912
 3825TIP3    H211415   4.711   3.607   1.850
 3826TIP3   OH211416   4.845   3.944   2.070
 3826TIP3    H111417   4.895   3.867   2.105
 3826TIP3    H211418   4.906   3.982   2.006
 3827TIP3   OH211419   5.702   4.916   1.719
 3827TIP3    H111420   5.747   4.843   1.670
 3827TIP3    H211421   5.692   4.877   1.807
 3828TIP3   OH211422   5.607   4.374   2.070
 3828TIP3    H111423   5.645   4.295   2.028
 3828TIP3    H211424   5.688   4.424   2.087
 3829TIP3   OH211425   6.026   3.882   2.103
 3829TIP3    H111426   6.058   3.791   2.114
 3829TIP3    H211427   5.975   3.871   2.020
 3830TIP3   OH211428   5.359   3.534   2.067
 3830TIP3    H111429   5.345   3.614   2.011
 3830TIP3    H211430   5.306   3.470   2.015
 3831TIP3   OH211431   6.057   3.608   1.689
 3831TIP3    H111432   6.129   3.604   1.755
 3831TIP3    H211433   6.099   3.663   1.620
 3832TIP3   OH211434   4.992   3.738   2.176
 3832TIP3    H111435   5.076   3.723   2.222
 3832TIP3    H211436   5.006   3.682   2.096
 3833TIP3   OH211437   6.697   3.885   2.256
 3833TIP3    H111438   6.625   3.932   2.209
 3833TIP3    H211439   6.725   3.952   2.321
 3834TIP3   OH211440   5.342   3.492   2.507
 3834TIP3    H111441   5.301   3.541   2.433
 3834TIP3    H211442   5.292   3.530   2.583
 3835TIP3   OH211443   5.697   4.374   1.508
 3835TIP3    H111444   5.656   4.357   1.423
 3835TIP3    H211445   5.654   4.457   1.535
 3836TIP3   OH211446   5.459   4.295   2.296
 3836TIP3    H111447   5.398   4.363   2.333
 3836TIP3    H211448   5.500   4.344   2.222
 3837TIP3   OH211449   6.264   3.627   1.874
 3837TIP3    H111450   6.221   3.608   1.959
 3837TIP3    H211451   6.308   3.712   1.895
 3838TIP3   OH211452   5.228   3.628   2.290
 3838TIP3    H111453   5.285   3.706   2.313
 3838TIP3    H211454   5.277   3.596   2.211
 3839TIP3   OH211455   5.289   4.491   2.393
 3839TIP3    H111456   5.264   4.578   2.356
 3839TIP3    H211457   5.210   4.475   2.449
 3840TIP3   OH211458   4.682   4.181   1.630
 3840TIP3    H111459   4.640   4.209   1.546
 3840TIP3    H211460   4.712   4.267   1.666
 3841TIP3   OH211461   6.120   4.694   1.870
 3841TIP3    H111462   6.026   4.690   1.901
 3841TIP3    H211463   6.118   4.778   1.820
 3842TIP3   OH211464   5.824   4.740   1.545
 3842TIP3    H111465   5.873   4.658   1.522
 3842TIP3    H211466   5.885   4.806   1.504
 3843TIP3   OH211467   5.966   4.526   1.453
 3843TIP3    H111468   5.925   4.447   1.415
 3843TIP3    H211469   6.004   4.491   1.536
 3844TIP3   OH211470   5.638   4.000   1.471
 3844TIP3    H111471   5.560   4.056   1.453
 3844TIP3    H211472   5.686   4.004   1.387
 3845TIP3   OH211473   5.597   3.788   1.184
 3845TIP3    H111474   5.661   3.839   1.238
 3845TIP3    H211475   5.658   3.727   1.138
 3846TIP3   OH211476   6.526   4.252   2.055
 3846TIP3    H111477   6.456   4.317   2.044
 3846TIP3    H211478   6.574   4.265   1.970
 3847TIP3   OH211479   5.989   4.083   1.441
 3847TIP3    H111480   5.933   4.109   1.518
 3847TIP3    H211481   6.072   4.060   1.488
 3848TIP3   OH211482   6.227   4.120   2.357
 3848TIP3    H111483   6.219   4.196   2.419
 3848TIP3    H211484   6.139   4.122   2.314
 3849TIP3   OH211485   5.229   4.065   1.860
 3849TIP3    H111486   5.175   4.023   1.790
 3849TIP3    H211487   5.297   3.997   1.873
 3850TIP3   OH211488   5.349   4.493   2.008
 3850TIP3    H111489   5.328   4.458   1.920
 3850TIP3    H211490   5.438   4.456   2.024
 3851TIP3   OH211491   5.367   4.053   2.206
 3851TIP3    H111492   5.424   4.034   2.130
 3851TIP3    H211493   5.400   4.141   2.236
 3852TIP3   OH211494   5.886   4.693   1.995
 3852TIP3    H111495   5.860   4.776   2.039
 3852TIP3    H211496   5.861   4.622   2.058
 3853TIP3   OH211497   5.496   4.608   2.538
 3853TIP3    H111498   5.437   4.671   2.585
 3853TIP3    H211499   5.429   4.556   2.488
 3854TIP3   OH211500   5.829   3.942   1.268
 3854TIP3    H111501   5.887   4.003   1.319
 3854TIP3    H211502   5.855   3.965   1.176
 3855TIP3   OH211503   5.249   4.164   2.641
 3855TIP3    H111504   5.255   4.252   2.684
 3855TIP3    H211505   5.154   4.145   2.656
 3856TIP3   OH211506   5.572   4.622   1.546
 3856TIP3    H111507   5.653   4.675   1.556
 3856TIP3    H211508   5.511   4.683   1.503
 3857TIP3   OH211509   5.289   4.774   2.625
 3857TIP3    H111510   5.253   4.778   2.535
 3857TIP3    H211511   5.210   4.754   2.679
 3858TIP3   OH211512   6.343   3.183   1.318
 3858TIP3    H111513   6.262   3.206   1.367
 3858TIP3    H211514   6.359   3.265   1.267
 3859TIP3   OH211515   5.085   3.928   1.661
 3859TIP3    H111516   5.017   3.972   1.606
 3859TIP3    H211517   5.044   3.842   1.678
 3860TIP3   OH211518   6.142   4.548   0.867
 3860TIP3    H111519   6.150   4.645   0.852
 3860TIP3    H211520   6.236   4.520   0.858
 3861TIP3   OH211521   4.867   4.309   2.572
 3861TIP3    H111522   4.799   4.289   2.504
 3861TIP3    H211523   4.904   4.221   2.593
 3862TIP3   OH211524   4.721   4.501   2.206
 3862TIP3    H111525   4.817   4.501   2.198
 3862TIP3    H211526   4.707   4.582   2.258
 3863TIP3   OH211527   5.695   4.734   2.394
 3863TIP3    H111528   5.695   4.827   2.425
 3863TIP3    H211529   5.623   4.696   2.450
 3864TIP3   OH211530   5.454   4.866   1.348
 3864TIP3    H111531   5.408   4.850   1.264
 3864TIP3    H211532   5.421   4.955   1.374
 3865TIP3   OH211533   4.891   4.717   1.732
 3865TIP3    H111534   4.938   4.708   1.818
 3865TIP3    H211535   4.833   4.639   1.736
 3866TIP3   OH211536   5.653   4.769   0.988
 3866TIP3    H111537   5.711   4.700   0.951
 3866TIP3    H211538   5.689   4.780   1.078
 3867TIP3   OH211539   5.705   4.818   1.256
 3867TIP3    H111540   5.617   4.828   1.298
 3867TIP3    H211541   5.757   4.781   1.329
 3868TIP3   OH211542   6.477   4.075   2.531
 3868TIP3    H111543   6.392   4.093   2.487
 3868TIP3    H211544   6.466   3.982   2.555
 3869TIP3   OH211545   5.073   4.490   2.557
 3869TIP3    H111546   5.120   4.477   2.642
 3869TIP3    H211547   4.997   4.429   2.567
 3870TIP3   OH211548   6.010   3.422   2.541
 3870TIP3    H111549   6.078   3.403   2.608
 3870TIP3    H211550   5.927   3.411   2.590
 3871TIP3   OH211551   6.262   3.867   2.469
 3871TIP3    H111552   6.202   3.858   2.547
 3871TIP3    H211553   6.225   3.945   2.424
 3872TIP3   OH211554   5.901   3.983   1.010
 3872TIP3    H111555   5.870   3.961   0.920
 3872TIP3    H211556   5.982   4.033   0.990
 3873TIP3   OH211557   5.615   3.363   1.316
 3873TIP3    H111558   5.581   3.362   1.407
 3873TIP3    H211559   5.576   3.280   1.282
 3874TIP3   OH211560   5.392   3.830   2.359
 3874TIP3    H111561   5.349   3.858   2.442
 3874TIP3    H211562   5.384   3.911   2.304
 3875TIP3   OH211563   5.275   3.710   1.878
 3875TIP3    H111564   5.184   3.681   1.894
 3875TIP3    H211565   5.293   3.674   1.789
 3876TIP3   OH211566   5.769   3.784   1.585
 3876TIP3    H111567   5.723   3.867   1.560
 3876TIP3    H211568   5.833   3.773   1.513
 3877TIP3   OH211569   5.953   4.079   2.686
 3877TIP3    H111570   5.932   4.008   2.752
 3877TIP3    H211571   6.043   4.102   2.714
 3878TIP3   OH211572   5.959   3.846   1.833
 3878TIP3    H111573   5.862   3.861   1.845
 3878TIP3    H211574   5.957   3.762   1.784
 3879TIP3   OH211575   5.219   3.863   2.573
 3879TIP3    H111576   5.246   3.930   2.639
 3879TIP3    H211577   5.210   3.783   2.627
 3880TIP3   OH211578   5.271   3.337   1.284
 3880TIP3    H111579   5.260   3.337   1.381
 3880TIP3    H211580   5.195   3.392   1.257
 3881TIP3   OH211581   4.816   3.379   2.156
 3881TIP3    H111582   4.894   3.410   2.207
 3881TIP3    H211583   4.854   3.354   2.070
 3882TIP3   OH211584   4.785   3.363   1.672
 3882TIP3    H111585   4.828   3.401   1.593
 3882TIP3    H211586   4.723   3.436   1.693
 3883TIP3   OH211587   5.961   4.082   2.269
 3883TIP3    H111588   5.989   4.011   2.207
 3883TIP3    H211589   5.926   4.026   2.342
 3884TIP3   OH211590   5.629   3.519   1.976
 3884TIP3    H111591   5.537   3.529   2.007
 3884TIP3    H211592   5.658   3.613   1.985
 3885TIP3   OH211593   5.040   3.589   1.950
 3885TIP3    H111594   4.946   3.604   1.922
 3885TIP3    H211595   5.057   3.499   1.920
 3886TIP3   OH211596   5.317   3.586   1.634
 3886TIP3    H111597   5.409   3.611   1.615
 3886TIP3    H211598   5.269   3.613   1.552
 3887TIP3   OH211599   6.102   3.608   2.131
 3887TIP3    H111600   6.085   3.631   2.225
 3887TIP3    H211601   6.031   3.543   2.117
 3888TIP3   OH211602   5.162   3.623   1.413
 3888TIP3    H111603   5.090   3.581   1.364
 3888TIP3    H211604   5.214   3.662   1.339
 3889TIP3   OH211605   6.278   5.309   2.359
 3889TIP3    H111606   6.279   5.332   2.264
 3889TIP3    H211607   6.359   5.353   2.391
 3890TIP3   OH211608   5.236   4.412   2.781
 3890TIP3    H111609   5.314   4.443   2.830
 3890TIP3    H211610   5.170   4.413   2.853
 3891TIP3   OH211611   5.228   3.349   1.913
 3891TIP3    H111612   5.183   3.273   1.956
 3891TIP3    H211613   5.245   3.316   1.824
 3892TIP3   OH211614   5.670   3.746   2.367
 3892TIP3    H111615   5.595   3.788   2.321
 3892TIP3    H211616   5.737   3.816   2.366
 3893TIP3   OH211617   5.410   4.155   1.420
 3893TIP3    H111618   5.337   4.090   1.408
 3893TIP3    H211619   5.391   4.189   1.511
 3894TIP3   OH211620   5.868   3.464   1.283
 3894TIP3    H111621   5.771   3.450   1.292
 3894TIP3    H211622   5.880   3.559   1.307
 3895TIP3   OH211623   5.821   4.475   2.416
 3895TIP3    H111624   5.831   4.450   2.509
 3895TIP3    H211625   5.773   4.560   2.423
 3896TIP3   OH211626   5.943   3.713   1.377
 3896TIP3    H111627   6.038   3.724   1.398
 3896TIP3    H211628   5.922   3.796   1.330
 3897TIP3   OH211629   5.105   4.173   2.092
 3897TIP3    H111630   5.148   4.143   2.010
 3897TIP3    H211631   5.147   4.116   2.158
 3898TIP3   OH211632   5.555   4.304   1.241
 3898TIP3    H111633   5.507   4.390   1.245
 3898TIP3    H211634   5.500   4.250   1.303
 3899TIP3   OH211635   4.986   4.094   2.708
 3899TIP3    H111636   5.003   4.084   2.804
 3899TIP3    H211637   4.913   4.031   2.695
 3900TIP3   OH211638   5.712   4.214   2.728
 3900TIP3    H111639   5.653   4.156   2.677
 3900TIP3    H211640   5.800   4.179   2.700
 3901TIP3   OH211641   6.004   4.723   2.305
 3901TIP3    H111642   5.908   4.714   2.312
 3901TIP3    H211643   6.022   4.778   2.385
 3902TIP3   OH211644   6.384   3.809   1.223
 3902TIP3    H111645   6.322   3.765   1.161
 3902TIP3    H211646   6.379   3.898   1.184
 3903TIP3   OH211647   6.585   4.657   2.310
 3903TIP3    H111648   6.569   4.753   2.309
 3903TIP3    H211649   6.605   4.641   2.215
 3904TIP3   OH211650   6.081   4.624   1.131
 3904TIP3    H111651   6.053   4.552   1.190
 3904TIP3    H211652   6.095   4.580   1.046
 3905TIP3   OH211653   6.060   4.249   1.982
 3905TIP3    H111654   5.970   4.212   1.983
 3905TIP3    H211655   6.109   4.179   1.936
 3906TIP3   OH211656   5.204   4.482   1.722
 3906TIP3    H111657   5.204   4.563   1.667
 3906TIP3    H211658   5.110   4.467   1.734
 3907TIP3   OH211659   4.769   3.784   1.427
 3907TIP3    H111660   4.813   3.870   1.446
 3907TIP3    H211661   4.691   3.790   1.487
 3908TIP3   OH211662   5.337   4.244   1.664
 3908TIP3    H111663   5.302   4.334   1.683
 3908TIP3    H211664   5.307   4.194   1.742
 3909TIP3   OH211665   5.474   4.824   2.189
 3909TIP3    H111666   5.514   4.899   2.140
 3909TIP3    H211667   5.550   4.792   2.240
 3910TIP3   OH211668   5.123   4.719   1.574
 3910TIP3    H111669   5.037   4.729   1.619
 3910TIP3    H211670   5.156   4.812   1.576
 3911TIP3   OH211671   5.881   4.461   2.151
 3911TIP3    H111672   5.861   4.453   2.248
 3911TIP3    H211673   5.917   4.373   2.130
 3912TIP3   OH211674   5.837   4.348   1.033
 3912TIP3    H111675   5.889   4.324   1.113
 3912TIP3    H211676   5.747   4.327   1.064
 3913TIP3   OH211677   6.111   4.991   2.188
 3913TIP3    H111678   6.025   4.945   2.181
 3913TIP3    H211679   6.099   5.061   2.120
 3914TIP3   OH211680   6.173   4.820   0.855
 3914TIP3    H111681   6.201   4.878   0.781
 3914TIP3    H211682   6.098   4.874   0.888
 3915TIP3   OH211683   5.188   3.600   2.713
 3915TIP3    H111684   5.093   3.611   2.727
 3915TIP3    H211685   5.213   3.547   2.790
 3916TIP3   OH211686   5.996   4.283   1.248
 3916TIP3    H111687   5.988   4.218   1.320
 3916TIP3    H211688   6.093   4.282   1.235
 3917TIP3   OH211689   4.913   4.686   2.348
 3917TIP3    H111690   4.967   4.615   2.386
 3917TIP3    H211691   4.935   4.761   2.404
 3918TIP3   OH211692   5.203   4.331   1.032
 3918TIP3    H111693   5.215   4.238   1.006
 3918TIP3    H211694   5.182   4.323   1.127
 3919TIP3   OH211695   5.147   4.337   1.303
 3919TIP3    H111696   5.220   4.313   1.362
 3919TIP3    H211697   5.148   4.435   1.310
 3920TIP3   OH211698   4.879   4.030   1.507
 3920TIP3    H111699   4.813   4.076   1.564
 3920TIP3    H211700   4.892   4.099   1.439
 3921TIP3   OH211701   6.050   3.657   2.395
 3921TIP3    H111702   6.108   3.707   2.454
 3921TIP3    H211703   6.023   3.582   2.451
 3922TIP3   OH211704   5.912   3.408   1.565
 3922TIP3    H111705   5.896   3.436   1.473
 3922TIP3    H211706   5.954   3.488   1.603
 3923TIP3   OH211707   5.413   4.534   1.252
 3923TIP3    H111708   5.326   4.559   1.288
 3923TIP3    H211709   5.429   4.610   1.194
 3924TIP3   OH211710   5.604   3.596   1.681
 3924TIP3    H111711   5.666   3.661   1.640
 3924TIP3    H211712   5.599   3.635   1.770
 3925TIP3   OH211713   5.878   3.922   2.471
 3925TIP3    H111714   5.895   3.979   2.549
 3925TIP3    H211715   5.920   3.839   2.498
 3926TIP3   OH211716   5.742   3.326   1.773
 3926TIP3    H111717   5.714   3.408   1.817
 3926TIP3    H211718   5.804   3.362   1.705
 3927TIP3   OH211719   5.157   4.609   1.321
 3927TIP3    H111720   5.128   4.679   1.259
 3927TIP3    H211721   5.141   4.653   1.408
 3928TIP3   OH211722   5.258   3.324   1.563
 3928TIP3    H111723   5.257   3.417   1.592
 3928TIP3    H211724   5.354   3.307   1.567
 3929TIP3   OH211725   6.512   3.762   2.442
 3929TIP3    H111726   6.418   3.786   2.457
 3929TIP3    H211727   6.534   3.818   2.366
 3930TIP3   OH211728   6.173   4.017   1.845
 3930TIP3    H111729   6.092   3.961   1.847
 3930TIP3    H211730   6.235   3.963   1.896
 3931TIP3   OH211731   4.874   4.237   1.313
 3931TIP3    H111732   4.938   4.309   1.322
 3931TIP3    H211733   4.920   4.183   1.245
 3932TIP3   OH211734   4.816   3.514   1.446
 3932TIP3    H111735   4.819   3.612   1.444
 3932TIP3    H211736   4.731   3.497   1.403
 3933TIP3   OH211737   6.134   4.963   1.791
 3933TIP3    H111738   6.088   5.010   1.717
 3933TIP3    H211739   6.227   4.987   1.770
 3934TIP3   OH211740   5.263   3.216   2.306
 3934TIP3    H111741   5.205   3.206   2.228
 3934TIP3    H211742   5.223   3.153   2.370
 3935TIP3   OH211743   4.741   4.448   1.697
 3935TIP3    H111744   4.677   4.482   1.762
 3935TIP3    H211745   4.710   4.493   1.615
 3936TIP3   OH211746   4.904   4.999   2.772
 3936TIP3    H111747   4.989   5.001   2.819
 3936TIP3    H211748   4.884   4.904   2.771
 3937TIP3   OH211749   5.380   4.960   2.816
 3937TIP3    H111750   5.475   4.942   2.826
 3937TIP3    H211751   5.358   4.898   2.743
 3938TIP3   OH211752   5.364   4.535   0.942
 3938TIP3    H111753   5.309   4.464   0.981
 3938TIP3    H211754   5.440   4.484   0.910
 3939TIP3   OH211755   6.033   4.858   2.541
 3939TIP3    H111756   6.015   4.795   2.615
 3939TIP3    H211757   6.101   4.916   2.580
 3940TIP3   OH211758   5.797   4.574   0.859
 3940TIP3    H111759   5.847   4.514   0.917
 3940TIP3    H211760   5.851   4.575   0.778
 3941TIP3   OH211761   5.032   4.404   2.970
 3941TIP3    H111762   5.047   4.308   2.979
 3941TIP3    H211763   4.944   4.407   2.927
 3942TIP3   OH211764   5.011   4.051   1.167
 3942TIP3    H111765   5.067   4.023   1.241
 3942TIP3    H211766   5.077   4.057   1.095
 3943TIP3   OH211767   5.642   4.489   2.745
 3943TIP3    H111768   5.597   4.508   2.660
 3943TIP3    H211769   5.670   4.396   2.735
 3944TIP3   OH211770   5.522   4.250   0.972
 3944TIP3    H111771   5.524   4.264   1.069
 3944TIP3    H211772   5.519   4.152   0.968
 3945TIP3   OH211773   5.151   4.137   2.955
 3945TIP3    H111774   5.230   4.087   2.932
 3945TIP3    H211775   5.175   4.170   3.044
 3946TIP3   OH211776   5.215   3.958   1.385
 3946TIP3    H111777   5.189   3.920   1.471
 3946TIP3    H211778   5.253   3.881   1.338
 3947TIP3   OH211779   5.485   4.018   2.617
 3947TIP3    H111780   5.408   4.080   2.618
 3947TIP3    H211781   5.537   4.054   2.542
 3948TIP3   OH211782   5.319   3.749   1.228
 3948TIP3    H111783   5.293   3.759   1.134
 3948TIP3    H211784   5.417   3.755   1.220
 3949TIP3   OH211785   6.007   4.416   2.747
 3949TIP3    H111786   6.103   4.418   2.752
 3949TIP3    H211787   5.987   4.355   2.821
 3950TIP3   OH211788   6.137   4.078   0.894
 3950TIP3    H111789   6.118   4.035   0.808
 3950TIP3    H211790   6.107   4.169   0.873
 3951TIP3   OH211791   5.612   3.810   2.739
 3951TIP3    H111792   5.608   3.731   2.682
 3951TIP3    H211793   5.569   3.878   2.682
 3952TIP3   OH211794   5.601   3.580   2.564
 3952TIP3    H111795   5.632   3.638   2.490
 3952TIP3    H211796   5.510   3.561   2.537
 3953TIP3   OH211797   5.636   4.134   2.429
 3953TIP3    H111798   5.716   4.134   2.376
 3953TIP3    H211799   5.579   4.198   2.381
 3954TIP3   OH211800   6.218   4.094   2.800
 3954TIP3    H111801   6.265   4.022   2.844
 3954TIP3    H211802   6.288   4.159   2.786
 3955TIP3   OH211803   6.258   4.341   2.528
 3955TIP3    H111804   6.201   4.419   2.520
 3955TIP3    H211805   6.341   4.370   2.483
 3956TIP3   OH211806   5.490   3.918   2.968
 3956TIP3    H111807   5.416   3.856   2.972
 3956TIP3    H211808   5.527   3.898   2.880
 3957TIP3   OH211809   5.744   3.356   2.615
 3957TIP3    H111810   5.700   3.443   2.597
 3957TIP3    H211811   5.669   3.295   2.604
 3958TIP3   OH211812   5.876   3.860   2.830
 3958TIP3    H111813   5.870   3.854   2.927
 3958TIP3    H211814   5.784   3.838   2.805
 3959TIP3   OH211815   6.105   3.795   2.678
 3959TIP3    H111816   6.033   3.812   2.743
 3959TIP3    H211817   6.181   3.776   2.737
 3960TIP3   OH211818   6.339   3.746   2.827
 3960TIP3    H111819   6.351   3.653   2.856
 3960TIP3    H211820   6.328   3.794   2.912
 3961TIP3   OH211821   5.317   3.702   2.998
 3961TIP3    H111822   5.331   3.608   2.977
 3961TIP3    H211823   5.337   3.707   3.092
 3962TIP3   OH211824   5.837   3.368   2.872
 3962TIP3    H111825   5.905   3.298   2.870
 3962TIP3    H211826   5.801   3.361   2.782
 3963TIP3   OH211827   5.899   3.582   3.035
 3963TIP3    H111828   5.879   3.513   2.967
 3963TIP3    H211829   5.823   3.643   3.026
 3964TIP3   OH211830   5.126   4.810   1.133
 3964TIP3    H111831   5.222   4.806   1.114
 3964TIP3    H211832   5.097   4.862   1.056
 3965TIP3   OH211833   4.605   4.194   1.349
 3965TIP3    H111834   4.700   4.216   1.335
 3965TIP3    H211835   4.600   4.106   1.307
 3966TIP3   OH211836   4.523   4.806   1.763
 3966TIP3    H111837   4.455   4.746   1.725
 3966TIP3    H211838   4.566   4.746   1.828
 3967TIP3   OH211839   4.659   4.653   1.949
 3967TIP3    H111840   4.643   4.584   2.016
 3967TIP3    H211841   4.709   4.717   2.002
 3968TIP3   OH211842   6.387   5.053   1.755
 3968TIP3    H111843   6.413   5.091   1.841
 3968TIP3    H211844   6.448   5.099   1.695
 3969TIP3   OH211845   6.411   5.078   2.037
 3969TIP3    H111846   6.386   4.984   2.035
 3969TIP3    H211847   6.500   5.066   2.079
 3970TIP3   OH211848   6.454   4.748   2.605
 3970TIP3    H111849   6.384   4.762   2.672
 3970TIP3    H211850   6.495   4.837   2.602
 3971TIP3   OH211851   6.274   4.267   1.222
 3971TIP3    H111852   6.340   4.334   1.192
 3971TIP3    H211853   6.319   4.231   1.301
 3972TIP3   OH211854   6.400   4.137   1.429
 3972TIP3    H111855   6.330   4.093   1.483
 3972TIP3    H211856   6.455   4.179   1.498
 3973TIP3   OH211857   6.462   4.521   1.875
 3973TIP3    H111858   6.497   4.459   1.810
 3973TIP3    H211859   6.446   4.600   1.821
 3974TIP3   OH211860   6.268   4.797   2.081
 3974TIP3    H111861   6.223   4.879   2.113
 3974TIP3    H211862   6.235   4.790   1.988
 3975TIP3   OH211863   6.341   4.043   1.074
 3975TIP3    H111864   6.270   4.045   1.006
 3975TIP3    H211865   6.312   4.120   1.127
 3976TIP3   OH211866   6.215   3.714   1.031
 3976TIP3    H111867   6.170   3.757   0.957
 3976TIP3    H211868   6.189   3.621   1.017
 3977TIP3   OH211869   6.219   3.993   1.574
 3977TIP3    H111870   6.218   3.897   1.568
 3977TIP3    H211871   6.204   4.008   1.671
 3978TIP3   OH211872   4.843   4.061   2.323
 3978TIP3    H111873   4.840   4.031   2.230
 3978TIP3    H211874   4.940   4.064   2.337
 3979TIP3   OH211875   6.491   4.419   2.415
 3979TIP3    H111876   6.566   4.356   2.409
 3979TIP3    H211877   6.525   4.499   2.369
 3980TIP3   OH211878   6.683   4.226   2.439
 3980TIP3    H111879   6.613   4.170   2.480
 3980TIP3    H211880   6.761   4.170   2.456
 3981TIP3   OH211881   6.156   3.447   1.010
 3981TIP3    H111882   6.229   3.418   1.069
 3981TIP3    H211883   6.082   3.391   1.036
 3982TIP3   OH211884   6.215   3.713   1.468
 3982TIP3    H111885   6.253   3.623   1.483
 3982TIP3    H211886   6.274   3.744   1.397
 3983TIP3   OH211887   6.384   3.868   1.968
 3983TIP3    H111888   6.469   3.902   1.932
 3983TIP3    H211889   6.387   3.910   2.056
 3984TIP3   OH211890   6.450   4.022   2.195
 3984TIP3    H111891   6.373   4.055   2.245
 3984TIP3    H211892   6.477   4.103   2.147
 3985TIP3   OH211893   5.048   3.742   2.986
 3985TIP3    H111894   5.146   3.745   2.984
 3985TIP3    H211895   5.031   3.661   3.037
 3986TIP3   OH211896   6.890   3.610   2.753
 3986TIP3    H111897   6.954   3.549   2.711
 3986TIP3    H211898   6.865   3.668   2.678
 3987TIP3   OH211899   6.324   3.459   1.507
 3987TIP3    H111900   6.368   3.443   1.593
 3987TIP3    H211901   6.260   3.385   1.504
 3988TIP3   OH211902   5.034   3.434   2.319
 3988TIP3    H111903   5.103   3.372   2.345
 3988TIP3    H211904   5.083   3.518   2.315
 3989TIP3   OH211905   4.826   3.713   2.401
 3989TIP3    H111906   4.874   3.716   2.316
 3989TIP3    H211907   4.844   3.802   2.436
 3990TIP3   OH211908   6.764   3.764   2.564
 3990TIP3    H111909   6.697   3.804   2.624
 3990TIP3    H211910   6.707   3.742   2.488
 3991TIP3   OH211911   6.401   3.390   1.142
 3991TIP3    H111912   6.441   3.321   1.085
 3991TIP3    H211913   6.467   3.462   1.137
 3992TIP3   OH211914   4.809   3.221   1.900
 3992TIP3    H111915   4.716   3.215   1.928
 3992TIP3    H211916   4.803   3.279   1.822
 3993TIP3   OH211917   5.967   4.923   1.408
 3993TIP3    H111918   6.017   4.912   1.324
 3993TIP3    H211919   6.019   4.993   1.452
 3994TIP3   OH211920   5.031   3.293   2.710
 3994TIP3    H111921   4.982   3.294   2.794
 3994TIP3    H211922   4.966   3.339   2.652
 3995TIP3   OH211923   5.069   4.727   2.789
 3995TIP3    H111924   4.975   4.704   2.776
 3995TIP3    H211925   5.080   4.713   2.884
 3996TIP3   OH211926   5.248   4.761   2.337
 3996TIP3    H111927   5.198   4.837   2.300
 3996TIP3    H211928   5.333   4.777   2.293
 3997TIP3   OH211929   5.690   5.002   2.473
 3997TIP3    H111930   5.729   5.003   2.563
 3997TIP3    H211931   5.755   5.057   2.424
 3998TIP3   OH211932   5.870   5.158   2.338
 3998TIP3    H111933   5.944   5.111   2.298
 3998TIP3    H211934   5.919   5.217   2.400
 3999TIP3   OH211935   4.922   5.017   2.365
 3999TIP3    H111936   4.832   5.048   2.341
 3999TIP3    H211937   4.935   5.063   2.448
 4000TIP3   OH211938   5.158   4.996   2.222
 4000TIP3    H111939   5.071   5.008   2.266
 4000TIP3    H211940   5.139   5.030   2.132
 4001TIP3   OH211941   5.585   5.024   2.019
 4001TIP3    H111942   5.515   5.043   1.954
 4001TIP3    H211943   5.596   5.112   2.061
 4002TIP3   OH211944   5.854   4.961   2.070
 4002TIP3    H111945   5.759   4.982   2.053
 4002TIP3    H211946   5.897   5.037   2.029
 4003TIP3   OH211947   6.056   5.156   1.982
 4003TIP3    H111948   6.044   5.243   1.937
 4003TIP3    H211949   6.085   5.100   1.907
 4004TIP3   OH211950   4.834   4.811   2.106
 4004TIP3    H111951   4.859   4.785   2.197
 4004TIP3    H211952   4.906   4.768   2.056
 4005TIP3   OH211953   5.029   4.683   1.965
 4005TIP3    H111954   5.044   4.600   2.016
 4005TIP3    H211955   5.119   4.720   1.962
 4006TIP3   OH211956   5.295   4.777   1.970
 4006TIP3    H111957   5.326   4.685   1.960
 4006TIP3    H211958   5.340   4.800   2.053
 4007TIP3   OH211959   5.904   3.406   2.085
 4007TIP3    H111960   5.816   3.414   2.048
 4007TIP3    H211961   5.960   3.393   2.007
 4008TIP3   OH211962   6.408   3.353   1.981
 4008TIP3    H111963   6.432   3.382   1.890
 4008TIP3    H211964   6.310   3.345   1.969
 4009TIP3   OH211965   6.491   3.412   1.729
 4009TIP3    H111966   6.561   3.362   1.681
 4009TIP3    H211967   6.519   3.504   1.709
 4010TIP3   OH211968   5.119   3.144   2.075
 4010TIP3    H111969   5.025   3.116   2.077
 4010TIP3    H211970   5.163   3.056   2.070
 4011TIP3   OH211971   4.912   3.014   1.723
 4011TIP3    H111972   4.936   3.070   1.647
 4011TIP3    H211973   4.878   3.079   1.787
 4012TIP3   OH211974   5.567   3.191   1.967
 4012TIP3    H111975   5.633   3.203   1.896
 4012TIP3    H211976   5.534   3.281   1.974
 4013TIP3   OH211977   6.132   3.311   1.929
 4013TIP3    H111978   6.112   3.279   1.841
 4013TIP3    H211979   6.102   3.238   1.986
 4014TIP3   OH211980   6.139   3.248   1.499
 4014TIP3    H111981   6.053   3.292   1.512
 4014TIP3    H211982   6.121   3.161   1.542
 4015TIP3   OH211983   4.622   4.586   1.498
 4015TIP3    H111984   4.536   4.555   1.465
 4015TIP3    H211985   4.614   4.680   1.475
 4016TIP3   OH211986   5.023   3.171   1.483
 4016TIP3    H111987   5.071   3.109   1.424
 4016TIP3    H211988   5.096   3.225   1.518
 4017TIP3   OH211989   5.536   3.350   1.582
 4017TIP3    H111990   5.602   3.304   1.635
 4017TIP3    H211991   5.554   3.442   1.612
 4018TIP3   OH211992   5.395   4.770   1.083
 4018TIP3    H111993   5.482   4.793   1.046
 4018TIP3    H211994   5.372   4.696   1.021
 4019TIP3   OH211995   6.112   4.892   1.176
 4019TIP3    H111996   6.106   4.794   1.162
 4019TIP3    H211997   6.069   4.924   1.094
 4020TIP3   OH211998   5.329   3.422   2.966
 4020TIP3    H111999   5.291   3.351   3.021
 4020TIP3    H212000   5.421   3.423   2.999
 4021TIP3   OH212001   5.574   3.432   3.101
 4021TIP3    H112002   5.655   3.414   3.050
 4021TIP3    H212003   5.572   3.355   3.161
 4022TIP3   OH212004   4.696   4.604   1.135
 4022TIP3    H112005   4.697   4.635   1.227
 4022TIP3    H212006   4.785   4.565   1.124
 4023TIP3   OH212007   6.399   3.476   2.872
 4023TIP3    H112008   6.415   3.448   2.965
 4023TIP3    H212009   6.490   3.472   2.836
 4024TIP3   OH212010   6.311   5.033   2.382
 4024TIP3    H112011   6.249   5.009   2.311
 4024TIP3    H212012   6.319   5.129   2.370
 4025TIP3   OH212013   7.601   4.407   1.129
 4025TIP3    H112014   7.571   4.498   1.107
 4025TIP3    H212015   7.527   4.357   1.090
 4026TIP3   OH212016   7.601   4.409   1.510
 4026TIP3    H112017   7.631   4.392   1.601
 4026TIP3    H212018   7.570   4.321   1.483
 4027TIP3   OH212019   6.917   4.302   1.867
 4027TIP3    H112020   6.938   4.235   1.935
 4027TIP3    H212021   6.968   4.377   1.900
 4028TIP3   OH212022   7.854   4.700   1.191
 4028TIP3    H112023   7.828   4.643   1.264
 4028TIP3    H212024   7.875   4.783   1.237
 4029TIP3   OH212025   6.874   4.711   1.592
 4029TIP3    H112026   6.865   4.614   1.601
 4029TIP3    H212027   6.971   4.721   1.592
 4030TIP3   OH212028   6.592   3.934   1.410
 4030TIP3    H112029   6.527   4.007   1.405
 4030TIP3    H212030   6.544   3.866   1.361
 4031TIP3   OH212031   6.640   4.213   1.557
 4031TIP3    H112032   6.696   4.134   1.561
 4031TIP3    H212033   6.670   4.257   1.477
 4032TIP3   OH212034   7.496   5.174   1.208
 4032TIP3    H112035   7.540   5.101   1.159
 4032TIP3    H212036   7.486   5.137   1.296
 4033TIP3   OH212037   7.405   4.627   1.555
 4033TIP3    H112038   7.455   4.554   1.514
 4033TIP3    H212039   7.483   4.681   1.583
 4034TIP3   OH212040   7.805   4.151   1.586
 4034TIP3    H112041   7.817   4.058   1.615
 4034TIP3    H212042   7.765   4.135   1.498
 4035TIP3   OH212043   7.846   3.889   1.191
 4035TIP3    H112044   7.913   3.829   1.227
 4035TIP3    H212045   7.894   3.926   1.116
 4036TIP3   OH212046   6.824   3.998   1.594
 4036TIP3    H112047   6.865   3.956   1.672
 4036TIP3    H212048   6.754   3.934   1.570
 4037TIP3   OH212049   7.227   4.126   1.429
 4037TIP3    H112050   7.306   4.143   1.486
 4037TIP3    H212051   7.273   4.078   1.359
 4038TIP3   OH212052   7.145   3.774   1.991
 4038TIP3    H112053   7.085   3.820   1.929
 4038TIP3    H212054   7.099   3.793   2.076
 4039TIP3   OH212055   7.484   4.620   1.000
 4039TIP3    H112056   7.460   4.615   0.906
 4039TIP3    H212057   7.448   4.708   1.024
 4040TIP3   OH212058   7.255   4.547   1.777
 4040TIP3    H112059   7.197   4.618   1.815
 4040TIP3    H212060   7.301   4.597   1.707
 4041TIP3   OH212061   7.025   3.887   1.764
 4041TIP3    H112062   7.082   3.963   1.792
 4041TIP3    H212063   7.088   3.836   1.710
 4042TIP3   OH212064   7.094   4.747   1.869
 4042TIP3    H112065   7.066   4.837   1.841
 4042TIP3    H212066   7.017   4.725   1.927
 4043TIP3   OH212067   6.480   4.435   1.119
 4043TIP3    H112068   6.440   4.455   1.032
 4043TIP3    H212069   6.506   4.524   1.149
 4044TIP3   OH212070   7.920   4.950   1.355
 4044TIP3    H112071   7.832   4.940   1.398
 4044TIP3    H212072   7.910   5.036   1.312
 4045TIP3   OH212073   7.501   3.487   1.710
 4045TIP3    H112074   7.481   3.392   1.726
 4045TIP3    H212075   7.424   3.529   1.753
 4046TIP3   OH212076   7.620   5.000   1.035
 4046TIP3    H112077   7.662   4.915   1.010
 4046TIP3    H212078   7.683   5.062   0.991
 4047TIP3   OH212079   7.747   4.780   0.943
 4047TIP3    H112080   7.728   4.700   0.891
 4047TIP3    H212081   7.797   4.744   1.019
 4048TIP3   OH212082   8.146   4.855   1.700
 4048TIP3    H112083   8.146   4.783   1.635
 4048TIP3    H212084   8.135   4.935   1.646
 4049TIP3   OH212085   7.435   4.259   0.959
 4049TIP3    H112086   7.355   4.313   0.940
 4049TIP3    H212087   7.479   4.260   0.872
 4050TIP3   OH212088   7.390   4.053   0.680
 4050TIP3    H112089   7.464   4.094   0.726
 4050TIP3    H212090   7.437   3.976   0.639
 4051TIP3   OH212091   7.777   4.337   0.933
 4051TIP3    H112092   7.723   4.370   1.008
 4051TIP3    H212093   7.849   4.292   0.982
 4052TIP3   OH212094   8.007   4.362   1.833
 4052TIP3    H112095   8.033   4.440   1.886
 4052TIP3    H212096   7.918   4.387   1.804
 4053TIP3   OH212097   7.008   4.298   1.367
 4053TIP3    H112098   6.964   4.280   1.281
 4053TIP3    H212099   7.102   4.288   1.345
 4054TIP3   OH212100   7.145   4.745   1.495
 4054TIP3    H112101   7.132   4.722   1.402
 4054TIP3    H212102   7.236   4.713   1.512
 4055TIP3   OH212103   7.160   4.310   1.685
 4055TIP3    H112104   7.207   4.317   1.602
 4055TIP3    H212105   7.188   4.393   1.729
 4056TIP3   OH212106   7.682   4.946   1.479
 4056TIP3    H112107   7.664   5.029   1.527
 4056TIP3    H212108   7.662   4.878   1.546
 4057TIP3   OH212109   7.290   4.865   2.027
 4057TIP3    H112110   7.228   4.926   2.073
 4057TIP3    H212111   7.227   4.815   1.971
 4058TIP3   OH212112   7.625   4.201   0.752
 4058TIP3    H112113   7.679   4.260   0.810
 4058TIP3    H212114   7.671   4.210   0.667
 4059TIP3   OH212115   7.043   4.422   2.121
 4059TIP3    H112116   7.052   4.510   2.163
 4059TIP3    H212117   6.949   4.404   2.141
 4060TIP3   OH212118   7.368   4.876   1.039
 4060TIP3    H112119   7.451   4.928   1.045
 4060TIP3    H212120   7.311   4.935   0.988
 4061TIP3   OH212121   7.077   5.034   2.106
 4061TIP3    H112122   7.057   5.037   2.010
 4061TIP3    H212123   6.988   5.016   2.142
 4062TIP3   OH212124   6.869   4.170   1.168
 4062TIP3    H112125   6.814   4.227   1.109
 4062TIP3    H212126   6.836   4.083   1.141
 4063TIP3   OH212127   6.653   4.566   2.066
 4063TIP3    H112128   6.590   4.548   1.993
 4063TIP3    H212129   6.699   4.481   2.078
 4064TIP3   OH212130   6.517   4.759   1.698
 4064TIP3    H112131   6.613   4.759   1.686
 4064TIP3    H212132   6.504   4.842   1.745
 4065TIP3   OH212133   7.488   4.993   1.883
 4065TIP3    H112134   7.486   5.086   1.915
 4065TIP3    H212135   7.416   4.954   1.938
 4066TIP3   OH212136   7.253   5.134   0.829
 4066TIP3    H112137   7.187   5.117   0.761
 4066TIP3    H212138   7.226   5.220   0.865
 4067TIP3   OH212139   6.688   4.974   1.217
 4067TIP3    H112140   6.733   4.965   1.304
 4067TIP3    H212141   6.627   4.899   1.220
 4068TIP3   OH212142   7.483   5.006   0.743
 4068TIP3    H112143   7.405   5.056   0.774
 4068TIP3    H212144   7.549   5.032   0.809
 4069TIP3   OH212145   6.890   4.717   2.039
 4069TIP3    H112146   6.926   4.721   2.129
 4069TIP3    H212147   6.795   4.709   2.058
 4070TIP3   OH212148   7.265   3.574   1.835
 4070TIP3    H112149   7.177   3.541   1.805
 4070TIP3    H212150   7.236   3.651   1.889
 4071TIP3   OH212151   7.771   3.701   2.006
 4071TIP3    H112152   7.835   3.666   2.072
 4071TIP3    H212153   7.686   3.681   2.051
 4072TIP3   OH212154   8.075   4.111   1.951
 4072TIP3    H112155   8.015   4.116   2.029
 4072TIP3    H212156   8.052   4.195   1.905
 4073TIP3   OH212157   7.421   3.616   0.805
 4073TIP3    H112158   7.382   3.613   0.895
 4073TIP3    H212159   7.379   3.537   0.766
 4074TIP3   OH212160   7.189   4.089   1.844
 4074TIP3    H112161   7.147   4.112   1.929
 4074TIP3    H212162   7.178   4.173   1.795
 4075TIP3   OH212163   7.575   4.059   1.090
 4075TIP3    H112164   7.524   4.129   1.045
 4075TIP3    H212165   7.637   4.031   1.020
 4076TIP3   OH212166   7.747   4.335   2.175
 4076TIP3    H112167   7.726   4.264   2.239
 4076TIP3    H212168   7.840   4.352   2.196
 4077TIP3   OH212169   7.714   4.094   1.331
 4077TIP3    H112170   7.659   4.109   1.251
 4077TIP3    H212171   7.758   4.011   1.302
 4078TIP3   OH212172   7.018   4.117   2.060
 4078TIP3    H112173   7.043   4.187   2.122
 4078TIP3    H212174   7.007   4.041   2.119
 4079TIP3   OH212175   7.067   3.593   0.770
 4079TIP3    H112176   7.058   3.592   0.868
 4079TIP3    H212177   6.989   3.646   0.745
 4080TIP3   OH212178   6.611   3.637   1.640
 4080TIP3    H112179   6.691   3.661   1.691
 4080TIP3    H212180   6.647   3.606   1.555
 4081TIP3   OH212181   6.578   3.616   1.159
 4081TIP3    H112182   6.625   3.653   1.081
 4081TIP3    H212183   6.518   3.690   1.178
 4082TIP3   OH212184   7.717   4.342   1.756
 4082TIP3    H112185   7.760   4.276   1.698
 4082TIP3    H212186   7.699   4.286   1.834
 4083TIP3   OH212187   7.405   3.828   1.432
 4083TIP3    H112188   7.341   3.762   1.460
 4083TIP3    H212189   7.489   3.788   1.464
 4084TIP3   OH212190   7.105   3.855   1.132
 4084TIP3    H112191   7.200   3.865   1.114
 4084TIP3    H212192   7.063   3.874   1.045
 4085TIP3   OH212193   7.823   3.885   1.621
 4085TIP3    H112194   7.815   3.893   1.718
 4085TIP3    H212195   7.906   3.832   1.613
 4086TIP3   OH212196   6.955   3.888   0.902
 4086TIP3    H112197   6.886   3.839   0.854
 4086TIP3    H212198   7.010   3.919   0.827
 4087TIP3   OH212199   8.066   5.564   1.849
 4087TIP3    H112200   8.062   5.570   1.751
 4087TIP3    H212201   8.126   5.637   1.869
 4088TIP3   OH212202   7.037   4.664   2.277
 4088TIP3    H112203   7.114   4.698   2.328
 4088TIP3    H212204   6.967   4.672   2.345
 4089TIP3   OH212205   7.490   4.132   1.525
 4089TIP3    H112206   7.555   4.090   1.466
 4089TIP3    H212207   7.504   4.081   1.607
 4090TIP3   OH212208   7.047   3.624   1.421
 4090TIP3    H112209   6.997   3.549   1.457
 4090TIP3    H212210   7.073   3.592   1.334
 4091TIP3   OH212211   7.467   4.020   1.824
 4091TIP3    H112212   7.383   4.067   1.833
 4091TIP3    H212213   7.531   4.081   1.867
 4092TIP3   OH212214   7.202   4.409   0.914
 4092TIP3    H112215   7.131   4.343   0.899
 4092TIP3    H212216   7.182   4.439   1.005
 4093TIP3   OH212217   8.117   4.645   1.511
 4093TIP3    H112218   8.101   4.676   1.421
 4093TIP3    H212219   8.032   4.601   1.529
 4094TIP3   OH212220   7.676   3.711   0.783
 4094TIP3    H112221   7.581   3.682   0.784
 4094TIP3    H212222   7.665   3.802   0.752
 4095TIP3   OH212223   7.598   4.728   1.907
 4095TIP3    H112224   7.635   4.715   1.995
 4095TIP3    H212225   7.566   4.819   1.910
 4096TIP3   OH212226   7.762   3.991   0.870
 4096TIP3    H112227   7.851   4.022   0.851
 4096TIP3    H212228   7.708   4.049   0.814
 4097TIP3   OH212229   6.894   4.429   1.592
 4097TIP3    H112230   6.935   4.394   1.511
 4097TIP3    H212231   6.941   4.382   1.663
 4098TIP3   OH212232   7.352   4.571   0.753
 4098TIP3    H112233   7.301   4.655   0.751
 4098TIP3    H212234   7.297   4.515   0.812
 4099TIP3   OH212235   6.787   4.345   2.193
 4099TIP3    H112236   6.808   4.346   2.288
 4099TIP3    H212237   6.707   4.289   2.192
 4100TIP3   OH212238   7.508   4.469   2.215
 4100TIP3    H112239   7.449   4.410   2.166
 4100TIP3    H212240   7.596   4.436   2.188
 4101TIP3   OH212241   7.765   4.982   1.804
 4101TIP3    H112242   7.669   4.988   1.816
 4101TIP3    H212243   7.795   5.037   1.880
 4102TIP3   OH212244   7.868   4.511   1.463
 4102TIP3    H112245   7.773   4.493   1.472
 4102TIP3    H212246   7.900   4.426   1.429
 4103TIP3   OH212247   7.001   4.736   1.204
 4103TIP3    H112248   7.003   4.819   1.153
 4103TIP3    H212249   6.907   4.728   1.221
 4104TIP3   OH212250   6.569   4.043   0.916
 4104TIP3    H112251   6.608   4.131   0.931
 4104TIP3    H212252   6.488   4.048   0.972
 4105TIP3   OH212253   7.127   4.495   1.162
 4105TIP3    H112254   7.110   4.591   1.156
 4105TIP3    H212255   7.084   4.476   1.245
 4106TIP3   OH212256   7.271   5.082   1.673
 4106TIP3    H112257   7.312   5.157   1.624
 4106TIP3    H212258   7.346   5.049   1.724
 4107TIP3   OH212259   6.920   4.974   1.061
 4107TIP3    H112260   6.834   4.983   1.105
 4107TIP3    H212261   6.953   5.066   1.065
 4108TIP3   OH212262   7.653   4.713   1.640
 4108TIP3    H112263   7.641   4.714   1.737
 4108TIP3    H212264   7.739   4.670   1.632
 4109TIP3   OH212265   7.909   5.245   1.680
 4109TIP3    H112266   7.827   5.192   1.676
 4109TIP3    H212267   7.891   5.313   1.611
 4110TIP3   OH212268   6.992   3.846   2.210
 4110TIP3    H112269   6.897   3.857   2.230
 4110TIP3    H212270   7.026   3.810   2.294
 4111TIP3   OH212271   7.765   4.552   0.756
 4111TIP3    H112272   7.774   4.474   0.814
 4111TIP3    H212273   7.856   4.569   0.730
 4112TIP3   OH212274   6.706   4.946   1.838
 4112TIP3    H112275   6.766   4.874   1.864
 4112TIP3    H212276   6.690   4.983   1.927
 4113TIP3   OH212277   7.029   4.571   0.537
 4113TIP3    H112278   7.010   4.480   0.507
 4113TIP3    H212279   6.999   4.568   0.630
 4114TIP3   OH212280   6.946   4.595   0.801
 4114TIP3    H112281   7.016   4.571   0.862
 4114TIP3    H212282   6.947   4.694   0.808
 4115TIP3   OH212283   6.685   4.291   1.001
 4115TIP3    H112284   6.614   4.334   1.053
 4115TIP3    H212285   6.693   4.357   0.928
 4116TIP3   OH212286   7.828   3.944   1.891
 4116TIP3    H112287   7.914   3.969   1.930
 4116TIP3    H212288   7.807   3.860   1.937
 4117TIP3   OH212289   7.683   3.691   1.064
 4117TIP3    H112290   7.684   3.697   0.966
 4117TIP3    H212291   7.733   3.769   1.091
 4118TIP3   OH212292   7.205   4.793   0.729
 4118TIP3    H112293   7.119   4.826   0.760
 4118TIP3    H212294   7.221   4.847   0.650
 4119TIP3   OH212295   7.389   3.862   1.157
 4119TIP3    H112296   7.461   3.924   1.134
 4119TIP3    H212297   7.403   3.851   1.253
 4120TIP3   OH212298   7.664   4.170   1.961
 4120TIP3    H112299   7.692   4.221   2.039
 4120TIP3    H212300   7.726   4.094   1.963
 4121TIP3   OH212301   7.532   3.570   1.253
 4121TIP3    H112302   7.572   3.612   1.332
 4121TIP3    H212303   7.586   3.614   1.182
 4122TIP3   OH212304   6.952   4.866   0.807
 4122TIP3    H112305   6.932   4.939   0.745
 4122TIP3    H212306   6.935   4.909   0.894
 4123TIP3   OH212307   7.050   3.583   1.047
 4123TIP3    H112308   7.048   3.672   1.086
 4123TIP3    H212309   7.147   3.565   1.053
 4124TIP3   OH212310   7.954   4.251   1.366
 4124TIP3    H112311   7.868   4.215   1.336
 4124TIP3    H212312   7.967   4.198   1.447
 4125TIP3   OH212313   6.668   4.493   0.806
 4125TIP3    H112314   6.727   4.569   0.812
 4125TIP3    H212315   6.714   4.440   0.738
 4126TIP3   OH212316   6.613   3.772   0.937
 4126TIP3    H112317   6.615   3.869   0.933
 4126TIP3    H212318   6.536   3.752   0.884
 4127TIP3   OH212319   7.937   5.221   1.275
 4127TIP3    H112320   7.887   5.267   1.204
 4127TIP3    H212321   8.027   5.245   1.252
 4128TIP3   OH212322   7.003   3.488   1.810
 4128TIP3    H112323   6.974   3.458   1.720
 4128TIP3    H212324   6.990   3.406   1.863
 4129TIP3   OH212325   6.537   4.703   1.184
 4129TIP3    H112326   6.474   4.737   1.248
 4129TIP3    H212327   6.507   4.749   1.102
 4130TIP3   OH212328   6.701   5.264   2.257
 4130TIP3    H112329   6.783   5.256   2.310
 4130TIP3    H212330   6.688   5.170   2.230
 4131TIP3   OH212331   7.180   5.211   2.304
 4131TIP3    H112332   7.275   5.195   2.308
 4131TIP3    H212333   7.153   5.153   2.230
 4132TIP3   OH212334   7.817   5.122   2.035
 4132TIP3    H112335   7.811   5.053   2.105
 4132TIP3    H212336   7.893   5.176   2.065
 4133TIP3   OH212337   6.823   4.657   2.456
 4133TIP3    H112338   6.835   4.561   2.460
 4133TIP3    H212339   6.736   4.665   2.412
 4134TIP3   OH212340   6.817   4.318   0.663
 4134TIP3    H112341   6.878   4.285   0.730
 4134TIP3    H212342   6.875   4.320   0.584
 4135TIP3   OH212343   7.437   4.746   2.232
 4135TIP3    H112344   7.394   4.767   2.147
 4135TIP3    H212345   7.467   4.654   2.221
 4136TIP3   OH212346   7.334   4.498   0.493
 4136TIP3    H112347   7.329   4.524   0.587
 4136TIP3    H212348   7.262   4.433   0.487
 4137TIP3   OH212349   7.932   4.752   1.835
 4137TIP3    H112350   8.012   4.795   1.797
 4137TIP3    H212351   7.866   4.823   1.823
 4138TIP3   OH212352   6.947   4.385   2.442
 4138TIP3    H112353   7.031   4.344   2.420
 4138TIP3    H212354   6.968   4.425   2.529
 4139TIP3   OH212355   7.017   4.209   0.877
 4139TIP3    H112356   6.980   4.154   0.948
 4139TIP3    H212357   7.056   4.140   0.819
 4140TIP3   OH212358   7.280   4.272   2.095
 4140TIP3    H112359   7.206   4.336   2.100
 4140TIP3    H212360   7.334   4.310   2.022
 4141TIP3   OH212361   7.116   4.010   0.718
 4141TIP3    H112362   7.090   4.016   0.623
 4141TIP3    H212363   7.213   4.010   0.710
 4142TIP3   OH212364   7.799   4.679   2.235
 4142TIP3    H112365   7.880   4.656   2.189
 4142TIP3    H212366   7.796   4.613   2.307
 4143TIP3   OH212367   7.404   4.066   2.227
 4143TIP3    H112368   7.408   3.988   2.169
 4143TIP3    H212369   7.362   4.133   2.169
 4144TIP3   OH212370   7.406   3.849   2.037
 4144TIP3    H112371   7.438   3.895   1.957
 4144TIP3    H212372   7.313   3.831   2.015
 4145TIP3   OH212373   7.434   4.383   1.905
 4145TIP3    H112374   7.522   4.398   1.867
 4145TIP3    H212375   7.381   4.453   1.861
 4146TIP3   OH212376   8.016   4.358   2.289
 4146TIP3    H112377   8.066   4.276   2.297
 4146TIP3    H212378   8.082   4.419   2.253
 4147TIP3   OH212379   8.069   4.605   2.021
 4147TIP3    H112380   8.015   4.661   1.961
 4147TIP3    H212381   8.151   4.595   1.969
 4148TIP3   OH212382   7.284   4.176   2.459
 4148TIP3    H112383   7.214   4.110   2.475
 4148TIP3    H212384   7.319   4.146   2.372
 4149TIP3   OH212385   7.533   3.613   2.106
 4149TIP3    H112386   7.482   3.694   2.085
 4149TIP3    H212387   7.465   3.543   2.094
 4150TIP3   OH212388   7.668   4.118   2.319
 4150TIP3    H112389   7.660   4.106   2.415
 4150TIP3    H212390   7.577   4.095   2.291
 4151TIP3   OH212391   7.907   4.067   2.169
 4151TIP3    H112392   7.829   4.074   2.228
 4151TIP3    H212393   7.973   4.028   2.231
 4152TIP3   OH212394   8.102   3.973   2.337
 4152TIP3    H112395   8.165   3.905   2.362
 4152TIP3    H212396   8.114   4.039   2.408
 4153TIP3   OH212397   7.121   3.955   2.512
 4153TIP3    H112398   7.139   3.864   2.485
 4153TIP3    H212399   7.155   3.954   2.604
 4154TIP3   OH212400   7.635   3.626   2.361
 4154TIP3    H112401   7.691   3.547   2.361
 4154TIP3    H212402   7.595   3.621   2.272
 4155TIP3   OH212403   7.702   3.843   2.519
 4155TIP3    H112404   7.679   3.772   2.455
 4155TIP3    H212405   7.623   3.901   2.514
 4156TIP3   OH212406   6.938   5.057   0.615
 4156TIP3    H112407   7.020   5.052   0.560
 4156TIP3    H212408   6.883   5.114   0.561
 4157TIP3   OH212409   6.401   4.445   0.851
 4157TIP3    H112410   6.491   4.473   0.824
 4157TIP3    H212411   6.391   4.364   0.796
 4158TIP3   OH212412   6.317   5.064   1.253
 4158TIP3    H112413   6.252   5.003   1.211
 4158TIP3    H212414   6.362   5.003   1.316
 4159TIP3   OH212415   6.457   4.910   1.436
 4159TIP3    H112416   6.440   4.841   1.503
 4159TIP3    H212417   6.507   4.974   1.489
 4160TIP3   OH212418   8.258   5.302   1.520
 4160TIP3    H112419   8.201   5.222   1.514
 4160TIP3    H212420   8.221   5.343   1.600
 4161TIP3   OH212421   8.223   5.030   2.092
 4161TIP3    H112422   8.156   5.028   2.164
 4161TIP3    H212423   8.263   5.119   2.102
 4162TIP3   OH212424   8.088   5.081   1.539
 4162TIP3    H112425   8.021   5.126   1.596
 4162TIP3    H212426   8.030   5.034   1.476
 4163TIP3   OH212427   7.988   4.216   1.063
 4163TIP3    H112428   8.075   4.170   1.071
 4163TIP3    H212429   7.990   4.268   1.145
 4164TIP3   OH212430   6.648   4.296   1.817
 4164TIP3    H112431   6.640   4.283   1.720
 4164TIP3    H212432   6.744   4.313   1.825
 4165TIP3   OH212433   6.855   4.008   2.464
 4165TIP3    H112434   6.952   4.007   2.477
 4165TIP3    H212435   6.831   3.929   2.517
 4166TIP3   OH212436   6.824   3.697   1.803
 4166TIP3    H112437   6.884   3.620   1.813
 4166TIP3    H212438   6.887   3.771   1.810
 4167TIP3   OH212439   6.623   3.986   1.891
 4167TIP3    H112440   6.647   3.966   1.801
 4167TIP3    H212441   6.643   4.080   1.899
 4168TIP3   OH212442   6.603   3.481   1.392
 4168TIP3    H112443   6.508   3.474   1.413
 4168TIP3    H212444   6.601   3.537   1.312
 4169TIP3   OH212445   7.763   5.175   0.879
 4169TIP3    H112446   7.786   5.179   0.785
 4169TIP3    H212447   7.816   5.247   0.918
 4170TIP3   OH212448   7.050   5.017   1.826
 4170TIP3    H112449   6.990   5.087   1.792
 4170TIP3    H212450   7.131   5.041   1.776
 4171TIP3   OH212451   7.486   5.259   1.962
 4171TIP3    H112452   7.527   5.262   2.051
 4171TIP3    H212453   7.551   5.312   1.911
 4172TIP3   OH212454   7.665   5.414   1.825
 4172TIP3    H112455   7.738   5.368   1.782
 4172TIP3    H212456   7.714   5.473   1.886
 4173TIP3   OH212457   6.721   5.286   1.840
 4173TIP3    H112458   6.629   5.317   1.825
 4173TIP3    H212459   6.726   5.290   1.936
 4174TIP3   OH212460   6.956   5.252   1.706
 4174TIP3    H112461   6.870   5.267   1.753
 4174TIP3    H212462   6.936   5.287   1.618
 4175TIP3   OH212463   7.380   5.281   1.505
 4175TIP3    H112464   7.310   5.301   1.441
 4175TIP3    H212465   7.393   5.368   1.548
 4176TIP3   OH212466   7.648   5.215   1.557
 4176TIP3    H112467   7.555   5.238   1.538
 4176TIP3    H212468   7.695   5.292   1.520
 4177TIP3   OH212469   7.835   5.402   1.468
 4177TIP3    H112470   7.836   5.493   1.432
 4177TIP3    H212471   7.867   5.350   1.391
 4178TIP3   OH212472   6.630   5.067   1.595
 4178TIP3    H112473   6.660   5.047   1.687
 4178TIP3    H212474   6.703   5.025   1.545
 4179TIP3   OH212475   6.824   4.940   1.451
 4179TIP3    H112476   6.839   4.857   1.502
 4179TIP3    H212477   6.914   4.979   1.449
 4180TIP3   OH212478   7.089   5.034   1.457
 4180TIP3    H112479   7.124   4.944   1.448
 4180TIP3    H212480   7.134   5.061   1.540
 4181TIP3   OH212481   7.615   3.662   1.498
 4181TIP3    H112482   7.605   3.612   1.581
 4181TIP3    H212483   7.712   3.661   1.487
 4182TIP3   OH212484   6.913   3.400   1.566
 4182TIP3    H112485   6.820   3.369   1.560
 4182TIP3    H212486   6.961   3.316   1.555
 4183TIP3   OH212487   6.705   3.269   1.209
 4183TIP3    H112488   6.734   3.324   1.134
 4183TIP3    H212489   6.676   3.337   1.273
 4184TIP3   OH212490   7.365   3.430   1.442
 4184TIP3    H112491   7.414   3.474   1.371
 4184TIP3    H212492   7.406   3.468   1.521
 4185TIP3   OH212493   7.866   3.564   1.420
 4185TIP3    H112494   7.899   3.544   1.332
 4185TIP3    H212495   7.866   3.475   1.461
 4186TIP3   OH212496   6.417   4.847   0.991
 4186TIP3    H112497   6.333   4.812   0.953
 4186TIP3    H212498   6.410   4.938   0.956
 4187TIP3   OH212499   6.820   3.425   0.970
 4187TIP3    H112500   6.867   3.363   0.911
 4187TIP3    H212501   6.893   3.479   1.004
 4188TIP3   OH212502   7.326   3.609   1.067
 4188TIP3    H112503   7.389   3.561   1.125
 4188TIP3    H212504   7.350   3.701   1.091
 4189TIP3   OH212505   7.122   3.668   2.440
 4189TIP3    H112506   7.086   3.605   2.505
 4189TIP3    H212507   7.215   3.672   2.470
 4190TIP3   OH212508   7.368   3.674   2.564
 4190TIP3    H112509   7.457   3.652   2.533
 4190TIP3    H212510   7.355   3.607   2.634
 4191TIP3   OH212511   6.468   4.828   0.648
 4191TIP3    H112512   6.470   4.901   0.711
 4191TIP3    H212513   6.563   4.812   0.630
 4192TIP3   OH212514   8.134   5.299   1.847
 4192TIP3    H112515   8.057   5.263   1.799
 4192TIP3    H212516   8.110   5.394   1.853
 4193TIP3   OH212517   0.057   5.200   2.817
 4193TIP3    H112518   0.019   5.289   2.817
 4193TIP3    H212519  -0.012   5.151   2.766
 4194TIP3   OH212520   0.073   5.186   3.186
 4194TIP3    H112521   0.096   5.156   3.276
 4194TIP3    H212522   0.029   5.108   3.150
 4195TIP3   OH212523   0.301   5.498   2.881
 4195TIP3    H112524   0.291   5.429   2.947
 4195TIP3    H212525   0.331   5.573   2.935
 4196TIP3   OH212526   0.002   5.984   2.885
 4196TIP3    H112527   0.046   5.901   2.857
 4196TIP3    H212528  -0.066   5.951   2.946
 4197TIP3   OH212529  -0.117   5.390   3.258
 4197TIP3    H112530  -0.082   5.319   3.203
 4197TIP3    H212531  -0.035   5.442   3.274
 4198TIP3   OH212532   0.867   4.741   3.244
 4198TIP3    H112533   0.900   4.824   3.284
 4198TIP3    H212534   0.892   4.754   3.151
 4199TIP3   OH212535   0.251   4.917   3.284
 4199TIP3    H112536   0.306   4.838   3.301
 4199TIP3    H212537   0.233   4.906   3.188
 4200TIP3   OH212538   0.300   4.679   2.866
 4200TIP3    H112539   0.371   4.661   2.932
 4200TIP3    H212540   0.355   4.707   2.790
 4201TIP3   OH212541   0.945   4.951   3.412
 4201TIP3    H112542   0.859   4.994   3.395
 4201TIP3    H212543   0.953   4.962   3.508
 4202TIP3   OH212544  -0.081   5.430   2.698
 4202TIP3    H112545  -0.093   5.380   2.616
 4202TIP3    H212546  -0.001   5.483   2.677
 4203TIP3   OH212547   0.504   4.678   3.042
 4203TIP3    H112548   0.529   4.609   3.105
 4203TIP3    H212549   0.565   4.750   3.067
 4204TIP3   OH212550   0.368   5.742   3.047
 4204TIP3    H112551   0.277   5.733   3.084
 4204TIP3    H212552   0.362   5.830   3.005
 4205TIP3   OH212553   0.662   4.648   3.413
 4205TIP3    H112554   0.576   4.667   3.374
 4205TIP3    H212555   0.724   4.673   3.342
 4206TIP3   OH212556  -0.039   4.269   3.382
 4206TIP3    H112557  -0.030   4.172   3.390
 4206TIP3    H212558  -0.093   4.286   3.461
 4207TIP3   OH212559   0.068   5.771   2.709
 4207TIP3    H112560   0.112   5.686   2.687
 4207TIP3    H212561   0.135   5.835   2.676
 4208TIP3   OH212562   0.181   5.534   2.634
 4208TIP3    H112563   0.219   5.475   2.566
 4208TIP3    H212564   0.238   5.516   2.712
 4209TIP3   OH212565   0.601   5.652   3.393
 4209TIP3    H112566   0.589   5.576   3.332
 4209TIP3    H212567   0.583   5.728   3.333
 4210TIP3   OH212568  -0.110   5.069   2.648
 4210TIP3    H112569  -0.191   5.016   2.664
 4210TIP3    H212570  -0.083   5.044   2.558
 4211TIP3   OH212571  -0.134   4.832   2.370
 4211TIP3    H112572  -0.061   4.886   2.405
 4211TIP3    H212573  -0.084   4.766   2.318
 4212TIP3   OH212574   0.793   5.294   3.238
 4212TIP3    H112575   0.708   5.344   3.240
 4212TIP3    H212576   0.822   5.314   3.146
 4213TIP3   OH212577   0.237   5.131   2.620
 4213TIP3    H112578   0.184   5.152   2.700
 4213TIP3    H212579   0.321   5.102   2.661
 4214TIP3   OH212580   0.473   5.168   3.538
 4214TIP3    H112581   0.471   5.249   3.594
 4214TIP3    H212582   0.396   5.185   3.481
 4215TIP3   OH212583   0.124   5.736   3.162
 4215TIP3    H112584   0.113   5.817   3.214
 4215TIP3    H212585   0.113   5.665   3.229
 4216TIP3   OH212586   0.076   4.988   2.448
 4216TIP3    H112587   0.133   5.047   2.501
 4216TIP3    H212588   0.104   5.013   2.356
 4217TIP3   OH212589   0.587   4.231   2.476
 4217TIP3    H112590   0.515   4.247   2.540
 4217TIP3    H212591   0.598   4.319   2.434
 4218TIP3   OH212592   0.393   5.593   2.045
 4218TIP3    H112593   0.401   5.690   2.029
 4218TIP3    H212594   0.486   5.564   2.032
 4219TIP3   OH212595   0.837   6.000   3.441
 4219TIP3    H112596   0.833   5.903   3.450
 4219TIP3    H212597   0.752   6.025   3.485
 4220TIP3   OH212598  -0.045   5.843   2.172
 4220TIP3    H112599  -0.010   5.762   2.131
 4220TIP3    H212600  -0.053   5.819   2.265
 4221TIP3   OH212601  -0.053   5.859   2.453
 4221TIP3    H112602  -0.118   5.867   2.526
 4221TIP3    H212603   0.028   5.841   2.504
 4222TIP3   OH212604   0.729   5.132   3.710
 4222TIP3    H112605   0.646   5.141   3.661
 4222TIP3    H212606   0.746   5.036   3.700
 4223TIP3   OH212607   0.265   4.477   3.713
 4223TIP3    H112608   0.336   4.446   3.775
 4223TIP3    H212609   0.184   4.456   3.763
 4224TIP3   OH212610   0.478   4.899   3.627
 4224TIP3    H112611   0.439   4.897   3.717
 4224TIP3    H212612   0.469   4.993   3.602
 4225TIP3   OH212613   0.156   5.045   2.200
 4225TIP3    H112614   0.119   5.012   2.116
 4225TIP3    H212615   0.241   5.080   2.169
 4226TIP3   OH212616  -0.146   4.416   2.469
 4226TIP3    H112617  -0.160   4.414   2.567
 4226TIP3    H212618  -0.174   4.325   2.448
 4227TIP3   OH212619   0.032   4.857   2.785
 4227TIP3    H112620  -0.023   4.925   2.742
 4227TIP3    H212621   0.082   4.820   2.709
 4228TIP3   OH212622   0.222   5.110   3.855
 4228TIP3    H112623   0.200   5.042   3.923
 4228TIP3    H212624   0.316   5.126   3.877
 4229TIP3   OH212625   0.178   4.876   3.019
 4229TIP3    H112626   0.121   4.900   2.943
 4229TIP3    H212627   0.218   4.796   2.979
 4230TIP3   OH212628   0.181   5.117   3.450
 4230TIP3    H112629   0.217   5.049   3.388
 4230TIP3    H212630   0.179   5.067   3.532
 4231TIP3   OH212631  -0.122   4.585   3.100
 4231TIP3    H112632  -0.214   4.592   3.132
 4231TIP3    H212633  -0.069   4.575   3.181
 4232TIP3   OH212634   0.356   4.665   3.329
 4232TIP3    H112635   0.311   4.664   3.415
 4232TIP3    H212636   0.308   4.596   3.280
 4233TIP3   OH212637   0.525   6.338   3.547
 4233TIP3    H112638   0.519   6.356   3.453
 4233TIP3    H212639   0.607   6.387   3.573
 4234TIP3   OH212640  -0.040   4.906   3.208
 4234TIP3    H112641   0.017   4.873   3.136
 4234TIP3    H212642   0.013   4.885   3.286
 4235TIP3   OH212643   0.558   5.437   3.226
 4235TIP3    H112644   0.584   5.487   3.145
 4235TIP3    H212645   0.474   5.394   3.197
 4236TIP3   OH212646   0.113   4.508   2.468
 4236TIP3    H112647   0.016   4.494   2.467
 4236TIP3    H212648   0.122   4.603   2.490
 4237TIP3   OH212649   0.045   5.515   3.595
 4237TIP3    H112650   0.086   5.519   3.682
 4237TIP3    H212651  -0.007   5.599   3.594
 4238TIP3   OH212652   0.185   4.760   2.567
 4238TIP3    H112653   0.282   4.761   2.581
 4238TIP3    H212654   0.171   4.838   2.510
 4239TIP3   OH212655  -0.201   5.346   2.434
 4239TIP3    H112656  -0.258   5.422   2.416
 4239TIP3    H212657  -0.263   5.286   2.478
 4240TIP3   OH212658   0.011   5.246   3.960
 4240TIP3    H112659  -0.045   5.177   3.922
 4240TIP3    H212660   0.098   5.223   3.922
 4241TIP3   OH212661   0.218   5.774   3.483
 4241TIP3    H112662   0.124   5.778   3.502
 4241TIP3    H212663   0.254   5.825   3.561
 4242TIP3   OH212664   0.628   4.852   2.399
 4242TIP3    H112665   0.565   4.807   2.338
 4242TIP3    H212666   0.625   4.940   2.358
 4243TIP3   OH212667   0.855   5.709   3.484
 4243TIP3    H112668   0.757   5.704   3.476
 4243TIP3    H212669   0.880   5.679   3.394
 4244TIP3   OH212670   0.332   5.664   2.309
 4244TIP3    H112671   0.305   5.583   2.355
 4244TIP3    H212672   0.345   5.631   2.217
 4245TIP3   OH212673   0.329   5.297   3.143
 4245TIP3    H112674   0.235   5.272   3.153
 4245TIP3    H212675   0.363   5.218   3.098
 4246TIP3   OH212676   0.122   5.503   3.328
 4246TIP3    H112677   0.110   5.507   3.425
 4246TIP3    H212678   0.208   5.459   3.321
 4247TIP3   OH212679   0.094   5.403   2.208
 4247TIP3    H112680   0.137   5.376   2.291
 4247TIP3    H212681   0.005   5.365   2.219
 4248TIP3   OH212682   0.361   6.035   3.367
 4248TIP3    H112683   0.280   5.980   3.364
 4248TIP3    H212684   0.337   6.106   3.305
 4249TIP3   OH212685   0.419   5.865   2.035
 4249TIP3    H112686   0.444   5.927   1.965
 4249TIP3    H212687   0.342   5.914   2.072
 4250TIP3   OH212688   0.250   5.343   2.441
 4250TIP3    H112689   0.238   5.266   2.501
 4250TIP3    H212690   0.345   5.331   2.417
 4251TIP3   OH212691   0.263   4.722   3.590
 4251TIP3    H112692   0.353   4.758   3.602
 4251TIP3    H212693   0.270   4.636   3.638
 4252TIP3   OH212694   0.160   4.460   2.748
 4252TIP3    H112695   0.144   4.479   2.653
 4252TIP3    H212696   0.200   4.544   2.779
 4253TIP3   OH212697  -0.160   4.661   2.841
 4253TIP3    H112698  -0.086   4.723   2.827
 4253TIP3    H212699  -0.153   4.642   2.936
 4254TIP3   OH212700   0.101   4.929   3.686
 4254TIP3    H112701   0.149   4.992   3.745
 4254TIP3    H212702   0.173   4.865   3.664
 4255TIP3   OH212703  -0.001   4.367   2.956
 4255TIP3    H112704  -0.018   4.452   3.001
 4255TIP3    H212705   0.054   4.398   2.881
 4256TIP3   OH212706   0.750   4.866   3.625
 4256TIP3    H112707   0.653   4.859   3.632
 4256TIP3    H212708   0.766   4.807   3.550
 4257TIP3   OH212709   0.408   5.056   3.021
 4257TIP3    H112710   0.334   4.993   3.027
 4257TIP3    H212711   0.481   5.008   3.066
 4258TIP3   OH212712   0.383   6.015   2.975
 4258TIP3    H112713   0.335   6.063   2.905
 4258TIP3    H212714   0.475   6.039   2.949
 4259TIP3   OH212715   0.287   5.904   3.710
 4259TIP3    H112716   0.261   5.849   3.787
 4259TIP3    H212717   0.348   5.967   3.751
 4260TIP3   OH212718   0.075   5.622   2.033
 4260TIP3    H112719   0.102   5.553   2.097
 4260TIP3    H212720   0.139   5.610   1.962
 4261TIP3   OH212721  -0.207   5.282   2.162
 4261TIP3    H112722  -0.208   5.287   2.260
 4261TIP3    H212723  -0.210   5.184   2.149
 4262TIP3   OH212724   0.378   5.543   3.524
 4262TIP3    H112725   0.457   5.585   3.483
 4262TIP3    H212726   0.313   5.615   3.511
 4263TIP3   OH212727  -0.396   4.816   2.461
 4263TIP3    H112728  -0.425   4.804   2.368
 4263TIP3    H212729  -0.300   4.813   2.449
 4264TIP3   OH212730   0.245   5.466   3.931
 4264TIP3    H112731   0.327   5.445   3.885
 4264TIP3    H212732   0.248   5.403   4.006
 4265TIP3   OH212733   0.387   5.122   2.072
 4265TIP3    H112734   0.369   5.077   1.986
 4265TIP3    H212735   0.355   5.213   2.048
 4266TIP3   OH212736  -0.062   5.226   3.544
 4266TIP3    H112737   0.031   5.211   3.516
 4266TIP3    H212738  -0.076   5.314   3.505
 4267TIP3   OH212739   0.472   5.137   3.974
 4267TIP3    H112740   0.520   5.058   4.005
 4267TIP3    H212741   0.544   5.195   3.947
 4268TIP3   OH212742   0.511   5.395   3.709
 4268TIP3    H112743   0.453   5.451   3.652
 4268TIP3    H212744   0.599   5.416   3.672
 4269TIP3   OH212745  -0.001   4.412   3.777
 4269TIP3    H112746  -0.070   4.470   3.817
 4269TIP3    H212747  -0.056   4.343   3.736
 4270TIP3   OH212748   0.116   4.913   4.029
 4270TIP3    H112749   0.173   4.912   4.109
 4270TIP3    H212750   0.039   4.865   4.065
 4271TIP3   OH212751   0.360   4.853   3.867
 4271TIP3    H112752   0.291   4.842   3.935
 4271TIP3    H212753   0.440   4.823   3.915
 4272TIP3   OH212754   0.583   4.795   4.011
 4272TIP3    H112755   0.600   4.700   4.030
 4272TIP3    H212756   0.580   4.834   4.101
 4273TIP3   OH212757   0.093   4.419   4.036
 4273TIP3    H112758   0.160   4.349   4.051
 4273TIP3    H212759   0.064   4.396   3.946
 4274TIP3   OH212760   0.169   4.630   4.191
 4274TIP3    H112761   0.148   4.551   4.136
 4274TIP3    H212762   0.080   4.670   4.200
 4275TIP3   OH212763   0.631   6.123   2.924
 4275TIP3    H112764   0.668   6.119   3.015
 4275TIP3    H212765   0.710   6.130   2.868
 4276TIP3   OH212766   0.681   6.116   3.193
 4276TIP3    H112767   0.626   6.035   3.202
 4276TIP3    H212768   0.745   6.101   3.264
 4277TIP3   OH212769   0.712   5.799   3.781
 4277TIP3    H112770   0.637   5.811   3.843
 4277TIP3    H212771   0.749   5.889   3.777
 4278TIP3   OH212772   0.521   5.314   2.402
 4278TIP3    H112773   0.588   5.377   2.369
 4278TIP3    H212774   0.569   5.274   2.479
 4279TIP3   OH212775   0.651   5.181   2.605
 4279TIP3    H112776   0.586   5.137   2.664
 4279TIP3    H212777   0.717   5.216   2.668
 4280TIP3   OH212778   0.706   5.572   3.036
 4280TIP3    H112779   0.760   5.504   2.989
 4280TIP3    H212780   0.704   5.645   2.972
 4281TIP3   OH212781   0.540   5.871   3.232
 4281TIP3    H112782   0.469   5.918   3.282
 4281TIP3    H212783   0.489   5.826   3.162
 4282TIP3   OH212784   0.590   5.089   2.252
 4282TIP3    H112785   0.519   5.088   2.184
 4282TIP3    H212786   0.560   5.165   2.305
 4283TIP3   OH212787   0.456   4.764   2.208
 4283TIP3    H112788   0.420   4.794   2.124
 4283TIP3    H212789   0.434   4.668   2.203
 4284TIP3   OH212790   0.464   5.036   2.750
 4284TIP3    H112791   0.473   4.940   2.741
 4284TIP3    H212792   0.451   5.047   2.847
 4285TIP3   OH212793   0.757   5.461   3.609
 4285TIP3    H112794   0.829   5.395   3.599
 4285TIP3    H212795   0.781   5.528   3.543
 4286TIP3   OH212796   0.948   5.270   3.628
 4286TIP3    H112797   0.870   5.220   3.663
 4286TIP3    H212798   1.016   5.200   3.640
 4287TIP3   OH212799   0.400   4.499   2.194
 4287TIP3    H112800   0.480   4.466   2.240
 4287TIP3    H212801   0.333   4.432   2.214
 4288TIP3   OH212802   0.463   4.752   2.645
 4288TIP3    H112803   0.503   4.663   2.662
 4288TIP3    H212804   0.521   4.781   2.572
 4289TIP3   OH212805   0.621   4.931   3.140
 4289TIP3    H112806   0.708   4.953   3.099
 4289TIP3    H212807   0.639   4.962   3.231
 4290TIP3   OH212808   0.694   5.072   3.372
 4290TIP3    H112809   0.617   5.106   3.421
 4290TIP3    H212810   0.727   5.152   3.326
 4291TIP3   OH212811   1.134   4.657   3.923
 4291TIP3    H112812   1.201   4.595   3.888
 4291TIP3    H212813   1.118   4.716   3.846
 4292TIP3   OH212814   0.570   4.502   2.689
 4292TIP3    H112815   0.624   4.476   2.766
 4292TIP3    H212816   0.510   4.425   2.682
 4293TIP3   OH212817   1.014   4.806   3.722
 4293TIP3    H112818   0.928   4.839   3.753
 4293TIP3    H212819   0.985   4.726   3.673
 4294TIP3   OH212820   0.648   4.444   2.308
 4294TIP3    H112821   0.692   4.364   2.270
 4294TIP3    H212822   0.723   4.506   2.309
 4295TIP3   OH212823   0.222   5.954   2.589
 4295TIP3    H112824   0.269   5.946   2.503
 4295TIP3    H212825   0.262   6.035   2.624
 4296TIP3   OH212826   0.118   6.197   3.516
 4296TIP3    H112827   0.182   6.128   3.495
 4296TIP3    H212828   0.172   6.256   3.572
 4297TIP3   OH212829   0.913   4.561   3.614
 4297TIP3    H112830   0.823   4.544   3.581
 4297TIP3    H212831   0.952   4.471   3.606
 4298TIP3   OH212832   0.092   6.019   3.254
 4298TIP3    H112833   0.004   6.014   3.294
 4298TIP3    H212834   0.089   6.107   3.215
 4299TIP3   OH212835   0.324   6.238   3.137
 4299TIP3    H112836   0.237   6.239   3.096
 4299TIP3    H212837   0.365   6.163   3.089
 4300TIP3   OH212838   0.120   4.479   3.243
 4300TIP3    H112839   0.078   4.398   3.277
 4300TIP3    H212840   0.189   4.443   3.184
 4301TIP3   OH212841   0.637   4.391   3.150
 4301TIP3    H112842   0.681   4.411   3.064
 4301TIP3    H212843   0.546   4.374   3.123
 4302TIP3   OH212844   0.748   4.437   2.899
 4302TIP3    H112845   0.819   4.379   2.865
 4302TIP3    H212846   0.785   4.526   2.880
 4303TIP3   OH212847  -0.174   4.215   3.136
 4303TIP3    H112848  -0.128   4.262   3.064
 4303TIP3    H212849  -0.124   4.246   3.214
 4304TIP3   OH212850   0.346   4.366   3.112
 4304TIP3    H112851   0.361   4.325   3.025
 4304TIP3    H212852   0.338   4.287   3.170
 4305TIP3   OH212853   0.389   4.292   2.671
 4305TIP3    H112854   0.300   4.328   2.688
 4305TIP3    H212855   0.382   4.205   2.716
 4306TIP3   OH212856  -0.177   4.401   2.736
 4306TIP3    H112857  -0.161   4.353   2.818
 4306TIP3    H212858  -0.189   4.493   2.768
 4307TIP3   OH212859   0.359   5.931   2.355
 4307TIP3    H112860   0.355   5.834   2.339
 4307TIP3    H212861   0.315   5.964   2.273
 4308TIP3   OH212862   0.649   4.528   4.046
 4308TIP3    H112863   0.667   4.496   4.137
 4308TIP3    H212864   0.739   4.522   4.006
 4309TIP3   OH212865   0.589   6.073   3.539
 4309TIP3    H112866   0.510   6.044   3.489
 4309TIP3    H212867   0.567   6.168   3.552
 4310TIP3   OH212868   1.852   5.449   2.305
 4310TIP3    H112869   1.825   5.541   2.285
 4310TIP3    H212870   1.777   5.401   2.266
 4311TIP3   OH212871   1.852   5.456   2.687
 4311TIP3    H112872   1.886   5.427   2.774
 4311TIP3    H212873   1.817   5.375   2.649
 4312TIP3   OH212874   1.151   5.346   3.053
 4312TIP3    H112875   1.183   5.277   3.115
 4312TIP3    H212876   1.231   5.399   3.042
 4313TIP3   OH212877   2.097   5.754   2.369
 4313TIP3    H112878   2.085   5.687   2.437
 4313TIP3    H212879   2.129   5.830   2.421
 4314TIP3   OH212880   1.124   5.757   2.776
 4314TIP3    H112881   1.117   5.659   2.776
 4314TIP3    H212882   1.221   5.767   2.765
 4315TIP3   OH212883   0.835   4.962   2.559
 4315TIP3    H112884   0.782   5.042   2.571
 4315TIP3    H212885   0.768   4.903   2.519
 4316TIP3   OH212886   0.886   5.249   2.734
 4316TIP3    H112887   0.936   5.171   2.769
 4316TIP3    H212888   0.944   5.279   2.663
 4317TIP3   OH212889   1.749   6.217   2.386
 4317TIP3    H112890   1.790   6.146   2.331
 4317TIP3    H212891   1.743   6.173   2.472
 4318TIP3   OH212892   1.651   5.678   2.735
 4318TIP3    H112893   1.693   5.603   2.690
 4318TIP3    H212894   1.733   5.726   2.760
 4319TIP3   OH212895   2.665   4.997   2.730
 4319TIP3    H112896   2.695   5.080   2.773
 4319TIP3    H212897   2.692   5.013   2.638
 4320TIP3   OH212898   2.056   5.177   2.765
 4320TIP3    H112899   2.106   5.097   2.788
 4320TIP3    H212900   2.033   5.159   2.672
 4321TIP3   OH212901   2.097   4.933   2.352
 4321TIP3    H112902   2.169   4.917   2.418
 4321TIP3    H212903   2.151   4.966   2.277
 4322TIP3   OH212904   1.032   5.043   2.838
 4322TIP3    H112905   1.112   5.021   2.889
 4322TIP3    H212906   1.045   4.985   2.760
 4323TIP3   OH212907   1.474   5.232   2.631
 4323TIP3    H112908   1.570   5.212   2.642
 4323TIP3    H212909   1.440   5.144   2.604
 4324TIP3   OH212910   2.739   5.204   2.903
 4324TIP3    H112911   2.655   5.252   2.884
 4324TIP3    H212912   2.760   5.238   2.991
 4325TIP3   OH212913   1.399   4.821   3.165
 4325TIP3    H112914   1.334   4.859   3.103
 4325TIP3    H212915   1.351   4.832   3.249
 4326TIP3   OH212916   1.739   5.669   2.175
 4326TIP3    H112917   1.704   5.657   2.085
 4326TIP3    H212918   1.698   5.753   2.201
 4327TIP3   OH212919   1.505   5.598   2.957
 4327TIP3    H112920   1.445   5.667   2.994
 4327TIP3    H212921   1.549   5.646   2.885
 4328TIP3   OH212922   2.304   4.935   2.528
 4328TIP3    H112923   2.304   4.887   2.611
 4328TIP3    H212924   2.359   5.013   2.549
 4329TIP3   OH212925   1.265   4.936   2.947
 4329TIP3    H112926   1.327   5.008   2.974
 4329TIP3    H212927   1.305   4.908   2.864
 4330TIP3   OH212928   1.334   5.794   3.058
 4330TIP3    H112929   1.309   5.879   3.019
 4330TIP3    H212930   1.254   5.777   3.113
 4331TIP3   OH212931   0.723   5.481   2.294
 4331TIP3    H112932   0.687   5.505   2.206
 4331TIP3    H212933   0.756   5.567   2.326
 4332TIP3   OH212934   2.165   5.998   2.533
 4332TIP3    H112935   2.075   5.990   2.572
 4332TIP3    H212936   2.158   6.084   2.488
 4333TIP3   OH212937   2.459   4.896   2.895
 4333TIP3    H112938   2.373   4.929   2.864
 4333TIP3    H212939   2.521   4.930   2.827
 4334TIP3   OH212940   1.753   4.532   2.885
 4334TIP3    H112941   1.742   4.439   2.916
 4334TIP3    H212942   1.677   4.574   2.929
 4335TIP3   OH212943   1.864   6.044   2.204
 4335TIP3    H112944   1.914   5.961   2.185
 4335TIP3    H212945   1.927   6.109   2.165
 4336TIP3   OH212946   2.007   5.828   2.118
 4336TIP3    H112947   1.983   5.747   2.071
 4336TIP3    H212948   2.045   5.793   2.202
 4337TIP3   OH212949   2.392   5.909   2.878
 4337TIP3    H112950   2.382   5.832   2.818
 4337TIP3    H212951   2.375   5.984   2.817
 4338TIP3   OH212952   1.685   5.304   2.135
 4338TIP3    H112953   1.605   5.358   2.114
 4338TIP3    H212954   1.730   5.302   2.049
 4339TIP3   OH212955   1.644   5.088   1.851
 4339TIP3    H112956   1.712   5.142   1.896
 4339TIP3    H212957   1.702   5.025   1.803
 4340TIP3   OH212958   2.587   5.546   2.722
 4340TIP3    H112959   2.505   5.599   2.726
 4340TIP3    H212960   2.619   5.571   2.633
 4341TIP3   OH212961   2.031   5.386   2.106
 4341TIP3    H112962   1.978   5.410   2.185
 4341TIP3    H212963   2.116   5.362   2.148
 4342TIP3   OH212964   2.267   5.424   3.022
 4342TIP3    H112965   2.266   5.507   3.074
 4342TIP3    H212966   2.182   5.432   2.975
 4343TIP3   OH212967   1.263   5.383   2.526
 4343TIP3    H112968   1.221   5.327   2.457
 4343TIP3    H212969   1.341   5.330   2.552
 4344TIP3   OH212970   1.391   5.792   2.673
 4344TIP3    H112971   1.373   5.760   2.583
 4344TIP3    H212972   1.481   5.758   2.690
 4345TIP3   OH212973   1.399   5.355   2.878
 4345TIP3    H112974   1.433   5.334   2.789
 4345TIP3    H212975   1.443   5.441   2.898
 4346TIP3   OH212976   1.923   5.993   2.655
 4346TIP3    H112977   1.913   6.073   2.709
 4346TIP3    H212978   1.909   5.921   2.718
 4347TIP3   OH212979   1.540   5.912   3.202
 4347TIP3    H112980   1.480   5.974   3.247
 4347TIP3    H212981   1.475   5.858   3.151
 4348TIP3   OH212982   1.870   5.245   1.932
 4348TIP3    H112983   1.930   5.305   1.982
 4348TIP3    H212984   1.897   5.266   1.839
 4349TIP3   OH212985   1.294   5.467   3.308
 4349TIP3    H112986   1.296   5.555   3.350
 4349TIP3    H212987   1.198   5.447   3.314
 4350TIP3   OH212988   1.616   5.923   2.212
 4350TIP3    H112989   1.699   5.974   2.219
 4350TIP3    H212990   1.557   5.984   2.165
 4351TIP3   OH212991   1.334   6.078   3.285
 4351TIP3    H112992   1.300   6.080   3.194
 4351TIP3    H212993   1.253   6.059   3.337
 4352TIP3   OH212994   2.389   4.484   1.981
 4352TIP3    H112995   2.308   4.506   2.031
 4352TIP3    H212996   2.404   4.566   1.930
 4353TIP3   OH212997   1.130   5.225   2.332
 4353TIP3    H112998   1.066   5.272   2.274
 4353TIP3    H212999   1.088   5.138   2.337
 4354TIP3   OH213000   2.189   5.851   1.531
 4354TIP3    H113001   2.198   5.947   1.514
 4354TIP3    H213002   2.282   5.821   1.518
 4355TIP3   OH213003   0.910   5.611   3.237
 4355TIP3    H113004   0.845   5.590   3.167
 4355TIP3    H213005   0.948   5.524   3.259
 4356TIP3   OH213006   0.769   5.801   2.870
 4356TIP3    H113007   0.863   5.789   2.852
 4356TIP3    H213008   0.771   5.877   2.930
 4357TIP3   OH213009   2.630   6.255   2.925
 4357TIP3    H113010   2.629   6.159   2.939
 4357TIP3    H213011   2.546   6.281   2.971
 4358TIP3   OH213012   1.736   6.041   3.058
 4358TIP3    H113013   1.733   6.133   3.091
 4358TIP3    H213014   1.665   6.000   3.113
 4359TIP3   OH213015   1.499   6.167   2.012
 4359TIP3    H113016   1.453   6.148   1.928
 4359TIP3    H213017   1.466   6.256   2.035
 4360TIP3   OH213018   0.935   6.018   2.396
 4360TIP3    H113019   0.982   6.007   2.482
 4360TIP3    H213020   0.883   5.936   2.392
 4361TIP3   OH213021   1.699   6.071   1.649
 4361TIP3    H113022   1.758   6.001   1.613
 4361TIP3    H213023   1.734   6.081   1.740
 4362TIP3   OH213024   1.750   6.120   1.919
 4362TIP3    H113025   1.661   6.129   1.961
 4362TIP3    H213026   1.801   6.081   1.991
 4363TIP3   OH213027   2.519   5.384   3.201
 4363TIP3    H113028   2.438   5.395   3.149
 4363TIP3    H213029   2.536   5.288   3.191
 4364TIP3   OH213030   1.116   5.792   3.222
 4364TIP3    H113031   1.164   5.776   3.305
 4364TIP3    H213032   1.041   5.729   3.229
 4365TIP3   OH213033   1.506   4.637   2.982
 4365TIP3    H113034   1.418   4.594   2.974
 4365TIP3    H213035   1.485   4.700   3.054
 4366TIP3   OH213036   2.052   4.731   3.204
 4366TIP3    H113037   2.121   4.703   3.267
 4366TIP3    H213038   1.969   4.711   3.253
 4367TIP3   OH213039   2.283   5.158   3.118
 4367TIP3    H113040   2.237   5.157   3.205
 4367TIP3    H213041   2.264   5.248   3.085
 4368TIP3   OH213042   1.948   5.288   1.677
 4368TIP3    H113043   1.914   5.265   1.588
 4368TIP3    H213044   2.031   5.333   1.653
 4369TIP3   OH213045   1.661   4.664   1.981
 4369TIP3    H113046   1.622   4.659   2.070
 4369TIP3    H213047   1.622   4.583   1.942
 4370TIP3   OH213048   1.443   5.129   3.022
 4370TIP3    H113049   1.399   5.151   3.106
 4370TIP3    H213050   1.430   5.213   2.972
 4371TIP3   OH213051   1.361   4.979   2.561
 4371TIP3    H113052   1.265   4.971   2.580
 4371TIP3    H213053   1.359   4.964   2.464
 4372TIP3   OH213054   1.823   5.104   2.262
 4372TIP3    H113055   1.774   5.178   2.220
 4372TIP3    H213056   1.883   5.076   2.189
 4373TIP3   OH213057   1.996   5.381   3.353
 4373TIP3    H113058   1.975   5.308   3.416
 4373TIP3    H213059   2.090   5.396   3.375
 4374TIP3   OH213060   1.974   5.131   2.507
 4374TIP3    H113061   1.918   5.164   2.434
 4374TIP3    H213062   2.011   5.052   2.462
 4375TIP3   OH213063   1.267   5.159   3.235
 4375TIP3    H113064   1.305   5.219   3.301
 4375TIP3    H213065   1.255   5.077   3.287
 4376TIP3   OH213066   1.318   4.641   1.948
 4376TIP3    H113067   1.303   4.635   2.044
 4376TIP3    H213068   1.239   4.690   1.919
 4377TIP3   OH213069   0.852   4.679   2.824
 4377TIP3    H113070   0.934   4.706   2.869
 4377TIP3    H213071   0.883   4.646   2.737
 4378TIP3   OH213072   0.833   4.664   2.337
 4378TIP3    H113073   0.874   4.701   2.256
 4378TIP3    H213074   0.768   4.735   2.356
 4379TIP3   OH213075   1.982   5.377   2.929
 4379TIP3    H113076   2.018   5.306   2.871
 4379TIP3    H213077   1.956   5.323   3.007
 4380TIP3   OH213078   1.096   4.896   2.614
 4380TIP3    H113079   1.003   4.914   2.585
 4380TIP3    H213080   1.106   4.804   2.588
 4381TIP3   OH213081   1.361   4.896   2.299
 4381TIP3    H113082   1.451   4.911   2.267
 4381TIP3    H213083   1.307   4.916   2.218
 4382TIP3   OH213084   2.159   4.923   2.806
 4382TIP3    H113085   2.123   4.931   2.897
 4382TIP3    H213086   2.102   4.856   2.768
 4383TIP3   OH213087   1.207   4.926   2.078
 4383TIP3    H113088   1.135   4.880   2.030
 4383TIP3    H213089   1.258   4.962   2.003
 4384TIP3   OH213090   2.322   6.606   3.024
 4384TIP3    H113091   2.321   6.629   2.929
 4384TIP3    H213092   2.403   6.652   3.054
 4385TIP3   OH213093   1.271   5.719   3.451
 4385TIP3    H113094   1.358   5.744   3.488
 4385TIP3    H213095   1.218   5.722   3.532
 4386TIP3   OH213096   1.737   5.149   2.690
 4386TIP3    H113097   1.823   5.133   2.647
 4386TIP3    H213098   1.753   5.117   2.781
 4387TIP3   OH213099   1.306   4.656   2.576
 4387TIP3    H113100   1.260   4.590   2.634
 4387TIP3    H213101   1.290   4.615   2.490
 4388TIP3   OH213102   1.718   5.066   2.989
 4388TIP3    H113103   1.630   5.105   3.005
 4388TIP3    H213104   1.778   5.124   3.039
 4389TIP3   OH213105   1.455   5.456   2.084
 4389TIP3    H113106   1.382   5.391   2.072
 4389TIP3    H213107   1.435   5.490   2.175
 4390TIP3   OH213108   2.355   5.693   2.712
 4390TIP3    H113109   2.380   5.743   2.631
 4390TIP3    H213110   2.270   5.651   2.684
 4391TIP3   OH213111   1.914   4.764   1.954
 4391TIP3    H113112   1.817   4.747   1.957
 4391TIP3    H213113   1.921   4.860   1.971
 4392TIP3   OH213114   1.848   5.771   3.083
 4392TIP3    H113115   1.886   5.757   3.171
 4392TIP3    H213116   1.816   5.863   3.088
 4393TIP3   OH213117   1.982   5.018   2.051
 4393TIP3    H113118   2.079   5.023   2.065
 4393TIP3    H213119   1.965   5.096   1.996
 4394TIP3   OH213120   1.146   5.479   2.760
 4394TIP3    H113121   1.183   5.452   2.674
 4394TIP3    H213122   1.191   5.419   2.821
 4395TIP3   OH213123   1.601   5.606   1.907
 4395TIP3    H113124   1.552   5.692   1.911
 4395TIP3    H213125   1.546   5.551   1.968
 4396TIP3   OH213126   1.026   5.397   3.374
 4396TIP3    H113127   1.038   5.375   3.468
 4396TIP3    H213128   0.958   5.332   3.347
 4397TIP3   OH213129   1.756   5.514   3.393
 4397TIP3    H113130   1.697   5.453   3.345
 4397TIP3    H213131   1.844   5.480   3.366
 4398TIP3   OH213132   2.013   6.031   2.980
 4398TIP3    H113133   1.916   6.034   2.992
 4398TIP3    H213134   2.042   6.085   3.057
 4399TIP3   OH213135   2.421   5.109   1.888
 4399TIP3    H113136   2.360   5.065   1.825
 4399TIP3    H213137   2.420   5.198   1.846
 4400TIP3   OH213138   2.642   5.965   2.967
 4400TIP3    H113139   2.545   5.959   2.958
 4400TIP3    H213140   2.669   5.935   2.877
 4401TIP3   OH213141   2.122   5.925   1.793
 4401TIP3    H113142   2.101   5.852   1.853
 4401TIP3    H213143   2.139   5.880   1.708
 4402TIP3   OH213144   2.120   5.556   2.630
 4402TIP3    H113145   2.027   5.532   2.643
 4402TIP3    H213146   2.154   5.476   2.585
 4403TIP3   OH213147   1.250   5.785   2.389
 4403TIP3    H113148   1.251   5.865   2.332
 4403TIP3    H213149   1.156   5.764   2.390
 4404TIP3   OH213150   0.814   5.086   2.090
 4404TIP3    H113151   0.858   5.172   2.110
 4404TIP3    H213152   0.736   5.091   2.150
 4405TIP3   OH213153   1.382   5.546   2.329
 4405TIP3    H113154   1.352   5.638   2.346
 4405TIP3    H213155   1.345   5.498   2.405
 4406TIP3   OH213156   1.518   6.125   2.853
 4406TIP3    H113157   1.560   6.198   2.802
 4406TIP3    H213158   1.595   6.089   2.901
 4407TIP3   OH213159   1.169   6.022   2.239
 4407TIP3    H113160   1.082   6.032   2.282
 4407TIP3    H213161   1.201   6.115   2.240
 4408TIP3   OH213162   1.904   5.761   2.814
 4408TIP3    H113163   1.894   5.757   2.912
 4408TIP3    H213164   1.985   5.711   2.801
 4409TIP3   OH213165   1.883   5.654   1.697
 4409TIP3    H113166   1.935   5.629   1.776
 4409TIP3    H213167   1.794   5.626   1.724
 4410TIP3   OH213168   2.153   6.294   2.863
 4410TIP3    H113169   2.072   6.239   2.854
 4410TIP3    H213170   2.139   6.358   2.790
 4411TIP3   OH213171   2.219   6.127   1.514
 4411TIP3    H113172   2.261   6.200   1.466
 4411TIP3    H213173   2.139   6.173   1.546
 4412TIP3   OH213174   1.240   4.904   3.379
 4412TIP3    H113175   1.143   4.903   3.391
 4412TIP3    H213176   1.269   4.845   3.451
 4413TIP3   OH213177   2.042   5.590   1.915
 4413TIP3    H113178   2.032   5.521   1.984
 4413TIP3    H213179   2.139   5.585   1.900
 4414TIP3   OH213180   0.953   5.987   3.013
 4414TIP3    H113181   1.010   5.914   3.042
 4414TIP3    H213182   0.985   6.058   3.071
 4415TIP3   OH213183   1.248   5.634   1.696
 4415TIP3    H113184   1.258   5.541   1.667
 4415TIP3    H213185   1.225   5.622   1.790
 4416TIP3   OH213186   1.191   5.638   1.968
 4416TIP3    H113187   1.267   5.614   2.023
 4416TIP3    H213188   1.193   5.736   1.974
 4417TIP3   OH213189   0.927   5.332   2.173
 4417TIP3    H113190   0.859   5.377   2.228
 4417TIP3    H213191   0.939   5.399   2.103
 4418TIP3   OH213192   2.076   4.966   3.063
 4418TIP3    H113193   2.156   5.008   3.100
 4418TIP3    H213194   2.066   4.887   3.120
 4419TIP3   OH213195   1.955   4.722   2.228
 4419TIP3    H113196   1.946   4.740   2.132
 4419TIP3    H213197   1.998   4.804   2.260
 4420TIP3   OH213198   1.458   5.836   1.917
 4420TIP3    H113199   1.370   5.861   1.952
 4420TIP3    H213200   1.473   5.908   1.854
 4421TIP3   OH213201   1.651   4.906   2.332
 4421TIP3    H113202   1.709   4.964   2.278
 4421TIP3    H213203   1.675   4.940   2.418
 4422TIP3   OH213204   1.915   5.214   3.138
 4422TIP3    H113205   1.938   5.269   3.217
 4422TIP3    H213206   1.971   5.136   3.152
 4423TIP3   OH213207   1.798   4.627   2.430
 4423TIP3    H113208   1.842   4.668   2.507
 4423TIP3    H213209   1.851   4.667   2.357
 4424TIP3   OH213210   1.203   5.910   1.986
 4424TIP3    H113211   1.174   5.979   1.922
 4424TIP3    H213212   1.186   5.955   2.071
 4425TIP3   OH213213   1.300   4.626   2.228
 4425TIP3    H113214   1.302   4.719   2.255
 4425TIP3    H213215   1.397   4.606   2.231
 4426TIP3   OH213216   2.552   5.119   3.121
 4426TIP3    H113217   2.454   5.114   3.125
 4426TIP3    H213218   2.568   5.079   3.035
 4427TIP3   OH213219   2.205   5.313   2.508
 4427TIP3    H113220   2.132   5.250   2.520
 4427TIP3    H213221   2.279   5.267   2.555
 4428TIP3   OH213222   0.918   5.537   1.977
 4428TIP3    H113223   0.983   5.610   1.982
 4428TIP3    H213224   0.963   5.482   1.909
 4429TIP3   OH213225   0.863   4.816   2.112
 4429TIP3    H113226   0.860   4.914   2.107
 4429TIP3    H213227   0.787   4.791   2.058
 4430TIP3   OH213228   2.174   6.269   2.455
 4430TIP3    H113229   2.132   6.317   2.380
 4430TIP3    H213230   2.269   6.289   2.435
 4431TIP3   OH213231   1.252   4.538   2.984
 4431TIP3    H113232   1.221   4.498   2.900
 4431TIP3    H213233   1.241   4.462   3.046
 4432TIP3   OH213234   0.791   5.756   2.363
 4432TIP3    H113235   0.719   5.787   2.420
 4432TIP3    H213236   0.763   5.797   2.278
 4433TIP3   OH213237   0.952   6.301   3.434
 4433TIP3    H113238   1.037   6.303   3.482
 4433TIP3    H213239   0.934   6.206   3.432
 4434TIP3   OH213240   1.423   6.261   3.478
 4434TIP3    H113241   1.518   6.245   3.489
 4434TIP3    H213242   1.402   6.200   3.405
 4435TIP3   OH213243   1.410   5.836   1.607
 4435TIP3    H113244   1.353   5.765   1.645
 4435TIP3    H213245   1.485   5.783   1.575
 4436TIP3   OH213246   2.065   6.169   3.214
 4436TIP3    H113247   2.058   6.098   3.283
 4436TIP3    H213248   2.144   6.219   3.244
 4437TIP3   OH213249   1.844   5.876   1.520
 4437TIP3    H113250   1.889   5.813   1.580
 4437TIP3    H213251   1.902   5.874   1.441
 4438TIP3   OH213252   1.074   5.694   3.675
 4438TIP3    H113253   1.109   5.606   3.648
 4438TIP3    H213254   0.996   5.703   3.615
 4439TIP3   OH213255   1.054   5.353   1.830
 4439TIP3    H113256   1.112   5.322   1.902
 4439TIP3    H213257   1.120   5.358   1.757
 4440TIP3   OH213258   1.681   5.789   3.411
 4440TIP3    H113259   1.646   5.809   3.322
 4440TIP3    H213260   1.715   5.697   3.400
 4441TIP3   OH213261   1.569   5.554   1.637
 4441TIP3    H113262   1.569   5.566   1.734
 4441TIP3    H213263   1.568   5.456   1.630
 4442TIP3   OH213264   2.176   5.801   3.015
 4442TIP3    H113265   2.253   5.841   2.971
 4442TIP3    H213266   2.109   5.870   2.999
 4443TIP3   OH213267   1.197   5.450   3.627
 4443TIP3    H113268   1.273   5.403   3.587
 4443TIP3    H213269   1.183   5.397   3.707
 4444TIP3   OH213270   1.263   5.258   2.051
 4444TIP3    H113271   1.234   5.213   2.132
 4444TIP3    H213272   1.300   5.184   1.998
 4445TIP3   OH213273   1.528   5.318   3.273
 4445TIP3    H113274   1.454   5.382   3.277
 4445TIP3    H213275   1.582   5.355   3.199
 4446TIP3   OH213276   1.364   5.053   1.892
 4446TIP3    H113277   1.337   5.058   1.798
 4446TIP3    H213278   1.462   5.056   1.883
 4447TIP3   OH213279   2.048   5.723   3.412
 4447TIP3    H113280   2.129   5.698   3.365
 4447TIP3    H213281   2.045   5.659   3.485
 4448TIP3   OH213282   2.181   5.381   1.558
 4448TIP3    H113283   2.163   5.337   1.472
 4448TIP3    H213284   2.150   5.472   1.535
 4449TIP3   OH213285   1.653   5.113   3.406
 4449TIP3    H113286   1.656   5.032   3.351
 4449TIP3    H213287   1.610   5.177   3.347
 4450TIP3   OH213288   1.657   4.899   3.216
 4450TIP3    H113289   1.686   4.939   3.131
 4450TIP3    H213290   1.564   4.875   3.196
 4451TIP3   OH213291   1.682   5.430   3.084
 4451TIP3    H113292   1.769   5.444   3.044
 4451TIP3    H213293   1.627   5.498   3.039
 4452TIP3   OH213294   2.264   5.399   3.465
 4452TIP3    H113295   2.312   5.316   3.480
 4452TIP3    H213296   2.334   5.455   3.430
 4453TIP3   OH213297   2.306   5.653   3.201
 4453TIP3    H113298   2.249   5.708   3.142
 4453TIP3    H213299   2.394   5.674   3.162
 4454TIP3   OH213300   1.531   5.222   3.636
 4454TIP3    H113301   1.463   5.153   3.652
 4454TIP3    H213302   1.567   5.193   3.549
 4455TIP3   OH213303   1.789   4.660   3.278
 4455TIP3    H113304   1.739   4.742   3.260
 4455TIP3    H213305   1.719   4.591   3.269
 4456TIP3   OH213306   1.916   5.165   3.497
 4456TIP3    H113307   1.906   5.149   3.593
 4456TIP3    H213308   1.825   5.140   3.467
 4457TIP3   OH213309   2.154   5.114   3.350
 4457TIP3    H113310   2.080   5.115   3.414
 4457TIP3    H213311   2.229   5.084   3.406
 4458TIP3   OH213312   2.381   5.055   3.500
 4458TIP3    H113313   2.395   4.959   3.517
 4458TIP3    H213314   2.378   5.092   3.590
 4459TIP3   OH213315   1.374   5.000   3.689
 4459TIP3    H113316   1.376   4.907   3.657
 4459TIP3    H213317   1.414   4.988   3.777
 4460TIP3   OH213318   1.885   4.672   3.537
 4460TIP3    H113319   1.951   4.600   3.533
 4460TIP3    H213320   1.845   4.663   3.448
 4461TIP3   OH213321   1.952   4.886   3.695
 4461TIP3    H113322   1.930   4.814   3.632
 4461TIP3    H213323   1.872   4.943   3.689
 4462TIP3   OH213324   1.174   6.113   1.803
 4462TIP3    H113325   1.267   6.111   1.775
 4462TIP3    H213326   1.134   6.158   1.727
 4463TIP3   OH213327   0.651   5.492   2.018
 4463TIP3    H113328   0.744   5.517   1.999
 4463TIP3    H213329   0.644   5.406   1.972
 4464TIP3   OH213330   0.560   6.110   2.428
 4464TIP3    H113331   0.499   6.046   2.387
 4464TIP3    H213332   0.608   6.052   2.491
 4465TIP3   OH213333   0.699   5.958   2.613
 4465TIP3    H113334   0.690   5.884   2.674
 4465TIP3    H213335   0.752   6.019   2.666
 4466TIP3   OH213336   2.427   6.362   2.414
 4466TIP3    H113337   2.459   6.394   2.500
 4466TIP3    H213338   2.495   6.395   2.353
 4467TIP3   OH213339   2.456   6.380   2.698
 4467TIP3    H113340   2.413   6.292   2.692
 4467TIP3    H213341   2.534   6.356   2.751
 4468TIP3   OH213342   2.503   6.056   3.269
 4468TIP3    H113343   2.431   6.066   3.335
 4468TIP3    H213344   2.546   6.144   3.273
 4469TIP3   OH213345   2.319   5.569   1.888
 4469TIP3    H113346   2.386   5.634   1.856
 4469TIP3    H213347   2.365   5.531   1.966
 4470TIP3   OH213348   2.448   5.437   2.091
 4470TIP3    H113349   2.383   5.396   2.152
 4470TIP3    H213350   2.515   5.473   2.153
 4471TIP3   OH213351   2.502   5.828   2.523
 4471TIP3    H113352   2.556   5.762   2.475
 4471TIP3    H213353   2.501   5.903   2.459
 4472TIP3   OH213354   2.332   6.129   2.719
 4472TIP3    H113355   2.260   6.171   2.769
 4472TIP3    H213356   2.284   6.082   2.647
 4473TIP3   OH213357   2.385   5.344   1.739
 4473TIP3    H113358   2.314   5.346   1.671
 4473TIP3    H213359   2.358   5.421   1.793
 4474TIP3   OH213360   2.253   5.018   1.695
 4474TIP3    H113361   2.216   5.054   1.614
 4474TIP3    H213362   2.230   4.923   1.685
 4475TIP3   OH213363   2.259   5.295   2.238
 4475TIP3    H113364   2.271   5.199   2.230
 4475TIP3    H213365   2.247   5.307   2.335
 4476TIP3   OH213366   0.886   5.367   2.987
 4476TIP3    H113367   0.884   5.335   2.894
 4476TIP3    H213368   0.984   5.368   3.002
 4477TIP3   OH213369   2.551   5.718   3.095
 4477TIP3    H113370   2.623   5.652   3.086
 4477TIP3    H213371   2.578   5.787   3.032
 4478TIP3   OH213372   2.734   5.520   3.109
 4478TIP3    H113373   2.660   5.470   3.149
 4478TIP3    H213374   2.808   5.458   3.124
 4479TIP3   OH213375   2.199   4.752   1.678
 4479TIP3    H113376   2.274   4.719   1.731
 4479TIP3    H213377   2.127   4.690   1.699
 4480TIP3   OH213378   2.258   5.010   2.131
 4480TIP3    H113379   2.299   4.921   2.146
 4480TIP3    H213380   2.316   5.043   2.060
 4481TIP3   OH213381   2.418   5.183   2.627
 4481TIP3    H113382   2.504   5.207   2.586
 4481TIP3    H213383   2.434   5.220   2.716
 4482TIP3   OH213384   2.489   5.327   2.859
 4482TIP3    H113385   2.412   5.362   2.907
 4482TIP3    H213386   2.522   5.407   2.813
 4483TIP3   OH213387   1.110   5.059   3.667
 4483TIP3    H113388   1.208   5.048   3.666
 4483TIP3    H213389   1.084   4.970   3.697
 4484TIP3   OH213390   2.938   4.918   3.415
 4484TIP3    H113391   2.999   4.854   3.373
 4484TIP3    H213392   2.910   4.972   3.337
 4485TIP3   OH213393   2.365   4.760   2.172
 4485TIP3    H113394   2.416   4.743   2.254
 4485TIP3    H213395   2.306   4.682   2.170
 4486TIP3   OH213396   1.064   4.743   2.992
 4486TIP3    H113397   1.123   4.666   3.003
 4486TIP3    H213398   1.128   4.816   2.989
 4487TIP3   OH213399   0.867   5.020   3.062
 4487TIP3    H113400   0.914   5.012   2.976
 4487TIP3    H213401   0.903   5.103   3.095
 4488TIP3   OH213402   2.809   5.056   3.219
 4488TIP3    H113403   2.723   5.098   3.240
 4488TIP3    H213404   2.778   4.983   3.162
 4489TIP3   OH213405   2.446   4.692   1.804
 4489TIP3    H113406   2.486   4.622   1.749
 4489TIP3    H213407   2.513   4.763   1.800
 4490TIP3   OH213408   0.856   4.546   2.579
 4490TIP3    H113409   0.765   4.516   2.593
 4490TIP3    H213410   0.850   4.585   2.489
 4491TIP3   OH213411   2.012   6.228   2.071
 4491TIP3    H113412   2.061   6.213   1.987
 4491TIP3    H213413   2.069   6.292   2.116
 4492TIP3   OH213414   1.076   4.610   3.382
 4492TIP3    H113415   1.024   4.596   3.462
 4492TIP3    H213416   1.006   4.638   3.319
 4493TIP3   OH213417   1.114   6.036   3.446
 4493TIP3    H113418   1.021   6.006   3.442
 4493TIP3    H213419   1.141   6.012   3.536
 4494TIP3   OH213420   1.291   6.065   3.002
 4494TIP3    H113421   1.246   6.142   2.962
 4494TIP3    H213422   1.378   6.076   2.958
 4495TIP3   OH213423   1.733   6.308   3.140
 4495TIP3    H113424   1.776   6.307   3.229
 4495TIP3    H213425   1.800   6.358   3.089
 4496TIP3   OH213426   1.913   6.460   3.000
 4496TIP3    H113427   1.984   6.410   2.957
 4496TIP3    H213428   1.966   6.517   3.061
 4497TIP3   OH213429   2.710   4.819   3.100
 4497TIP3    H113430   2.619   4.809   3.066
 4497TIP3    H213431   2.744   4.727   3.089
 4498TIP3   OH213432   0.966   6.323   3.027
 4498TIP3    H113433   0.880   6.365   3.010
 4498TIP3    H213434   0.985   6.358   3.116
 4499TIP3   OH213435   1.204   6.298   2.885
 4499TIP3    H113436   1.116   6.311   2.927
 4499TIP3    H213437   1.186   6.329   2.794
 4500TIP3   OH213438   1.628   6.325   2.685
 4500TIP3    H113439   1.561   6.344   2.616
 4500TIP3    H213440   1.641   6.413   2.725
 4501TIP3   OH213441   1.899   6.264   2.737
 4501TIP3    H113442   1.805   6.283   2.715
 4501TIP3    H213443   1.944   6.337   2.690
 4502TIP3   OH213444   2.103   6.456   2.647
 4502TIP3    H113445   2.090   6.541   2.600
 4502TIP3    H213446   2.131   6.396   2.575
 4503TIP3   OH213447   0.875   6.109   2.776
 4503TIP3    H113448   0.908   6.084   2.865
 4503TIP3    H213449   0.946   6.070   2.721
 4504TIP3   OH213450   1.070   5.987   2.633
 4504TIP3    H113451   1.088   5.902   2.680
 4504TIP3    H213452   1.161   6.023   2.625
 4505TIP3   OH213453   1.338   6.079   2.635
 4505TIP3    H113454   1.370   5.988   2.618
 4505TIP3    H213455   1.387   6.099   2.717
 4506TIP3   OH213456   1.892   4.710   2.678
 4506TIP3    H113457   1.866   4.657   2.755
 4506TIP3    H213458   1.985   4.683   2.664
 4507TIP3   OH213459   2.434   4.618   2.625
 4507TIP3    H113460   2.473   4.667   2.548
 4507TIP3    H213461   2.339   4.639   2.616
 4508TIP3   OH213462   2.531   4.714   2.388
 4508TIP3    H113463   2.604   4.662   2.349
 4508TIP3    H213464   2.566   4.805   2.373
 4509TIP3   OH213465   1.193   4.465   2.723
 4509TIP3    H113466   1.104   4.423   2.731
 4509TIP3    H213467   1.244   4.381   2.717
 4510TIP3   OH213468   0.916   4.323   2.356
 4510TIP3    H113469   0.970   4.379   2.298
 4510TIP3    H213470   0.929   4.362   2.443
 4511TIP3   OH213471   1.614   4.545   2.631
 4511TIP3    H113472   1.681   4.541   2.560
 4511TIP3    H213473   1.663   4.504   2.705
 4512TIP3   OH213474   2.145   4.624   2.602
 4512TIP3    H113475   2.160   4.585   2.515
 4512TIP3    H213476   2.135   4.543   2.658
 4513TIP3   OH213477   2.184   4.545   2.162
 4513TIP3    H113478   2.096   4.585   2.170
 4513TIP3    H213479   2.170   4.460   2.209
 4514TIP3   OH213480   0.664   5.886   2.169
 4514TIP3    H113481   0.579   5.856   2.133
 4514TIP3    H213482   0.664   5.977   2.132
 4515TIP3   OH213483   1.069   4.477   2.143
 4515TIP3    H113484   1.113   4.408   2.088
 4515TIP3    H213485   1.145   4.525   2.180
 4516TIP3   OH213486   1.577   4.655   2.248
 4516TIP3    H113487   1.642   4.603   2.298
 4516TIP3    H213488   1.606   4.746   2.273
 4517TIP3   OH213489   1.441   6.072   1.745
 4517TIP3    H113490   1.529   6.094   1.708
 4517TIP3    H213491   1.417   5.997   1.685
 4518TIP3   OH213492   2.155   6.192   1.838
 4518TIP3    H113493   2.148   6.094   1.826
 4518TIP3    H213494   2.112   6.224   1.756
 4519TIP3   OH213495   1.370   4.729   3.630
 4519TIP3    H113496   1.335   4.654   3.682
 4519TIP3    H213497   1.465   4.726   3.656
 4520TIP3   OH213498   1.620   4.721   3.746
 4520TIP3    H113499   1.705   4.692   3.709
 4520TIP3    H213500   1.606   4.654   3.815
 4521TIP3   OH213501   0.732   5.875   1.815
 4521TIP3    H113502   0.739   5.935   1.891
 4521TIP3    H213503   0.826   5.849   1.801
 4522TIP3   OH213504   2.446   4.785   3.532
 4522TIP3    H113505   2.464   4.754   3.623
 4522TIP3    H213506   2.535   4.779   3.491
 4523TIP3   OH213507   2.381   6.336   3.026
 4523TIP3    H113508   2.304   6.305   2.975
 4523TIP3    H213509   2.363   6.432   3.030
 4524TIP3   OH213510   3.650   5.709   1.789
 4524TIP3    H113511   3.620   5.799   1.767
 4524TIP3    H213512   3.576   5.657   1.751
 4525TIP3   OH213513   3.652   5.710   2.173
 4525TIP3    H113514   3.683   5.681   2.261
 4525TIP3    H213515   3.609   5.630   2.138
 4526TIP3   OH213516   2.946   5.603   2.541
 4526TIP3    H113517   2.979   5.535   2.602
 4526TIP3    H213518   3.027   5.654   2.525
 4527TIP3   OH213519   3.895   6.012   1.853
 4527TIP3    H113520   3.876   5.944   1.919
 4527TIP3    H213521   3.923   6.087   1.908
 4528TIP3   OH213522   2.921   6.013   2.262
 4528TIP3    H113523   2.913   5.915   2.263
 4528TIP3    H213524   3.017   6.022   2.251
 4529TIP3   OH213525   2.626   5.212   2.045
 4529TIP3    H113526   2.580   5.297   2.061
 4529TIP3    H213527   2.555   5.163   2.001
 4530TIP3   OH213528   2.684   5.502   2.220
 4530TIP3    H113529   2.735   5.425   2.254
 4530TIP3    H213530   2.746   5.539   2.155
 4531TIP3   OH213531   3.544   6.473   1.871
 4531TIP3    H113532   3.588   6.404   1.818
 4531TIP3    H213533   3.538   6.431   1.957
 4532TIP3   OH213534   3.447   5.934   2.222
 4532TIP3    H113535   3.487   5.860   2.174
 4532TIP3    H213536   3.530   5.981   2.247
 4533TIP3   OH213537   4.464   5.253   2.219
 4533TIP3    H113538   4.492   5.337   2.261
 4533TIP3    H213539   4.483   5.273   2.126
 4534TIP3   OH213540   3.859   5.434   2.251
 4534TIP3    H113541   3.902   5.349   2.271
 4534TIP3    H213542   3.828   5.419   2.160
 4535TIP3   OH213543   3.200   5.095   2.217
 4535TIP3    H113544   3.181   5.168   2.154
 4535TIP3    H213545   3.152   5.022   2.173
 4536TIP3   OH213546   3.894   5.188   1.840
 4536TIP3    H113547   3.968   5.172   1.903
 4536TIP3    H213548   3.944   5.222   1.764
 4537TIP3   OH213549   2.832   5.296   2.325
 4537TIP3    H113550   2.915   5.278   2.372
 4537TIP3    H213551   2.846   5.242   2.245
 4538TIP3   OH213552   3.271   5.494   2.123
 4538TIP3    H113553   3.366   5.470   2.132
 4538TIP3    H213554   3.234   5.410   2.087
 4539TIP3   OH213555   4.536   5.462   2.389
 4539TIP3    H113556   4.452   5.509   2.369
 4539TIP3    H213557   4.554   5.496   2.478
 4540TIP3   OH213558   3.195   5.078   2.652
 4540TIP3    H113559   3.136   5.115   2.584
 4540TIP3    H213560   3.143   5.097   2.732
 4541TIP3   OH213561   3.544   5.929   1.655
 4541TIP3    H113562   3.501   5.912   1.570
 4541TIP3    H213563   3.497   6.011   1.683
 4542TIP3   OH213564   3.302   5.854   2.445
 4542TIP3    H113565   3.241   5.923   2.481
 4542TIP3    H213566   3.345   5.902   2.371
 4543TIP3   OH213567   4.104   5.189   2.014
 4543TIP3    H113568   4.085   5.147   2.100
 4543TIP3    H213569   4.154   5.268   2.041
 4544TIP3   OH213570   3.066   5.193   2.436
 4544TIP3    H113571   3.128   5.266   2.459
 4544TIP3    H213572   3.115   5.153   2.360
 4545TIP3   OH213573   3.131   6.050   2.545
 4545TIP3    H113574   3.105   6.135   2.505
 4545TIP3    H213575   3.051   6.034   2.600
 4546TIP3   OH213576   2.520   5.739   1.780
 4546TIP3    H113577   2.485   5.766   1.694
 4546TIP3    H213578   2.554   5.824   1.816
 4547TIP3   OH213579   3.963   6.255   2.019
 4547TIP3    H113580   3.873   6.246   2.059
 4547TIP3    H213581   3.955   6.341   1.974
 4548TIP3   OH213582   4.255   5.151   2.383
 4548TIP3    H113583   4.168   5.181   2.352
 4548TIP3    H213584   4.315   5.185   2.313
 4549TIP3   OH213585   3.550   4.796   2.367
 4549TIP3    H113586   3.534   4.701   2.384
 4549TIP3    H213587   3.473   4.835   2.414
 4550TIP3   OH213588   3.663   6.299   1.693
 4550TIP3    H113589   3.713   6.217   1.672
 4550TIP3    H213590   3.724   6.365   1.652
 4551TIP3   OH213591   3.810   6.084   1.599
 4551TIP3    H113592   3.762   6.006   1.567
 4551TIP3    H213593   3.847   6.051   1.684
 4552TIP3   OH213594   4.188   6.165   2.365
 4552TIP3    H113595   4.177   6.089   2.304
 4552TIP3    H213596   4.170   6.241   2.305
 4553TIP3   OH213597   3.481   5.563   1.625
 4553TIP3    H113598   3.401   5.614   1.600
 4553TIP3    H213599   3.525   5.552   1.538
 4554TIP3   OH213600   3.443   5.316   1.373
 4554TIP3    H113601   3.503   5.388   1.397
 4554TIP3    H213602   3.496   5.273   1.304
 4555TIP3   OH213603   4.384   5.803   2.210
 4555TIP3    H113604   4.300   5.855   2.214
 4555TIP3    H213605   4.414   5.829   2.120
 4556TIP3   OH213606   3.830   5.646   1.593
 4556TIP3    H113607   3.774   5.669   1.670
 4556TIP3    H213608   3.913   5.620   1.638
 4557TIP3   OH213609   4.063   5.680   2.508
 4557TIP3    H113610   4.061   5.764   2.558
 4557TIP3    H213611   3.977   5.685   2.462
 4558TIP3   OH213612   3.059   5.640   2.013
 4558TIP3    H113613   3.017   5.582   1.945
 4558TIP3    H213614   3.136   5.586   2.041
 4559TIP3   OH213615   3.186   6.047   2.160
 4559TIP3    H113616   3.168   6.017   2.070
 4559TIP3    H213617   3.277   6.013   2.176
 4560TIP3   OH213618   3.192   5.613   2.366
 4560TIP3    H113619   3.226   5.587   2.277
 4560TIP3    H213620   3.238   5.697   2.383
 4561TIP3   OH213621   3.723   6.249   2.142
 4561TIP3    H113622   3.709   6.330   2.195
 4561TIP3    H213623   3.706   6.177   2.206
 4562TIP3   OH213624   3.336   6.168   2.690
 4562TIP3    H113625   3.275   6.230   2.735
 4562TIP3    H213626   3.272   6.115   2.638
 4563TIP3   OH213627   3.666   5.498   1.426
 4563TIP3    H113628   3.726   5.562   1.471
 4563TIP3    H213629   3.690   5.513   1.331
 4564TIP3   OH213630   3.092   5.722   2.795
 4564TIP3    H113631   3.095   5.811   2.835
 4564TIP3    H213632   2.996   5.703   2.802
 4565TIP3   OH213633   3.413   6.173   1.698
 4565TIP3    H113634   3.491   6.231   1.708
 4565TIP3    H213635   3.346   6.232   1.663
 4566TIP3   OH213636   3.129   6.335   2.775
 4566TIP3    H113637   3.095   6.337   2.684
 4566TIP3    H213638   3.048   6.314   2.827
 4567TIP3   OH213639   4.184   4.739   1.469
 4567TIP3    H113640   4.103   4.762   1.518
 4567TIP3    H213641   4.200   4.822   1.419
 4568TIP3   OH213642   2.924   5.483   1.821
 4568TIP3    H113643   2.862   5.529   1.761
 4568TIP3    H213644   2.887   5.394   1.823
 4569TIP3   OH213645   3.987   6.106   0.962
 4569TIP3    H113646   3.990   6.203   0.982
 4569TIP3    H213647   4.078   6.081   0.988
 4570TIP3   OH213648   2.707   5.868   2.723
 4570TIP3    H113649   2.643   5.845   2.652
 4570TIP3    H213650   2.746   5.781   2.746
 4571TIP3   OH213651   2.564   6.058   2.358
 4571TIP3    H113652   2.659   6.050   2.342
 4571TIP3    H213653   2.559   6.138   2.412
 4572TIP3   OH213654   4.427   6.512   2.413
 4572TIP3    H113655   4.425   6.416   2.428
 4572TIP3    H213656   4.344   6.539   2.458
 4573TIP3   OH213657   3.533   6.297   2.546
 4573TIP3    H113658   3.530   6.389   2.578
 4573TIP3    H213659   3.461   6.256   2.600
 4574TIP3   OH213660   2.727   6.275   1.884
 4574TIP3    H113661   2.779   6.267   1.967
 4574TIP3    H213662   2.679   6.191   1.884
 4575TIP3   OH213663   3.516   6.349   1.123
 4575TIP3    H113664   3.558   6.263   1.104
 4575TIP3    H213665   3.514   6.350   1.221
 4576TIP3   OH213666   3.525   6.378   1.403
 4576TIP3    H113667   3.430   6.381   1.425
 4576TIP3    H213668   3.564   6.338   1.482
 4577TIP3   OH213669   4.316   5.641   2.687
 4577TIP3    H113670   4.234   5.653   2.637
 4577TIP3    H213671   4.331   5.545   2.676
 4578TIP3   OH213672   2.912   6.050   2.710
 4578TIP3    H113673   2.962   6.033   2.792
 4578TIP3    H213674   2.838   5.987   2.717
 4579TIP3   OH213675   3.312   4.872   2.497
 4579TIP3    H113676   3.223   4.843   2.468
 4579TIP3    H213677   3.287   4.954   2.543
 4580TIP3   OH213678   3.847   4.987   2.690
 4580TIP3    H113679   3.916   4.960   2.754
 4580TIP3    H213680   3.764   4.968   2.737
 4581TIP3   OH213681   4.083   5.417   2.607
 4581TIP3    H113682   4.033   5.415   2.692
 4581TIP3    H213683   4.061   5.505   2.572
 4582TIP3   OH213684   3.745   5.535   1.171
 4582TIP3    H113685   3.693   5.513   1.091
 4582TIP3    H213686   3.820   5.584   1.135
 4583TIP3   OH213687   3.458   4.914   1.467
 4583TIP3    H113688   3.422   4.915   1.558
 4583TIP3    H213689   3.415   4.833   1.432
 4584TIP3   OH213690   3.243   5.389   2.513
 4584TIP3    H113691   3.194   5.411   2.595
 4584TIP3    H213692   3.227   5.471   2.460
 4585TIP3   OH213693   3.129   5.274   2.027
 4585TIP3    H113694   3.036   5.250   2.044
 4585TIP3    H213695   3.142   5.235   1.938
 4586TIP3   OH213696   3.617   5.360   1.756
 4586TIP3    H113697   3.565   5.432   1.713
 4586TIP3    H213698   3.670   5.327   1.681
 4587TIP3   OH213699   3.793   5.637   2.840
 4587TIP3    H113700   3.771   5.564   2.903
 4587TIP3    H213701   3.887   5.652   2.862
 4588TIP3   OH213702   3.773   5.388   1.993
 4588TIP3    H113703   3.712   5.418   1.922
 4588TIP3    H213704   3.808   5.308   1.949
 4589TIP3   OH213705   3.063   5.418   2.723
 4589TIP3    H113706   3.096   5.481   2.788
 4589TIP3    H213707   3.053   5.336   2.775
 4590TIP3   OH213708   3.109   4.892   1.434
 4590TIP3    H113709   3.100   4.895   1.532
 4590TIP3    H213710   3.035   4.950   1.407
 4591TIP3   OH213711   2.656   4.937   2.306
 4591TIP3    H113712   2.731   4.972   2.359
 4591TIP3    H213713   2.697   4.911   2.223
 4592TIP3   OH213714   2.623   4.919   1.824
 4592TIP3    H113715   2.668   4.956   1.744
 4592TIP3    H213716   2.563   4.993   1.843
 4593TIP3   OH213717   3.785   5.633   2.417
 4593TIP3    H113718   3.818   5.562   2.357
 4593TIP3    H213719   3.755   5.579   2.493
 4594TIP3   OH213720   3.458   5.093   2.089
 4594TIP3    H113721   3.376   5.094   2.142
 4594TIP3    H213722   3.527   5.095   2.158
 4595TIP3   OH213723   2.888   5.153   2.097
 4595TIP3    H113724   2.794   5.160   2.068
 4595TIP3    H213725   2.913   5.063   2.072
 4596TIP3   OH213726   3.157   5.150   1.784
 4596TIP3    H113727   3.251   5.165   1.762
 4596TIP3    H213728   3.110   5.171   1.700
 4597TIP3   OH213729   3.948   5.172   2.290
 4597TIP3    H113730   3.915   5.186   2.382
 4597TIP3    H213731   3.879   5.112   2.256
 4598TIP3   OH213732   3.002   5.181   1.562
 4598TIP3    H113733   2.935   5.137   1.506
 4598TIP3    H213734   3.057   5.223   1.492
 4599TIP3   OH213735   4.116   6.861   2.511
 4599TIP3    H113736   4.116   6.886   2.417
 4599TIP3    H213737   4.198   6.905   2.541
 4600TIP3   OH213738   3.074   5.972   2.931
 4600TIP3    H113739   3.154   6.002   2.978
 4600TIP3    H213740   3.010   5.971   3.005
 4601TIP3   OH213741   3.537   5.425   2.185
 4601TIP3    H113742   3.611   5.389   2.134
 4601TIP3    H213743   3.548   5.381   2.271
 4602TIP3   OH213744   3.058   4.914   2.066
 4602TIP3    H113745   3.025   4.834   2.113
 4602TIP3    H213746   3.104   4.875   1.990
 4603TIP3   OH213747   3.514   5.322   2.479
 4603TIP3    H113748   3.425   5.359   2.490
 4603TIP3    H213749   3.571   5.385   2.527
 4604TIP3   OH213750   3.249   5.713   1.571
 4604TIP3    H113751   3.176   5.649   1.558
 4604TIP3    H213752   3.229   5.746   1.662
 4605TIP3   OH213753   4.151   5.948   2.199
 4605TIP3    H113754   4.174   5.999   2.118
 4605TIP3    H213755   4.066   5.906   2.173
 4606TIP3   OH213756   3.709   5.020   1.442
 4606TIP3    H113757   3.612   5.005   1.441
 4606TIP3    H213758   3.715   5.117   1.453
 4607TIP3   OH213759   3.646   6.029   2.569
 4607TIP3    H113760   3.680   6.014   2.659
 4607TIP3    H213761   3.613   6.120   2.573
 4608TIP3   OH213762   3.778   5.273   1.543
 4608TIP3    H113763   3.874   5.285   1.551
 4608TIP3    H213764   3.751   5.349   1.487
 4609TIP3   OH213765   2.941   5.733   2.246
 4609TIP3    H113766   2.979   5.708   2.159
 4609TIP3    H213767   2.991   5.675   2.306
 4610TIP3   OH213768   3.399   5.867   1.402
 4610TIP3    H113769   3.347   5.951   1.399
 4610TIP3    H213770   3.342   5.811   1.458
 4611TIP3   OH213771   2.824   5.657   2.861
 4611TIP3    H113772   2.846   5.643   2.955
 4611TIP3    H213773   2.757   5.588   2.845
 4612TIP3   OH213774   3.552   5.770   2.880
 4612TIP3    H113775   3.492   5.712   2.830
 4612TIP3    H213776   3.639   5.736   2.852
 4613TIP3   OH213777   3.810   6.287   2.468
 4613TIP3    H113778   3.713   6.290   2.479
 4613TIP3    H213779   3.838   6.342   2.544
 4614TIP3   OH213780   4.220   5.363   1.373
 4614TIP3    H113781   4.159   5.319   1.308
 4614TIP3    H213782   4.216   5.453   1.334
 4615TIP3   OH213783   4.438   6.220   2.454
 4615TIP3    H113784   4.341   6.216   2.445
 4615TIP3    H213785   4.465   6.191   2.364
 4616TIP3   OH213786   3.933   6.172   1.275
 4616TIP3    H113787   3.897   6.131   1.356
 4616TIP3    H213788   3.906   6.110   1.207
 4617TIP3   OH213789   3.917   5.811   2.118
 4617TIP3    H113790   3.823   5.787   2.130
 4617TIP3    H213791   3.950   5.731   2.072
 4618TIP3   OH213792   3.048   6.041   1.878
 4618TIP3    H113793   3.047   6.123   1.823
 4618TIP3    H213794   2.954   6.019   1.878
 4619TIP3   OH213795   2.609   5.343   1.575
 4619TIP3    H113796   2.656   5.427   1.595
 4619TIP3    H213797   2.533   5.348   1.637
 4620TIP3   OH213798   3.179   5.803   1.817
 4620TIP3    H113799   3.148   5.894   1.835
 4620TIP3    H213800   3.143   5.754   1.892
 4621TIP3   OH213801   3.314   6.382   2.340
 4621TIP3    H113802   3.355   6.455   2.289
 4621TIP3    H213803   3.392   6.347   2.386
 4622TIP3   OH213804   2.969   6.275   1.733
 4622TIP3    H113805   2.882   6.293   1.772
 4622TIP3    H213806   3.003   6.366   1.720
 4623TIP3   OH213807   3.700   6.017   2.300
 4623TIP3    H113808   3.690   6.014   2.398
 4623TIP3    H213809   3.780   5.965   2.287
 4624TIP3   OH213810   3.684   5.915   1.182
 4624TIP3    H113811   3.732   5.887   1.263
 4624TIP3    H213812   3.594   5.885   1.202
 4625TIP3   OH213813   3.949   6.549   2.348
 4625TIP3    H113814   3.868   6.495   2.340
 4625TIP3    H213815   3.935   6.615   2.276
 4626TIP3   OH213816   4.011   6.378   1.005
 4626TIP3    H113817   4.045   6.446   0.944
 4626TIP3    H213818   3.935   6.428   1.042
 4627TIP3   OH213819   3.035   5.161   2.867
 4627TIP3    H113820   2.939   5.162   2.880
 4627TIP3    H213821   3.064   5.103   2.940
 4628TIP3   OH213822   3.840   5.842   1.397
 4628TIP3    H113823   3.827   5.777   1.469
 4628TIP3    H213824   3.937   5.840   1.388
 4629TIP3   OH213825   2.750   6.245   2.500
 4629TIP3    H113826   2.805   6.171   2.530
 4629TIP3    H213827   2.784   6.317   2.554
 4630TIP3   OH213828   3.035   5.887   1.185
 4630TIP3    H113829   3.047   5.794   1.159
 4630TIP3    H213830   3.017   5.878   1.281
 4631TIP3   OH213831   2.984   5.896   1.458
 4631TIP3    H113832   3.066   5.878   1.504
 4631TIP3    H213833   2.982   5.995   1.460
 4632TIP3   OH213834   2.721   5.586   1.658
 4632TIP3    H113835   2.656   5.634   1.713
 4632TIP3    H213836   2.739   5.654   1.590
 4633TIP3   OH213837   3.874   5.224   2.550
 4633TIP3    H113838   3.954   5.264   2.589
 4633TIP3    H213839   3.861   5.144   2.605
 4634TIP3   OH213840   3.756   4.972   1.717
 4634TIP3    H113841   3.737   4.994   1.623
 4634TIP3    H213842   3.792   5.057   1.750
 4635TIP3   OH213843   3.251   6.095   1.390
 4635TIP3    H113844   3.193   6.153   1.442
 4635TIP3    H213845   3.264   6.153   1.313
 4636TIP3   OH213846   3.441   5.155   1.817
 4636TIP3    H113847   3.503   5.228   1.797
 4636TIP3    H213848   3.448   5.150   1.915
 4637TIP3   OH213849   3.711   5.473   2.625
 4637TIP3    H113850   3.735   5.527   2.703
 4637TIP3    H213851   3.766   5.393   2.636
 4638TIP3   OH213852   3.585   4.879   1.918
 4638TIP3    H113853   3.573   4.958   1.974
 4638TIP3    H213854   3.647   4.914   1.850
 4639TIP3   OH213855   2.973   6.168   1.472
 4639TIP3    H113856   3.012   6.244   1.425
 4639TIP3    H213857   2.972   6.206   1.563
 4640TIP3   OH213858   3.096   4.883   1.712
 4640TIP3    H113859   3.095   4.975   1.745
 4640TIP3    H213860   3.193   4.865   1.718
 4641TIP3   OH213861   4.350   5.374   2.607
 4641TIP3    H113862   4.252   5.372   2.613
 4641TIP3    H213863   4.362   5.336   2.519
 4642TIP3   OH213864   4.002   5.568   1.993
 4642TIP3    H113865   3.925   5.509   2.004
 4642TIP3    H213866   4.073   5.520   2.042
 4643TIP3   OH213867   2.714   5.798   1.463
 4643TIP3    H113868   2.785   5.864   1.472
 4643TIP3    H213869   2.758   5.739   1.398
 4644TIP3   OH213870   2.654   5.072   1.601
 4644TIP3    H113871   2.661   5.169   1.595
 4644TIP3    H213872   2.579   5.054   1.544
 4645TIP3   OH213873   3.971   6.525   1.942
 4645TIP3    H113874   3.928   6.573   1.868
 4645TIP3    H213875   4.065   6.544   1.921
 4646TIP3   OH213876   3.046   4.794   2.469
 4646TIP3    H113877   3.016   4.760   2.382
 4646TIP3    H213878   3.036   4.715   2.526
 4647TIP3   OH213879   2.586   6.010   1.850
 4647TIP3    H113880   2.514   6.043   1.905
 4647TIP3    H213881   2.562   6.051   1.763
 4648TIP3   OH213882   2.744   6.557   2.924
 4648TIP3    H113883   2.831   6.557   2.970
 4648TIP3    H213884   2.726   6.461   2.920
 4649TIP3   OH213885   3.221   6.515   2.968
 4649TIP3    H113886   3.316   6.500   2.974
 4649TIP3    H213887   3.197   6.456   2.894
 4650TIP3   OH213888   3.207   6.076   1.086
 4650TIP3    H113889   3.141   6.021   1.132
 4650TIP3    H213890   3.282   6.015   1.086
 4651TIP3   OH213891   3.861   6.426   2.702
 4651TIP3    H113892   3.855   6.356   2.770
 4651TIP3    H213893   3.940   6.476   2.730
 4652TIP3   OH213894   3.633   6.125   1.020
 4652TIP3    H113895   3.668   6.050   1.073
 4652TIP3    H213896   3.698   6.138   0.949
 4653TIP3   OH213897   2.872   5.960   3.123
 4653TIP3    H113898   2.889   5.864   3.128
 4653TIP3    H213899   2.786   5.963   3.077
 4654TIP3   OH213900   2.845   5.606   1.322
 4654TIP3    H113901   2.906   5.578   1.392
 4654TIP3    H213902   2.908   5.608   1.246
 4655TIP3   OH213903   3.478   6.046   2.897
 4655TIP3    H113904   3.440   6.066   2.809
 4655TIP3    H213905   3.511   5.954   2.886
 4656TIP3   OH213906   3.369   5.821   1.125
 4656TIP3    H113907   3.369   5.819   1.223
 4656TIP3    H213908   3.355   5.725   1.104
 4657TIP3   OH213909   3.973   6.057   2.503
 4657TIP3    H113910   4.049   6.099   2.459
 4657TIP3    H213911   3.904   6.125   2.488
 4658TIP3   OH213912   2.992   5.695   3.105
 4658TIP3    H113913   3.070   5.646   3.078
 4658TIP3    H213914   3.020   5.728   3.194
 4659TIP3   OH213915   3.054   5.516   1.535
 4659TIP3    H113916   3.036   5.467   1.617
 4659TIP3    H213917   3.096   5.446   1.480
 4660TIP3   OH213918   3.326   5.576   2.764
 4660TIP3    H113919   3.250   5.638   2.766
 4660TIP3    H213920   3.378   5.612   2.688
 4661TIP3   OH213921   3.162   5.311   1.385
 4661TIP3    H113922   3.138   5.309   1.289
 4661TIP3    H213923   3.260   5.311   1.379
 4662TIP3   OH213924   3.844   5.980   2.900
 4662TIP3    H113925   3.924   5.955   2.851
 4662TIP3    H213926   3.841   5.915   2.971
 4663TIP3   OH213927   3.977   5.642   1.048
 4663TIP3    H113928   3.965   5.602   0.959
 4663TIP3    H213929   3.960   5.735   1.029
 4664TIP3   OH213930   3.450   5.368   2.891
 4664TIP3    H113931   3.452   5.289   2.834
 4664TIP3    H213932   3.407   5.434   2.833
 4665TIP3   OH213933   3.454   5.154   2.701
 4665TIP3    H113934   3.482   5.196   2.617
 4665TIP3    H213935   3.360   5.131   2.681
 4666TIP3   OH213936   3.478   5.688   2.574
 4666TIP3    H113937   3.563   5.701   2.530
 4666TIP3    H213938   3.422   5.755   2.528
 4667TIP3   OH213939   4.061   5.656   2.952
 4667TIP3    H113940   4.111   5.573   2.963
 4667TIP3    H213941   4.128   5.715   2.917
 4668TIP3   OH213942   4.102   5.909   2.688
 4668TIP3    H113943   4.045   5.964   2.630
 4668TIP3    H213944   4.190   5.930   2.649
 4669TIP3   OH213945   3.329   5.476   3.124
 4669TIP3    H113946   3.261   5.407   3.138
 4669TIP3    H213947   3.363   5.452   3.036
 4670TIP3   OH213948   3.585   4.916   2.768
 4670TIP3    H113949   3.536   4.998   2.745
 4670TIP3    H213950   3.516   4.848   2.756
 4671TIP3   OH213951   3.712   5.419   2.983
 4671TIP3    H113952   3.699   5.406   3.079
 4671TIP3    H213953   3.622   5.396   2.951
 4672TIP3   OH213954   3.950   5.370   2.837
 4672TIP3    H113955   3.875   5.372   2.900
 4672TIP3    H213956   4.024   5.340   2.894
 4673TIP3   OH213957   4.179   5.312   2.988
 4673TIP3    H113958   4.192   5.216   3.005
 4673TIP3    H213959   4.175   5.350   3.078
 4674TIP3   OH213960   3.167   5.257   3.178
 4674TIP3    H113961   3.173   5.166   3.144
 4674TIP3    H213962   3.205   5.245   3.267
 4675TIP3   OH213963   3.679   4.926   3.026
 4675TIP3    H113964   3.746   4.855   3.019
 4675TIP3    H213965   3.639   4.922   2.936
 4676TIP3   OH213966   3.746   5.142   3.184
 4676TIP3    H113967   3.724   5.070   3.120
 4676TIP3    H213968   3.667   5.200   3.177
 4677TIP3   OH213969   2.447   5.752   1.501
 4677TIP3    H113970   2.541   5.776   1.485
 4677TIP3    H213971   2.443   5.663   1.459
 4678TIP3   OH213972   2.359   6.365   1.915
 4678TIP3    H113973   2.295   6.301   1.877
 4678TIP3    H213974   2.406   6.307   1.979
 4679TIP3   OH213975   2.494   6.214   2.101
 4679TIP3    H113976   2.486   6.141   2.164
 4679TIP3    H213977   2.550   6.276   2.153
 4680TIP3   OH213978   4.227   6.612   1.901
 4680TIP3    H113979   4.250   6.647   1.989
 4680TIP3    H213980   4.287   6.661   1.843
 4681TIP3   OH213981   4.252   6.636   2.183
 4681TIP3    H113982   4.210   6.548   2.179
 4681TIP3    H213983   4.328   6.615   2.240
 4682TIP3   OH213984   4.301   6.312   2.757
 4682TIP3    H113985   4.228   6.323   2.821
 4682TIP3    H213986   4.343   6.400   2.760
 4683TIP3   OH213987   4.120   5.824   1.374
 4683TIP3    H113988   4.187   5.891   1.348
 4683TIP3    H213989   4.161   5.786   1.454
 4684TIP3   OH213990   4.245   5.692   1.579
 4684TIP3    H113991   4.178   5.650   1.637
 4684TIP3    H213992   4.308   5.730   1.643
 4685TIP3   OH213993   4.300   6.086   2.012
 4685TIP3    H113994   4.352   6.020   1.962
 4685TIP3    H213995   4.294   6.160   1.948
 4686TIP3   OH213996   4.128   6.385   2.206
 4686TIP3    H113997   4.057   6.429   2.256
 4686TIP3    H213998   4.079   6.339   2.135
 4687TIP3   OH213999   4.184   5.599   1.227
 4687TIP3    H114000   4.109   5.599   1.164
 4687TIP3    H214001   4.157   5.675   1.284
 4688TIP3   OH214002   4.059   5.271   1.174
 4688TIP3    H114003   3.999   5.310   1.109
 4688TIP3    H214004   4.035   5.177   1.165
 4689TIP3   OH214005   4.059   5.550   1.724
 4689TIP3    H114006   4.063   5.454   1.716
 4689TIP3    H214007   4.043   5.562   1.821
 4690TIP3   OH214008   2.683   5.622   2.473
 4690TIP3    H114009   2.681   5.590   2.380
 4690TIP3    H214010   2.780   5.625   2.489
 4691TIP3   OH214011   4.347   5.975   2.583
 4691TIP3    H114012   4.419   5.909   2.571
 4691TIP3    H214013   4.373   6.045   2.521
 4692TIP3   OH214014   4.530   5.777   2.592
 4692TIP3    H114015   4.456   5.728   2.634
 4692TIP3    H214016   4.604   5.714   2.609
 4693TIP3   OH214017   3.998   5.005   1.162
 4693TIP3    H114018   4.066   4.973   1.223
 4693TIP3    H214019   3.919   4.952   1.184
 4694TIP3   OH214020   4.058   5.269   1.621
 4694TIP3    H114021   4.097   5.179   1.635
 4694TIP3    H214022   4.114   5.300   1.547
 4695TIP3   OH214023   4.215   5.436   2.115
 4695TIP3    H114024   4.300   5.462   2.074
 4695TIP3    H214025   4.229   5.475   2.204
 4696TIP3   OH214026   4.285   5.583   2.345
 4696TIP3    H114027   4.208   5.618   2.394
 4696TIP3    H214028   4.318   5.665   2.300
 4697TIP3   OH214029   2.900   5.308   3.144
 4697TIP3    H114030   2.998   5.303   3.148
 4697TIP3    H214031   2.877   5.222   3.185
 4698TIP3   OH214032   4.736   5.176   2.902
 4698TIP3    H114033   4.796   5.111   2.859
 4698TIP3    H214034   4.706   5.229   2.825
 4699TIP3   OH214035   4.165   5.016   1.656
 4699TIP3    H114036   4.211   5.000   1.741
 4699TIP3    H214037   4.102   4.941   1.654
 4700TIP3   OH214038   2.862   5.003   2.481
 4700TIP3    H114039   2.924   4.927   2.488
 4700TIP3    H214040   2.924   5.077   2.470
 4701TIP3   OH214041   2.663   5.275   2.548
 4701TIP3    H114042   2.714   5.270   2.464
 4701TIP3    H214043   2.693   5.360   2.583
 4702TIP3   OH214044   4.605   5.313   2.707
 4702TIP3    H114045   4.521   5.356   2.729
 4702TIP3    H214046   4.573   5.241   2.649
 4703TIP3   OH214047   4.244   4.947   1.294
 4703TIP3    H114048   4.282   4.879   1.236
 4703TIP3    H214049   4.308   5.020   1.286
 4704TIP3   OH214050   2.649   4.778   2.051
 4704TIP3    H114051   2.556   4.774   2.077
 4704TIP3    H214052   2.647   4.837   1.973
 4705TIP3   OH214053   3.816   6.478   1.560
 4705TIP3    H114054   3.864   6.469   1.475
 4705TIP3    H214055   3.862   6.552   1.602
 4706TIP3   OH214056   2.870   4.860   2.865
 4706TIP3    H114057   2.818   4.854   2.947
 4706TIP3    H214058   2.803   4.896   2.804
 4707TIP3   OH214059   2.908   6.290   2.940
 4707TIP3    H114060   2.816   6.261   2.925
 4707TIP3    H214061   2.920   6.269   3.034
 4708TIP3   OH214062   3.088   6.321   2.490
 4708TIP3    H114063   3.042   6.398   2.449
 4708TIP3    H214064   3.174   6.333   2.445
 4709TIP3   OH214065   3.530   6.564   2.627
 4709TIP3    H114066   3.573   6.564   2.716
 4709TIP3    H214067   3.596   6.615   2.575
 4710TIP3   OH214068   3.710   6.716   2.488
 4710TIP3    H114069   3.780   6.667   2.444
 4710TIP3    H214070   3.762   6.773   2.548
 4711TIP3   OH214071   4.506   5.077   2.586
 4711TIP3    H114072   4.415   5.071   2.551
 4711TIP3    H214073   4.537   4.984   2.575
 4712TIP3   OH214074   2.761   6.574   2.514
 4712TIP3    H114075   2.672   6.609   2.491
 4712TIP3    H214076   2.775   6.618   2.599
 4713TIP3   OH214077   3.000   6.554   2.373
 4713TIP3    H114078   2.912   6.567   2.415
 4713TIP3    H214079   2.983   6.586   2.282
 4714TIP3   OH214080   3.424   6.581   2.172
 4714TIP3    H114081   3.359   6.600   2.101
 4714TIP3    H214082   3.437   6.670   2.210
 4715TIP3   OH214083   3.694   6.521   2.223
 4715TIP3    H114084   3.600   6.539   2.202
 4715TIP3    H214085   3.738   6.594   2.176
 4716TIP3   OH214086   3.900   6.713   2.135
 4716TIP3    H114087   3.886   6.798   2.087
 4716TIP3    H214088   3.927   6.654   2.061
 4717TIP3   OH214089   2.672   6.367   2.259
 4717TIP3    H114090   2.702   6.342   2.349
 4717TIP3    H214091   2.745   6.326   2.206
 4718TIP3   OH214092   2.868   6.242   2.117
 4718TIP3    H114093   2.886   6.158   2.165
 4718TIP3    H214094   2.958   6.279   2.110
 4719TIP3   OH214095   3.134   6.335   2.122
 4719TIP3    H114096   3.166   6.245   2.105
 4719TIP3    H214097   3.183   6.356   2.203
 4720TIP3   OH214098   3.713   4.993   2.210
 4720TIP3    H114099   3.668   4.922   2.258
 4720TIP3    H214100   3.784   4.946   2.163
 4721TIP3   OH214101   4.232   4.870   2.110
 4721TIP3    H114102   4.269   4.923   2.035
 4721TIP3    H214103   4.137   4.891   2.105
 4722TIP3   OH214104   4.328   4.970   1.874
 4722TIP3    H114105   4.402   4.920   1.834
 4722TIP3    H214106   4.360   5.062   1.860
 4723TIP3   OH214107   2.959   4.699   2.221
 4723TIP3    H114108   2.866   4.667   2.223
 4723TIP3    H214109   3.007   4.614   2.217
 4724TIP3   OH214110   2.748   4.571   1.870
 4724TIP3    H114111   2.778   4.627   1.796
 4724TIP3    H214112   2.720   4.637   1.936
 4725TIP3   OH214113   3.405   4.730   2.104
 4725TIP3    H114114   3.460   4.779   2.040
 4725TIP3    H214115   3.430   4.772   2.187
 4726TIP3   OH214116   3.949   4.881   2.086
 4726TIP3    H114117   3.945   4.844   1.997
 4726TIP3    H214118   3.936   4.800   2.141
 4727TIP3   OH214119   3.980   4.804   1.649
 4727TIP3    H114120   3.894   4.850   1.662
 4727TIP3    H214121   3.962   4.719   1.694
 4728TIP3   OH214122   2.460   6.143   1.651
 4728TIP3    H114123   2.375   6.111   1.616
 4728TIP3    H214124   2.453   6.237   1.628
 4729TIP3   OH214125   2.864   4.727   1.635
 4729TIP3    H114126   2.913   4.667   1.575
 4729TIP3    H214127   2.937   4.783   1.669
 4730TIP3   OH214128   3.373   4.905   1.733
 4730TIP3    H114129   3.436   4.860   1.791
 4730TIP3    H214130   3.394   4.998   1.755
 4731TIP3   OH214131   3.958   6.445   1.323
 4731TIP3    H114132   3.953   6.348   1.307
 4731TIP3    H214133   3.907   6.479   1.247
 4732TIP3   OH214134   3.166   4.981   3.112
 4732TIP3    H114135   3.132   4.910   3.169
 4732TIP3    H214136   3.261   4.981   3.140
 4733TIP3   OH214137   3.416   4.979   3.231
 4733TIP3    H114138   3.501   4.954   3.192
 4733TIP3    H214139   3.404   4.908   3.298
 4734TIP3   OH214140   2.537   6.163   1.288
 4734TIP3    H114141   2.550   6.187   1.380
 4734TIP3    H214142   2.624   6.121   1.266
 4735TIP3   OH214143   4.242   5.041   3.019
 4735TIP3    H114144   4.261   5.010   3.110
 4735TIP3    H214145   4.332   5.036   2.979
 4736TIP3   OH214146   4.179   6.593   2.510
 4736TIP3    H114147   4.100   6.563   2.461
 4736TIP3    H214148   4.161   6.689   2.516
 4737TIP3   OH214149   5.448   5.966   1.274
 4737TIP3    H114150   5.418   6.057   1.254
 4737TIP3    H214151   5.371   5.915   1.244
 4738TIP3   OH214152   5.448   5.964   1.660
 4738TIP3    H114153   5.480   5.940   1.749
 4738TIP3    H214154   5.404   5.882   1.632
 4739TIP3   OH214155   4.745   5.859   2.023
 4739TIP3    H114156   4.775   5.790   2.086
 4739TIP3    H214157   4.822   5.917   2.021
 4740TIP3   OH214158   5.691   6.270   1.340
 4740TIP3    H114159   5.673   6.201   1.405
 4740TIP3    H214160   5.719   6.345   1.396
 4741TIP3   OH214161   4.717   6.270   1.746
 4741TIP3    H114162   4.708   6.172   1.748
 4741TIP3    H214163   4.813   6.280   1.743
 4742TIP3   OH214164   4.424   5.472   1.531
 4742TIP3    H114165   4.375   5.554   1.549
 4742TIP3    H214166   4.353   5.419   1.490
 4743TIP3   OH214167   4.481   5.760   1.708
 4743TIP3    H114168   4.531   5.682   1.742
 4743TIP3    H214169   4.541   5.793   1.640
 4744TIP3   OH214170   5.340   6.726   1.361
 4744TIP3    H114171   5.386   6.654   1.313
 4744TIP3    H214172   5.331   6.689   1.450
 4745TIP3   OH214173   5.244   6.191   1.707
 4745TIP3    H114174   5.284   6.115   1.662
 4745TIP3    H214175   5.327   6.238   1.733
 4746TIP3   OH214176   6.258   5.510   1.706
 4746TIP3    H114177   6.288   5.593   1.748
 4746TIP3    H214178   6.279   5.529   1.612
 4747TIP3   OH214179   5.657   5.691   1.738
 4747TIP3    H114180   5.700   5.606   1.758
 4747TIP3    H214181   5.625   5.675   1.647
 4748TIP3   OH214182   4.997   5.351   1.703
 4748TIP3    H114183   4.976   5.424   1.641
 4748TIP3    H214184   4.948   5.278   1.660
 4749TIP3   OH214185   5.691   5.443   1.325
 4749TIP3    H114186   5.763   5.428   1.391
 4749TIP3    H214187   5.743   5.478   1.251
 4750TIP3   OH214188   4.628   5.553   1.811
 4750TIP3    H114189   4.711   5.534   1.859
 4750TIP3    H214190   4.642   5.497   1.732
 4751TIP3   OH214191   5.069   5.751   1.605
 4751TIP3    H114192   5.163   5.726   1.617
 4751TIP3    H214193   5.030   5.667   1.572
 4752TIP3   OH214194   6.331   5.718   1.876
 4752TIP3    H114195   6.247   5.766   1.857
 4752TIP3    H214196   6.350   5.751   1.965
 4753TIP3   OH214197   4.991   5.335   2.139
 4753TIP3    H114198   4.932   5.372   2.071
 4753TIP3    H214199   4.939   5.353   2.220
 4754TIP3   OH214200   5.342   6.189   1.142
 4754TIP3    H114201   5.294   6.169   1.061
 4754TIP3    H214202   5.295   6.271   1.171
 4755TIP3   OH214203   5.098   6.111   1.932
 4755TIP3    H114204   5.037   6.178   1.969
 4755TIP3    H214205   5.140   6.161   1.859
 4756TIP3   OH214206   5.898   5.447   1.501
 4756TIP3    H114207   5.882   5.404   1.587
 4756TIP3    H214208   5.950   5.525   1.527
 4757TIP3   OH214209   4.863   5.450   1.922
 4757TIP3    H114210   4.924   5.523   1.946
 4757TIP3    H214211   4.913   5.410   1.847
 4758TIP3   OH214212   4.927   6.306   2.030
 4758TIP3    H114213   4.902   6.393   1.994
 4758TIP3    H214214   4.848   6.289   2.086
 4759TIP3   OH214215   4.323   5.997   1.269
 4759TIP3    H114216   4.277   6.030   1.190
 4759TIP3    H214217   4.355   6.081   1.308
 4760TIP3   OH214218   5.759   6.512   1.504
 4760TIP3    H114219   5.670   6.502   1.546
 4760TIP3    H214220   5.749   6.600   1.462
 4761TIP3   OH214221   6.051   5.408   1.869
 4761TIP3    H114222   5.964   5.439   1.839
 4761TIP3    H214223   6.111   5.442   1.800
 4762TIP3   OH214224   5.347   5.053   1.855
 4762TIP3    H114225   5.329   4.958   1.871
 4762TIP3    H214226   5.270   5.092   1.901
 4763TIP3   OH214227   5.463   6.555   1.179
 4763TIP3    H114228   5.512   6.472   1.159
 4763TIP3    H214229   5.526   6.620   1.141
 4764TIP3   OH214230   5.609   6.340   1.086
 4764TIP3    H114231   5.557   6.264   1.057
 4764TIP3    H214232   5.645   6.308   1.171
 4765TIP3   OH214233   5.985   6.422   1.851
 4765TIP3    H114234   5.973   6.345   1.792
 4765TIP3    H214235   5.967   6.497   1.791
 4766TIP3   OH214236   5.277   5.816   1.110
 4766TIP3    H114237   5.196   5.868   1.090
 4766TIP3    H214238   5.321   5.814   1.023
 4767TIP3   OH214239   5.236   5.603   0.821
 4767TIP3    H114240   5.303   5.653   0.871
 4767TIP3    H214241   5.295   5.541   0.772
 4768TIP3   OH214242   6.180   6.059   1.695
 4768TIP3    H114243   6.097   6.111   1.701
 4768TIP3    H214244   6.210   6.085   1.606
 4769TIP3   OH214245   5.626   5.900   1.079
 4769TIP3    H114246   5.570   5.923   1.156
 4769TIP3    H214247   5.709   5.874   1.124
 4770TIP3   OH214248   5.859   5.937   1.995
 4770TIP3    H114249   5.857   6.021   2.045
 4770TIP3    H214250   5.773   5.942   1.949
 4771TIP3   OH214251   4.857   5.896   1.497
 4771TIP3    H114252   4.816   5.838   1.429
 4771TIP3    H214253   4.934   5.843   1.527
 4772TIP3   OH214254   4.988   6.309   1.645
 4772TIP3    H114255   4.967   6.270   1.559
 4772TIP3    H214256   5.077   6.274   1.663
 4773TIP3   OH214257   4.995   5.867   1.851
 4773TIP3    H114258   5.027   5.846   1.761
 4773TIP3    H214259   5.037   5.954   1.870
 4774TIP3   OH214260   5.520   6.505   1.628
 4774TIP3    H114261   5.506   6.586   1.681
 4774TIP3    H214262   5.503   6.433   1.692
 4775TIP3   OH214263   5.132   6.423   2.176
 4775TIP3    H114264   5.072   6.485   2.222
 4775TIP3    H214265   5.067   6.371   2.125
 4776TIP3   OH214266   5.464   5.758   0.905
 4776TIP3    H114267   5.524   5.818   0.955
 4776TIP3    H214268   5.484   5.783   0.812
 4777TIP3   OH214269   4.887   5.978   2.279
 4777TIP3    H114270   4.892   6.067   2.320
 4777TIP3    H214271   4.791   5.960   2.291
 4778TIP3   OH214272   5.211   6.432   1.185
 4778TIP3    H114273   5.289   6.489   1.198
 4778TIP3    H214274   5.147   6.492   1.145
 4779TIP3   OH214275   4.926   6.589   2.262
 4779TIP3    H114276   4.889   6.593   2.172
 4779TIP3    H214277   4.846   6.568   2.316
 4780TIP3   OH214278   5.983   4.998   0.956
 4780TIP3    H114279   5.900   5.022   1.003
 4780TIP3    H214280   5.997   5.078   0.901
 4781TIP3   OH214281   4.724   5.739   1.300
 4781TIP3    H114282   4.656   5.784   1.245
 4781TIP3    H214283   4.684   5.653   1.314
 4782TIP3   OH214284   4.503   6.124   2.210
 4782TIP3    H114285   4.436   6.103   2.141
 4782TIP3    H214286   4.541   6.036   2.231
 4783TIP3   OH214287   4.358   6.316   1.842
 4783TIP3    H114288   4.455   6.314   1.834
 4783TIP3    H214289   4.345   6.396   1.896
 4784TIP3   OH214290   6.222   6.769   1.899
 4784TIP3    H114291   6.220   6.672   1.915
 4784TIP3    H214292   6.139   6.796   1.945
 4785TIP3   OH214293   5.329   6.552   2.033
 4785TIP3    H114294   5.327   6.645   2.065
 4785TIP3    H214295   5.257   6.513   2.087
 4786TIP3   OH214296   5.082   6.688   0.986
 4786TIP3    H114297   5.034   6.666   0.904
 4786TIP3    H214298   5.048   6.776   1.009
 4787TIP3   OH214299   4.528   6.531   1.369
 4787TIP3    H114300   4.576   6.523   1.455
 4787TIP3    H214301   4.470   6.453   1.373
 4788TIP3   OH214302   5.305   6.555   0.669
 4788TIP3    H114303   5.375   6.489   0.675
 4788TIP3    H214304   5.314   6.594   0.759
 4789TIP3   OH214305   5.338   6.637   0.921
 4789TIP3    H114306   5.249   6.651   0.959
 4789TIP3    H214307   5.389   6.609   0.999
 4790TIP3   OH214308   6.112   5.897   2.174
 4790TIP3    H114309   6.030   5.910   2.124
 4790TIP3    H214310   6.127   5.801   2.163
 4791TIP3   OH214311   4.709   6.305   2.194
 4791TIP3    H114312   4.757   6.292   2.278
 4791TIP3    H214313   4.634   6.243   2.203
 4792TIP3   OH214314   5.109   5.129   1.983
 4792TIP3    H114315   5.020   5.099   1.955
 4792TIP3    H214316   5.083   5.211   2.030
 4793TIP3   OH214317   5.643   5.243   2.177
 4793TIP3    H114318   5.711   5.218   2.243
 4793TIP3    H214319   5.559   5.226   2.224
 4794TIP3   OH214320   5.879   5.673   2.094
 4794TIP3    H114321   5.829   5.671   2.179
 4794TIP3    H214322   5.856   5.761   2.059
 4795TIP3   OH214323   5.519   5.806   0.640
 4795TIP3    H114324   5.521   5.762   0.554
 4795TIP3    H214325   5.606   5.851   0.637
 4796TIP3   OH214326   5.253   5.177   0.955
 4796TIP3    H114327   5.218   5.174   1.046
 4796TIP3    H214328   5.212   5.096   0.918
 4797TIP3   OH214329   5.040   5.645   2.001
 4797TIP3    H114330   4.990   5.667   2.082
 4797TIP3    H214331   5.025   5.727   1.947
 4798TIP3   OH214332   4.924   5.531   1.514
 4798TIP3    H114333   4.831   5.506   1.533
 4798TIP3    H214334   4.936   5.491   1.426
 4799TIP3   OH214335   5.415   5.617   1.244
 4799TIP3    H114336   5.363   5.688   1.200
 4799TIP3    H214337   5.469   5.584   1.170
 4800TIP3   OH214338   5.589   5.893   2.326
 4800TIP3    H114339   5.567   5.821   2.390
 4800TIP3    H214340   5.682   5.909   2.350
 4801TIP3   OH214341   5.571   5.644   1.481
 4801TIP3    H114342   5.509   5.673   1.410
 4801TIP3    H214343   5.605   5.564   1.436
 4802TIP3   OH214344   4.860   5.674   2.209
 4802TIP3    H114345   4.885   5.739   2.276
 4802TIP3    H214346   4.848   5.593   2.262
 4803TIP3   OH214347   4.910   5.152   0.920
 4803TIP3    H114348   4.898   5.152   1.017
 4803TIP3    H214349   4.832   5.204   0.891
 4804TIP3   OH214350   4.452   5.194   1.791
 4804TIP3    H114351   4.527   5.227   1.844
 4804TIP3    H214352   4.493   5.166   1.708
 4805TIP3   OH214353   4.422   5.177   1.309
 4805TIP3    H114354   4.466   5.215   1.231
 4805TIP3    H214355   4.360   5.249   1.330
 4806TIP3   OH214356   5.581   5.890   1.902
 4806TIP3    H114357   5.614   5.819   1.843
 4806TIP3    H214358   5.551   5.837   1.979
 4807TIP3   OH214359   5.253   5.351   1.575
 4807TIP3    H114360   5.171   5.352   1.627
 4807TIP3    H214361   5.321   5.351   1.644
 4808TIP3   OH214362   4.685   5.411   1.583
 4808TIP3    H114363   4.591   5.419   1.555
 4808TIP3    H214364   4.707   5.319   1.559
 4809TIP3   OH214365   4.952   5.404   1.273
 4809TIP3    H114366   5.046   5.421   1.250
 4809TIP3    H214367   4.904   5.427   1.190
 4810TIP3   OH214368   5.743   5.428   1.776
 4810TIP3    H114369   5.712   5.442   1.869
 4810TIP3    H214370   5.674   5.369   1.742
 4811TIP3   OH214371   4.798   5.439   1.051
 4811TIP3    H114372   4.728   5.393   1.002
 4811TIP3    H214373   4.851   5.477   0.977
 4812TIP3   OH214374   5.914   7.121   1.995
 4812TIP3    H114375   5.922   7.133   1.898
 4812TIP3    H214376   5.998   7.161   2.027
 4813TIP3   OH214377   4.872   6.227   2.417
 4813TIP3    H114378   4.951   6.259   2.465
 4813TIP3    H214379   4.806   6.228   2.490
 4814TIP3   OH214380   5.333   5.682   1.673
 4814TIP3    H114381   5.408   5.644   1.624
 4814TIP3    H214382   5.341   5.639   1.760
 4815TIP3   OH214383   4.856   5.169   1.554
 4815TIP3    H114384   4.819   5.091   1.601
 4815TIP3    H214385   4.900   5.128   1.479
 4816TIP3   OH214386   5.310   5.580   1.963
 4816TIP3    H114387   5.220   5.616   1.977
 4816TIP3    H214388   5.367   5.643   2.013
 4817TIP3   OH214389   5.048   5.969   1.057
 4817TIP3    H114390   4.975   5.904   1.045
 4817TIP3    H214391   5.028   6.003   1.148
 4818TIP3   OH214392   5.947   6.205   1.685
 4818TIP3    H114393   5.971   6.256   1.605
 4818TIP3    H214394   5.862   6.163   1.659
 4819TIP3   OH214395   5.505   5.277   0.926
 4819TIP3    H114396   5.408   5.261   0.932
 4819TIP3    H214397   5.513   5.373   0.944
 4820TIP3   OH214398   5.446   6.288   2.055
 4820TIP3    H114399   5.473   6.270   2.146
 4820TIP3    H214400   5.407   6.377   2.061
 4821TIP3   OH214401   5.573   5.529   1.026
 4821TIP3    H114402   5.670   5.535   1.040
 4821TIP3    H214403   5.555   5.609   0.972
 4822TIP3   OH214404   4.740   5.992   1.733
 4822TIP3    H114405   4.779   5.963   1.648
 4822TIP3    H214406   4.782   5.931   1.796
 4823TIP3   OH214407   5.193   6.117   0.877
 4823TIP3    H114408   5.147   6.204   0.885
 4823TIP3    H214409   5.139   6.062   0.938
 4824TIP3   OH214410   4.623   5.910   2.346
 4824TIP3    H114411   4.640   5.897   2.442
 4824TIP3    H214412   4.551   5.845   2.331
 4825TIP3   OH214413   5.347   6.027   2.367
 4825TIP3    H114414   5.286   5.968   2.320
 4825TIP3    H214415   5.434   5.992   2.337
 4826TIP3   OH214416   5.606   6.546   1.951
 4826TIP3    H114417   5.509   6.546   1.965
 4826TIP3    H214418   5.635   6.598   2.029
 4827TIP3   OH214419   6.011   5.617   0.862
 4827TIP3    H114420   5.951   5.575   0.796
 4827TIP3    H214421   6.009   5.708   0.824
 4828TIP3   OH214422   6.235   6.477   1.941
 4828TIP3    H114423   6.137   6.472   1.932
 4828TIP3    H214424   6.261   6.448   1.851
 4829TIP3   OH214425   5.740   6.431   0.759
 4829TIP3    H114426   5.707   6.383   0.836
 4829TIP3    H214427   5.690   6.390   0.686
 4830TIP3   OH214428   5.713   6.068   1.602
 4830TIP3    H114429   5.619   6.044   1.616
 4830TIP3    H214430   5.746   5.988   1.558
 4831TIP3   OH214431   4.841   6.295   1.356
 4831TIP3    H114432   4.838   6.377   1.303
 4831TIP3    H214433   4.747   6.280   1.373
 4832TIP3   OH214434   4.407   5.601   1.067
 4832TIP3    H114435   4.452   5.684   1.090
 4832TIP3    H214436   4.330   5.603   1.129
 4833TIP3   OH214437   4.977   6.060   1.301
 4833TIP3    H114438   4.941   6.150   1.319
 4833TIP3    H214439   4.941   6.010   1.377
 4834TIP3   OH214440   5.110   6.639   1.826
 4834TIP3    H114441   5.151   6.713   1.777
 4834TIP3    H214442   5.187   6.605   1.876
 4835TIP3   OH214443   4.759   6.534   1.209
 4835TIP3    H114444   4.674   6.542   1.256
 4835TIP3    H214445   4.792   6.626   1.213
 4836TIP3   OH214446   5.496   6.273   1.787
 4836TIP3    H114447   5.485   6.272   1.885
 4836TIP3    H214448   5.577   6.221   1.777
 4837TIP3   OH214449   5.456   6.157   0.674
 4837TIP3    H114450   5.517   6.133   0.747
 4837TIP3    H214451   5.370   6.139   0.714
 4838TIP3   OH214452   5.746   6.808   1.828
 4838TIP3    H114453   5.665   6.754   1.822
 4838TIP3    H214454   5.729   6.876   1.760
 4839TIP3   OH214455   4.831   5.416   2.354
 4839TIP3    H114456   4.734   5.421   2.367
 4839TIP3    H214457   4.858   5.360   2.427
 4840TIP3   OH214458   5.633   6.096   0.882
 4840TIP3    H114459   5.623   6.033   0.957
 4840TIP3    H214460   5.730   6.097   0.872
 4841TIP3   OH214461   4.549   6.500   1.985
 4841TIP3    H114462   4.603   6.430   2.023
 4841TIP3    H214463   4.573   6.575   2.042
 4842TIP3   OH214464   4.830   6.153   0.670
 4842TIP3    H114465   4.858   6.065   0.639
 4842TIP3    H214466   4.815   6.136   0.765
 4843TIP3   OH214467   4.783   6.152   0.943
 4843TIP3    H114468   4.856   6.126   1.001
 4843TIP3    H214469   4.786   6.250   0.949
 4844TIP3   OH214470   4.517   5.844   1.146
 4844TIP3    H114471   4.453   5.891   1.202
 4844TIP3    H214472   4.533   5.913   1.078
 4845TIP3   OH214473   5.672   5.479   2.035
 4845TIP3    H114474   5.750   5.520   2.076
 4845TIP3    H214475   5.658   5.400   2.091
 4846TIP3   OH214476   5.551   5.230   1.204
 4846TIP3    H114477   5.536   5.252   1.110
 4846TIP3    H214478   5.589   5.313   1.239
 4847TIP3   OH214479   5.052   6.346   0.894
 4847TIP3    H114480   4.966   6.377   0.929
 4847TIP3    H214481   5.059   6.400   0.814
 4848TIP3   OH214482   5.237   5.413   1.304
 4848TIP3    H114483   5.301   5.485   1.287
 4848TIP3    H214484   5.242   5.405   1.402
 4849TIP3   OH214485   5.508   5.730   2.110
 4849TIP3    H114486   5.530   5.785   2.189
 4849TIP3    H214487   5.562   5.651   2.125
 4850TIP3   OH214488   5.381   5.136   1.405
 4850TIP3    H114489   5.371   5.214   1.463
 4850TIP3    H214490   5.442   5.171   1.337
 4851TIP3   OH214491   4.796   6.425   0.957
 4851TIP3    H114492   4.764   6.495   0.896
 4851TIP3    H214493   4.779   6.467   1.044
 4852TIP3   OH214494   4.893   5.138   1.197
 4852TIP3    H114495   4.891   5.229   1.233
 4852TIP3    H214496   4.990   5.122   1.203
 4853TIP3   OH214497   6.146   5.631   2.095
 4853TIP3    H114498   6.048   5.629   2.100
 4853TIP3    H214499   6.159   5.592   2.007
 4854TIP3   OH214500   5.798   5.825   1.480
 4854TIP3    H114501   5.722   5.766   1.493
 4854TIP3    H214502   5.869   5.778   1.528
 4855TIP3   OH214503   4.511   6.051   0.947
 4855TIP3    H114504   4.576   6.123   0.958
 4855TIP3    H214505   4.560   5.996   0.883
 4856TIP3   OH214506   4.453   5.329   1.084
 4856TIP3    H114507   4.453   5.427   1.082
 4856TIP3    H214508   4.371   5.308   1.040
 4857TIP3   OH214509   5.765   6.786   1.431
 4857TIP3    H114510   5.722   6.827   1.353
 4857TIP3    H214511   5.860   6.804   1.410
 4858TIP3   OH214512   4.845   5.050   1.955
 4858TIP3    H114513   4.813   5.016   1.868
 4858TIP3    H214514   4.832   4.971   2.013
 4859TIP3   OH214515   4.378   6.264   1.335
 4859TIP3    H114516   4.314   6.297   1.400
 4859TIP3    H214517   4.345   6.309   1.253
 4860TIP3   OH214518   4.543   6.817   2.408
 4860TIP3    H114519   4.626   6.819   2.460
 4860TIP3    H214520   4.522   6.722   2.410
 4861TIP3   OH214521   5.019   6.772   2.453
 4861TIP3    H114522   5.114   6.756   2.459
 4861TIP3    H214523   4.994   6.712   2.381
 4862TIP3   OH214524   5.017   6.339   0.595
 4862TIP3    H114525   4.937   6.286   0.616
 4862TIP3    H214526   5.080   6.266   0.585
 4863TIP3   OH214527   5.662   6.679   2.184
 4863TIP3    H114528   5.653   6.611   2.255
 4863TIP3    H214529   5.736   6.733   2.217
 4864TIP3   OH214530   4.670   6.215   2.608
 4864TIP3    H114531   4.685   6.119   2.613
 4864TIP3    H214532   4.582   6.219   2.564
 4865TIP3   OH214533   4.651   5.867   0.802
 4865TIP3    H114534   4.710   5.834   0.872
 4865TIP3    H214535   4.716   5.881   0.731
 4866TIP3   OH214536   5.279   6.303   2.382
 4866TIP3    H114537   5.235   6.323   2.296
 4866TIP3    H214538   5.308   6.210   2.371
 4867TIP3   OH214539   5.138   6.073   0.607
 4867TIP3    H114540   5.154   6.080   0.703
 4867TIP3    H214541   5.140   5.976   0.596
 4868TIP3   OH214542   5.769   6.312   1.989
 4868TIP3    H114543   5.844   6.356   1.946
 4868TIP3    H214544   5.699   6.379   1.975
 4869TIP3   OH214545   4.788   5.950   2.593
 4869TIP3    H114546   4.867   5.900   2.568
 4869TIP3    H214547   4.816   5.985   2.681
 4870TIP3   OH214548   4.854   5.772   1.023
 4870TIP3    H114549   4.826   5.731   1.107
 4870TIP3    H214550   4.891   5.696   0.974
 4871TIP3   OH214551   5.125   5.835   2.253
 4871TIP3    H114552   5.046   5.894   2.254
 4871TIP3    H214553   5.175   5.870   2.175
 4872TIP3   OH214554   4.957   5.566   0.867
 4872TIP3    H114555   4.929   5.569   0.773
 4872TIP3    H214556   5.054   5.569   0.858
 4873TIP3   OH214557   5.640   6.237   2.386
 4873TIP3    H114558   5.720   6.211   2.339
 4873TIP3    H214559   5.636   6.171   2.458
 4874TIP3   OH214560   5.776   5.858   0.537
 4874TIP3    H114561   5.798   5.797   0.464
 4874TIP3    H214562   5.774   5.945   0.490
 4875TIP3   OH214563   5.248   5.625   2.377
 4875TIP3    H114564   5.247   5.546   2.319
 4875TIP3    H214565   5.204   5.692   2.320
 4876TIP3   OH214566   5.250   5.409   2.186
 4876TIP3    H114567   5.278   5.453   2.102
 4876TIP3    H214568   5.156   5.388   2.167
 4877TIP3   OH214569   5.275   5.945   2.059
 4877TIP3    H114570   5.359   5.959   2.015
 4877TIP3    H214571   5.217   6.011   2.014
 4878TIP3   OH214572   5.858   5.912   2.439
 4878TIP3    H114573   5.908   5.829   2.449
 4878TIP3    H214574   5.925   5.971   2.403
 4879TIP3   OH214575   5.899   6.165   2.175
 4879TIP3    H114576   5.841   6.220   2.117
 4879TIP3    H214577   5.987   6.187   2.136
 4880TIP3   OH214578   5.127   5.732   2.611
 4880TIP3    H114579   5.057   5.665   2.625
 4880TIP3    H214580   5.159   5.708   2.522
 4881TIP3   OH214581   5.381   5.172   2.254
 4881TIP3    H114582   5.333   5.255   2.231
 4881TIP3    H214583   5.311   5.105   2.243
 4882TIP3   OH214584   5.508   5.676   2.470
 4882TIP3    H114585   5.494   5.663   2.565
 4882TIP3    H214586   5.419   5.653   2.437
 4883TIP3   OH214587   5.746   5.625   2.324
 4883TIP3    H114588   5.671   5.629   2.387
 4883TIP3    H214589   5.820   5.597   2.381
 4884TIP3   OH214590   5.976   5.569   2.475
 4884TIP3    H114591   5.989   5.473   2.492
 4884TIP3    H214592   5.972   5.606   2.565
 4885TIP3   OH214593   4.963   5.513   2.664
 4885TIP3    H114594   4.969   5.421   2.631
 4885TIP3    H214595   5.000   5.502   2.754
 4886TIP3   OH214596   5.476   5.183   2.512
 4886TIP3    H114597   5.542   5.111   2.505
 4886TIP3    H214598   5.436   5.178   2.423
 4887TIP3   OH214599   5.542   5.398   2.670
 4887TIP3    H114600   5.520   5.327   2.606
 4887TIP3    H214601   5.464   5.457   2.664
 4888TIP3   OH214602   4.761   6.630   0.770
 4888TIP3    H114603   4.856   6.626   0.747
 4888TIP3    H214604   4.728   6.674   0.690
 4889TIP3   OH214605   4.243   6.003   0.978
 4889TIP3    H114606   4.337   6.030   0.970
 4889TIP3    H214607   4.245   5.912   0.943
 4890TIP3   OH214608   4.160   6.620   1.400
 4890TIP3    H114609   4.092   6.559   1.363
 4890TIP3    H214610   4.203   6.561   1.465
 4891TIP3   OH214611   4.296   6.467   1.586
 4891TIP3    H114612   4.280   6.399   1.652
 4891TIP3    H214613   4.347   6.531   1.639
 4892TIP3   OH214614   6.021   6.871   1.387
 4892TIP3    H114615   6.043   6.902   1.477
 4892TIP3    H214616   6.083   6.922   1.332
 4893TIP3   OH214617   6.052   6.891   1.669
 4893TIP3    H114618   6.007   6.804   1.668
 4893TIP3    H214619   6.127   6.870   1.726
 4894TIP3   OH214620   6.097   6.568   2.243
 4894TIP3    H114621   6.024   6.579   2.307
 4894TIP3    H214622   6.139   6.657   2.246
 4895TIP3   OH214623   5.914   6.081   0.867
 4895TIP3    H114624   5.987   6.142   0.848
 4895TIP3    H214625   5.950   6.036   0.947
 4896TIP3   OH214626   6.040   5.948   1.067
 4896TIP3    H114627   5.975   5.906   1.128
 4896TIP3    H214628   6.107   5.984   1.130
 4897TIP3   OH214629   6.096   6.343   1.496
 4897TIP3    H114630   6.150   6.276   1.449
 4897TIP3    H214631   6.087   6.414   1.431
 4898TIP3   OH214632   5.925   6.642   1.691
 4898TIP3    H114633   5.854   6.685   1.743
 4898TIP3    H214634   5.874   6.595   1.622
 4899TIP3   OH214635   5.978   5.854   0.722
 4899TIP3    H114636   5.901   5.841   0.662
 4899TIP3    H214637   5.948   5.932   0.772
 4900TIP3   OH214638   5.851   5.540   0.656
 4900TIP3    H114639   5.826   5.560   0.564
 4900TIP3    H214640   5.817   5.448   0.664
 4901TIP3   OH214641   5.854   5.806   1.211
 4901TIP3    H114642   5.860   5.710   1.203
 4901TIP3    H214643   5.839   5.819   1.308
 4902TIP3   OH214644   4.479   5.877   1.960
 4902TIP3    H114645   4.477   5.846   1.867
 4902TIP3    H214646   4.577   5.880   1.975
 4903TIP3   OH214647   6.143   6.232   2.069
 4903TIP3    H114648   6.215   6.165   2.059
 4903TIP3    H214649   6.170   6.302   2.007
 4904TIP3   OH214650   6.326   6.033   2.080
 4904TIP3    H114651   6.252   5.984   2.122
 4904TIP3    H214652   6.400   5.970   2.097
 4905TIP3   OH214653   5.777   5.279   0.668
 4905TIP3    H114654   5.860   5.238   0.701
 4905TIP3    H214655   5.710   5.212   0.687
 4906TIP3   OH214656   5.851   5.523   1.105
 4906TIP3    H114657   5.891   5.434   1.121
 4906TIP3    H214658   5.908   5.554   1.032
 4907TIP3   OH214659   6.011   5.694   1.602
 4907TIP3    H114660   6.096   5.719   1.560
 4907TIP3    H214661   6.025   5.732   1.690
 4908TIP3   OH214662   6.081   5.840   1.832
 4908TIP3    H114663   6.004   5.874   1.881
 4908TIP3    H214664   6.114   5.921   1.787
 4909TIP3   OH214665   4.697   5.564   2.631
 4909TIP3    H114666   4.794   5.560   2.635
 4909TIP3    H214667   4.673   5.478   2.672
 4910TIP3   OH214668   6.532   5.432   2.390
 4910TIP3    H114669   6.592   5.367   2.347
 4910TIP3    H214670   6.504   5.485   2.313
 4911TIP3   OH214671   5.958   5.274   1.146
 4911TIP3    H114672   6.006   5.257   1.229
 4911TIP3    H214673   5.897   5.197   1.143
 4912TIP3   OH214674   4.660   5.258   1.963
 4912TIP3    H114675   4.722   5.184   1.973
 4912TIP3    H214676   4.721   5.333   1.956
 4913TIP3   OH214677   4.461   5.530   2.037
 4913TIP3    H114678   4.510   5.528   1.952
 4913TIP3    H214679   4.486   5.617   2.071
 4914TIP3   OH214680   6.402   5.569   2.194
 4914TIP3    H114681   6.315   5.611   2.213
 4914TIP3    H214682   6.373   5.496   2.136
 4915TIP3   OH214683   6.037   5.204   0.775
 4915TIP3    H114684   6.074   5.131   0.720
 4915TIP3    H214685   6.107   5.272   0.767
 4916TIP3   OH214686   4.445   5.034   1.537
 4916TIP3    H114687   4.352   5.030   1.565
 4916TIP3    H214688   4.441   5.093   1.459
 4917TIP3   OH214689   5.606   6.740   1.044
 4917TIP3    H114690   5.658   6.737   0.962
 4917TIP3    H214691   5.648   6.811   1.096
 4918TIP3   OH214692   4.665   5.112   2.350
 4918TIP3    H114693   4.615   5.111   2.433
 4918TIP3    H214694   4.600   5.153   2.290
 4919TIP3   OH214695   4.706   6.540   2.427
 4919TIP3    H114696   4.612   6.518   2.413
 4919TIP3    H214697   4.715   6.530   2.523
 4920TIP3   OH214698   4.884   6.576   1.975
 4920TIP3    H114699   4.836   6.652   1.937
 4920TIP3    H214700   4.970   6.591   1.930
 4921TIP3   OH214701   5.327   6.818   2.112
 4921TIP3    H114702   5.368   6.820   2.202
 4921TIP3    H214703   5.392   6.871   2.061
 4922TIP3   OH214704   5.505   6.969   1.972
 4922TIP3    H114705   5.578   6.917   1.935
 4922TIP3    H214706   5.555   7.028   2.034
 4923TIP3   OH214707   6.305   5.332   2.073
 4923TIP3    H114708   6.215   5.322   2.037
 4923TIP3    H214709   6.339   5.240   2.066
 4924TIP3   OH214710   4.559   6.831   2.002
 4924TIP3    H114711   4.469   6.864   1.980
 4924TIP3    H214712   4.573   6.877   2.086
 4925TIP3   OH214713   4.795   6.810   1.858
 4925TIP3    H114714   4.708   6.823   1.903
 4925TIP3    H214715   4.776   6.844   1.769
 4926TIP3   OH214716   5.221   6.837   1.658
 4926TIP3    H114717   5.153   6.857   1.592
 4926TIP3    H214718   5.236   6.927   1.696
 4927TIP3   OH214719   5.490   6.781   1.703
 4927TIP3    H114720   5.394   6.792   1.690
 4927TIP3    H214721   5.523   6.863   1.663
 4928TIP3   OH214722   5.704   6.989   1.612
 4928TIP3    H114723   5.652   7.049   1.556
 4928TIP3    H214724   5.728   6.919   1.548
 4929TIP3   OH214725   4.471   6.626   1.743
 4929TIP3    H114726   4.497   6.599   1.834
 4929TIP3    H214727   4.544   6.582   1.693
 4930TIP3   OH214728   4.666   6.498   1.602
 4930TIP3    H114729   4.681   6.414   1.653
 4930TIP3    H214730   4.757   6.534   1.599
 4931TIP3   OH214731   4.932   6.590   1.607
 4931TIP3    H114732   4.963   6.498   1.598
 4931TIP3    H214733   4.978   6.615   1.690
 4932TIP3   OH214734   5.508   5.249   1.694
 4932TIP3    H114735   5.464   5.178   1.745
 4932TIP3    H214736   5.581   5.201   1.650
 4933TIP3   OH214737   6.029   5.126   1.599
 4933TIP3    H114738   6.066   5.179   1.525
 4933TIP3    H214739   5.934   5.147   1.592
 4934TIP3   OH214740   6.124   5.228   1.363
 4934TIP3    H114741   6.197   5.177   1.321
 4934TIP3    H214742   6.156   5.320   1.348
 4935TIP3   OH214743   4.755   4.957   1.707
 4935TIP3    H114744   4.662   4.925   1.709
 4935TIP3    H214745   4.803   4.871   1.703
 4936TIP3   OH214746   4.547   4.827   1.358
 4936TIP3    H114747   4.573   4.885   1.284
 4936TIP3    H214748   4.515   4.892   1.423
 4937TIP3   OH214749   5.202   4.986   1.590
 4937TIP3    H114750   5.257   5.036   1.527
 4937TIP3    H214751   5.222   5.030   1.673
 4938TIP3   OH214752   5.745   5.137   1.572
 4938TIP3    H114753   5.744   5.100   1.483
 4938TIP3    H214754   5.732   5.056   1.627
 4939TIP3   OH214755   5.775   5.061   1.136
 4939TIP3    H114756   5.689   5.105   1.150
 4939TIP3    H214757   5.760   4.975   1.180
 4940TIP3   OH214758   4.258   6.400   1.134
 4940TIP3    H114759   4.170   6.369   1.104
 4940TIP3    H214760   4.251   6.494   1.110
 4941TIP3   OH214761   4.660   4.984   1.120
 4941TIP3    H114762   4.709   4.923   1.061
 4941TIP3    H214763   4.733   5.039   1.155
 4942TIP3   OH214764   5.171   5.162   1.219
 4942TIP3    H114765   5.232   5.117   1.279
 4942TIP3    H214766   5.192   5.255   1.243
 4943TIP3   OH214767   5.028   6.588   0.711
 4943TIP3    H114768   5.123   6.597   0.691
 4943TIP3    H214769   5.008   6.510   0.655
 4944TIP3   OH214770   5.757   6.705   0.806
 4944TIP3    H114771   5.742   6.609   0.787
 4944TIP3    H214772   5.762   6.742   0.715
 4945TIP3   OH214773   4.963   5.236   2.598
 4945TIP3    H114774   4.927   5.167   2.656
 4945TIP3    H214775   5.057   5.237   2.627
 4946TIP3   OH214776   5.212   5.234   2.718
 4946TIP3    H114777   5.298   5.210   2.680
 4946TIP3    H214778   5.200   5.164   2.785
 4947TIP3   OH214779   4.335   6.418   0.778
 4947TIP3    H114780   4.338   6.447   0.870
 4947TIP3    H214781   4.423   6.377   0.765
 4948TIP3   OH214782   6.039   5.297   2.505
 4948TIP3    H114783   6.058   5.268   2.597
 4948TIP3    H214784   6.128   5.294   2.464
 4949TIP3   OH214785   5.974   6.851   1.997
 4949TIP3    H114786   5.896   6.820   1.948
 4949TIP3    H214787   5.953   6.946   2.006
 4950TIP3   OH214788   7.223   6.224   1.146
 4950TIP3    H114789   7.264   6.191   1.227
 4950TIP3    H214790   7.197   6.143   1.099
 4951TIP3   OH214791   6.539   6.116   1.513
 4951TIP3    H114792   6.570   6.048   1.575
 4951TIP3    H214793   6.619   6.171   1.505
 4952TIP3   OH214794   6.512   6.524   1.230
 4952TIP3    H114795   6.506   6.426   1.235
 4952TIP3    H214796   6.609   6.535   1.232
 4953TIP3   OH214797   6.220   5.730   1.013
 4953TIP3    H114798   6.170   5.811   1.034
 4953TIP3    H214799   6.149   5.674   0.979
 4954TIP3   OH214800   6.278   6.016   1.192
 4954TIP3    H114801   6.326   5.938   1.229
 4954TIP3    H214802   6.345   6.054   1.134
 4955TIP3   OH214803   7.039   6.446   1.193
 4955TIP3    H114804   7.085   6.368   1.156
 4955TIP3    H214805   7.119   6.499   1.216
 4956TIP3   OH214806   8.054   5.770   1.198
 4956TIP3    H114807   8.070   5.856   1.240
 4956TIP3    H214808   8.057   5.793   1.105
 4957TIP3   OH214809   7.451   5.947   1.236
 4957TIP3    H114810   7.492   5.860   1.250
 4957TIP3    H214811   7.424   5.939   1.142
 4958TIP3   OH214812   6.794   5.607   1.190
 4958TIP3    H114813   6.773   5.680   1.128
 4958TIP3    H214814   6.744   5.534   1.147
 4959TIP3   OH214815   7.461   5.692   0.843
 4959TIP3    H114816   7.551   5.689   0.882
 4959TIP3    H214817   7.476   5.736   0.758
 4960TIP3   OH214818   6.424   5.810   1.297
 4960TIP3    H114819   6.507   5.792   1.346
 4960TIP3    H214820   6.439   5.754   1.218
 4961TIP3   OH214821   6.863   6.006   1.096
 4961TIP3    H114822   6.959   5.984   1.104
 4961TIP3    H214823   6.827   5.922   1.060
 4962TIP3   OH214824   6.788   5.592   1.624
 4962TIP3    H114825   6.728   5.630   1.558
 4962TIP3    H214826   6.736   5.607   1.706
 4963TIP3   OH214827   6.894   6.367   1.419
 4963TIP3    H114828   6.834   6.436   1.455
 4963TIP3    H214829   6.939   6.416   1.346
 4964TIP3   OH214830   7.704   5.701   0.984
 4964TIP3    H114831   7.667   5.664   1.065
 4964TIP3    H214832   7.745   5.784   1.018
 4965TIP3   OH214833   6.658   5.707   1.408
 4965TIP3    H114834   6.720   5.780   1.433
 4965TIP3    H214835   6.710   5.666   1.335
 4966TIP3   OH214836   6.722   6.563   1.516
 4966TIP3    H114837   6.700   6.651   1.480
 4966TIP3    H214838   6.643   6.548   1.572
 4967TIP3   OH214839   6.117   6.247   0.756
 4967TIP3    H114840   6.033   6.272   0.714
 4967TIP3    H214841   6.147   6.334   0.789
 4968TIP3   OH214842   7.849   5.658   1.358
 4968TIP3    H114843   7.762   5.691   1.333
 4968TIP3    H214844   7.907   5.694   1.287
 4969TIP3   OH214845   7.143   5.309   1.342
 4969TIP3    H114846   7.125   5.215   1.360
 4969TIP3    H214847   7.066   5.351   1.388
 4970TIP3   OH214848   8.011   6.294   1.215
 4970TIP3    H114849   7.920   6.328   1.226
 4970TIP3    H214850   8.029   6.332   1.127
 4971TIP3   OH214851   7.654   6.191   1.482
 4971TIP3    H114852   7.651   6.274   1.532
 4971TIP3    H214853   7.567   6.196   1.436
 4972TIP3   OH214854   6.656   6.154   0.988
 4972TIP3    H114855   6.615   6.093   0.924
 4972TIP3    H214856   6.733   6.102   1.019
 4973TIP3   OH214857   6.783   6.562   1.143
 4973TIP3    H114858   6.762   6.529   1.055
 4973TIP3    H214859   6.874   6.529   1.157
 4974TIP3   OH214860   6.785   6.127   1.338
 4974TIP3    H114861   6.822   6.101   1.251
 4974TIP3    H214862   6.832   6.211   1.357
 4975TIP3   OH214863   7.278   6.741   1.094
 4975TIP3    H114864   7.304   6.824   1.138
 4975TIP3    H214865   7.289   6.674   1.163
 4976TIP3   OH214866   6.927   6.676   1.668
 4976TIP3    H114867   6.867   6.740   1.712
 4976TIP3    H214868   6.863   6.626   1.614
 4977TIP3   OH214869   6.683   6.234   1.767
 4977TIP3    H114870   6.688   6.324   1.807
 4977TIP3    H214871   6.587   6.217   1.778
 4978TIP3   OH214872   6.722   6.844   1.747
 4978TIP3    H114873   6.686   6.849   1.657
 4978TIP3    H214874   6.641   6.826   1.801
 4979TIP3   OH214875   6.513   5.989   0.816
 4979TIP3    H114876   6.453   6.031   0.751
 4979TIP3    H214877   6.471   5.904   0.831
 4980TIP3   OH214878   6.299   6.380   1.697
 4980TIP3    H114879   6.233   6.357   1.629
 4980TIP3    H214880   6.338   6.293   1.720
 4981TIP3   OH214881   6.155   6.578   1.320
 4981TIP3    H114882   6.252   6.568   1.322
 4981TIP3    H214883   6.143   6.651   1.382
 4982TIP3   OH214884   7.114   6.816   1.515
 4982TIP3    H114885   7.120   6.909   1.545
 4982TIP3    H214886   7.049   6.778   1.578
 4983TIP3   OH214887   6.296   6.774   0.872
 4983TIP3    H114888   6.372   6.774   0.935
 4983TIP3    H214889   6.224   6.761   0.937
 4984TIP3   OH214890   7.917   6.161   1.669
 4984TIP3    H114891   7.850   6.178   1.602
 4984TIP3    H214892   7.946   6.071   1.646
 4985TIP3   OH214893   6.504   6.562   1.680
 4985TIP3    H114894   6.554   6.550   1.764
 4985TIP3    H214895   6.430   6.499   1.691
 4986TIP3   OH214896   6.905   5.386   1.469
 4986TIP3    H114897   6.815   5.356   1.443
 4986TIP3    H214898   6.880   5.468   1.517
 4987TIP3   OH214899   7.439   5.499   1.664
 4987TIP3    H114900   7.507   5.474   1.730
 4987TIP3    H214901   7.355   5.482   1.711
 4988TIP3   OH214902   7.672   5.926   1.578
 4988TIP3    H114903   7.626   5.926   1.665
 4988TIP3    H214904   7.657   6.017   1.546
 4989TIP3   OH214905   6.835   5.903   1.486
 4989TIP3    H114906   6.787   5.925   1.568
 4989TIP3    H214907   6.819   5.985   1.433
 4990TIP3   OH214908   6.721   5.783   0.998
 4990TIP3    H114909   6.628   5.760   1.020
 4990TIP3    H214910   6.726   5.749   0.906
 4991TIP3   OH214911   7.385   6.149   1.812
 4991TIP3    H114912   7.365   6.078   1.876
 4991TIP3    H214913   7.478   6.168   1.833
 4992TIP3   OH214914   7.364   5.907   0.986
 4992TIP3    H114915   7.326   5.960   0.911
 4992TIP3    H214916   7.385   5.825   0.937
 4993TIP3   OH214917   6.654   5.931   1.695
 4993TIP3    H114918   6.685   5.996   1.761
 4993TIP3    H214919   6.645   5.850   1.749
 4994TIP3   OH214920   6.245   5.454   1.279
 4994TIP3    H114921   6.324   5.483   1.330
 4994TIP3    H214922   6.282   5.418   1.197
 4995TIP3   OH214923   6.220   5.435   0.806
 4995TIP3    H114924   6.264   5.469   0.726
 4995TIP3    H214925   6.155   5.506   0.822
 4996TIP3   OH214926   7.375   6.148   1.393
 4996TIP3    H114927   7.410   6.078   1.334
 4996TIP3    H214928   7.346   6.093   1.469
 4997TIP3   OH214929   7.048   5.597   1.058
 4997TIP3    H114930   6.966   5.603   1.112
 4997TIP3    H214931   7.116   5.617   1.125
 4998TIP3   OH214932   6.481   5.667   1.067
 4998TIP3    H114933   6.386   5.675   1.041
 4998TIP3    H214934   6.501   5.574   1.048
 4999TIP3   OH214935   6.755   5.673   0.739
 4999TIP3    H114936   6.851   5.677   0.759
 4999TIP3    H214937   6.750   5.732   0.663
 5000TIP3   OH214938   7.541   5.683   1.257
 5000TIP3    H114939   7.513   5.697   1.351
 5000TIP3    H214940   7.468   5.628   1.225
 5001TIP3   OH214941   6.666   6.483   1.904
 5001TIP3    H114942   6.747   6.515   1.950
 5001TIP3    H214943   6.602   6.486   1.977
 5002TIP3   OH214944   7.127   5.928   1.154
 5002TIP3    H114945   7.208   5.911   1.104
 5002TIP3    H214946   7.147   5.892   1.242
 5003TIP3   OH214947   6.655   5.425   1.039
 5003TIP3    H114948   6.615   5.349   1.087
 5003TIP3    H214949   6.705   5.380   0.970
 5004TIP3   OH214950   7.106   5.833   1.457
 5004TIP3    H114951   7.018   5.873   1.464
 5004TIP3    H214952   7.164   5.898   1.502
 5005TIP3   OH214953   7.753   6.366   1.161
 5005TIP3    H114954   7.739   6.461   1.143
 5005TIP3    H214955   7.659   6.336   1.162
 5006TIP3   OH214956   7.239   6.532   1.549
 5006TIP3    H114957   7.267   6.524   1.641
 5006TIP3    H214958   7.207   6.624   1.545
 5007TIP3   OH214959   6.531   6.243   1.219
 5007TIP3    H114960   6.575   6.217   1.135
 5007TIP3    H214961   6.582   6.190   1.283
 5008TIP3   OH214962   6.417   6.168   1.834
 5008TIP3    H114963   6.437   6.155   1.929
 5008TIP3    H214964   6.348   6.101   1.819
 5009TIP3   OH214965   7.144   6.281   1.854
 5009TIP3    H114966   7.084   6.225   1.803
 5009TIP3    H214967   7.231   6.248   1.825
 5010TIP3   OH214968   7.388   6.778   1.463
 5010TIP3    H114969   7.293   6.794   1.446
 5010TIP3    H214970   7.400   6.832   1.545
 5011TIP3   OH214971   7.489   6.309   1.121
 5011TIP3    H114972   7.393   6.300   1.109
 5011TIP3    H214973   7.523   6.238   1.063
 5012TIP3   OH214974   6.636   6.563   0.883
 5012TIP3    H114975   6.650   6.615   0.801
 5012TIP3    H214976   6.549   6.593   0.911
 5013TIP3   OH214977   6.195   5.857   0.559
 5013TIP3    H114978   6.242   5.932   0.600
 5013TIP3    H214979   6.117   5.849   0.620
 5014TIP3   OH214980   6.748   6.332   0.789
 5014TIP3    H114981   6.735   6.415   0.838
 5014TIP3    H214982   6.745   6.265   0.859
 5015TIP3   OH214983   6.904   6.883   1.320
 5015TIP3    H114984   6.943   6.952   1.262
 5015TIP3    H214985   6.984   6.854   1.367
 5016TIP3   OH214986   7.294   6.522   1.277
 5016TIP3    H114987   7.283   6.516   1.374
 5016TIP3    H214988   7.370   6.464   1.261
 5017TIP3   OH214989   6.628   5.673   1.841
 5017TIP3    H114990   6.531   5.676   1.854
 5017TIP3    H214991   6.656   5.615   1.913
 5018TIP3   OH214992   6.344   6.756   1.472
 5018TIP3    H114993   6.401   6.687   1.511
 5018TIP3    H214994   6.369   6.832   1.526
 5019TIP3   OH214995   6.319   6.095   0.648
 5019TIP3    H114996   6.245   6.133   0.699
 5019TIP3    H214997   6.361   6.177   0.617
 5020TIP3   OH214998   7.471   5.732   1.516
 5020TIP3    H114999   7.546   5.780   1.557
 5020TIP3    H215000   7.458   5.656   1.576
 5021TIP3   OH215001   7.025   5.667   0.788
 5021TIP3    H115002   7.083   5.742   0.766
 5021TIP3    H215003   7.039   5.659   0.885
 5022TIP3   OH215004   7.302   5.985   1.600
 5022TIP3    H115005   7.325   6.043   1.675
 5022TIP3    H215006   7.360   5.909   1.614
 5023TIP3   OH215007   7.192   5.406   0.900
 5023TIP3    H115008   7.165   5.470   0.969
 5023TIP3    H215009   7.257   5.460   0.853
 5024TIP3   OH215010   6.688   5.397   0.675
 5024TIP3    H115011   6.684   5.489   0.708
 5024TIP3    H215012   6.775   5.372   0.711
 5025TIP3   OH215013   7.943   5.898   1.566
 5025TIP3    H115014   7.847   5.897   1.580
 5025TIP3    H215015   7.948   5.863   1.476
 5026TIP3   OH215016   7.596   6.094   0.986
 5026TIP3    H115017   7.521   6.040   0.958
 5026TIP3    H215018   7.658   6.027   1.021
 5027TIP3   OH215019   6.250   5.586   0.580
 5027TIP3    H115020   6.235   5.681   0.570
 5027TIP3    H215021   6.176   5.549   0.529
 5028TIP3   OH215022   6.640   5.306   1.442
 5028TIP3    H115023   6.608   5.271   1.356
 5028TIP3    H215024   6.629   5.229   1.501
 5029TIP3   OH215025   6.161   6.513   0.822
 5029TIP3    H115026   6.121   6.547   0.903
 5029TIP3    H215027   6.246   6.560   0.823
 5030TIP3   OH215028   6.340   7.070   1.894
 5030TIP3    H115029   6.425   7.075   1.944
 5030TIP3    H215030   6.324   6.975   1.895
 5031TIP3   OH215031   6.807   7.027   1.947
 5031TIP3    H115032   6.904   7.033   1.951
 5031TIP3    H215033   6.795   6.966   1.871
 5032TIP3   OH215034   7.447   6.926   1.679
 5032TIP3    H115035   7.448   6.863   1.754
 5032TIP3    H215036   7.530   6.978   1.694
 5033TIP3   OH215037   6.465   6.473   2.097
 5033TIP3    H115038   6.481   6.377   2.100
 5033TIP3    H215039   6.378   6.477   2.052
 5034TIP3   OH215040   7.072   6.557   1.872
 5034TIP3    H115041   7.033   6.582   1.785
 5034TIP3    H215042   7.102   6.465   1.857
 5035TIP3   OH215043   7.565   6.567   1.473
 5035TIP3    H115044   7.619   6.636   1.433
 5035TIP3    H215045   7.479   6.614   1.475
 5036TIP3   OH215046   6.584   6.207   2.080
 5036TIP3    H115047   6.663   6.160   2.052
 5036TIP3    H215048   6.612   6.242   2.167
 5037TIP3   OH215049   6.919   6.089   1.737
 5037TIP3    H115050   6.843   6.151   1.739
 5037TIP3    H215051   6.971   6.125   1.661
 5038TIP3   OH215052   7.437   6.490   1.871
 5038TIP3    H115053   7.515   6.465   1.820
 5038TIP3    H215054   7.437   6.425   1.943
 5039TIP3   OH215055   7.044   5.882   1.864
 5039TIP3    H115056   7.044   5.803   1.807
 5039TIP3    H215057   7.001   5.949   1.807
 5040TIP3   OH215058   7.047   5.665   1.675
 5040TIP3    H115059   7.075   5.710   1.593
 5040TIP3    H215060   6.953   5.644   1.655
 5041TIP3   OH215061   7.071   6.201   1.546
 5041TIP3    H115062   7.157   6.216   1.504
 5041TIP3    H215063   7.015   6.268   1.501
 5042TIP3   OH215064   7.658   6.169   1.927
 5042TIP3    H115065   7.709   6.088   1.928
 5042TIP3    H215066   7.721   6.232   1.890
 5043TIP3   OH215067   7.669   6.423   1.678
 5043TIP3    H115068   7.618   6.476   1.612
 5043TIP3    H215069   7.758   6.430   1.636
 5044TIP3   OH215070   6.923   5.988   2.099
 5044TIP3    H115071   6.854   5.920   2.112
 5044TIP3    H215072   6.956   5.966   2.010
 5045TIP3   OH215073   7.177   5.429   1.742
 5045TIP3    H115074   7.129   5.511   1.719
 5045TIP3    H215075   7.107   5.361   1.731
 5046TIP3   OH215076   7.305   5.932   1.957
 5046TIP3    H115077   7.289   5.920   2.052
 5046TIP3    H215078   7.216   5.909   1.923
 5047TIP3   OH215079   7.542   5.881   1.811
 5047TIP3    H115080   7.467   5.886   1.874
 5047TIP3    H215081   7.616   5.854   1.869
 5048TIP3   OH215082   7.775   5.827   1.963
 5048TIP3    H115083   7.784   5.731   1.980
 5048TIP3    H215084   7.770   5.864   2.054
 5049TIP3   OH215085   6.760   5.771   2.151
 5049TIP3    H115086   6.762   5.678   2.119
 5049TIP3    H215087   6.797   5.758   2.241
 5050TIP3   OH215088   7.272   5.439   1.999
 5050TIP3    H115089   7.338   5.367   1.991
 5050TIP3    H215090   7.231   5.435   1.910
 5051TIP3   OH215091   7.337   5.654   2.159
 5051TIP3    H115092   7.316   5.583   2.094
 5051TIP3    H215093   7.260   5.713   2.151
 5052TIP3   OH215094   5.952   6.879   0.898
 5052TIP3    H115095   5.884   6.823   0.855
 5052TIP3    H215096   5.992   6.816   0.961
 5053TIP3   OH215097   6.107   6.718   1.066
 5053TIP3    H115098   6.083   6.652   1.134
 5053TIP3    H215099   6.150   6.783   1.125
 5054TIP3   OH215100   6.275   6.137   1.445
 5054TIP3    H115101   6.275   6.104   1.353
 5054TIP3    H215102   6.372   6.138   1.463
 5055TIP3   OH215103   7.896   6.462   1.536
 5055TIP3    H115104   7.985   6.432   1.560
 5055TIP3    H215105   7.916   6.526   1.466
 5056TIP3   OH215106   7.816   5.937   1.081
 5056TIP3    H115107   7.877   5.997   1.036
 5056TIP3    H215108   7.817   5.977   1.171
 5057TIP3   OH215109   7.855   6.077   1.310
 5057TIP3    H115110   7.784   6.119   1.362
 5057TIP3    H215111   7.915   6.153   1.295
 5058TIP3   OH215112   6.493   5.821   2.119
 5058TIP3    H115113   6.591   5.816   2.122
 5058TIP3    H215114   6.470   5.735   2.159
 5059TIP3   OH215115   6.456   5.514   1.450
 5059TIP3    H115116   6.519   5.440   1.460
 5059TIP3    H215117   6.518   5.589   1.443
 5060TIP3   OH215118   6.256   5.787   1.523
 5060TIP3    H115119   6.307   5.784   1.439
 5060TIP3    H215120   6.285   5.872   1.559
 5061TIP3   OH215121   6.242   5.296   1.035
 5061TIP3    H115122   6.147   5.286   1.053
 5061TIP3    H215123   6.241   5.350   0.953
 5062TIP3   OH215124   6.460   5.368   1.837
 5062TIP3    H115125   6.411   5.367   1.921
 5062TIP3    H215126   6.394   5.409   1.778
 5063TIP3   OH215127   6.501   6.797   1.911
 5063TIP3    H115128   6.407   6.773   1.900
 5063TIP3    H215129   6.513   6.789   2.006
 5064TIP3   OH215130   6.678   6.832   1.462
 5064TIP3    H115131   6.634   6.909   1.421
 5064TIP3    H215132   6.766   6.842   1.419
 5065TIP3   OH215133   7.135   7.088   1.594
 5065TIP3    H115134   7.172   7.085   1.685
 5065TIP3    H215135   7.201   7.148   1.551
 5066TIP3   OH215136   8.079   5.560   1.577
 5066TIP3    H115137   8.013   5.617   1.534
 5066TIP3    H215138   8.126   5.522   1.502
 5067TIP3   OH215139   6.350   7.088   1.487
 5067TIP3    H115140   6.259   7.121   1.470
 5067TIP3    H215141   6.370   7.136   1.569
 5068TIP3   OH215142   6.583   7.061   1.343
 5068TIP3    H115143   6.496   7.075   1.387
 5068TIP3    H215144   6.567   7.096   1.253
 5069TIP3   OH215145   6.996   7.073   1.157
 5069TIP3    H115146   6.962   7.117   1.079
 5069TIP3    H215147   7.030   7.148   1.210
 5070TIP3   OH215148   6.268   6.878   1.228
 5070TIP3    H115149   6.289   6.854   1.321
 5070TIP3    H215150   6.345   6.836   1.183
 5071TIP3   OH215151   6.466   6.749   1.085
 5071TIP3    H115152   6.479   6.670   1.141
 5071TIP3    H215153   6.555   6.790   1.090
 5072TIP3   OH215154   6.724   6.843   1.100
 5072TIP3    H115155   6.762   6.753   1.095
 5072TIP3    H215156   6.776   6.876   1.176
 5073TIP3   OH215157   7.305   5.503   1.179
 5073TIP3    H115158   7.261   5.434   1.232
 5073TIP3    H215159   7.380   5.455   1.140
 5074TIP3   OH215160   7.830   5.381   1.088
 5074TIP3    H115161   7.871   5.433   1.016
 5074TIP3    H215162   7.736   5.406   1.081
 5075TIP3   OH215163   6.309   3.842   9.039
 5075TIP3    H115164   6.356   3.804   8.964
 5075TIP3    H215165   6.299   3.935   9.013
 5076TIP3   OH215166   6.551   5.214   1.193
 5076TIP3    H115167   6.458   5.183   1.194
 5076TIP3    H215168   6.599   5.129   1.188
 5077TIP3   OH215169   6.355   5.080   0.854
 5077TIP3    H115170   6.383   5.135   0.778
 5077TIP3    H215171   6.314   5.147   0.912
 5078TIP3   OH215172   6.998   5.239   1.082
 5078TIP3    H115173   7.048   5.297   1.024
 5078TIP3    H215174   7.012   5.281   1.168
 5079TIP3   OH215175   7.548   5.393   1.059
 5079TIP3    H115176   7.540   5.355   0.971
 5079TIP3    H215177   7.532   5.314   1.116
 5080TIP3   OH215178   6.462   5.227   0.649
 5080TIP3    H115179   6.470   5.191   0.560
 5080TIP3    H215180   6.538   5.287   0.656
 5081TIP3   OH215181   6.940   5.397   0.775
 5081TIP3    H115182   7.021   5.355   0.806
 5081TIP3    H215183   6.970   5.490   0.774
 5082TIP3   OH215184   6.756   5.499   2.091
 5082TIP3    H115185   6.722   5.423   2.142
 5082TIP3    H215186   6.851   5.496   2.116
 5083TIP3   OH215187   7.008   5.494   2.207
 5083TIP3    H115188   7.093   5.467   2.167
 5083TIP3    H215189   6.994   5.423   2.273
 5084TIP3   OH215190   7.831   5.554   1.994
 5084TIP3    H115191   7.851   5.523   2.085
 5084TIP3    H215192   7.919   5.550   1.952
 5085TIP3   OH215193   0.512   6.562   2.874
 5085TIP3    H115194   0.557   6.649   2.873
 5085TIP3    H215195   0.523   6.539   2.780
 5086TIP3   OH215196  -0.064   6.456   2.501
 5086TIP3    H115197   0.003   6.473   2.570
 5086TIP3    H215198  -0.039   6.519   2.433
 5087TIP3   OH215199   0.527   6.748   3.109
 5087TIP3    H115200   0.470   6.823   3.081
 5087TIP3    H215201   0.594   6.794   3.163
 5088TIP3   OH215202   0.141   6.504   2.674
 5088TIP3    H115203   0.158   6.420   2.720
 5088TIP3    H215204   0.205   6.566   2.711
 5089TIP3   OH215205   0.228   7.478   3.032
 5089TIP3    H115206   0.206   7.394   2.988
 5089TIP3    H215207   0.258   7.535   2.958
 5090TIP3   OH215208   0.429   7.100   2.874
 5090TIP3    H115209   0.347   7.154   2.881
 5090TIP3    H215210   0.461   7.128   2.786
 5091TIP3   OH215211   0.233   6.040   2.138
 5091TIP3    H115212   0.154   6.065   2.191
 5091TIP3    H215213   0.262   6.127   2.101
 5092TIP3   OH215214   0.370   6.932   3.337
 5092TIP3    H115215   0.294   6.985   3.310
 5092TIP3    H215216   0.329   6.861   3.388
 5093TIP3   OH215217   0.198   7.250   2.870
 5093TIP3    H115218   0.234   7.302   2.794
 5093TIP3    H215219   0.105   7.242   2.846
 5094TIP3   OH215220   0.478   7.508   3.126
 5094TIP3    H115221   0.381   7.516   3.109
 5094TIP3    H215222   0.509   7.491   3.034
 5095TIP3   OH215223   0.048   6.848   2.652
 5095TIP3    H115224  -0.025   6.787   2.668
 5095TIP3    H215225   0.122   6.806   2.698
 5096TIP3   OH215226   0.303   6.598   3.688
 5096TIP3    H115227   0.296   6.501   3.690
 5096TIP3    H215228   0.207   6.620   3.695
 5097TIP3   OH215229   0.299   6.994   2.227
 5097TIP3    H115230   0.230   6.953   2.283
 5097TIP3    H215231   0.361   7.028   2.294
 5098TIP3   OH215232   0.336   7.383   2.680
 5098TIP3    H115233   0.394   7.327   2.625
 5098TIP3    H215234   0.326   7.464   2.627
 5099TIP3   OH215235   0.136   6.839   2.388
 5099TIP3    H115236   0.122   6.743   2.383
 5099TIP3    H215237   0.103   6.858   2.478
 5100TIP3   OH215238   0.383   7.267   3.249
 5100TIP3    H115239   0.462   7.210   3.239
 5100TIP3    H215240   0.402   7.339   3.187
 5101TIP3   OH215241   0.581   7.083   3.253
 5101TIP3    H115242   0.510   7.027   3.291
 5101TIP3    H215243   0.657   7.022   3.263
 5102TIP3   OH215244   0.133   6.568   2.308
 5102TIP3    H115245   0.150   6.480   2.347
 5102TIP3    H215246   0.151   6.546   2.216
 5103TIP3   OH215247   0.268   6.735   2.788
 5103TIP3    H115248   0.350   6.760   2.740
 5103TIP3    H215249   0.273   6.797   2.863
 5104TIP3   OH215250   0.311   6.886   3.010
 5104TIP3    H115251   0.231   6.920   3.056
 5104TIP3    H215252   0.348   6.968   2.971
 5105TIP3   OH215253   0.770   6.464   3.557
 5105TIP3    H115254   0.838   6.402   3.524
 5105TIP3    H215255   0.774   6.536   3.492
 5106TIP3   OH215256   0.216   6.304   2.322
 5106TIP3    H115257   0.260   6.289   2.408
 5106TIP3    H215258   0.145   6.236   2.325
 5107TIP3   OH215259   0.660   6.638   3.375
 5107TIP3    H115260   0.593   6.661   3.444
 5107TIP3    H215261   0.623   6.560   3.333
 5108TIP3   OH215262   0.337   6.248   1.997
 5108TIP3    H115263   0.363   6.183   1.929
 5108TIP3    H215264   0.361   6.334   1.957
 5109TIP3   OH215265   0.296   6.192   2.789
 5109TIP3    H115266   0.333   6.228   2.706
 5109TIP3    H215267   0.200   6.197   2.770
 5110TIP3   OH215268   0.376   6.276   2.545
 5110TIP3    H115269   0.446   6.222   2.502
 5110TIP3    H215270   0.408   6.367   2.523
 5111TIP3   OH215271   0.036   6.210   2.737
 5111TIP3    H115272  -0.035   6.215   2.671
 5111TIP3    H215273   0.013   6.129   2.788
 5112TIP3   OH215274   0.028   6.101   2.313
 5112TIP3    H115275  -0.055   6.127   2.272
 5112TIP3    H215276   0.006   6.012   2.346
 5113TIP3   OH215277   0.286   6.326   3.684
 5113TIP3    H115278   0.299   6.301   3.779
 5113TIP3    H215279   0.378   6.321   3.651
 5114TIP3   OH215280   1.495   7.258   1.949
 5114TIP3    H115281   1.448   7.342   1.931
 5114TIP3    H215282   1.431   7.196   1.908
 5115TIP3   OH215283   1.491   7.268   2.324
 5115TIP3    H115284   1.524   7.238   2.410
 5115TIP3    H215285   1.452   7.186   2.288
 5116TIP3   OH215286   0.788   7.160   2.689
 5116TIP3    H115287   0.819   7.093   2.752
 5116TIP3    H215288   0.866   7.218   2.682
 5117TIP3   OH215289   1.710   7.567   2.011
 5117TIP3    H115290   1.707   7.491   2.071
 5117TIP3    H215291   1.767   7.628   2.058
 5118TIP3   OH215292   0.821   7.516   2.487
 5118TIP3    H115293   0.792   7.429   2.455
 5118TIP3    H215294   0.901   7.531   2.431
 5119TIP3   OH215295   0.458   6.756   2.187
 5119TIP3    H115296   0.420   6.846   2.178
 5119TIP3    H215297   0.403   6.720   2.258
 5120TIP3   OH215298   0.527   7.060   2.372
 5120TIP3    H115299   0.574   6.981   2.407
 5120TIP3    H215300   0.598   7.103   2.321
 5121TIP3   OH215301   1.304   7.485   2.368
 5121TIP3    H115302   1.349   7.406   2.333
 5121TIP3    H215303   1.383   7.537   2.393
 5122TIP3   OH215304   2.302   6.811   2.367
 5122TIP3    H115305   2.333   6.894   2.409
 5122TIP3    H215306   2.330   6.824   2.275
 5123TIP3   OH215307   1.700   6.993   2.401
 5123TIP3    H115308   1.744   6.909   2.422
 5123TIP3    H215309   1.669   6.976   2.310
 5124TIP3   OH215310   1.040   6.652   2.368
 5124TIP3    H115311   1.021   6.725   2.305
 5124TIP3    H215312   0.995   6.578   2.321
 5125TIP3   OH215313   1.735   6.746   1.989
 5125TIP3    H115314   1.807   6.730   2.054
 5125TIP3    H215315   1.786   6.779   1.913
 5126TIP3   OH215316   0.670   6.850   2.477
 5126TIP3    H115317   0.754   6.835   2.524
 5126TIP3    H215318   0.687   6.797   2.396
 5127TIP3   OH215319   1.113   7.054   2.271
 5127TIP3    H115320   1.207   7.029   2.282
 5127TIP3    H215321   1.074   6.970   2.240
 5128TIP3   OH215322   2.377   7.019   2.539
 5128TIP3    H115323   2.292   7.065   2.520
 5128TIP3    H215324   2.396   7.051   2.629
 5129TIP3   OH215325   1.036   6.635   2.800
 5129TIP3    H115326   0.978   6.673   2.732
 5129TIP3    H215327   0.985   6.655   2.881
 5130TIP3   OH215328   1.358   7.468   1.829
 5130TIP3    H115329   1.346   7.443   1.735
 5130TIP3    H215330   1.400   7.555   1.822
 5131TIP3   OH215331   1.140   7.416   2.595
 5131TIP3    H115332   1.075   7.482   2.627
 5131TIP3    H215333   1.177   7.463   2.517
 5132TIP3   OH215334   1.942   6.750   2.163
 5132TIP3    H115335   1.937   6.698   2.245
 5132TIP3    H215336   1.997   6.825   2.190
 5133TIP3   OH215337   0.906   6.751   2.586
 5133TIP3    H115338   0.968   6.824   2.608
 5133TIP3    H215339   0.955   6.710   2.510
 5134TIP3   OH215340   0.969   7.629   2.700
 5134TIP3    H115341   0.923   7.621   2.614
 5134TIP3    H215342   0.891   7.625   2.760
 5135TIP3   OH215343   2.096   6.711   2.534
 5135TIP3    H115344   2.009   6.739   2.501
 5135TIP3    H215345   2.157   6.743   2.464
 5136TIP3   OH215346   1.390   6.353   2.516
 5136TIP3    H115347   1.377   6.258   2.533
 5136TIP3    H215348   1.313   6.391   2.563
 5137TIP3   OH215349   1.733   7.582   1.728
 5137TIP3    H115350   1.710   7.499   1.681
 5137TIP3    H215351   1.746   7.552   1.820
 5138TIP3   OH215352   2.023   7.722   2.516
 5138TIP3    H115353   2.012   7.643   2.460
 5138TIP3    H215354   2.051   7.790   2.450
 5139TIP3   OH215355   1.338   7.112   1.779
 5139TIP3    H115356   1.261   7.171   1.763
 5139TIP3    H215357   1.374   7.103   1.688
 5140TIP3   OH215358   1.299   6.882   1.534
 5140TIP3    H115359   1.368   6.947   1.555
 5140TIP3    H215360   1.348   6.830   1.468
 5141TIP3   OH215361   2.226   7.361   2.360
 5141TIP3    H115362   2.143   7.412   2.366
 5141TIP3    H215363   2.256   7.385   2.270
 5142TIP3   OH215364   1.674   7.202   1.749
 5142TIP3    H115365   1.618   7.220   1.828
 5142TIP3    H215366   1.757   7.171   1.793
 5143TIP3   OH215367   1.904   7.238   2.659
 5143TIP3    H115368   1.902   7.322   2.708
 5143TIP3    H215369   1.817   7.243   2.613
 5144TIP3   OH215370   0.906   7.197   2.152
 5144TIP3    H115371   0.860   7.134   2.093
 5144TIP3    H215372   0.982   7.144   2.185
 5145TIP3   OH215373   1.043   7.567   2.348
 5145TIP3    H115374   1.018   7.544   2.258
 5145TIP3    H215375   1.141   7.569   2.344
 5146TIP3   OH215376   1.033   7.173   2.512
 5146TIP3    H115377   1.070   7.147   2.425
 5146TIP3    H215378   1.079   7.258   2.530
 5147TIP3   OH215379   1.217   7.630   2.836
 5147TIP3    H115380   1.180   7.717   2.860
 5147TIP3    H215381   1.143   7.597   2.782
 5148TIP3   OH215382   1.515   7.056   1.573
 5148TIP3    H115383   1.573   7.119   1.620
 5148TIP3    H215384   1.541   7.073   1.479
 5149TIP3   OH215385   0.932   7.281   2.940
 5149TIP3    H115386   0.938   7.368   2.983
 5149TIP3    H215387   0.838   7.260   2.955
 5150TIP3   OH215388   2.025   6.299   1.618
 5150TIP3    H115389   1.944   6.321   1.668
 5150TIP3    H215390   2.039   6.382   1.567
 5151TIP3   OH215391   0.750   7.037   1.972
 5151TIP3    H115392   0.708   7.084   1.900
 5151TIP3    H215393   0.716   6.947   1.958
 5152TIP3   OH215394   0.563   7.427   2.879
 5152TIP3    H115395   0.493   7.411   2.813
 5152TIP3    H215396   0.597   7.338   2.899
 5153TIP3   OH215397   2.155   7.198   2.837
 5153TIP3    H115398   2.075   7.208   2.784
 5153TIP3    H215399   2.173   7.102   2.827
 5154TIP3   OH215400   0.756   7.625   2.874
 5154TIP3    H115401   0.809   7.587   2.947
 5154TIP3    H215402   0.682   7.561   2.868
 5155TIP3   OH215403   1.152   6.429   2.647
 5155TIP3    H115404   1.064   6.399   2.617
 5155TIP3    H215405   1.127   6.511   2.693
 5156TIP3   OH215406   1.689   6.546   2.840
 5156TIP3    H115407   1.758   6.517   2.903
 5156TIP3    H215408   1.606   6.525   2.888
 5157TIP3   OH215409   1.923   6.973   2.757
 5157TIP3    H115410   1.874   6.972   2.842
 5157TIP3    H215411   1.902   7.062   2.722
 5158TIP3   OH215412   1.599   7.102   1.320
 5158TIP3    H115413   1.562   7.074   1.234
 5158TIP3    H215414   1.673   7.159   1.292
 5159TIP3   OH215415   1.293   6.480   1.613
 5159TIP3    H115416   1.264   6.475   1.706
 5159TIP3    H215417   1.257   6.396   1.580
 5160TIP3   OH215418   1.082   6.949   2.661
 5160TIP3    H115419   1.034   6.971   2.744
 5160TIP3    H215420   1.066   7.031   2.609
 5161TIP3   OH215421   0.967   6.837   2.184
 5161TIP3    H115422   0.874   6.809   2.196
 5161TIP3    H215423   0.984   6.801   2.093
 5162TIP3   OH215424   1.464   6.912   1.911
 5162TIP3    H115425   1.413   6.982   1.863
 5162TIP3    H215426   1.519   6.877   1.838
 5163TIP3   OH215427   1.637   7.193   2.990
 5163TIP3    H115428   1.614   7.121   3.052
 5163TIP3    H215429   1.731   7.208   3.012
 5164TIP3   OH215430   1.616   6.946   2.144
 5164TIP3    H115431   1.554   6.970   2.071
 5164TIP3    H215432   1.653   6.865   2.102
 5165TIP3   OH215433   0.904   6.976   2.874
 5165TIP3    H115434   0.935   7.042   2.937
 5165TIP3    H215435   0.901   6.895   2.928
 5166TIP3   OH215436   0.938   6.433   1.580
 5166TIP3    H115437   0.943   6.436   1.678
 5166TIP3    H215438   0.856   6.481   1.566
 5167TIP3   OH215439   0.494   6.504   2.461
 5167TIP3    H115440   0.580   6.527   2.502
 5167TIP3    H215441   0.519   6.471   2.372
 5168TIP3   OH215442   0.460   6.501   1.950
 5168TIP3    H115443   0.544   6.504   1.901
 5168TIP3    H215444   0.463   6.582   2.003
 5169TIP3   OH215445   1.625   7.192   2.566
 5169TIP3    H115446   1.659   7.120   2.507
 5169TIP3    H215447   1.596   7.138   2.643
 5170TIP3   OH215448   1.300   6.658   2.240
 5170TIP3    H115449   1.219   6.654   2.295
 5170TIP3    H215450   1.370   6.648   2.307
 5171TIP3   OH215451   0.727   6.710   2.247
 5171TIP3    H115452   0.637   6.713   2.209
 5171TIP3    H215453   0.757   6.619   2.226
 5172TIP3   OH215454   1.007   6.724   1.942
 5172TIP3    H115455   1.103   6.724   1.924
 5172TIP3    H215456   0.968   6.718   1.853
 5173TIP3   OH215457   1.788   6.733   2.445
 5173TIP3    H115458   1.751   6.744   2.535
 5173TIP3    H215459   1.724   6.671   2.406
 5174TIP3   OH215460   0.873   6.687   1.713
 5174TIP3    H115461   0.779   6.705   1.699
 5174TIP3    H215462   0.915   6.738   1.641
 5175TIP3   OH215463   0.920   7.528   3.079
 5175TIP3    H115464   0.998   7.557   3.131
 5175TIP3    H215465   0.855   7.516   3.151
 5176TIP3   OH215466   1.378   6.985   2.336
 5176TIP3    H115467   1.449   6.946   2.283
 5176TIP3    H215468   1.388   6.939   2.420
 5177TIP3   OH215469   0.899   6.472   2.214
 5177TIP3    H115470   0.866   6.392   2.259
 5177TIP3    H215471   0.940   6.435   2.135
 5178TIP3   OH215472   1.354   6.880   2.629
 5178TIP3    H115473   1.265   6.918   2.641
 5178TIP3    H215474   1.412   6.942   2.677
 5179TIP3   OH215475   1.120   7.270   1.749
 5179TIP3    H115476   1.054   7.197   1.750
 5179TIP3    H215477   1.096   7.318   1.832
 5180TIP3   OH215478   1.991   7.504   2.352
 5180TIP3    H115479   2.019   7.551   2.270
 5180TIP3    H215480   1.908   7.461   2.324
 5181TIP3   OH215481   1.548   6.578   1.593
 5181TIP3    H115482   1.451   6.562   1.594
 5181TIP3    H215483   1.554   6.675   1.602
 5182TIP3   OH215484   1.502   7.612   2.718
 5182TIP3    H115485   1.533   7.557   2.792
 5182TIP3    H215486   1.418   7.646   2.755
 5183TIP3   OH215487   1.620   6.831   1.697
 5183TIP3    H115488   1.717   6.837   1.703
 5183TIP3    H215489   1.598   6.904   1.636
 5184TIP3   OH215490   0.770   7.255   2.388
 5184TIP3    H115491   0.819   7.244   2.304
 5184TIP3    H215492   0.827   7.209   2.452
 5185TIP3   OH215493   1.297   7.390   1.568
 5185TIP3    H115494   1.240   7.450   1.516
 5185TIP3    H215495   1.229   7.338   1.615
 5186TIP3   OH215496   0.670   7.206   3.010
 5186TIP3    H115497   0.685   7.194   3.106
 5186TIP3    H215498   0.596   7.145   2.994
 5187TIP3   OH215499   1.396   7.319   3.034
 5187TIP3    H115500   1.335   7.268   2.979
 5187TIP3    H215501   1.483   7.284   3.003
 5188TIP3   OH215502   2.058   6.922   1.526
 5188TIP3    H115503   1.999   6.877   1.462
 5188TIP3    H215504   2.057   7.011   1.484
 5189TIP3   OH215505   2.279   7.765   2.606
 5189TIP3    H115506   2.182   7.773   2.595
 5189TIP3    H215507   2.305   7.747   2.513
 5190TIP3   OH215508   1.756   7.374   2.257
 5190TIP3    H115509   1.665   7.346   2.278
 5190TIP3    H215510   1.791   7.290   2.219
 5191TIP3   OH215511   1.026   7.384   1.982
 5191TIP3    H115512   0.982   7.462   2.018
 5191TIP3    H215513   0.997   7.316   2.046
 5192TIP3   OH215514   1.546   7.576   2.446
 5192TIP3    H115515   1.536   7.585   2.544
 5192TIP3    H215516   1.628   7.526   2.438
 5193TIP3   OH215517   1.514   7.427   1.339
 5193TIP3    H115518   1.569   7.413   1.419
 5193TIP3    H215519   1.432   7.385   1.369
 5194TIP3   OH215520   0.886   6.711   3.022
 5194TIP3    H115521   0.795   6.716   3.054
 5194TIP3    H215522   0.927   6.655   3.092
 5195TIP3   OH215523   1.683   7.380   1.547
 5195TIP3    H115524   1.674   7.308   1.614
 5195TIP3    H215525   1.780   7.378   1.531
 5196TIP3   OH215526   1.710   6.786   2.704
 5196TIP3    H115527   1.795   6.822   2.736
 5196TIP3    H215528   1.701   6.704   2.757
 5197TIP3   OH215529   1.593   6.532   1.868
 5197TIP3    H115530   1.578   6.553   1.773
 5197TIP3    H215531   1.632   6.616   1.901
 5198TIP3   OH215532   1.284   6.714   1.970
 5198TIP3    H115533   1.350   6.785   1.950
 5198TIP3    H215534   1.291   6.708   2.067
 5199TIP3   OH215535   1.552   7.031   2.773
 5199TIP3    H115536   1.579   7.081   2.853
 5199TIP3    H215537   1.606   6.950   2.780
 5200TIP3   OH215538   1.426   6.437   2.069
 5200TIP3    H115539   1.420   6.515   2.126
 5200TIP3    H215540   1.488   6.470   1.999
 5201TIP3   OH215541   0.949   6.437   1.865
 5201TIP3    H115542   0.938   6.532   1.878
 5201TIP3    H215543   1.047   6.428   1.870
 5202TIP3   OH215544   2.191   6.933   2.758
 5202TIP3    H115545   2.093   6.930   2.762
 5202TIP3    H215546   2.205   6.890   2.672
 5203TIP3   OH215547   1.842   7.128   2.146
 5203TIP3    H115548   1.767   7.066   2.155
 5203TIP3    H215549   1.914   7.081   2.192
 5204TIP3   OH215550   0.885   6.350   2.621
 5204TIP3    H115551   0.857   6.317   2.533
 5204TIP3    H215552   0.875   6.270   2.676
 5205TIP3   OH215553   0.716   7.496   3.257
 5205TIP3    H115554   0.737   7.401   3.269
 5205TIP3    H215555   0.625   7.492   3.220
 5206TIP3   OH215556   1.339   7.584   3.075
 5206TIP3    H115557   1.303   7.596   2.984
 5206TIP3    H215558   1.374   7.492   3.068
 5207TIP3   OH215559   1.813   7.603   2.651
 5207TIP3    H115560   1.881   7.659   2.608
 5207TIP3    H215561   1.735   7.661   2.644
 5208TIP3   OH215562   0.842   7.246   3.257
 5208TIP3    H115563   0.921   7.196   3.235
 5208TIP3    H215564   0.866   7.282   3.345
 5209TIP3   OH215565   0.942   7.065   1.734
 5209TIP3    H115566   0.896   7.014   1.802
 5209TIP3    H215567   0.963   6.995   1.669
 5210TIP3   OH215568   1.166   7.133   2.913
 5210TIP3    H115569   1.090   7.196   2.916
 5210TIP3    H215570   1.219   7.170   2.839
 5211TIP3   OH215571   1.026   6.860   1.545
 5211TIP3    H115572   1.031   6.871   1.448
 5211TIP3    H215573   1.123   6.861   1.564
 5212TIP3   OH215574   1.690   7.529   3.049
 5212TIP3    H115575   1.772   7.507   3.002
 5212TIP3    H215576   1.689   7.465   3.121
 5213TIP3   OH215577   1.830   7.208   1.186
 5213TIP3    H115578   1.809   7.162   1.102
 5213TIP3    H215579   1.794   7.297   1.169
 5214TIP3   OH215580   1.290   6.925   3.042
 5214TIP3    H115581   1.293   6.846   2.984
 5214TIP3    H215582   1.247   6.991   2.983
 5215TIP3   OH215583   1.294   6.712   2.851
 5215TIP3    H115584   1.324   6.753   2.767
 5215TIP3    H215585   1.201   6.689   2.830
 5216TIP3   OH215586   1.317   7.251   2.725
 5216TIP3    H115587   1.400   7.254   2.676
 5216TIP3    H215588   1.262   7.317   2.678
 5217TIP3   OH215589   1.903   7.214   3.103
 5217TIP3    H115590   1.951   7.130   3.112
 5217TIP3    H215591   1.972   7.272   3.069
 5218TIP3   OH215592   1.945   7.466   2.841
 5218TIP3    H115593   1.888   7.519   2.780
 5218TIP3    H215594   2.033   7.485   2.802
 5219TIP3   OH215595   1.170   7.035   3.273
 5219TIP3    H115596   1.101   6.967   3.289
 5219TIP3    H215597   1.204   7.008   3.186
 5220TIP3   OH215598   1.427   6.475   2.919
 5220TIP3    H115599   1.378   6.556   2.895
 5220TIP3    H215600   1.359   6.406   2.906
 5221TIP3   OH215601   1.552   6.978   3.134
 5221TIP3    H115602   1.541   6.964   3.229
 5221TIP3    H215603   1.462   6.954   3.103
 5222TIP3   OH215604   1.792   6.931   2.989
 5222TIP3    H115605   1.717   6.930   3.052
 5222TIP3    H215606   1.867   6.900   3.045
 5223TIP3   OH215607   2.018   6.869   3.139
 5223TIP3    H115608   2.033   6.774   3.155
 5223TIP3    H215609   2.016   6.906   3.229
 5224TIP3   OH215610   1.006   6.816   3.328
 5224TIP3    H115611   1.016   6.724   3.297
 5224TIP3    H215612   1.044   6.808   3.418
 5225TIP3   OH215613   1.518   6.484   3.177
 5225TIP3    H115614   1.587   6.414   3.171
 5225TIP3    H215615   1.481   6.479   3.087
 5226TIP3   OH215616   1.587   6.700   3.334
 5226TIP3    H115617   1.566   6.628   3.270
 5226TIP3    H215618   1.508   6.757   3.327
 5227TIP3   OH215619   2.162   7.903   2.878
 5227TIP3    H115620   2.090   7.879   2.941
 5227TIP3    H215621   2.224   7.949   2.936
 5228TIP3   OH215622   1.953   7.377   1.531
 5228TIP3    H115623   2.026   7.434   1.500
 5228TIP3    H215624   1.995   7.336   1.610
 5229TIP3   OH215625   2.081   7.251   1.731
 5229TIP3    H115626   2.021   7.205   1.793
 5229TIP3    H215627   2.153   7.282   1.790
 5230TIP3   OH215628   2.121   7.634   2.153
 5230TIP3    H115629   2.188   7.575   2.113
 5230TIP3    H215630   2.134   7.717   2.106
 5231TIP3   OH215631   2.025   7.158   1.377
 5231TIP3    H115632   1.955   7.161   1.309
 5231TIP3    H215633   1.996   7.231   1.435
 5232TIP3   OH215634   1.896   6.831   1.328
 5232TIP3    H115635   1.847   6.865   1.253
 5232TIP3    H215636   1.874   6.735   1.322
 5233TIP3   OH215637   1.898   7.105   1.877
 5233TIP3    H115638   1.906   7.009   1.866
 5233TIP3    H215639   1.885   7.115   1.974
 5234TIP3   OH215640   0.524   7.179   2.625
 5234TIP3    H115641   0.522   7.148   2.532
 5234TIP3    H215642   0.621   7.183   2.640
 5235TIP3   OH215643   2.188   7.530   2.734
 5235TIP3    H115644   2.260   7.464   2.725
 5235TIP3    H215645   2.215   7.599   2.671
 5236TIP3   OH215646   2.372   7.335   2.749
 5236TIP3    H115647   2.297   7.284   2.788
 5236TIP3    H215648   2.445   7.272   2.764
 5237TIP3   OH215649   1.838   6.565   1.309
 5237TIP3    H115650   1.910   6.533   1.366
 5237TIP3    H215651   1.762   6.510   1.335
 5238TIP3   OH215652   1.899   6.827   1.769
 5238TIP3    H115653   1.938   6.737   1.786
 5238TIP3    H215654   1.957   6.856   1.696
 5239TIP3   OH215655   2.055   6.999   2.264
 5239TIP3    H115656   2.141   7.023   2.223
 5239TIP3    H215657   2.071   7.033   2.354
 5240TIP3   OH215658   2.127   7.141   2.497
 5240TIP3    H115659   2.049   7.176   2.544
 5240TIP3    H215660   2.160   7.221   2.451
 5241TIP3   OH215661   0.745   6.866   3.264
 5241TIP3    H115662   0.841   6.865   3.282
 5241TIP3    H215663   0.718   6.788   3.317
 5242TIP3   OH215664   2.575   6.733   3.052
 5242TIP3    H115665   2.636   6.668   3.011
 5242TIP3    H215666   2.548   6.786   2.974
 5243TIP3   OH215667   2.003   6.575   1.808
 5243TIP3    H115668   2.052   6.558   1.891
 5243TIP3    H215669   1.942   6.498   1.806
 5244TIP3   OH215670   0.705   6.558   2.641
 5244TIP3    H115671   0.767   6.483   2.641
 5244TIP3    H215672   0.766   6.633   2.625
 5245TIP3   OH215673   0.513   6.830   2.711
 5245TIP3    H115674   0.558   6.821   2.624
 5245TIP3    H215675   0.530   6.923   2.731
 5246TIP3   OH215676   2.446   6.871   2.856
 5246TIP3    H115677   2.359   6.912   2.872
 5246TIP3    H215678   2.418   6.797   2.798
 5247TIP3   OH215679   2.082   6.507   1.440
 5247TIP3    H115680   2.123   6.435   1.388
 5247TIP3    H215681   2.151   6.577   1.438
 5248TIP3   OH215682   0.483   6.380   2.212
 5248TIP3    H115683   0.397   6.338   2.230
 5248TIP3    H215684   0.476   6.396   2.116
 5249TIP3   OH215685   0.700   6.421   3.048
 5249TIP3    H115686   0.666   6.333   3.069
 5249TIP3    H215687   0.648   6.448   2.971
 5250TIP3   OH215688   2.346   6.633   2.737
 5250TIP3    H115689   2.256   6.623   2.701
 5250TIP3    H215690   2.381   6.542   2.727
 5251TIP3   OH215691   1.550   6.550   2.356
 5251TIP3    H115692   1.509   6.477   2.407
 5251TIP3    H215693   1.624   6.505   2.311
 5252TIP3   OH215694   2.072   6.433   2.263
 5252TIP3    H115695   2.110   6.482   2.187
 5252TIP3    H215696   1.977   6.449   2.252
 5253TIP3   OH215697   2.168   6.529   2.026
 5253TIP3    H115698   2.241   6.477   1.986
 5253TIP3    H215699   2.203   6.620   2.010
 5254TIP3   OH215700   0.799   6.258   2.374
 5254TIP3    H115701   0.707   6.226   2.371
 5254TIP3    H215702   0.848   6.174   2.366
 5255TIP3   OH215703   0.617   6.117   2.045
 5255TIP3    H115704   0.656   6.167   1.970
 5255TIP3    H215705   0.550   6.178   2.076
 5256TIP3   OH215706   1.246   6.290   2.255
 5256TIP3    H115707   1.301   6.336   2.189
 5256TIP3    H215708   1.277   6.329   2.338
 5257TIP3   OH215709   1.787   6.438   2.236
 5257TIP3    H115710   1.790   6.399   2.148
 5257TIP3    H215711   1.776   6.358   2.292
 5258TIP3   OH215712   1.820   6.362   1.799
 5258TIP3    H115713   1.734   6.404   1.811
 5258TIP3    H215714   1.806   6.276   1.844
 5259TIP3   OH215715   0.728   6.268   1.853
 5259TIP3    H115716   0.743   6.217   1.770
 5259TIP3    H215717   0.810   6.321   1.855
 5260TIP3   OH215718   1.221   6.466   1.880
 5260TIP3    H115719   1.279   6.416   1.940
 5260TIP3    H215720   1.245   6.557   1.906
 5261TIP3   OH215721   1.008   6.536   3.262
 5261TIP3    H115722   0.975   6.464   3.318
 5261TIP3    H215723   1.103   6.538   3.290
 5262TIP3   OH215724   1.257   6.535   3.380
 5262TIP3    H115725   1.343   6.513   3.340
 5262TIP3    H215726   1.248   6.464   3.447
 5263TIP3   OH215727   2.084   6.599   3.169
 5263TIP3    H115728   2.102   6.568   3.260
 5263TIP3    H215729   2.172   6.594   3.128
 5264TIP3   OH215730   3.288   7.507   1.431
 5264TIP3    H115731   3.248   7.594   1.415
 5264TIP3    H215732   3.217   7.450   1.397
 5265TIP3   OH215733   3.261   7.523   1.824
 5265TIP3    H115734   3.311   7.500   1.904
 5265TIP3    H215735   3.238   7.436   1.789
 5266TIP3   OH215736   2.581   7.419   2.180
 5266TIP3    H115737   2.614   7.350   2.241
 5266TIP3    H215738   2.664   7.466   2.160
 5267TIP3   OH215739   3.503   7.823   1.502
 5267TIP3    H115740   3.501   7.741   1.558
 5267TIP3    H215741   3.560   7.877   1.559
 5268TIP3   OH215742   2.617   7.769   1.980
 5268TIP3    H115743   2.588   7.682   1.946
 5268TIP3    H215744   2.697   7.785   1.925
 5269TIP3   OH215745   2.264   7.028   1.681
 5269TIP3    H115746   2.218   7.112   1.697
 5269TIP3    H215747   2.192   6.975   1.641
 5270TIP3   OH215748   2.318   7.315   1.858
 5270TIP3    H115749   2.367   7.237   1.892
 5270TIP3    H215750   2.388   7.362   1.811
 5271TIP3   OH215751   3.098   7.742   1.853
 5271TIP3    H115752   3.142   7.659   1.825
 5271TIP3    H215753   3.173   7.789   1.890
 5272TIP3   OH215754   4.101   7.067   1.856
 5272TIP3    H115755   4.129   7.151   1.899
 5272TIP3    H215756   4.121   7.086   1.763
 5273TIP3   OH215757   3.501   7.247   1.886
 5273TIP3    H115758   3.541   7.161   1.907
 5273TIP3    H215759   3.465   7.229   1.797
 5274TIP3   OH215760   2.834   6.909   1.855
 5274TIP3    H115761   2.818   6.981   1.791
 5274TIP3    H215762   2.789   6.835   1.809
 5275TIP3   OH215763   3.532   7.007   1.476
 5275TIP3    H115764   3.603   6.987   1.541
 5275TIP3    H215765   3.587   7.036   1.401
 5276TIP3   OH215766   2.469   7.111   1.961
 5276TIP3    H115767   2.552   7.092   2.009
 5276TIP3    H215768   2.483   7.056   1.881
 5277TIP3   OH215769   2.908   7.310   1.759
 5277TIP3    H115770   3.003   7.286   1.769
 5277TIP3    H215771   2.871   7.225   1.727
 5278TIP3   OH215772   4.172   7.277   2.025
 5278TIP3    H115773   4.088   7.324   2.007
 5278TIP3    H215774   4.190   7.305   2.116
 5279TIP3   OH215775   2.832   6.894   2.289
 5279TIP3    H115776   2.773   6.930   2.220
 5279TIP3    H215777   2.779   6.913   2.369
 5280TIP3   OH215778   3.157   7.715   1.303
 5280TIP3    H115779   3.131   7.708   1.210
 5280TIP3    H215780   3.197   7.805   1.308
 5281TIP3   OH215781   2.932   7.672   2.084
 5281TIP3    H115782   2.870   7.739   2.118
 5281TIP3    H215783   2.974   7.720   2.011
 5282TIP3   OH215784   3.740   7.006   1.650
 5282TIP3    H115785   3.726   6.953   1.730
 5282TIP3    H215786   3.793   7.081   1.683
 5283TIP3   OH215787   2.702   7.008   2.073
 5283TIP3    H115788   2.766   7.080   2.096
 5283TIP3    H215789   2.751   6.967   1.997
 5284TIP3   OH215790   2.758   7.893   2.185
 5284TIP3    H115791   2.716   7.875   2.098
 5284TIP3    H215792   2.681   7.883   2.244
 5285TIP3   OH215793   2.164   7.519   1.430
 5285TIP3    H115794   2.129   7.541   1.341
 5285TIP3    H215795   2.183   7.608   1.461
 5286TIP3   OH215796   3.892   6.968   2.022
 5286TIP3    H115797   3.804   6.993   1.988
 5286TIP3    H215798   3.952   7.000   1.951
 5287TIP3   OH215799   3.186   6.610   2.003
 5287TIP3    H115800   3.170   6.515   2.018
 5287TIP3    H215801   3.107   6.648   2.048
 5288TIP3   OH215802   3.535   7.840   1.221
 5288TIP3    H115803   3.511   7.758   1.175
 5288TIP3    H215804   3.545   7.811   1.314
 5289TIP3   OH215805   3.119   7.369   1.262
 5289TIP3    H115806   3.038   7.420   1.240
 5289TIP3    H215807   3.164   7.364   1.176
 5290TIP3   OH215808   3.075   7.161   0.974
 5290TIP3    H115809   3.144   7.210   1.022
 5290TIP3    H215810   3.131   7.095   0.927
 5291TIP3   OH215811   4.006   7.628   1.841
 5291TIP3    H115812   3.932   7.691   1.842
 5291TIP3    H215813   4.043   7.645   1.752
 5292TIP3   OH215814   3.468   7.451   1.234
 5292TIP3    H115815   3.413   7.470   1.314
 5292TIP3    H215816   3.552   7.423   1.278
 5293TIP3   OH215817   3.699   7.498   2.144
 5293TIP3    H115818   3.698   7.584   2.189
 5293TIP3    H215819   3.614   7.502   2.096
 5294TIP3   OH215820   2.705   7.457   1.640
 5294TIP3    H115821   2.661   7.395   1.577
 5294TIP3    H215822   2.779   7.403   1.674
 5295TIP3   OH215823   2.838   7.828   1.843
 5295TIP3    H115824   2.801   7.816   1.754
 5295TIP3    H215825   2.934   7.815   1.830
 5296TIP3   OH215826   2.822   7.431   1.999
 5296TIP3    H115827   2.863   7.403   1.915
 5296TIP3    H215828   2.872   7.513   2.021
 5297TIP3   OH215829   2.983   7.880   2.349
 5297TIP3    H115830   2.957   7.973   2.361
 5297TIP3    H215831   2.925   7.855   2.276
 5298TIP3   OH215832   3.300   7.318   1.059
 5298TIP3    H115833   3.363   7.373   1.110
 5298TIP3    H215834   3.330   7.333   0.967
 5299TIP3   OH215835   2.729   7.539   2.430
 5299TIP3    H115836   2.733   7.627   2.472
 5299TIP3    H215837   2.634   7.518   2.439
 5300TIP3   OH215838   3.823   6.554   1.108
 5300TIP3    H115839   3.738   6.570   1.154
 5300TIP3    H215840   3.834   6.638   1.059
 5301TIP3   OH215841   2.564   7.299   1.456
 5301TIP3    H115842   2.497   7.335   1.394
 5301TIP3    H215843   2.535   7.208   1.467
 5302TIP3   OH215844   2.361   7.681   2.361
 5302TIP3    H115845   2.297   7.657   2.292
 5302TIP3    H215846   2.396   7.594   2.389
 5303TIP3   OH215847   3.951   7.456   2.323
 5303TIP3    H115848   3.870   7.466   2.270
 5303TIP3    H215849   3.968   7.360   2.314
 5304TIP3   OH215850   2.545   7.888   2.367
 5304TIP3    H115851   2.604   7.849   2.434
 5304TIP3    H215852   2.478   7.817   2.356
 5305TIP3   OH215853   2.948   6.686   2.136
 5305TIP3    H115854   2.861   6.656   2.104
 5305TIP3    H215855   2.923   6.769   2.181
 5306TIP3   OH215856   3.485   6.803   2.327
 5306TIP3    H115857   3.554   6.774   2.390
 5306TIP3    H215858   3.401   6.782   2.374
 5307TIP3   OH215859   3.719   7.232   2.244
 5307TIP3    H115860   3.670   7.230   2.329
 5307TIP3    H215861   3.695   7.320   2.208
 5308TIP3   OH215862   3.388   7.351   0.810
 5308TIP3    H115863   3.345   7.332   0.725
 5308TIP3    H215864   3.457   7.414   0.784
 5309TIP3   OH215865   3.095   6.743   1.103
 5309TIP3    H115866   3.063   6.729   1.195
 5309TIP3    H215867   3.062   6.661   1.062
 5310TIP3   OH215868   2.877   7.207   2.147
 5310TIP3    H115869   2.832   7.229   2.231
 5310TIP3    H215870   2.862   7.288   2.095
 5311TIP3   OH215871   2.763   7.092   1.666
 5311TIP3    H115872   2.672   7.061   1.684
 5311TIP3    H215873   2.778   7.052   1.577
 5312TIP3   OH215874   3.257   7.173   1.395
 5312TIP3    H115875   3.204   7.241   1.349
 5312TIP3    H215876   3.313   7.138   1.323
 5313TIP3   OH215877   3.434   7.450   2.478
 5313TIP3    H115878   3.411   7.378   2.540
 5313TIP3    H215879   3.528   7.463   2.499
 5314TIP3   OH215880   3.409   7.201   1.632
 5314TIP3    H115881   3.348   7.228   1.560
 5314TIP3    H215882   3.446   7.121   1.588
 5315TIP3   OH215883   2.697   7.233   2.360
 5315TIP3    H115884   2.740   7.293   2.423
 5315TIP3    H215885   2.690   7.151   2.412
 5316TIP3   OH215886   2.741   6.702   1.072
 5316TIP3    H115887   2.742   6.704   1.169
 5316TIP3    H215888   2.666   6.760   1.052
 5317TIP3   OH215889   2.293   6.753   1.942
 5317TIP3    H115890   2.369   6.785   1.995
 5317TIP3    H215891   2.334   6.722   1.860
 5318TIP3   OH215892   2.261   6.732   1.460
 5318TIP3    H115893   2.309   6.768   1.382
 5318TIP3    H215894   2.202   6.807   1.479
 5319TIP3   OH215895   3.416   7.444   2.048
 5319TIP3    H115896   3.452   7.371   1.991
 5319TIP3    H215897   3.388   7.392   2.126
 5320TIP3   OH215898   3.096   6.928   1.731
 5320TIP3    H115899   3.015   6.910   1.782
 5320TIP3    H215900   3.166   6.909   1.796
 5321TIP3   OH215901   2.527   6.966   1.734
 5321TIP3    H115902   2.433   6.971   1.705
 5321TIP3    H215903   2.553   6.875   1.710
 5322TIP3   OH215904   2.795   6.967   1.424
 5322TIP3    H115905   2.891   6.966   1.404
 5322TIP3    H215906   2.753   6.985   1.337
 5323TIP3   OH215907   3.582   6.985   1.930
 5323TIP3    H115908   3.547   6.999   2.021
 5323TIP3    H215909   3.517   6.921   1.897
 5324TIP3   OH215910   2.635   7.002   1.197
 5324TIP3    H115911   2.566   6.955   1.147
 5324TIP3    H215912   2.690   7.037   1.124
 5325TIP3   OH215913   2.711   7.788   2.567
 5325TIP3    H115914   2.794   7.813   2.613
 5325TIP3    H215915   2.651   7.776   2.643
 5326TIP3   OH215916   3.174   7.240   1.821
 5326TIP3    H115917   3.244   7.198   1.768
 5326TIP3    H215918   3.183   7.194   1.906
 5327TIP3   OH215919   2.696   6.728   1.700
 5327TIP3    H115920   2.664   6.649   1.749
 5327TIP3    H215921   2.756   6.689   1.636
 5328TIP3   OH215922   3.150   7.136   2.118
 5328TIP3    H115923   3.062   7.176   2.128
 5328TIP3    H215924   3.209   7.199   2.164
 5329TIP3   OH215925   2.887   7.513   1.211
 5329TIP3    H115926   2.810   7.453   1.199
 5329TIP3    H215927   2.865   7.556   1.297
 5330TIP3   OH215928   3.344   6.843   1.067
 5330TIP3    H115929   3.249   6.818   1.082
 5330TIP3    H215930   3.349   6.934   1.100
 5331TIP3   OH215931   3.262   7.815   2.227
 5331TIP3    H115932   3.318   7.797   2.302
 5331TIP3    H215933   3.266   7.911   2.222
 5332TIP3   OH215934   3.414   7.088   1.178
 5332TIP3    H115935   3.510   7.090   1.192
 5332TIP3    H215936   3.398   7.166   1.122
 5333TIP3   OH215937   2.566   7.511   1.874
 5333TIP3    H115938   2.614   7.501   1.789
 5333TIP3    H215939   2.627   7.467   1.936
 5334TIP3   OH215940   2.999   7.700   1.049
 5334TIP3    H115941   2.957   7.768   1.106
 5334TIP3    H215942   2.966   7.619   1.094
 5335TIP3   OH215943   2.462   7.467   2.501
 5335TIP3    H115944   2.483   7.449   2.595
 5335TIP3    H215945   2.396   7.398   2.482
 5336TIP3   OH215946   3.192   7.572   2.524
 5336TIP3    H115947   3.132   7.528   2.463
 5336TIP3    H215948   3.279   7.541   2.491
 5337TIP3   OH215949   3.857   7.178   1.009
 5337TIP3    H115950   3.792   7.134   0.949
 5337TIP3    H215951   3.854   7.268   0.969
 5338TIP3   OH215952   4.058   8.020   2.093
 5338TIP3    H115953   3.962   8.030   2.086
 5338TIP3    H215954   4.084   7.998   2.001
 5339TIP3   OH215955   3.535   7.632   1.686
 5339TIP3    H115956   3.476   7.618   1.761
 5339TIP3    H215957   3.575   7.544   1.673
 5340TIP3   OH215958   2.243   7.158   1.209
 5340TIP3    H115959   2.293   7.238   1.232
 5340TIP3    H215960   2.170   7.161   1.275
 5341TIP3   OH215961   2.814   7.631   1.450
 5341TIP3    H115962   2.787   7.712   1.494
 5341TIP3    H215963   2.791   7.565   1.519
 5342TIP3   OH215964   3.350   7.670   0.791
 5342TIP3    H115965   3.382   7.653   0.882
 5342TIP3    H215966   3.264   7.714   0.808
 5343TIP3   OH215967   2.672   6.977   2.504
 5343TIP3    H115968   2.575   6.976   2.516
 5343TIP3    H215969   2.700   6.917   2.575
 5344TIP3   OH215970   3.472   7.639   1.040
 5344TIP3    H115971   3.466   7.565   1.105
 5344TIP3    H215972   3.568   7.637   1.019
 5345TIP3   OH215973   2.659   7.655   0.868
 5345TIP3    H115974   2.697   7.571   0.837
 5345TIP3    H215975   2.702   7.667   0.953
 5346TIP3   OH215976   2.364   7.395   1.290
 5346TIP3    H115977   2.301   7.433   1.354
 5346TIP3    H215978   2.372   7.469   1.226
 5347TIP3   OH215979   3.508   7.043   2.191
 5347TIP3    H115980   3.592   7.078   2.224
 5347TIP3    H215981   3.497   6.960   2.242
 5348TIP3   OH215982   3.385   6.794   1.355
 5348TIP3    H115983   3.374   6.814   1.261
 5348TIP3    H215984   3.424   6.877   1.391
 5349TIP3   OH215985   3.080   6.967   1.459
 5349TIP3    H115986   3.144   7.038   1.440
 5349TIP3    H215987   3.082   6.966   1.558
 5350TIP3   OH215988   3.348   7.287   2.262
 5350TIP3    H115989   3.376   7.338   2.340
 5350TIP3    H215990   3.403   7.207   2.268
 5351TIP3   OH215991   3.254   6.720   1.599
 5351TIP3    H115992   3.211   6.806   1.606
 5351TIP3    H215993   3.289   6.721   1.508
 5352TIP3   OH215994   2.732   6.697   1.347
 5352TIP3    H115995   2.732   6.786   1.388
 5352TIP3    H215996   2.828   6.676   1.354
 5353TIP3   OH215997   3.986   7.190   2.243
 5353TIP3    H115998   3.888   7.188   2.249
 5353TIP3    H215999   3.999   7.146   2.158
 5354TIP3   OH216000   3.642   7.372   1.628
 5354TIP3    H116001   3.566   7.314   1.643
 5354TIP3    H216002   3.713   7.326   1.678
 5355TIP3   OH216003   2.352   7.612   1.104
 5355TIP3    H116004   2.384   7.704   1.095
 5355TIP3    H216005   2.412   7.564   1.043
 5356TIP3   OH216006   2.294   6.888   1.238
 5356TIP3    H116007   2.295   6.985   1.230
 5356TIP3    H216008   2.214   6.865   1.189
 5357TIP3   OH216009   2.680   6.609   2.108
 5357TIP3    H116010   2.654   6.575   2.019
 5357TIP3    H216011   2.672   6.529   2.163
 5358TIP3   OH216012   2.509   7.754   2.750
 5358TIP3    H116013   2.533   7.659   2.754
 5358TIP3    H216014   2.422   7.750   2.705
 5359TIP3   OH216015   2.489   7.417   0.965
 5359TIP3    H116016   2.543   7.379   1.037
 5359TIP3    H216017   2.557   7.422   0.894
 5360TIP3   OH216018   3.137   7.838   2.564
 5360TIP3    H116019   3.097   7.850   2.475
 5360TIP3    H216020   3.171   7.747   2.555
 5361TIP3   OH216021   2.931   7.597   0.773
 5361TIP3    H116022   2.970   7.615   0.860
 5361TIP3    H216023   2.966   7.508   0.754
 5362TIP3   OH216024   2.632   7.504   2.743
 5362TIP3    H116025   2.711   7.456   2.714
 5362TIP3    H216026   2.661   7.537   2.831
 5363TIP3   OH216027   2.683   7.326   1.169
 5363TIP3    H116028   2.666   7.281   1.253
 5363TIP3    H216029   2.727   7.255   1.117
 5364TIP3   OH216030   2.960   7.387   2.397
 5364TIP3    H116031   2.887   7.454   2.401
 5364TIP3    H216032   3.015   7.423   2.324
 5365TIP3   OH216033   2.798   7.127   1.016
 5365TIP3    H116034   2.775   7.123   0.921
 5365TIP3    H216035   2.896   7.126   1.011
 5366TIP3   OH216036   3.487   7.791   2.536
 5366TIP3    H116037   3.563   7.766   2.481
 5366TIP3    H216038   3.487   7.722   2.604
 5367TIP3   OH216039   3.615   7.483   0.707
 5367TIP3    H116040   3.595   7.418   0.636
 5367TIP3    H216041   3.601   7.565   0.658
 5368TIP3   OH216042   3.086   7.182   2.530
 5368TIP3    H116043   3.090   7.103   2.472
 5368TIP3    H216044   3.044   7.248   2.470
 5369TIP3   OH216045   3.091   6.969   2.340
 5369TIP3    H116046   3.121   7.010   2.256
 5369TIP3    H216047   2.998   6.946   2.318
 5370TIP3   OH216048   3.113   7.502   2.210
 5370TIP3    H116049   3.201   7.515   2.172
 5370TIP3    H216050   3.064   7.576   2.170
 5371TIP3   OH216051   3.700   7.470   2.591
 5371TIP3    H116052   3.747   7.386   2.597
 5371TIP3    H216053   3.769   7.530   2.559
 5372TIP3   OH216054   3.725   7.744   2.304
 5372TIP3    H116055   3.681   7.803   2.238
 5372TIP3    H216056   3.817   7.758   2.273
 5373TIP3   OH216057   2.965   7.292   2.762
 5373TIP3    H116058   2.898   7.221   2.775
 5373TIP3    H216059   3.000   7.268   2.674
 5374TIP3   OH216060   3.223   6.732   2.407
 5374TIP3    H116061   3.174   6.813   2.382
 5374TIP3    H216062   3.155   6.663   2.392
 5375TIP3   OH216063   3.348   7.234   2.620
 5375TIP3    H116064   3.336   7.220   2.716
 5375TIP3    H216065   3.259   7.211   2.588
 5376TIP3   OH216066   3.588   7.188   2.476
 5376TIP3    H116067   3.513   7.187   2.538
 5376TIP3    H216068   3.663   7.157   2.531
 5377TIP3   OH216069   3.813   7.126   2.626
 5377TIP3    H116070   3.829   7.030   2.642
 5377TIP3    H216071   3.813   7.163   2.717
 5378TIP3   OH216072   2.804   7.071   2.815
 5378TIP3    H116073   2.810   6.981   2.780
 5378TIP3    H216074   2.843   7.059   2.904
 5379TIP3   OH216075   3.315   6.740   2.665
 5379TIP3    H116076   3.383   6.670   2.658
 5379TIP3    H216077   3.276   6.736   2.575
 5380TIP3   OH216078   3.382   6.955   2.822
 5380TIP3    H116079   3.362   6.884   2.758
 5380TIP3    H216080   3.304   7.014   2.814
 5381TIP3   OH216081   2.082   7.530   1.117
 5381TIP3    H116082   2.172   7.567   1.106
 5381TIP3    H216083   2.090   7.442   1.075
 5382TIP3   OH216084   3.960   8.163   2.364
 5382TIP3    H116085   3.887   8.133   2.424
 5382TIP3    H216086   4.020   8.205   2.427
 5383TIP3   OH216087   3.745   7.637   1.021
 5383TIP3    H116088   3.820   7.692   0.992
 5383TIP3    H216089   3.786   7.594   1.100
 5384TIP3   OH216090   3.877   7.507   1.216
 5384TIP3    H116091   3.817   7.461   1.279
 5384TIP3    H216092   3.950   7.538   1.274
 5385TIP3   OH216093   3.961   7.909   1.653
 5385TIP3    H116094   4.003   7.833   1.610
 5385TIP3    H216095   3.910   7.949   1.583
 5386TIP3   OH216096   3.825   7.417   0.869
 5386TIP3    H116097   3.751   7.423   0.805
 5386TIP3    H216098   3.797   7.488   0.930
 5387TIP3   OH216099   3.687   7.090   0.818
 5387TIP3    H116100   3.668   7.121   0.729
 5387TIP3    H216101   3.662   6.996   0.811
 5388TIP3   OH216102   3.695   7.361   1.361
 5388TIP3    H116103   3.702   7.264   1.352
 5388TIP3    H216104   3.682   7.371   1.458
 5389TIP3   OH216105   2.319   7.446   2.109
 5389TIP3    H116106   2.318   7.409   2.018
 5389TIP3    H216107   2.416   7.445   2.127
 5390TIP3   OH216108   3.985   7.786   2.226
 5390TIP3    H116109   4.055   7.718   2.214
 5390TIP3    H216110   4.010   7.853   2.161
 5391TIP3   OH216111   4.168   7.590   2.233
 5391TIP3    H116112   4.094   7.540   2.273
 5391TIP3    H216113   4.242   7.527   2.249
 5392TIP3   OH216114   3.631   6.825   0.803
 5392TIP3    H116115   3.704   6.791   0.858
 5392TIP3    H216116   3.557   6.765   0.822
 5393TIP3   OH216117   3.692   7.080   1.254
 5393TIP3    H116118   3.731   6.991   1.270
 5393TIP3    H216119   3.751   7.110   1.182
 5394TIP3   OH216120   3.855   7.249   1.755
 5394TIP3    H116121   3.940   7.276   1.713
 5394TIP3    H216122   3.868   7.288   1.844
 5395TIP3   OH216123   3.923   7.402   1.982
 5395TIP3    H116124   3.845   7.433   2.031
 5395TIP3    H216125   3.951   7.484   1.935
 5396TIP3   OH216126   2.538   7.123   2.784
 5396TIP3    H116127   2.636   7.118   2.786
 5396TIP3    H216128   2.515   7.037   2.824
 5397TIP3   OH216129   4.360   6.983   2.535
 5397TIP3    H116130   4.430   6.925   2.498
 5397TIP3    H216131   4.342   7.044   2.461
 5398TIP3   OH216132   3.799   6.830   1.294
 5398TIP3    H116133   3.846   6.813   1.378
 5398TIP3    H216134   3.736   6.755   1.293
 5399TIP3   OH216135   2.498   6.818   2.120
 5399TIP3    H116136   2.559   6.741   2.125
 5399TIP3    H216137   2.562   6.890   2.108
 5400TIP3   OH216138   2.300   7.091   2.185
 5400TIP3    H116139   2.350   7.082   2.101
 5400TIP3    H216140   2.338   7.172   2.221
 5401TIP3   OH216141   4.243   7.131   2.338
 5401TIP3    H116142   4.156   7.170   2.359
 5401TIP3    H216143   4.213   7.054   2.285
 5402TIP3   OH216144   3.878   6.766   0.931
 5402TIP3    H116145   3.914   6.693   0.875
 5402TIP3    H216146   3.948   6.834   0.923
 5403TIP3   OH216147   2.286   6.594   1.690
 5403TIP3    H116148   2.192   6.589   1.715
 5403TIP3    H216149   2.283   6.651   1.610
 5404TIP3   OH216150   2.507   6.676   2.504
 5404TIP3    H116151   2.454   6.670   2.585
 5404TIP3    H216152   2.441   6.711   2.441
 5405TIP3   OH216153   4.143   6.891   2.223
 5405TIP3    H116154   4.053   6.883   2.188
 5405TIP3    H216155   4.176   6.799   2.213
 5406TIP3   OH216156   3.355   6.813   1.863
 5406TIP3    H116157   3.304   6.741   1.904
 5406TIP3    H216158   3.389   6.769   1.783
 5407TIP3   OH216159   3.873   6.689   1.749
 5407TIP3    H116160   3.906   6.740   1.672
 5407TIP3    H216161   3.776   6.699   1.740
 5408TIP3   OH216162   3.966   6.785   1.510
 5408TIP3    H116163   4.040   6.735   1.471
 5408TIP3    H216164   3.998   6.877   1.496
 5409TIP3   OH216165   2.595   6.516   1.860
 5409TIP3    H116166   2.503   6.482   1.861
 5409TIP3    H216167   2.644   6.431   1.855
 5410TIP3   OH216168   2.379   6.385   1.507
 5410TIP3    H116169   2.414   6.440   1.435
 5410TIP3    H216170   2.357   6.452   1.574
 5411TIP3   OH216171   3.034   6.555   1.742
 5411TIP3    H116172   3.092   6.569   1.665
 5411TIP3    H216173   3.089   6.591   1.813
 5412TIP3   OH216174   3.600   6.692   1.717
 5412TIP3    H116175   3.568   6.660   1.632
 5412TIP3    H216176   3.574   6.618   1.777
 5413TIP3   OH216177   3.616   6.617   1.287
 5413TIP3    H116178   3.526   6.655   1.295
 5413TIP3    H216179   3.600   6.530   1.329
 5414TIP3   OH216180   2.502   6.544   1.268
 5414TIP3    H116181   2.551   6.480   1.212
 5414TIP3    H216182   2.577   6.597   1.304
 5415TIP3   OH216183   3.009   6.702   1.364
 5415TIP3    H116184   3.063   6.624   1.389
 5415TIP3    H216185   3.055   6.776   1.407
 5416TIP3   OH216186   2.803   6.795   2.750
 5416TIP3    H116187   2.769   6.724   2.807
 5416TIP3    H216188   2.898   6.796   2.777
 5417TIP3   OH216189   3.053   6.794   2.868
 5417TIP3    H116190   3.138   6.771   2.827
 5417TIP3    H216191   3.044   6.722   2.934
 5418TIP3   OH216192   3.880   6.856   2.656
 5418TIP3    H116193   3.899   6.824   2.747
 5418TIP3    H216194   3.969   6.852   2.615
 5419TIP3   OH216195   5.080   7.771   0.919
 5419TIP3    H116196   5.056   7.862   0.899
 5419TIP3    H216197   5.005   7.723   0.880
 5420TIP3   OH216198   5.073   7.778   1.298
 5420TIP3    H116199   5.110   7.760   1.388
 5420TIP3    H216200   5.040   7.690   1.275
 5421TIP3   OH216201   4.379   7.676   1.662
 5421TIP3    H116202   4.412   7.608   1.725
 5421TIP3    H216203   4.456   7.735   1.658
 5422TIP3   OH216204   5.301   8.078   0.988
 5422TIP3    H116205   5.308   7.999   1.044
 5422TIP3    H216206   5.360   8.138   1.034
 5423TIP3   OH216207   4.391   8.013   1.462
 5423TIP3    H116208   4.370   7.930   1.417
 5423TIP3    H216209   4.464   8.049   1.410
 5424TIP3   OH216210   4.062   7.284   1.166
 5424TIP3    H116211   4.016   7.368   1.185
 5424TIP3    H216212   3.988   7.233   1.128
 5425TIP3   OH216213   4.116   7.572   1.338
 5425TIP3    H116214   4.163   7.493   1.374
 5425TIP3    H216215   4.191   7.626   1.308
 5426TIP3   OH216216   4.894   7.994   1.348
 5426TIP3    H116217   4.939   7.913   1.317
 5426TIP3    H216218   4.974   8.045   1.373
 5427TIP3   OH216219   5.287   7.491   1.382
 5427TIP3    H116220   5.381   7.466   1.389
 5427TIP3    H216221   5.276   7.478   1.286
 5428TIP3   OH216222   4.631   7.166   1.341
 5428TIP3    H116223   4.612   7.239   1.278
 5428TIP3    H216224   4.584   7.092   1.296
 5429TIP3   OH216225   5.330   7.213   0.946
 5429TIP3    H116226   5.376   7.212   1.031
 5429TIP3    H216227   5.373   7.289   0.902
 5430TIP3   OH216228   4.264   7.368   1.448
 5430TIP3    H116229   4.347   7.350   1.497
 5430TIP3    H216230   4.279   7.312   1.368
 5431TIP3   OH216231   4.708   7.565   1.239
 5431TIP3    H116232   4.801   7.538   1.254
 5431TIP3    H216233   4.668   7.480   1.211
 5432TIP3   OH216234   5.994   7.505   1.528
 5432TIP3    H116235   5.920   7.523   1.468
 5432TIP3    H216236   5.976   7.570   1.597
 5433TIP3   OH216237   4.628   7.149   1.775
 5433TIP3    H116238   4.568   7.187   1.708
 5433TIP3    H216239   4.577   7.167   1.856
 5434TIP3   OH216240   4.961   7.979   0.737
 5434TIP3    H116241   4.874   7.935   0.731
 5434TIP3    H216242   4.937   8.056   0.791
 5435TIP3   OH216243   4.732   7.919   1.568
 5435TIP3    H116244   4.669   7.979   1.612
 5435TIP3    H216245   4.778   7.978   1.505
 5436TIP3   OH216246   4.499   7.265   1.559
 5436TIP3    H116247   4.560   7.338   1.584
 5436TIP3    H216248   4.549   7.224   1.485
 5437TIP3   OH216249   4.566   8.098   1.693
 5437TIP3    H116250   4.549   8.171   1.629
 5437TIP3    H216251   4.479   8.098   1.738
 5438TIP3   OH216252   3.960   7.775   0.919
 5438TIP3    H116253   3.918   7.800   0.835
 5438TIP3    H216254   3.979   7.864   0.952
 5439TIP3   OH216255   4.983   6.866   1.493
 5439TIP3    H116256   4.967   6.771   1.512
 5439TIP3    H216257   4.907   6.906   1.540
 5440TIP3   OH216258   5.620   8.238   1.489
 5440TIP3    H116259   5.606   8.154   1.441
 5440TIP3    H216260   5.621   8.302   1.416
 5441TIP3   OH216261   4.916   7.630   0.740
 5441TIP3    H116262   4.830   7.677   0.731
 5441TIP3    H216263   4.949   7.640   0.650
 5442TIP3   OH216264   5.822   7.881   1.325
 5442TIP3    H116265   5.736   7.923   1.344
 5442TIP3    H216266   5.836   7.908   1.232
 5443TIP3   OH216267   5.265   7.715   0.728
 5443TIP3    H116268   5.208   7.739   0.804
 5443TIP3    H216269   5.346   7.684   0.774
 5444TIP3   OH216270   4.503   7.712   1.124
 5444TIP3    H116271   4.461   7.650   1.060
 5444TIP3    H216272   4.578   7.658   1.158
 5445TIP3   OH216273   4.694   8.134   1.210
 5445TIP3    H116274   4.608   8.091   1.226
 5445TIP3    H216275   4.757   8.081   1.264
 5446TIP3   OH216276   4.621   7.685   1.481
 5446TIP3    H116277   4.665   7.660   1.397
 5446TIP3    H216278   4.669   7.767   1.506
 5447TIP3   OH216279   4.809   8.147   1.810
 5447TIP3    H116280   4.767   8.233   1.827
 5447TIP3    H216281   4.733   8.101   1.771
 5448TIP3   OH216282   4.523   7.793   1.915
 5448TIP3    H116283   4.530   7.882   1.956
 5448TIP3    H216284   4.428   7.774   1.927
 5449TIP3   OH216285   4.366   7.551   0.934
 5449TIP3    H116286   4.294   7.590   0.880
 5449TIP3    H216287   4.328   7.465   0.958
 5450TIP3   OH216288   4.144   7.945   1.851
 5450TIP3    H116289   4.081   7.930   1.777
 5450TIP3    H216290   4.179   7.855   1.868
 5451TIP3   OH216291   4.336   8.139   1.861
 5451TIP3    H116292   4.397   8.101   1.927
 5451TIP3    H216293   4.269   8.068   1.851
 5452TIP3   OH216294   4.745   6.943   1.620
 5452TIP3    H116295   4.655   6.914   1.593
 5452TIP3    H216296   4.721   7.026   1.667
 5453TIP3   OH216297   5.282   7.059   1.813
 5453TIP3    H116298   5.349   7.030   1.878
 5453TIP3    H216299   5.198   7.041   1.859
 5454TIP3   OH216300   4.916   6.986   0.595
 5454TIP3    H116301   4.869   6.980   0.680
 5454TIP3    H216302   4.873   6.913   0.546
 5455TIP3   OH216303   4.673   7.463   1.634
 5455TIP3    H116304   4.628   7.485   1.718
 5455TIP3    H216305   4.656   7.545   1.582
 5456TIP3   OH216306   4.559   7.347   1.150
 5456TIP3    H116307   4.468   7.318   1.171
 5456TIP3    H216308   4.572   7.303   1.063
 5457TIP3   OH216309   5.053   7.434   0.873
 5457TIP3    H116310   4.989   7.501   0.840
 5457TIP3    H216311   5.122   7.443   0.806
 5458TIP3   OH216312   5.221   7.719   1.965
 5458TIP3    H116313   5.213   7.642   2.025
 5458TIP3    H216314   5.316   7.723   1.946
 5459TIP3   OH216315   5.212   7.464   1.113
 5459TIP3    H116316   5.152   7.500   1.045
 5459TIP3    H216317   5.224   7.374   1.080
 5460TIP3   OH216318   4.494   7.490   1.847
 5460TIP3    H116319   4.534   7.551   1.910
 5460TIP3    H216320   4.486   7.408   1.899
 5461TIP3   OH216321   4.534   6.937   0.575
 5461TIP3    H116322   4.526   6.949   0.672
 5461TIP3    H216323   4.489   7.016   0.541
 5462TIP3   OH216324   4.089   7.011   1.427
 5462TIP3    H116325   4.165   7.041   1.481
 5462TIP3    H216326   4.129   6.978   1.346
 5463TIP3   OH216327   4.059   6.991   0.945
 5463TIP3    H116328   4.108   7.029   0.868
 5463TIP3    H216329   3.998   7.065   0.965
 5464TIP3   OH216330   5.185   7.703   1.536
 5464TIP3    H116331   5.222   7.622   1.494
 5464TIP3    H216332   5.255   7.718   1.603
 5465TIP3   OH216333   4.879   7.175   1.211
 5465TIP3    H116334   4.802   7.168   1.270
 5465TIP3    H216335   4.953   7.166   1.275
 5466TIP3   OH216336   4.323   7.226   1.218
 5466TIP3    H116337   4.228   7.233   1.192
 5466TIP3    H216338   4.343   7.132   1.199
 5467TIP3   OH216339   4.592   7.221   0.909
 5467TIP3    H116340   4.686   7.234   0.886
 5467TIP3    H216341   4.544   7.252   0.829
 5468TIP3   OH216342   5.343   7.160   1.454
 5468TIP3    H116343   5.334   7.237   1.513
 5468TIP3    H216344   5.283   7.185   1.384
 5469TIP3   OH216345   4.422   7.272   0.696
 5469TIP3    H116346   4.342   7.226   0.667
 5469TIP3    H216347   4.486   7.245   0.627
 5470TIP3   OH216348   4.511   8.041   2.055
 5470TIP3    H116349   4.590   8.069   2.105
 5470TIP3    H216350   4.446   8.031   2.127
 5471TIP3   OH216351   4.974   7.496   1.308
 5471TIP3    H116352   5.059   7.467   1.272
 5471TIP3    H216353   4.980   7.462   1.399
 5472TIP3   OH216354   4.491   6.983   1.191
 5472TIP3    H116355   4.455   6.906   1.240
 5472TIP3    H216356   4.533   6.939   1.115
 5473TIP3   OH216357   4.945   7.392   1.602
 5473TIP3    H116358   4.858   7.433   1.619
 5473TIP3    H216359   5.005   7.443   1.660
 5474TIP3   OH216360   4.696   7.785   0.702
 5474TIP3    H116361   4.625   7.720   0.684
 5474TIP3    H216362   4.663   7.827   0.785
 5475TIP3   OH216363   5.584   8.019   1.328
 5475TIP3    H116364   5.609   8.062   1.243
 5475TIP3    H216365   5.500   7.973   1.304
 5476TIP3   OH216366   5.090   8.130   1.691
 5476TIP3    H116367   5.126   8.069   1.758
 5476TIP3    H216368   5.008   8.160   1.734
 5477TIP3   OH216369   4.352   7.752   1.352
 5477TIP3    H116370   4.410   7.742   1.275
 5477TIP3    H216371   4.409   7.722   1.425
 5478TIP3   OH216372   4.256   7.726   1.986
 5478TIP3    H116373   4.279   7.711   2.080
 5478TIP3    H216374   4.189   7.658   1.971
 5479TIP3   OH216375   4.982   7.833   2.010
 5479TIP3    H116376   4.924   7.782   1.951
 5479TIP3    H216377   5.070   7.800   1.982
 5480TIP3   OH216378   5.875   8.281   1.576
 5480TIP3    H116379   5.777   8.284   1.565
 5480TIP3    H216380   5.902   8.262   1.483
 5481TIP3   OH216381   5.351   7.890   1.223
 5481TIP3    H116382   5.262   7.860   1.249
 5481TIP3    H216383   5.392   7.804   1.197
 5482TIP3   OH216384   4.050   7.405   0.711
 5482TIP3    H116385   4.093   7.491   0.728
 5482TIP3    H216386   3.969   7.413   0.767
 5483TIP3   OH216387   4.613   7.885   0.939
 5483TIP3    H116388   4.613   7.970   0.984
 5483TIP3    H216389   4.583   7.825   1.010
 5484TIP3   OH216390   5.139   8.087   1.422
 5484TIP3    H116391   5.127   8.100   1.519
 5484TIP3    H216392   5.224   8.043   1.418
 5485TIP3   OH216393   4.468   7.231   1.990
 5485TIP3    H116394   4.372   7.234   2.004
 5485TIP3    H216395   4.497   7.175   2.064
 5486TIP3   OH216396   4.161   7.651   0.782
 5486TIP3    H116397   4.096   7.688   0.846
 5486TIP3    H216398   4.175   7.728   0.723
 5487TIP3   OH216399   5.292   7.311   1.686
 5487TIP3    H116400   5.379   7.342   1.710
 5487TIP3    H216401   5.287   7.222   1.728
 5488TIP3   OH216402   4.880   7.224   0.941
 5488TIP3    H116403   4.940   7.300   0.927
 5488TIP3    H216404   4.879   7.217   1.039
 5489TIP3   OH216405   5.117   7.520   1.777
 5489TIP3    H116406   5.159   7.597   1.818
 5489TIP3    H216407   5.193   7.475   1.735
 5490TIP3   OH216408   5.021   6.965   1.050
 5490TIP3    H116409   5.035   7.000   1.140
 5490TIP3    H216410   5.054   7.041   0.999
 5491TIP3   OH216411   4.529   6.955   0.849
 5491TIP3    H116412   4.532   7.047   0.883
 5491TIP3    H216413   4.625   6.935   0.849
 5492TIP3   OH216414   5.443   7.649   1.130
 5492TIP3    H116415   5.368   7.587   1.132
 5492TIP3    H216416   5.509   7.591   1.175
 5493TIP3   OH216417   4.161   7.868   0.605
 5493TIP3    H116418   4.185   7.960   0.624
 5493TIP3    H216419   4.165   7.870   0.509
 5494TIP3   OH216420   4.102   7.141   0.715
 5494TIP3    H116421   4.094   7.239   0.721
 5494TIP3    H216422   4.014   7.116   0.684
 5495TIP3   OH216423   4.480   6.864   1.592
 5495TIP3    H116424   4.449   6.830   1.506
 5495TIP3    H216425   4.470   6.786   1.650
 5496TIP3   OH216426   4.300   8.012   2.230
 5496TIP3    H116427   4.324   7.917   2.237
 5496TIP3    H216428   4.211   8.008   2.189
 5497TIP3   OH216429   4.927   8.098   2.048
 5497TIP3    H116430   4.894   8.113   1.957
 5497TIP3    H216431   4.960   8.006   2.040
 5498TIP3   OH216432   5.399   8.114   1.615
 5498TIP3    H116433   5.472   8.171   1.584
 5498TIP3    H216434   5.326   8.177   1.619
 5499TIP3   OH216435   4.427   7.763   2.228
 5499TIP3    H116436   4.504   7.712   2.202
 5499TIP3    H216437   4.455   7.795   2.317
 5500TIP3   OH216438   4.509   7.581   0.677
 5500TIP3    H116439   4.463   7.554   0.759
 5500TIP3    H216440   4.528   7.496   0.636
 5501TIP3   OH216441   4.758   7.644   1.884
 5501TIP3    H116442   4.684   7.709   1.886
 5501TIP3    H216443   4.814   7.681   1.812
 5502TIP3   OH216444   5.290   8.048   2.017
 5502TIP3    H116445   5.365   8.021   1.961
 5502TIP3    H216446   5.283   7.976   2.081
 5503TIP3   OH216447   4.884   7.439   2.018
 5503TIP3    H116448   4.890   7.361   1.959
 5503TIP3    H216449   4.845   7.506   1.957
 5504TIP3   OH216450   4.888   7.222   1.825
 5504TIP3    H116451   4.918   7.267   1.744
 5504TIP3    H216452   4.794   7.203   1.804
 5505TIP3   OH216453   4.917   7.759   1.701
 5505TIP3    H116454   4.999   7.745   1.650
 5505TIP3    H216455   4.867   7.822   1.645
 5506TIP3   OH216456   5.498   7.727   2.074
 5506TIP3    H116457   5.538   7.684   2.152
 5506TIP3    H216458   5.556   7.805   2.059
 5507TIP3   OH216459   5.529   8.005   1.834
 5507TIP3    H116460   5.469   8.022   1.759
 5507TIP3    H216461   5.614   8.006   1.785
 5508TIP3   OH216462   4.762   7.548   2.249
 5508TIP3    H116463   4.695   7.478   2.263
 5508TIP3    H216464   4.797   7.523   2.160
 5509TIP3   OH216465   5.020   6.986   1.891
 5509TIP3    H116466   4.971   7.069   1.869
 5509TIP3    H216467   4.950   6.919   1.880
 5510TIP3   OH216468   5.154   7.490   2.104
 5510TIP3    H116469   5.131   7.476   2.197
 5510TIP3    H216470   5.067   7.469   2.063
 5511TIP3   OH216471   5.411   7.403   2.015
 5511TIP3    H116472   5.320   7.438   2.011
 5511TIP3    H216473   5.404   7.349   2.095
 5512TIP3   OH216474   4.601   7.328   2.301
 5512TIP3    H116475   4.607   7.237   2.267
 5512TIP3    H216476   4.639   7.316   2.391
 5513TIP3   OH216477   5.114   6.998   2.149
 5513TIP3    H116478   5.179   6.925   2.142
 5513TIP3    H216479   5.073   6.994   2.060
 5514TIP3   OH216480   5.182   7.215   2.305
 5514TIP3    H116481   5.158   7.142   2.244
 5514TIP3    H216482   5.103   7.273   2.301
 5515TIP3   OH216483   3.886   7.801   0.592
 5515TIP3    H116484   3.982   7.811   0.605
 5515TIP3    H216485   3.877   7.704   0.580
 5516TIP3   OH216486   5.756   8.414   1.852
 5516TIP3    H116487   5.684   8.391   1.915
 5516TIP3    H216488   5.814   8.467   1.908
 5517TIP3   OH216489   5.714   8.141   1.124
 5517TIP3    H116490   5.782   8.087   1.079
 5517TIP3    H216491   5.726   8.229   1.086
 5518TIP3   OH216492   5.472   7.602   0.865
 5518TIP3    H116493   5.533   7.529   0.876
 5518TIP3    H216494   5.469   7.638   0.957
 5519TIP3   OH216495   4.115   7.688   1.594
 5519TIP3    H116496   4.116   7.657   1.502
 5519TIP3    H216497   4.212   7.693   1.613
 5520TIP3   OH216498   5.777   8.047   1.709
 5520TIP3    H116499   5.849   7.980   1.708
 5520TIP3    H216500   5.808   8.113   1.644
 5521TIP3   OH216501   5.946   7.837   1.742
 5521TIP3    H116502   5.880   7.779   1.701
 5521TIP3    H216503   6.022   7.776   1.756
 5522TIP3   OH216504   5.485   7.313   0.724
 5522TIP3    H116505   5.545   7.244   0.757
 5522TIP3    H216506   5.547   7.381   0.693
 5523TIP3   OH216507   5.763   7.683   1.549
 5523TIP3    H116508   5.668   7.668   1.570
 5523TIP3    H216509   5.756   7.713   1.457
 5524TIP3   OH216510   4.336   7.381   2.270
 5524TIP3    H116511   4.434   7.374   2.274
 5524TIP3    H216512   4.311   7.295   2.308
 5525TIP3   OH216513   6.161   7.235   2.020
 5525TIP3    H116514   6.229   7.174   1.983
 5525TIP3    H216515   6.155   7.302   1.949
 5526TIP3   OH216516   5.560   7.054   0.807
 5526TIP3    H116517   5.622   7.049   0.884
 5526TIP3    H216518   5.608   7.000   0.741
 5527TIP3   OH216519   4.296   7.073   1.599
 5527TIP3    H116520   4.358   6.998   1.610
 5527TIP3    H216521   4.359   7.147   1.593
 5528TIP3   OH216522   4.097   7.347   1.673
 5528TIP3    H116523   4.147   7.340   1.589
 5528TIP3    H216524   4.129   7.432   1.706
 5529TIP3   OH216525   6.042   7.388   1.821
 5529TIP3    H116526   5.966   7.382   1.880
 5529TIP3    H216527   6.022   7.318   1.756
 5530TIP3   OH216528   4.083   6.851   1.175
 5530TIP3    H116529   3.989   6.844   1.202
 5530TIP3    H216530   4.077   6.908   1.096
 5531TIP3   OH216531   4.302   6.927   1.988
 5531TIP3    H116532   4.253   6.925   2.071
 5531TIP3    H216533   4.236   6.967   1.928
 5532TIP3   OH216534   5.939   7.139   1.712
 5532TIP3    H116535   5.850   7.116   1.679
 5532TIP3    H216536   5.983   7.052   1.701
 5533TIP3   OH216537   5.121   7.046   1.298
 5533TIP3    H116538   5.099   6.992   1.376
 5533TIP3    H216539   5.215   7.021   1.282
 5534TIP3   OH216540   5.663   6.941   1.229
 5534TIP3    H116541   5.701   7.002   1.163
 5534TIP3    H216542   5.578   6.984   1.248
 5535TIP3   OH216543   5.755   7.051   0.992
 5535TIP3    H116544   5.832   6.999   0.961
 5535TIP3    H216545   5.788   7.142   0.975
 5536TIP3   OH216546   4.392   6.771   1.343
 5536TIP3    H116547   4.300   6.738   1.346
 5536TIP3    H216548   4.441   6.686   1.340
 5537TIP3   OH216549   4.186   6.641   0.996
 5537TIP3    H116550   4.209   6.698   0.920
 5537TIP3    H216551   4.153   6.706   1.061
 5538TIP3   OH216552   4.836   6.800   1.229
 5538TIP3    H116553   4.892   6.856   1.173
 5538TIP3    H216554   4.853   6.838   1.317
 5539TIP3   OH216555   5.365   6.937   1.195
 5539TIP3    H116556   5.401   6.881   1.126
 5539TIP3    H216557   5.354   6.871   1.267
 5540TIP3   OH216558   4.296   6.804   0.760
 5540TIP3    H116559   4.341   6.741   0.700
 5540TIP3    H216560   4.372   6.852   0.798
 5541TIP3   OH216561   4.807   6.975   0.856
 5541TIP3    H116562   4.861   6.928   0.921
 5541TIP3    H216563   4.828   7.068   0.881
 5542TIP3   OH216564   4.600   7.050   2.235
 5542TIP3    H116565   4.565   6.981   2.293
 5542TIP3    H216566   4.694   7.051   2.264
 5543TIP3   OH216567   4.848   7.048   2.358
 5543TIP3    H116568   4.933   7.022   2.320
 5543TIP3    H216569   4.835   6.980   2.428
 5544TIP3   OH216570   5.672   7.104   2.136
 5544TIP3    H116571   5.689   7.089   2.231
 5544TIP3    H216572   5.763   7.114   2.101
 5545TIP3   OH216573   6.171   7.930   1.141
 5545TIP3    H116574   6.219   7.880   1.207
 5545TIP3    H216575   6.242   7.958   1.079
 5546TIP3   OH216576   6.060   7.633   0.919
 5546TIP3    H116577   6.137   7.610   0.975
 5546TIP3    H216578   6.041   7.549   0.875
 5547TIP3   OH216579   6.412   7.402   1.268
 5547TIP3    H116580   6.356   7.443   1.200
 5547TIP3    H216581   6.357   7.421   1.348
 5548TIP3   OH216582   6.298   7.517   1.039
 5548TIP3    H116583   6.352   7.595   1.066
 5548TIP3    H216584   6.354   7.479   0.970
 5549TIP3   OH216585   6.772   7.128   0.982
 5549TIP3    H116586   6.763   7.033   0.998
 5549TIP3    H216587   6.690   7.162   1.023
 5550TIP3   OH216588   6.283   8.063   1.403
 5550TIP3    H116589   6.267   8.142   1.455
 5550TIP3    H216590   6.193   8.023   1.409
 5551TIP3   OH216591   5.943   8.186   1.334
 5551TIP3    H116592   5.872   8.166   1.272
 5551TIP3    H216593   5.974   8.098   1.363
 5552TIP3   OH216594   6.535   7.207   1.113
 5552TIP3    H116595   6.447   7.172   1.085
 5552TIP3    H216596   6.505   7.282   1.168
 5553TIP3   OH216597   7.055   7.279   1.328
 5553TIP3    H116598   7.096   7.304   1.413
 5553TIP3    H216599   6.960   7.273   1.352
 5554TIP3   OH216600   6.460   7.715   1.124
 5554TIP3    H116601   6.412   7.743   1.204
 5554TIP3    H216602   6.491   7.799   1.087
 5555TIP3   OH216603   6.310   7.754   1.347
 5555TIP3    H116604   6.290   7.817   1.418
 5555TIP3    H216605   6.283   7.669   1.387
 5556TIP3   OH216606   5.889   7.266   0.895
 5556TIP3    H116607   5.944   7.297   0.970
 5556TIP3    H216608   5.957   7.249   0.829
 5557TIP3   OH216609   6.040   7.967   1.481
 5557TIP3    H116610   6.051   7.947   1.575
 5557TIP3    H216611   5.963   7.912   1.454
 5558TIP3   OH216612   6.259   7.485   1.477
 5558TIP3    H116613   6.161   7.490   1.489
 5558TIP3    H216614   6.285   7.437   1.557
 5559TIP3   OH216615   6.279   7.120   1.087
 5559TIP3    H116616   6.242   7.090   1.000
 5559TIP3    H216617   6.267   7.041   1.143
 5560TIP3   OH216618   6.115   8.272   1.705
 5560TIP3    H116619   6.142   8.179   1.707
 5560TIP3    H216620   6.025   8.267   1.666
 5561TIP3   OH216621   6.228   8.013   1.714
 5561TIP3    H116622   6.298   7.947   1.710
 5561TIP3    H216623   6.244   8.049   1.804
 5562TIP3   OH216624   6.649   7.707   1.500
 5562TIP3    H116625   6.684   7.620   1.478
 5562TIP3    H216626   6.596   7.730   1.424
 5563TIP3   OH216627   6.662   7.501   1.283
 5563TIP3    H116628   6.637   7.538   1.197
 5563TIP3    H216629   6.576   7.462   1.308
 5564TIP3   OH216630   6.540   7.808   1.733
 5564TIP3    H116631   6.480   7.733   1.750
 5564TIP3    H216632   6.585   7.779   1.651
 5565TIP3   OH216633   6.787   7.250   1.382
 5565TIP3    H116634   6.733   7.324   1.354
 5565TIP3    H216635   6.726   7.174   1.370
 5566TIP3   OH216636   6.396   7.579   1.784
 5566TIP3    H116637   6.406   7.487   1.754
 5566TIP3    H216638   6.431   7.571   1.876
 5567TIP3   OH216639   6.905   7.242   1.631
 5567TIP3    H116640   6.981   7.181   1.622
 5567TIP3    H216641   6.861   7.232   1.544
 5568TIP3   OH216642   6.959   7.446   1.805
 5568TIP3    H116643   6.945   7.385   1.729
 5568TIP3    H216644   6.900   7.521   1.786
 5569TIP3   OH216645   5.914   7.957   1.065
 5569TIP3    H116646   5.929   7.903   0.987
 5569TIP3    H216647   6.006   7.960   1.101
 5570TIP3   OH216648   6.132   7.645   1.770
 5570TIP3    H116649   6.230   7.638   1.769
 5570TIP3    H216650   6.109   7.551   1.787
 5571TIP3   OH216651   6.091   7.322   1.062
 5571TIP3    H116652   6.158   7.255   1.085
 5571TIP3    H216653   6.133   7.404   1.093
 5572TIP3   OH216654   5.962   7.618   1.186
 5572TIP3    H116655   5.948   7.611   1.090
 5572TIP3    H216656   5.928   7.706   1.205
 5573TIP3   OH216657   6.094   7.187   1.473
 5573TIP3    H116658   6.041   7.185   1.554
 5573TIP3    H216659   6.047   7.253   1.421
 5574TIP3   OH216660   6.181   7.027   0.849
 5574TIP3    H116661   6.090   6.992   0.849
 5574TIP3    H216662   6.232   6.946   0.833
 5575TIP3   OH216663   6.395   7.300   1.720
 5575TIP3    H116664   6.362   7.231   1.780
 5575TIP3    H216665   6.489   7.303   1.748
 5576TIP3   OH216666   6.642   7.301   1.837
 5576TIP3    H116667   6.735   7.297   1.806
 5576TIP3    H216668   6.641   7.230   1.903
 5577TIP3   OH216669   1.850   0.499   5.773
 5577TIP3    H116670   1.780   0.436   5.792
 5577TIP3    H216671   1.801   0.577   5.744
 5578TIP3   OH216672   1.474   0.949   5.747
 5578TIP3    H116673   1.546   0.887   5.723
 5578TIP3    H216674   1.464   0.939   5.842
 5579TIP3   OH216675   2.437  -0.063   6.301
 5579TIP3    H116676   2.362  -0.005   6.277
 5579TIP3    H216677   2.498  -0.003   6.346
 5580TIP3   OH216678   1.529   0.440   5.530
 5580TIP3    H116679   1.453   0.389   5.499
 5580TIP3    H216680   1.481   0.516   5.567
 5581TIP3   OH216681   1.676   0.785   5.648
 5581TIP3    H116682   1.679   0.709   5.587
 5581TIP3    H216683   1.706   0.854   5.585
 5582TIP3   OH216684   1.765   0.572   5.486
 5582TIP3    H116685   1.687   0.518   5.462
 5582TIP3    H216686   1.814   0.511   5.542
 5583TIP3   OH216687   2.124   0.660   6.245
 5583TIP3    H116688   2.114   0.574   6.198
 5583TIP3    H216689   2.138   0.720   6.170
 5584TIP3   OH216690   2.323   0.294   6.105
 5584TIP3    H116691   2.241   0.347   6.107
 5584TIP3    H216692   2.354   0.314   6.014
 5585TIP3   OH216693   1.766   0.160   5.502
 5585TIP3    H116694   1.696   0.134   5.563
 5585TIP3    H216695   1.841   0.105   5.529
 5586TIP3   OH216696   1.400   0.731   5.536
 5586TIP3    H116697   1.398   0.780   5.619
 5586TIP3    H216698   1.308   0.739   5.507
 5587TIP3   OH216699   1.922   0.595   4.906
 5587TIP3    H116700   1.929   0.693   4.895
 5587TIP3    H216701   2.015   0.568   4.897
 5588TIP3   OH216702   2.364   0.997   6.302
 5588TIP3    H116703   2.368   0.903   6.326
 5588TIP3    H216704   2.282   1.024   6.349
 5589TIP3   OH216705   1.520   0.799   6.421
 5589TIP3    H116706   1.487   0.889   6.438
 5589TIP3    H216707   1.439   0.749   6.445
 5590TIP3   OH216708   1.228   0.921   5.371
 5590TIP3    H116709   1.161   0.928   5.298
 5590TIP3    H216710   1.199   0.995   5.427
 5591TIP3   OH216711   1.450   0.823   5.019
 5591TIP3    H116712   1.507   0.747   4.998
 5591TIP3    H216713   1.460   0.831   5.116
 5592TIP3   OH216714   1.478   0.863   5.295
 5592TIP3    H116715   1.385   0.886   5.317
 5592TIP3    H216716   1.498   0.809   5.373
 5593TIP3   OH216717   2.262   0.118   6.578
 5593TIP3    H116718   2.178   0.165   6.571
 5593TIP3    H216719   2.237   0.026   6.563
 5594TIP3   OH216720   1.683   0.033   5.053
 5594TIP3    H116721   1.654   0.002   4.966
 5594TIP3    H216722   1.759   0.090   5.032
 5595TIP3   OH216723   2.059   1.347   6.402
 5595TIP3    H116724   2.051   1.373   6.308
 5595TIP3    H216725   2.128   1.408   6.433
 5596TIP3   OH216726   2.090   0.443   6.085
 5596TIP3    H116727   2.123   0.491   6.005
 5596TIP3    H216728   2.009   0.400   6.050
 5597TIP3   OH216729   1.393   0.412   5.223
 5597TIP3    H116730   1.330   0.486   5.239
 5597TIP3    H216731   1.363   0.348   5.290
 5598TIP3   OH216732   1.773   0.806   6.341
 5598TIP3    H116733   1.678   0.798   6.370
 5598TIP3    H216734   1.807   0.846   6.424
 5599TIP3   OH216735   2.172  -0.140   5.252
 5599TIP3    H116736   2.109  -0.196   5.203
 5599TIP3    H216737   2.148  -0.053   5.213
 5600TIP3   OH216738   2.378   0.717   6.345
 5600TIP3    H116739   2.281   0.707   6.345
 5600TIP3    H216740   2.400   0.685   6.254
 5601TIP3   OH216741   1.876   0.667   5.178
 5601TIP3    H116742   1.831   0.607   5.239
 5601TIP3    H216743   1.874   0.619   5.094
 5602TIP3   OH216744   1.875   0.276   6.007
 5602TIP3    H116745   1.779   0.272   6.015
 5602TIP3    H216746   1.891   0.234   5.922
 5603TIP3   OH216747   1.285   0.914   6.277
 5603TIP3    H116748   1.293   0.951   6.188
 5603TIP3    H216749   1.276   0.819   6.260
 5604TIP3   OH216750   1.721   0.581   6.161
 5604TIP3    H116751   1.631   0.578   6.198
 5604TIP3    H216752   1.751   0.491   6.184
 5605TIP3   OH216753   1.619   0.398   5.072
 5605TIP3    H116754   1.675   0.366   5.146
 5605TIP3    H216755   1.533   0.403   5.121
 5606TIP3   OH216756   1.892   1.056   6.249
 5606TIP3    H116757   1.807   1.009   6.245
 5606TIP3    H216758   1.885   1.114   6.169
 5607TIP3   OH216759   1.955   0.871   4.894
 5607TIP3    H116760   1.985   0.943   4.836
 5607TIP3    H216761   1.877   0.915   4.933
 5608TIP3   OH216762   1.781   0.331   5.279
 5608TIP3    H116763   1.763   0.273   5.356
 5608TIP3    H216764   1.879   0.326   5.276
 5609TIP3   OH216765   1.194   0.607   5.258
 5609TIP3    H116766   1.129   0.615   5.329
 5609TIP3    H216767   1.203   0.701   5.233
 5610TIP3   OH216768   1.913   1.013   5.854
 5610TIP3    H116769   1.866   1.049   5.775
 5610TIP3    H216770   2.005   1.023   5.822
 5611TIP3   OH216771   1.131   0.531   4.993
 5611TIP3    H116772   1.140   0.544   5.090
 5611TIP3    H216773   1.223   0.543   4.964
 5612TIP3   OH216774   1.814   0.903   6.606
 5612TIP3    H116775   1.843   0.831   6.664
 5612TIP3    H216776   1.882   0.972   6.625
 5613TIP3   OH216777   1.589   0.617   4.897
 5613TIP3    H116778   1.628   0.550   4.957
 5613TIP3    H216779   1.649   0.615   4.819
 5614TIP3   OH216780   1.919   0.555   6.413
 5614TIP3    H116781   1.998   0.590   6.367
 5614TIP3    H216782   1.854   0.623   6.386
 5615TIP3   OH216783   1.928   0.126   4.928
 5615TIP3    H116784   1.903   0.083   4.843
 5615TIP3    H216785   1.890   0.216   4.912
 5616TIP3   OH216786   2.080   0.380   6.566
 5616TIP3    H116787   2.021   0.438   6.514
 5616TIP3    H216788   2.166   0.406   6.528
 5617TIP3   OH216789   2.173   1.092   5.802
 5617TIP3    H116790   2.198   1.151   5.874
 5617TIP3    H216791   2.211   1.138   5.726
 5618TIP3   OH216792   2.196   1.139   6.085
 5618TIP3    H116793   2.149   1.060   6.055
 5618TIP3    H216794   2.269   1.101   6.137
 5619TIP3   OH216795   2.238   0.798   6.644
 5619TIP3    H116796   2.168   0.805   6.712
 5619TIP3    H216797   2.281   0.886   6.653
 5620TIP3   OH216798   2.060   0.313   5.265
 5620TIP3    H116799   2.125   0.380   5.237
 5620TIP3    H216800   2.104   0.276   5.345
 5621TIP3   OH216801   2.183   0.183   5.471
 5621TIP3    H116802   2.114   0.142   5.528
 5621TIP3    H216803   2.245   0.222   5.535
 5622TIP3   OH216804   2.238   0.576   5.901
 5622TIP3    H116805   2.288   0.507   5.854
 5622TIP3    H216806   2.243   0.651   5.836
 5623TIP3   OH216807   2.118   0.091   5.115
 5623TIP3    H116808   2.048   0.096   5.046
 5623TIP3    H216809   2.090   0.167   5.171
 5624TIP3   OH216810   2.000  -0.248   5.061
 5624TIP3    H116811   1.952  -0.175   5.021
 5624TIP3    H216812   1.940  -0.321   5.045
 5625TIP3   OH216813   2.000   0.033   5.625
 5625TIP3    H116814   2.020  -0.059   5.603
 5625TIP3    H216815   2.008   0.034   5.721
 5626TIP3   OH216816   2.310   0.471   6.459
 5626TIP3    H116817   2.377   0.399   6.455
 5626TIP3    H216818   2.350   0.541   6.406
 5627TIP3   OH216819   2.475   0.264   6.488
 5627TIP3    H116820   2.401   0.210   6.525
 5627TIP3    H216821   2.550   0.204   6.508
 5628TIP3   OH216822   2.145  -0.056   6.012
 5628TIP3    H116823   2.230  -0.036   5.967
 5628TIP3    H216824   2.164  -0.020   6.100
 5629TIP3   OH216825   2.206   0.086   6.243
 5629TIP3    H116826   2.123   0.126   6.273
 5629TIP3    H216827   2.250   0.162   6.198
 5630TIP3   OH216828   1.762   0.960   5.459
 5630TIP3    H116829   1.798   0.949   5.369
 5630TIP3    H216830   1.792   1.049   5.481
 5631TIP3   OH216831   1.475   1.061   6.526
 5631TIP3    H116832   1.515   1.054   6.615
 5631TIP3    H216833   1.543   1.110   6.475
 5632TIP3   OH216834   1.663   1.199   6.383
 5632TIP3    H116835   1.742   1.164   6.339
 5632TIP3    H216836   1.704   1.263   6.445
 5633TIP3   OH216837   1.386   1.068   6.044
 5633TIP3    H116838   1.308   1.086   5.989
 5633TIP3    H216839   1.393   1.153   6.092
 5634TIP3   OH216840   1.649   0.997   6.096
 5634TIP3    H116841   1.551   1.011   6.090
 5634TIP3    H216842   1.679   1.083   6.061
 5635TIP3   OH216843   1.850   1.209   6.031
 5635TIP3    H116844   1.828   1.293   5.983
 5635TIP3    H216845   1.871   1.150   5.955
 5636TIP3   OH216846   1.898   0.937   5.216
 5636TIP3    H116847   1.891   0.839   5.206
 5636TIP3    H216848   1.846   0.968   5.139
 5637TIP3   OH216849   2.120   1.078   6.402
 5637TIP3    H116850   2.040   1.052   6.351
 5637TIP3    H216851   2.104   1.174   6.409
 5638TIP3   OH216852   3.389   0.464   5.161
 5638TIP3    H116853   3.337   0.544   5.177
 5638TIP3    H216854   3.319   0.403   5.130
 5639TIP3   OH216855   3.385   0.450   5.552
 5639TIP3    H116856   3.419   0.432   5.642
 5639TIP3    H216857   3.342   0.366   5.530
 5640TIP3   OH216858   2.681   0.350   5.919
 5640TIP3    H116859   2.713   0.279   5.978
 5640TIP3    H216860   2.764   0.396   5.900
 5641TIP3   OH216861   3.617   0.765   5.219
 5641TIP3    H116862   3.618   0.697   5.289
 5641TIP3    H216863   3.655   0.841   5.269
 5642TIP3   OH216864   2.659   0.758   5.642
 5642TIP3    H116865   2.650   0.661   5.643
 5642TIP3    H216866   2.755   0.767   5.636
 5643TIP3   OH216867   2.350  -0.033   5.441
 5643TIP3    H116868   2.298   0.049   5.444
 5643TIP3    H216869   2.293  -0.088   5.383
 5644TIP3   OH216870   2.415   0.258   5.603
 5644TIP3    H116871   2.458   0.175   5.633
 5644TIP3    H216872   2.473   0.285   5.531
 5645TIP3   OH216873   3.271   1.218   5.248
 5645TIP3    H116874   3.321   1.144   5.210
 5645TIP3    H216875   3.262   1.193   5.341
 5646TIP3   OH216876   3.185   0.679   5.599
 5646TIP3    H116877   3.225   0.599   5.560
 5646TIP3    H216878   3.268   0.725   5.624
 5647TIP3   OH216879   3.604   0.182   5.645
 5647TIP3    H116880   3.623   0.091   5.674
 5647TIP3    H216881   3.565   0.169   5.557
 5648TIP3   OH216882   2.923  -0.201   5.563
 5648TIP3    H116883   2.896  -0.111   5.535
 5648TIP3    H216884   2.841  -0.250   5.554
 5649TIP3   OH216885   3.593  -0.044   5.271
 5649TIP3    H116886   3.650  -0.093   5.333
 5649TIP3    H216887   3.648  -0.049   5.191
 5650TIP3   OH216888   2.545   0.038   5.695
 5650TIP3    H116889   2.638   0.042   5.728
 5650TIP3    H216890   2.558  -0.023   5.620
 5651TIP3   OH216891   3.005   0.242   5.501
 5651TIP3    H116892   3.099   0.215   5.517
 5651TIP3    H216893   2.965   0.156   5.475
 5652TIP3   OH216894   4.233   0.188   5.799
 5652TIP3    H116895   4.161   0.244   5.762
 5652TIP3    H216896   4.296   0.253   5.831
 5653TIP3   OH216897   3.299   0.703   5.020
 5653TIP3    H116898   3.240   0.662   4.954
 5653TIP3    H216899   3.241   0.778   5.049
 5654TIP3   OH216900   3.039   0.599   5.825
 5654TIP3    H116901   2.977   0.664   5.863
 5654TIP3    H216902   3.079   0.650   5.751
 5655TIP3   OH216903   2.803   0.009   5.761
 5655TIP3    H116904   2.872   0.051   5.815
 5655TIP3    H216905   2.827  -0.084   5.771
 5656TIP3   OH216906   2.867   0.794   5.925
 5656TIP3    H116907   2.841   0.881   5.887
 5656TIP3    H216908   2.788   0.776   5.980
 5657TIP3   OH216909   2.262   0.484   5.159
 5657TIP3    H116910   2.216   0.509   5.077
 5657TIP3    H216911   2.289   0.571   5.194
 5658TIP3   OH216912   3.688   0.993   5.376
 5658TIP3    H116913   3.606   0.990   5.430
 5658TIP3    H216914   3.691   1.087   5.350
 5659TIP3   OH216915   3.415   1.041   5.084
 5659TIP3    H116916   3.488   1.009   5.139
 5659TIP3    H216917   3.462   1.109   5.030
 5660TIP3   OH216918   3.925   0.910   5.745
 5660TIP3    H116919   3.915   0.833   5.685
 5660TIP3    H216920   3.909   0.985   5.685
 5661TIP3   OH216921   3.221   0.315   4.999
 5661TIP3    H116922   3.135   0.358   4.980
 5661TIP3    H216923   3.255   0.298   4.909
 5662TIP3   OH216924   3.174   0.087   4.721
 5662TIP3    H116925   3.250   0.136   4.758
 5662TIP3    H216926   3.221   0.017   4.673
 5663TIP3   OH216927   4.122   0.551   5.589
 5663TIP3    H116928   4.039   0.603   5.592
 5663TIP3    H216929   4.152   0.572   5.498
 5664TIP3   OH216930   3.566   0.394   4.967
 5664TIP3    H116931   3.509   0.404   5.047
 5664TIP3    H216932   3.649   0.362   5.009
 5665TIP3   OH216933   3.798   0.428   5.890
 5665TIP3    H116934   3.793   0.510   5.942
 5665TIP3    H216935   3.711   0.431   5.846
 5666TIP3   OH216936   2.799   0.387   5.386
 5666TIP3    H116937   2.756   0.327   5.322
 5666TIP3    H216938   2.873   0.331   5.419
 5667TIP3   OH216939   2.928   0.797   5.538
 5667TIP3    H116940   2.905   0.756   5.453
 5667TIP3    H216941   3.017   0.760   5.555
 5668TIP3   OH216942   2.932   0.353   5.752
 5668TIP3    H116943   2.962   0.327   5.662
 5668TIP3    H216944   2.977   0.439   5.765
 5669TIP3   OH216945   3.461   0.993   5.519
 5669TIP3    H116946   3.446   1.075   5.571
 5669TIP3    H216947   3.445   0.923   5.585
 5670TIP3   OH216948   3.073   0.913   6.068
 5670TIP3    H116949   3.012   0.975   6.114
 5670TIP3    H216950   3.008   0.859   6.018
 5671TIP3   OH216951   3.405   0.242   4.798
 5671TIP3    H116952   3.464   0.304   4.847
 5671TIP3    H216953   3.431   0.263   4.705
 5672TIP3   OH216954   2.821   0.479   6.166
 5672TIP3    H116955   2.825   0.562   6.216
 5672TIP3    H216956   2.727   0.454   6.178
 5673TIP3   OH216957   3.149   0.920   5.073
 5673TIP3    H116958   3.213   0.990   5.094
 5673TIP3    H216959   3.078   0.969   5.029
 5674TIP3   OH216960   2.865   1.080   6.155
 5674TIP3    H116961   2.832   1.082   6.064
 5674TIP3    H216962   2.785   1.059   6.207
 5675TIP3   OH216963   2.663   0.228   5.194
 5675TIP3    H116964   2.595   0.273   5.140
 5675TIP3    H216965   2.623   0.141   5.205
 5676TIP3   OH216966   2.441   0.611   6.104
 5676TIP3    H116967   2.387   0.586   6.027
 5676TIP3    H216968   2.483   0.526   6.130
 5677TIP3   OH216969   2.299   0.802   5.748
 5677TIP3    H116970   2.393   0.802   5.725
 5677TIP3    H216971   2.288   0.891   5.785
 5678TIP3   OH216972   4.163   1.256   5.793
 5678TIP3    H116973   4.162   1.160   5.808
 5678TIP3    H216974   4.080   1.282   5.838
 5679TIP3   OH216975   3.269   1.042   5.925
 5679TIP3    H116976   3.266   1.134   5.958
 5679TIP3    H216977   3.197   1.001   5.979
 5680TIP3   OH216978   3.033   1.172   4.876
 5680TIP3    H116979   2.982   1.155   4.795
 5680TIP3    H216980   2.999   1.259   4.904
 5681TIP3   OH216981   2.470   1.018   5.260
 5681TIP3    H116982   2.514   1.009   5.347
 5681TIP3    H216983   2.411   0.941   5.260
 5682TIP3   OH216984   3.237   1.071   4.518
 5682TIP3    H116985   3.305   1.008   4.485
 5682TIP3    H216986   3.265   1.084   4.611
 5683TIP3   OH216987   3.282   1.120   4.789
 5683TIP3    H116988   3.190   1.133   4.823
 5683TIP3    H216989   3.326   1.085   4.867
 5684TIP3   OH216990   4.051   0.372   6.068
 5684TIP3    H116991   3.973   0.403   6.019
 5684TIP3    H216992   4.043   0.276   6.056
 5685TIP3   OH216993   2.648   0.794   6.090
 5685TIP3    H116994   2.700   0.776   6.171
 5685TIP3    H216995   2.574   0.731   6.099
 5686TIP3   OH216996   3.828   0.169   6.008
 5686TIP3    H116997   3.795   0.196   6.094
 5686TIP3    H216998   3.807   0.246   5.952
 5687TIP3   OH216999   3.487   0.296   4.548
 5687TIP3    H117000   3.442   0.269   4.465
 5687TIP3    H217001   3.566   0.340   4.513
 5688TIP3   OH217002   2.998   0.139   5.911
 5688TIP3    H117003   2.936   0.158   5.984
 5688TIP3    H217004   2.983   0.217   5.853
 5689TIP3   OH217005   2.861   0.023   5.414
 5689TIP3    H117006   2.767  -0.000   5.425
 5689TIP3    H217007   2.879  -0.009   5.322
 5690TIP3   OH217008   3.351   0.117   5.139
 5690TIP3    H117009   3.301   0.183   5.087
 5690TIP3    H217010   3.414   0.082   5.072
 5691TIP3   OH217011   3.538   0.414   6.211
 5691TIP3    H117012   3.513   0.332   6.260
 5691TIP3    H217013   3.633   0.419   6.233
 5692TIP3   OH217014   3.493   0.173   5.393
 5692TIP3    H117015   3.433   0.208   5.325
 5692TIP3    H217016   3.522   0.091   5.346
 5693TIP3   OH217017   2.798   0.167   6.102
 5693TIP3    H117018   2.825   0.226   6.174
 5693TIP3    H217019   2.783   0.083   6.148
 5694TIP3   OH217020   2.435  -0.222   5.236
 5694TIP3    H117021   2.445  -0.231   5.140
 5694TIP3    H217022   2.340  -0.199   5.241
 5695TIP3   OH217023   3.516   0.386   5.795
 5695TIP3    H117024   3.555   0.314   5.739
 5695TIP3    H217025   3.494   0.333   5.874
 5696TIP3   OH217026   2.611  -0.104   5.459
 5696TIP3    H117027   2.518  -0.073   5.444
 5696TIP3    H217028   2.608  -0.185   5.407
 5697TIP3   OH217029   2.908  -0.080   5.166
 5697TIP3    H117030   2.997  -0.098   5.131
 5697TIP3    H217031   2.850  -0.091   5.087
 5698TIP3   OH217032   2.740  -0.100   4.942
 5698TIP3    H117033   2.664  -0.116   4.882
 5698TIP3    H217034   2.799  -0.053   4.879
 5699TIP3   OH217035   3.856   1.606   5.890
 5699TIP3    H117036   3.854   1.632   5.796
 5699TIP3    H217037   3.935   1.654   5.921
 5700TIP3   OH217038   2.810   0.720   6.311
 5700TIP3    H117039   2.891   0.747   6.358
 5700TIP3    H217040   2.747   0.716   6.385
 5701TIP3   OH217041   3.263   0.175   5.566
 5701TIP3    H117042   3.346   0.141   5.530
 5701TIP3    H217043   3.266   0.141   5.659
 5702TIP3   OH217044   3.272   0.104   5.827
 5702TIP3    H117045   3.183   0.093   5.865
 5702TIP3    H217046   3.322   0.144   5.900
 5703TIP3   OH217047   2.988   0.457   4.952
 5703TIP3    H117048   2.916   0.392   4.939
 5703TIP3    H217049   2.967   0.491   5.043
 5704TIP3   OH217050   3.888   0.696   5.577
 5704TIP3    H117051   3.914   0.745   5.495
 5704TIP3    H217052   3.803   0.654   5.550
 5705TIP3   OH217053   3.419  -0.158   4.771
 5705TIP3    H117054   3.360  -0.212   4.827
 5705TIP3    H217055   3.456  -0.097   4.838
 5706TIP3   OH217056   3.386   0.777   5.945
 5706TIP3    H117057   3.413   0.753   6.034
 5706TIP3    H217058   3.348   0.866   5.956
 5707TIP3   OH217059   3.522   0.032   4.937
 5707TIP3    H117060   3.620   0.040   4.943
 5707TIP3    H217061   3.499   0.105   4.876
 5708TIP3   OH217062   2.684   0.482   5.624
 5708TIP3    H117063   2.720   0.453   5.538
 5708TIP3    H217064   2.724   0.416   5.684
 5709TIP3   OH217065   3.139   0.610   4.783
 5709TIP3    H117066   3.088   0.695   4.781
 5709TIP3    H217067   3.079   0.554   4.836
 5710TIP3   OH217068   2.561   0.404   6.243
 5710TIP3    H117069   2.587   0.387   6.336
 5710TIP3    H217070   2.494   0.335   6.227
 5711TIP3   OH217071   3.287   0.518   6.262
 5711TIP3    H117072   3.226   0.463   6.210
 5711TIP3    H217073   3.374   0.488   6.230
 5712TIP3   OH217074   3.546   1.035   5.844
 5712TIP3    H117075   3.450   1.034   5.858
 5712TIP3    H217076   3.575   1.087   5.921
 5713TIP3   OH217077   3.954   0.106   4.739
 5713TIP3    H117078   3.892   0.058   4.680
 5713TIP3    H217079   3.943   0.196   4.701
 5714TIP3   OH217080   4.176   0.966   5.834
 5714TIP3    H117081   4.078   0.960   5.825
 5714TIP3    H217082   4.202   0.936   5.743
 5715TIP3   OH217083   3.662   0.906   4.683
 5715TIP3    H117084   3.640   0.815   4.704
 5715TIP3    H217085   3.656   0.907   4.587
 5716TIP3   OH217086   3.652   0.560   5.489
 5716TIP3    H117087   3.561   0.532   5.508
 5716TIP3    H217088   3.689   0.478   5.450
 5717TIP3   OH217089   2.781   0.784   5.248
 5717TIP3    H117090   2.775   0.866   5.196
 5717TIP3    H217091   2.687   0.765   5.263
 5718TIP3   OH217092   2.343   0.088   4.958
 5718TIP3    H117093   2.388   0.173   4.978
 5718TIP3    H217094   2.265   0.093   5.018
 5719TIP3   OH217095   2.924   0.552   5.197
 5719TIP3    H117096   2.883   0.639   5.214
 5719TIP3    H217097   2.885   0.499   5.269
 5720TIP3   OH217098   3.052   1.127   5.720
 5720TIP3    H117099   3.092   1.200   5.670
 5720TIP3    H217100   3.128   1.092   5.768
 5721TIP3   OH217101   2.703   1.021   5.105
 5721TIP3    H117102   2.616   1.031   5.149
 5721TIP3    H217103   2.735   1.114   5.107
 5722TIP3   OH217104   3.438   0.760   5.678
 5722TIP3    H117105   3.425   0.761   5.776
 5722TIP3    H217106   3.520   0.710   5.671
 5723TIP3   OH217107   3.407   0.663   4.564
 5723TIP3    H117108   3.452   0.634   4.644
 5723TIP3    H217109   3.318   0.626   4.577
 5724TIP3   OH217110   3.687   1.293   5.727
 5724TIP3    H117111   3.606   1.238   5.721
 5724TIP3    H217112   3.672   1.358   5.655
 5725TIP3   OH217113   3.735   1.099   4.383
 5725TIP3    H117114   3.789   1.158   4.325
 5725TIP3    H217115   3.664   1.163   4.408
 5726TIP3   OH217116   3.591   0.616   4.814
 5726TIP3    H117117   3.575   0.525   4.849
 5726TIP3    H217118   3.683   0.603   4.782
 5727TIP3   OH217119   2.491   0.992   5.880
 5727TIP3    H117120   2.544   0.916   5.911
 5727TIP3    H217121   2.525   1.063   5.936
 5728TIP3   OH217122   2.784   0.632   4.561
 5728TIP3    H117123   2.790   0.538   4.534
 5728TIP3    H217124   2.761   0.623   4.656
 5729TIP3   OH217125   2.727   0.640   4.830
 5729TIP3    H117126   2.791   0.614   4.897
 5729TIP3    H217127   2.727   0.738   4.839
 5730TIP3   OH217128   2.460   0.334   5.038
 5730TIP3    H117129   2.392   0.378   5.095
 5730TIP3    H217130   2.470   0.403   4.969
 5731TIP3   OH217131   2.995   0.840   4.784
 5731TIP3    H117132   2.905   0.860   4.819
 5731TIP3    H217133   3.005   0.913   4.722
 5732TIP3   OH217134   3.198  -0.111   5.157
 5732TIP3    H117135   3.248  -0.026   5.159
 5732TIP3    H217136   3.197  -0.136   5.250
 5733TIP3   OH217137   3.464   0.223   6.007
 5733TIP3    H117138   3.458   0.282   6.085
 5733TIP3    H217139   3.511   0.148   6.045
 5734TIP3   OH217140   2.739   0.911   4.852
 5734TIP3    H117141   2.707   0.980   4.789
 5734TIP3    H217142   2.719   0.955   4.938
 5735TIP3   OH217143   3.740   0.318   5.373
 5735TIP3    H117144   3.662   0.264   5.395
 5735TIP3    H217145   3.812   0.271   5.422
 5736TIP3   OH217146   2.452   0.538   4.843
 5736TIP3    H117147   2.513   0.613   4.848
 5736TIP3    H217148   2.498   0.484   4.775
 5737TIP3   OH217149   2.396  -0.184   4.954
 5737TIP3    H117150   2.386  -0.086   4.956
 5737TIP3    H217151   2.304  -0.213   4.959
 5738TIP3   OH217152   3.708   1.263   5.318
 5738TIP3    H117153   3.667   1.314   5.244
 5738TIP3    H217154   3.803   1.286   5.301
 5739TIP3   OH217155   2.319   0.756   5.228
 5739TIP3    H117156   2.250   0.786   5.289
 5739TIP3    H217157   2.288   0.798   5.144
 5740TIP3   OH217158   2.482   1.301   6.304
 5740TIP3    H117159   2.569   1.297   6.349
 5740TIP3    H217160   2.460   1.206   6.298
 5741TIP3   OH217161   2.957   1.260   6.347
 5741TIP3    H117162   3.052   1.242   6.353
 5741TIP3    H217163   2.932   1.200   6.274
 5742TIP3   OH217164   2.942   0.836   4.473
 5742TIP3    H117165   2.882   0.768   4.512
 5742TIP3    H217166   3.014   0.779   4.442
 5743TIP3   OH217167   3.599   1.169   6.079
 5743TIP3    H117168   3.591   1.100   6.149
 5743TIP3    H217169   3.677   1.220   6.109
 5744TIP3   OH217170   3.398   0.880   4.399
 5744TIP3    H117171   3.413   0.795   4.446
 5744TIP3    H217172   3.424   0.861   4.307
 5745TIP3   OH217173   2.611   0.707   6.503
 5745TIP3    H117174   2.627   0.611   6.511
 5745TIP3    H217175   2.523   0.709   6.459
 5746TIP3   OH217176   2.589   0.355   4.694
 5746TIP3    H117177   2.642   0.322   4.768
 5746TIP3    H217178   2.657   0.359   4.624
 5747TIP3   OH217179   3.216   0.791   6.276
 5747TIP3    H117180   3.176   0.808   6.189
 5747TIP3    H217181   3.246   0.698   6.268
 5748TIP3   OH217182   3.111   0.559   4.507
 5748TIP3    H117183   3.100   0.568   4.603
 5748TIP3    H217184   3.110   0.461   4.499
 5749TIP3   OH217185   3.708   0.800   5.881
 5749TIP3    H117186   3.785   0.844   5.838
 5749TIP3    H217187   3.640   0.868   5.867
 5750TIP3   OH217188   2.734   0.442   6.482
 5750TIP3    H117189   2.813   0.389   6.463
 5750TIP3    H217190   2.755   0.472   6.573
 5751TIP3   OH217191   2.798   0.261   4.920
 5751TIP3    H117192   2.768   0.220   5.003
 5751TIP3    H217193   2.832   0.184   4.870
 5752TIP3   OH217194   3.063   0.352   6.144
 5752TIP3    H117195   2.980   0.405   6.139
 5752TIP3    H217196   3.110   0.379   6.062
 5753TIP3   OH217197   2.894   0.053   4.764
 5753TIP3    H117198   2.866   0.057   4.670
 5753TIP3    H217199   2.991   0.055   4.754
 5754TIP3   OH217200   3.586   0.729   6.280
 5754TIP3    H117201   3.658   0.694   6.226
 5754TIP3    H217202   3.573   0.657   6.344
 5755TIP3   OH217203   3.714   0.391   4.420
 5755TIP3    H117204   3.688   0.338   4.342
 5755TIP3    H217205   3.740   0.474   4.377
 5756TIP3   OH217206   3.151   0.131   6.266
 5756TIP3    H117207   3.102   0.071   6.207
 5756TIP3    H217208   3.125   0.218   6.226
 5757TIP3   OH217209   3.226   0.441   5.949
 5757TIP3    H117210   3.306   0.443   5.896
 5757TIP3    H217211   3.168   0.504   5.902
 5758TIP3   OH217212   3.791   0.404   6.311
 5758TIP3    H117213   3.824   0.347   6.384
 5758TIP3    H217214   3.871   0.452   6.286
 5759TIP3   OH217215   3.840   0.656   6.067
 5759TIP3    H117216   3.782   0.709   6.009
 5759TIP3    H217217   3.928   0.679   6.028
 5760TIP3   OH217218   3.034   0.258   6.494
 5760TIP3    H117219   2.992   0.183   6.537
 5760TIP3    H217220   3.091   0.215   6.428
 5761TIP3   OH217221   3.431   0.187   6.301
 5761TIP3    H117222   3.457   0.156   6.391
 5761TIP3    H217223   3.335   0.171   6.304
 5762TIP3   OH217224   2.704   1.111   4.664
 5762TIP3    H117225   2.799   1.110   4.642
 5762TIP3    H217226   2.671   1.163   4.588
 5763TIP3   OH217227   2.183   0.497   4.880
 5763TIP3    H117228   2.278   0.517   4.865
 5763TIP3    H217229   2.176   0.409   4.837
 5764TIP3   OH217230   2.102   1.109   5.289
 5764TIP3    H117231   2.032   1.050   5.252
 5764TIP3    H217232   2.143   1.050   5.354
 5765TIP3   OH217233   2.237   0.959   5.476
 5765TIP3    H117234   2.212   0.890   5.539
 5765TIP3    H217235   2.290   1.018   5.532
 5766TIP3   OH217236   3.960   1.359   5.282
 5766TIP3    H117237   3.987   1.395   5.368
 5766TIP3    H217238   4.022   1.402   5.221
 5767TIP3   OH217239   3.988   1.380   5.564
 5767TIP3    H117240   3.948   1.291   5.560
 5767TIP3    H217241   4.067   1.361   5.616
 5768TIP3   OH217242   4.037   1.056   6.137
 5768TIP3    H117243   3.965   1.067   6.201
 5768TIP3    H217244   4.080   1.145   6.140
 5769TIP3   OH217245   3.854   0.576   4.752
 5769TIP3    H117246   3.924   0.637   4.721
 5769TIP3    H217247   3.899   0.535   4.830
 5770TIP3   OH217248   3.974   0.446   4.955
 5770TIP3    H117249   3.915   0.402   5.020
 5770TIP3    H217250   4.047   0.479   5.013
 5771TIP3   OH217251   4.029   0.828   5.382
 5771TIP3    H117252   4.089   0.763   5.341
 5771TIP3    H217253   4.036   0.904   5.321
 5772TIP3   OH217254   3.863   1.127   5.584
 5772TIP3    H117255   3.793   1.172   5.635
 5772TIP3    H217256   3.813   1.084   5.512
 5773TIP3   OH217257   3.912   0.345   4.607
 5773TIP3    H117258   3.839   0.351   4.541
 5773TIP3    H217259   3.890   0.422   4.663
 5774TIP3   OH217260   3.777   0.009   4.550
 5774TIP3    H117261   3.761   0.069   4.477
 5774TIP3    H217262   3.744  -0.075   4.513
 5775TIP3   OH217263   3.788   0.307   5.101
 5775TIP3    H117264   3.797   0.212   5.077
 5775TIP3    H217265   3.780   0.304   5.199
 5776TIP3   OH217266   2.417   0.372   5.856
 5776TIP3    H117267   2.415   0.340   5.763
 5776TIP3    H217268   2.514   0.372   5.871
 5777TIP3   OH217269   4.084   0.721   5.960
 5777TIP3    H117270   4.156   0.654   5.952
 5777TIP3    H217271   4.112   0.789   5.898
 5778TIP3   OH217272   4.264   0.521   5.981
 5778TIP3    H117273   4.191   0.465   6.016
 5778TIP3    H217274   4.340   0.461   5.997
 5779TIP3   OH217275   3.794   0.057   4.970
 5779TIP3    H117276   3.820  -0.022   5.024
 5779TIP3    H217277   3.859   0.055   4.897
 5780TIP3   OH217278   3.947   0.193   5.499
 5780TIP3    H117279   4.034   0.215   5.458
 5780TIP3    H217280   3.965   0.225   5.590
 5781TIP3   OH217281   4.015   0.338   5.728
 5781TIP3    H117282   3.937   0.373   5.775
 5781TIP3    H217283   4.049   0.417   5.681
 5782TIP3   OH217284   2.637   0.050   6.521
 5782TIP3    H117285   2.733   0.036   6.515
 5782TIP3    H217286   2.607  -0.037   6.555
 5783TIP3   OH217287   2.393   0.023   5.925
 5783TIP3    H117288   2.441   0.020   5.839
 5783TIP3    H217289   2.437   0.097   5.969
 5784TIP3   OH217290   3.555   1.218   4.943
 5784TIP3    H117291   3.604   1.219   4.858
 5784TIP3    H217292   3.595   1.294   4.988
 5785TIP3   OH217293   2.643   1.037   6.321
 5785TIP3    H117294   2.553   1.005   6.302
 5785TIP3    H217295   2.655   1.010   6.413
 5786TIP3   OH217296   2.825   1.066   5.870
 5786TIP3    H117297   2.777   1.142   5.829
 5786TIP3    H217298   2.911   1.078   5.824
 5787TIP3   OH217299   3.267   1.308   6.007
 5787TIP3    H117300   3.310   1.308   6.095
 5787TIP3    H217301   3.334   1.359   5.955
 5788TIP3   OH217302   3.448   1.459   5.868
 5788TIP3    H117303   3.520   1.411   5.826
 5788TIP3    H217304   3.499   1.518   5.928
 5789TIP3   OH217305   2.500   1.319   5.893
 5789TIP3    H117306   2.411   1.351   5.867
 5789TIP3    H217307   2.505   1.358   5.982
 5790TIP3   OH217308   2.737   1.299   5.751
 5790TIP3    H117309   2.649   1.312   5.795
 5790TIP3    H217310   2.718   1.332   5.661
 5791TIP3   OH217311   3.163   1.327   5.547
 5791TIP3    H117312   3.091   1.345   5.484
 5791TIP3    H217313   3.175   1.415   5.589
 5792TIP3   OH217314   3.432   1.264   5.597
 5792TIP3    H117315   3.338   1.285   5.581
 5792TIP3    H217316   3.477   1.341   5.558
 5793TIP3   OH217317   3.633   1.455   5.513
 5793TIP3    H117318   3.622   1.542   5.469
 5793TIP3    H217319   3.663   1.399   5.438
 5794TIP3   OH217320   2.411   1.112   5.636
 5794TIP3    H117321   2.437   1.089   5.727
 5794TIP3    H217322   2.485   1.070   5.586
 5795TIP3   OH217323   2.607   0.985   5.496
 5795TIP3    H117324   2.623   0.902   5.546
 5795TIP3    H217325   2.697   1.022   5.490
 5796TIP3   OH217326   2.873   1.078   5.500
 5796TIP3    H117327   2.903   0.985   5.491
 5796TIP3    H217328   2.919   1.102   5.582
 5797TIP3   OH217329   2.201   0.888   5.025
 5797TIP3    H117330   2.114   0.856   4.995
 5797TIP3    H217331   2.191   0.982   5.002
 5798TIP3   OH217332   2.973   1.071   4.611
 5798TIP3    H117333   3.059   1.097   4.572
 5798TIP3    H217334   2.949   0.998   4.550
 5799TIP3   OH217335   3.688   1.191   4.705
 5799TIP3    H117336   3.677   1.095   4.697
 5799TIP3    H217337   3.646   1.224   4.623
 5800TIP3   OH217338   2.274   0.910   4.665
 5800TIP3    H117339   2.270   0.938   4.757
 5800TIP3    H217340   2.363   0.869   4.658
 5801TIP3   OH217341   3.915   1.337   5.892
 5801TIP3    H117342   3.837   1.307   5.841
 5801TIP3    H217343   3.898   1.433   5.896
 5802TIP3   OH217344   5.183   0.708   4.658
 5802TIP3    H117345   5.156   0.799   4.638
 5802TIP3    H217346   5.108   0.659   4.619
 5803TIP3   OH217347   5.181   0.711   5.041
 5803TIP3    H117348   5.214   0.686   5.129
 5803TIP3    H217349   5.142   0.629   5.009
 5804TIP3   OH217350   4.476   0.607   5.407
 5804TIP3    H117351   4.509   0.536   5.466
 5804TIP3    H217352   4.560   0.653   5.388
 5805TIP3   OH217353   5.426   1.016   4.720
 5805TIP3    H117354   5.413   0.945   4.784
 5805TIP3    H217355   5.457   1.089   4.776
 5806TIP3   OH217356   4.453   1.012   5.125
 5806TIP3    H117357   4.446   0.914   5.128
 5806TIP3    H217358   4.549   1.023   5.120
 5807TIP3   OH217359   4.146   0.225   4.928
 5807TIP3    H117360   4.093   0.306   4.932
 5807TIP3    H217361   4.092   0.169   4.870
 5808TIP3   OH217362   4.210   0.512   5.079
 5808TIP3    H117363   4.251   0.429   5.114
 5808TIP3    H217364   4.283   0.549   5.027
 5809TIP3   OH217365   5.076   1.473   4.737
 5809TIP3    H117366   5.120   1.400   4.689
 5809TIP3    H217367   5.069   1.437   4.826
 5810TIP3   OH217368   4.981   0.936   5.088
 5810TIP3    H117369   5.021   0.858   5.045
 5810TIP3    H217370   5.063   0.983   5.112
 5811TIP3   OH217371   5.398   0.437   5.133
 5811TIP3    H117372   5.422   0.347   5.159
 5811TIP3    H217373   5.361   0.425   5.043
 5812TIP3   OH217374   4.712   0.059   5.063
 5812TIP3    H117375   4.688   0.146   5.024
 5812TIP3    H217376   4.642   0.002   5.029
 5813TIP3   OH217377   5.387   0.211   4.756
 5813TIP3    H117378   5.447   0.164   4.818
 5813TIP3    H217379   5.443   0.211   4.677
 5814TIP3   OH217380   4.340   0.298   5.181
 5814TIP3    H117381   4.431   0.301   5.218
 5814TIP3    H217382   4.357   0.238   5.106
 5815TIP3   OH217383   4.801   0.498   4.989
 5815TIP3    H117384   4.896   0.473   5.003
 5815TIP3    H217385   4.764   0.412   4.962
 5816TIP3   OH217386   6.029   0.445   5.286
 5816TIP3    H117387   5.958   0.501   5.249
 5816TIP3    H217388   6.093   0.509   5.318
 5817TIP3   OH217389   5.076   0.932   4.525
 5817TIP3    H117390   5.032   0.912   4.441
 5817TIP3    H217391   5.030   1.014   4.551
 5818TIP3   OH217392   4.835   0.855   5.311
 5818TIP3    H117393   4.775   0.923   5.348
 5818TIP3    H217394   4.878   0.904   5.238
 5819TIP3   OH217395   4.594   0.267   5.253
 5819TIP3    H117396   4.667   0.305   5.305
 5819TIP3    H217397   4.626   0.175   5.244
 5820TIP3   OH217398   4.663   1.051   5.410
 5820TIP3    H117399   4.638   1.138   5.373
 5820TIP3    H217400   4.584   1.034   5.466
 5821TIP3   OH217401   4.053   0.742   4.646
 5821TIP3    H117402   4.022   0.786   4.566
 5821TIP3    H217403   4.089   0.819   4.695
 5822TIP3   OH217404   5.495   1.256   4.885
 5822TIP3    H117405   5.406   1.247   4.925
 5822TIP3    H217406   5.487   1.343   4.842
 5823TIP3   OH217407   5.196   1.300   4.558
 5823TIP3    H117408   5.247   1.217   4.540
 5823TIP3    H217409   5.257   1.365   4.518
 5824TIP3   OH217410   5.343   1.086   4.467
 5824TIP3    H117411   5.300   1.006   4.434
 5824TIP3    H217412   5.380   1.054   4.552
 5825TIP3   OH217413   5.721   1.167   5.231
 5825TIP3    H117414   5.710   1.090   5.171
 5825TIP3    H217415   5.704   1.242   5.170
 5826TIP3   OH217416   5.014   0.568   4.487
 5826TIP3    H117417   4.933   0.617   4.462
 5826TIP3    H217418   5.058   0.557   4.400
 5827TIP3   OH217419   4.967   0.346   4.213
 5827TIP3    H117420   5.040   0.396   4.253
 5827TIP3    H217421   5.018   0.287   4.154
 5828TIP3   OH217422   5.919   0.809   5.076
 5828TIP3    H117423   5.835   0.860   5.079
 5828TIP3    H217424   5.948   0.830   4.985
 5829TIP3   OH217425   5.360   0.647   4.457
 5829TIP3    H117426   5.307   0.668   4.537
 5829TIP3    H217427   5.445   0.623   4.499
 5830TIP3   OH217428   5.595   0.684   5.377
 5830TIP3    H117429   5.590   0.766   5.430
 5830TIP3    H217430   5.508   0.687   5.332
 5831TIP3   OH217431   4.594   0.643   4.877
 5831TIP3    H117432   4.554   0.583   4.811
 5831TIP3    H217433   4.671   0.589   4.909
 5832TIP3   OH217434   4.723   1.051   5.026
 5832TIP3    H117435   4.705   1.014   4.938
 5832TIP3    H217436   4.813   1.017   5.045
 5833TIP3   OH217437   4.724   0.612   5.236
 5833TIP3    H117438   4.758   0.583   5.149
 5833TIP3    H217439   4.773   0.696   5.251
 5834TIP3   OH217440   5.255   1.251   5.007
 5834TIP3    H117441   5.242   1.331   5.060
 5834TIP3    H217442   5.239   1.178   5.071
 5835TIP3   OH217443   4.869   1.169   5.555
 5835TIP3    H117444   4.808   1.231   5.601
 5835TIP3    H217445   4.805   1.116   5.505
 5836TIP3   OH217446   5.199   0.502   4.287
 5836TIP3    H117447   5.258   0.563   4.336
 5836TIP3    H217448   5.226   0.522   4.194
 5837TIP3   OH217449   4.617   0.735   5.654
 5837TIP3    H117450   4.620   0.820   5.702
 5837TIP3    H217451   4.523   0.711   5.665
 5838TIP3   OH217452   4.946   1.179   4.560
 5838TIP3    H117453   5.027   1.232   4.574
 5838TIP3    H217454   4.885   1.244   4.522
 5839TIP3   OH217455   4.662   1.336   5.641
 5839TIP3    H117456   4.627   1.338   5.550
 5839TIP3    H217457   4.582   1.315   5.694
 5840TIP3   OH217458   4.459   0.484   4.685
 5840TIP3    H117459   4.392   0.524   4.626
 5840TIP3    H217460   4.427   0.393   4.691
 5841TIP3   OH217461   5.519   1.108   3.882
 5841TIP3    H117462   5.529   1.204   3.871
 5841TIP3    H217463   5.611   1.076   3.870
 5842TIP3   OH217464   4.239   0.868   5.590
 5842TIP3    H117465   4.179   0.842   5.518
 5842TIP3    H217466   4.281   0.783   5.615
 5843TIP3   OH217467   4.096   1.059   5.223
 5843TIP3    H117468   4.192   1.053   5.211
 5843TIP3    H217469   4.089   1.139   5.277
 5844TIP3   OH217470   5.959   1.513   5.277
 5844TIP3    H117471   5.958   1.417   5.293
 5844TIP3    H217472   5.876   1.539   5.324
 5845TIP3   OH217473   5.065   1.298   5.412
 5845TIP3    H117474   5.063   1.391   5.445
 5845TIP3    H217475   4.994   1.258   5.466
 5846TIP3   OH217476   4.830   1.428   4.362
 5846TIP3    H117477   4.777   1.411   4.282
 5846TIP3    H217478   4.795   1.514   4.393
 5847TIP3   OH217479   4.262   1.275   4.751
 5847TIP3    H117480   4.317   1.268   4.831
 5847TIP3    H217481   4.196   1.206   4.769
 5848TIP3   OH217482   5.032   1.332   4.001
 5848TIP3    H117483   5.089   1.258   3.968
 5848TIP3    H217484   5.061   1.338   4.095
 5849TIP3   OH217485   5.079   1.376   4.271
 5849TIP3    H117486   4.990   1.387   4.311
 5849TIP3    H217487   5.128   1.337   4.346
 5850TIP3   OH217488   5.847   0.630   5.555
 5850TIP3    H117489   5.770   0.659   5.504
 5850TIP3    H217490   5.843   0.534   5.542
 5851TIP3   OH217491   4.445   1.052   5.575
 5851TIP3    H117492   4.495   1.036   5.657
 5851TIP3    H217493   4.371   0.987   5.584
 5852TIP3   OH217494   5.615   0.423   5.495
 5852TIP3    H117495   5.595   0.456   5.583
 5852TIP3    H217496   5.601   0.501   5.438
 5853TIP3   OH217497   5.281   0.552   4.035
 5853TIP3    H117498   5.242   0.525   3.950
 5853TIP3    H217499   5.363   0.595   4.006
 5854TIP3   OH217500   4.793   0.397   5.396
 5854TIP3    H117501   4.732   0.416   5.470
 5854TIP3    H217502   4.778   0.475   5.338
 5855TIP3   OH217503   4.660   0.276   4.902
 5855TIP3    H117504   4.565   0.257   4.911
 5855TIP3    H217505   4.677   0.246   4.810
 5856TIP3   OH217506   5.144   0.367   4.622
 5856TIP3    H117507   5.098   0.439   4.575
 5856TIP3    H217508   5.210   0.338   4.556
 5857TIP3   OH217509   5.334   0.668   5.695
 5857TIP3    H117510   5.310   0.587   5.746
 5857TIP3    H217511   5.429   0.676   5.719
 5858TIP3   OH217512   5.289   0.429   4.880
 5858TIP3    H117513   5.234   0.472   4.812
 5858TIP3    H217514   5.313   0.347   4.831
 5859TIP3   OH217515   4.593   0.425   5.589
 5859TIP3    H117516   4.626   0.484   5.658
 5859TIP3    H217517   4.582   0.340   5.636
 5860TIP3   OH217518   4.227   0.034   4.727
 5860TIP3    H117519   4.247   0.031   4.632
 5860TIP3    H217520   4.131   0.048   4.724
 5861TIP3   OH217521   5.312   0.641   5.284
 5861TIP3    H117522   5.350   0.570   5.227
 5861TIP3    H217523   5.289   0.588   5.362
 5862TIP3   OH217524   4.408   0.157   4.946
 5862TIP3    H117525   4.315   0.185   4.929
 5862TIP3    H217526   4.408   0.071   4.902
 5863TIP3   OH217527   4.700   0.176   4.653
 5863TIP3    H117528   4.793   0.160   4.626
 5863TIP3    H217529   4.651   0.163   4.569
 5864TIP3   OH217530   4.531   0.160   4.425
 5864TIP3    H117531   4.459   0.141   4.363
 5864TIP3    H217532   4.593   0.205   4.364
 5865TIP3   OH217533   5.652   1.862   5.378
 5865TIP3    H117534   5.649   1.888   5.284
 5865TIP3    H217535   5.731   1.910   5.409
 5866TIP3   OH217536   4.606   0.975   5.799
 5866TIP3    H117537   4.688   1.003   5.844
 5866TIP3    H217538   4.543   0.976   5.873
 5867TIP3   OH217539   5.058   0.427   5.053
 5867TIP3    H117540   5.143   0.400   5.014
 5867TIP3    H217541   5.065   0.393   5.145
 5868TIP3   OH217542   5.068   0.357   5.315
 5868TIP3    H117543   4.978   0.351   5.353
 5868TIP3    H217544   5.119   0.398   5.387
 5869TIP3   OH217545   4.781   0.715   4.434
 5869TIP3    H117546   4.708   0.649   4.424
 5869TIP3    H217547   4.764   0.748   4.525
 5870TIP3   OH217548   5.684   0.951   5.065
 5870TIP3    H117549   5.708   1.001   4.984
 5870TIP3    H217550   5.599   0.908   5.039
 5871TIP3   OH217551   5.219   0.089   4.259
 5871TIP3    H117552   5.161   0.041   4.322
 5871TIP3    H217553   5.255   0.158   4.319
 5872TIP3   OH217554   5.180   1.031   5.434
 5872TIP3    H117555   5.213   1.013   5.523
 5872TIP3    H217556   5.145   1.122   5.442
 5873TIP3   OH217557   5.317   0.288   4.420
 5873TIP3    H117558   5.415   0.298   4.427
 5873TIP3    H217559   5.293   0.364   4.363
 5874TIP3   OH217560   4.473   0.730   5.111
 5874TIP3    H117561   4.514   0.706   5.025
 5874TIP3    H217562   4.526   0.676   5.172
 5875TIP3   OH217563   4.928   0.864   4.257
 5875TIP3    H117564   4.880   0.950   4.263
 5875TIP3    H217565   4.875   0.809   4.318
 5876TIP3   OH217566   4.356   0.660   5.730
 5876TIP3    H117567   4.381   0.644   5.823
 5876TIP3    H217568   4.290   0.591   5.713
 5877TIP3   OH217569   5.084   0.773   5.750
 5877TIP3    H117570   5.025   0.719   5.694
 5877TIP3    H217571   5.172   0.745   5.717
 5878TIP3   OH217572   5.342   1.290   5.332
 5878TIP3    H117573   5.246   1.291   5.344
 5878TIP3    H217574   5.371   1.343   5.409
 5879TIP3   OH217575   5.752   0.364   4.227
 5879TIP3    H117576   5.690   0.315   4.168
 5879TIP3    H217577   5.739   0.454   4.190
 5880TIP3   OH217578   5.972   1.223   5.319
 5880TIP3    H117579   5.874   1.217   5.310
 5880TIP3    H217580   5.998   1.193   5.229
 5881TIP3   OH217581   5.455   1.185   4.149
 5881TIP3    H117582   5.427   1.120   4.215
 5881TIP3    H217583   5.465   1.131   4.068
 5882TIP3   OH217584   5.449   0.815   4.982
 5882TIP3    H117585   5.356   0.789   4.996
 5882TIP3    H217586   5.485   0.736   4.938
 5883TIP3   OH217587   4.580   1.041   4.738
 5883TIP3    H117588   4.580   1.123   4.683
 5883TIP3    H217589   4.485   1.028   4.751
 5884TIP3   OH217590   4.137   0.345   4.443
 5884TIP3    H117591   4.188   0.426   4.465
 5884TIP3    H217592   4.064   0.350   4.508
 5885TIP3   OH217593   4.711   0.804   4.678
 5885TIP3    H117594   4.678   0.894   4.699
 5885TIP3    H217595   4.679   0.754   4.756
 5886TIP3   OH217596   4.847   1.383   5.206
 5886TIP3    H117597   4.889   1.456   5.156
 5886TIP3    H217598   4.924   1.348   5.254
 5887TIP3   OH217599   4.498   1.279   4.591
 5887TIP3    H117600   4.411   1.290   4.634
 5887TIP3    H217601   4.532   1.371   4.593
 5888TIP3   OH217602   5.233   1.018   5.166
 5888TIP3    H117603   5.222   1.016   5.264
 5888TIP3    H217604   5.313   0.966   5.154
 5889TIP3   OH217605   5.211   0.915   4.049
 5889TIP3    H117606   5.266   0.889   4.126
 5889TIP3    H217607   5.124   0.883   4.077
 5890TIP3   OH217608   5.483   1.549   5.215
 5890TIP3    H117609   5.402   1.495   5.208
 5890TIP3    H217610   5.468   1.615   5.144
 5891TIP3   OH217611   5.547   1.390   3.866
 5891TIP3    H117612   5.549   1.433   3.780
 5891TIP3    H217613   5.467   1.432   3.905
 5892TIP3   OH217614   5.372   0.845   4.261
 5892TIP3    H117615   5.359   0.779   4.333
 5892TIP3    H217616   5.469   0.841   4.252
 5893TIP3   OH217617   4.283   1.244   5.366
 5893TIP3    H117618   4.341   1.175   5.403
 5893TIP3    H217619   4.312   1.322   5.417
 5894TIP3   OH217620   4.573   0.891   4.049
 5894TIP3    H117621   4.591   0.798   4.024
 5894TIP3    H217622   4.555   0.880   4.145
 5895TIP3   OH217623   4.518   0.894   4.321
 5895TIP3    H117624   4.593   0.869   4.376
 5895TIP3    H217625   4.520   0.992   4.328
 5896TIP3   OH217626   4.252   0.586   4.525
 5896TIP3    H117627   4.192   0.636   4.584
 5896TIP3    H217628   4.271   0.654   4.458
 5897TIP3   OH217629   4.786   1.094   4.267
 5897TIP3    H117630   4.698   1.117   4.305
 5897TIP3    H217631   4.801   1.173   4.212
 5898TIP3   OH217632   4.984   0.148   4.647
 5898TIP3    H117633   5.037   0.230   4.640
 5898TIP3    H217634   5.005   0.120   4.737
 5899TIP3   OH217635   5.256   0.478   5.494
 5899TIP3    H117636   5.255   0.537   5.572
 5899TIP3    H217637   5.311   0.406   5.527
 5900TIP3   OH217638   4.530   1.166   4.339
 5900TIP3    H117639   4.501   1.235   4.275
 5900TIP3    H217640   4.515   1.211   4.424
 5901TIP3   OH217641   5.536   0.574   4.861
 5901TIP3    H117642   5.458   0.521   4.881
 5901TIP3    H217643   5.608   0.527   4.909
 5902TIP3   OH217644   4.232   0.797   4.326
 5902TIP3    H117645   4.291   0.874   4.337
 5902TIP3    H217646   4.288   0.742   4.267
 5903TIP3   OH217647   4.193   0.074   4.454
 5903TIP3    H117648   4.184   0.171   4.445
 5903TIP3    H217649   4.106   0.041   4.430
 5904TIP3   OH217650   5.504   1.527   4.807
 5904TIP3    H117651   5.461   1.571   4.730
 5904TIP3    H217652   5.598   1.547   4.787
 5905TIP3   OH217653   4.116   0.997   4.720
 5905TIP3    H117654   4.048   1.040   4.773
 5905TIP3    H217655   4.104   1.044   4.635
 5906TIP3   OH217656   4.277   1.558   5.791
 5906TIP3    H117657   4.364   1.560   5.837
 5906TIP3    H217658   4.261   1.462   5.787
 5907TIP3   OH217659   4.753   1.516   5.835
 5907TIP3    H117660   4.849   1.503   5.841
 5907TIP3    H217661   4.731   1.456   5.761
 5908TIP3   OH217662   4.738   1.092   3.958
 5908TIP3    H117663   4.679   1.025   3.999
 5908TIP3    H217664   4.813   1.037   3.932
 5909TIP3   OH217665   5.396   1.426   5.566
 5909TIP3    H117666   5.388   1.356   5.636
 5909TIP3    H217667   5.473   1.477   5.597
 5910TIP3   OH217668   5.177   1.134   3.875
 5910TIP3    H117669   5.211   1.064   3.935
 5910TIP3    H217670   5.233   1.124   3.796
 5911TIP3   OH217671   4.405   0.961   5.991
 5911TIP3    H117672   4.422   0.865   5.993
 5911TIP3    H217673   4.319   0.964   5.944
 5912TIP3   OH217674   4.381   0.611   4.187
 5912TIP3    H117675   4.439   0.578   4.258
 5912TIP3    H217676   4.447   0.616   4.114
 5913TIP3   OH217677   5.011   1.047   5.764
 5913TIP3    H117678   4.974   1.066   5.676
 5913TIP3    H217679   5.043   0.955   5.755
 5914TIP3   OH217680   4.895   0.812   3.989
 5914TIP3    H117681   4.898   0.824   4.086
 5914TIP3    H217682   4.901   0.714   3.983
 5915TIP3   OH217683   5.505   1.058   5.369
 5915TIP3    H117684   5.582   1.100   5.325
 5915TIP3    H217685   5.436   1.126   5.353
 5916TIP3   OH217686   4.529   0.692   5.971
 5916TIP3    H117687   4.613   0.650   5.946
 5916TIP3    H217688   4.552   0.728   6.059
 5917TIP3   OH217689   4.584   0.517   4.401
 5917TIP3    H117690   4.572   0.475   4.488
 5917TIP3    H217691   4.626   0.444   4.350
 5918TIP3   OH217692   4.857   0.607   5.629
 5918TIP3    H117693   4.776   0.662   5.624
 5918TIP3    H217694   4.907   0.634   5.549
 5919TIP3   OH217695   4.691   0.311   4.251
 5919TIP3    H117696   4.668   0.312   4.156
 5919TIP3    H217697   4.789   0.311   4.245
 5920TIP3   OH217698   5.380   0.984   5.766
 5920TIP3    H117699   5.454   0.952   5.714
 5920TIP3    H217700   5.371   0.914   5.833
 5921TIP3   OH217701   5.513   0.643   3.911
 5921TIP3    H117702   5.495   0.595   3.827
 5921TIP3    H217703   5.479   0.732   3.887
 5922TIP3   OH217704   4.947   0.388   5.754
 5922TIP3    H117705   4.900   0.327   5.694
 5922TIP3    H217706   4.922   0.474   5.712
 5923TIP3   OH217707   5.021   0.697   5.436
 5923TIP3    H117708   5.103   0.700   5.386
 5923TIP3    H217709   4.965   0.761   5.388
 5924TIP3   OH217710   5.587   0.660   5.798
 5924TIP3    H117711   5.620   0.603   5.871
 5924TIP3    H217712   5.666   0.710   5.773
 5925TIP3   OH217713   5.636   0.912   5.554
 5925TIP3    H117714   5.578   0.966   5.496
 5925TIP3    H217715   5.724   0.935   5.514
 5926TIP3   OH217716   4.823   0.512   5.982
 5926TIP3    H117717   4.791   0.430   6.020
 5926TIP3    H217718   4.886   0.481   5.915
 5927TIP3   OH217719   5.228   0.443   5.790
 5927TIP3    H117720   5.257   0.410   5.878
 5927TIP3    H217721   5.132   0.428   5.795
 5928TIP3   OH217722   4.505   1.373   4.155
 5928TIP3    H117723   4.597   1.369   4.125
 5928TIP3    H217724   4.464   1.420   4.080
 5929TIP3   OH217725   3.956   0.770   4.328
 5929TIP3    H117726   4.053   0.788   4.338
 5929TIP3    H217727   3.959   0.673   4.312
 5930TIP3   OH217728   3.896   1.363   4.783
 5930TIP3    H117729   3.831   1.302   4.741
 5930TIP3    H217730   3.939   1.303   4.847
 5931TIP3   OH217731   4.035   1.209   4.965
 5931TIP3    H117732   4.026   1.141   5.034
 5931TIP3    H217733   4.085   1.277   5.015
 5932TIP3   OH217734   5.757   1.620   4.767
 5932TIP3    H117735   5.782   1.647   4.857
 5932TIP3    H217736   5.825   1.663   4.713
 5933TIP3   OH217737   5.787   1.635   5.047
 5933TIP3    H117738   5.743   1.547   5.046
 5933TIP3    H217739   5.861   1.615   5.106
 5934TIP3   OH217740   5.833   1.313   5.623
 5934TIP3    H117741   5.761   1.323   5.688
 5934TIP3    H217742   5.876   1.401   5.627
 5935TIP3   OH217743   5.649   0.828   4.240
 5935TIP3    H117744   5.719   0.891   4.211
 5935TIP3    H217745   5.691   0.789   4.320
 5936TIP3   OH217746   5.774   0.700   4.443
 5936TIP3    H117747   5.709   0.659   4.505
 5936TIP3    H217748   5.842   0.736   4.504
 5937TIP3   OH217749   5.832   1.087   4.875
 5937TIP3    H117750   5.886   1.019   4.830
 5937TIP3    H217751   5.825   1.157   4.808
 5938TIP3   OH217752   5.661   1.387   5.071
 5938TIP3    H117753   5.590   1.429   5.123
 5938TIP3    H217754   5.611   1.339   5.001
 5939TIP3   OH217755   5.711   0.602   4.093
 5939TIP3    H117756   5.640   0.610   4.025
 5939TIP3    H217757   5.686   0.677   4.151
 5940TIP3   OH217758   5.577   0.264   4.039
 5940TIP3    H117759   5.549   0.329   3.973
 5940TIP3    H217760   5.546   0.181   4.001
 5941TIP3   OH217761   5.588   0.564   4.589
 5941TIP3    H117762   5.593   0.469   4.566
 5941TIP3    H217763   5.577   0.564   4.686
 5942TIP3   OH217764   4.215   0.630   5.337
 5942TIP3    H117765   4.215   0.597   5.244
 5942TIP3    H217766   4.312   0.630   5.356
 5943TIP3   OH217767   5.880   0.977   5.447
 5943TIP3    H117768   5.952   0.910   5.438
 5943TIP3    H217769   5.908   1.046   5.384
 5944TIP3   OH217770   6.061   0.778   5.466
 5944TIP3    H117771   5.988   0.723   5.502
 5944TIP3    H217772   6.136   0.717   5.482
 5945TIP3   OH217773   5.589   0.313   4.457
 5945TIP3    H117774   5.617   0.234   4.510
 5945TIP3    H217775   5.654   0.313   4.384
 5946TIP3   OH217776   5.744   0.448   4.987
 5946TIP3    H117777   5.830   0.470   4.945
 5946TIP3    H217778   5.761   0.481   5.077
 5947TIP3   OH217779   5.812   0.595   5.215
 5947TIP3    H117780   5.733   0.630   5.261
 5947TIP3    H217781   5.846   0.674   5.167
 5948TIP3   OH217782   4.430   0.307   6.016
 5948TIP3    H117783   4.521   0.285   5.992
 5948TIP3    H217784   4.398   0.222   6.051
 5949TIP3   OH217785   4.193   0.278   5.414
 5949TIP3    H117786   4.240   0.278   5.328
 5949TIP3    H217787   4.232   0.355   5.457
 5950TIP3   OH217788   5.340   1.482   4.419
 5950TIP3    H117789   5.402   1.475   4.345
 5950TIP3    H217790   5.383   1.548   4.477
 5951TIP3   OH217791   4.441   1.289   5.806
 5951TIP3    H117792   4.349   1.262   5.792
 5951TIP3    H217793   4.453   1.272   5.900
 5952TIP3   OH217794   4.620   1.322   5.355
 5952TIP3    H117795   4.575   1.399   5.315
 5952TIP3    H217796   4.707   1.334   5.311
 5953TIP3   OH217797   5.062   1.564   5.493
 5953TIP3    H117798   5.105   1.564   5.582
 5953TIP3    H217799   5.129   1.615   5.442
 5954TIP3   OH217800   5.244   1.715   5.356
 5954TIP3    H117801   5.316   1.667   5.312
 5954TIP3    H217802   5.295   1.774   5.416
 5955TIP3   OH217803   4.294   1.572   5.383
 5955TIP3    H117804   4.205   1.606   5.359
 5955TIP3    H217805   4.311   1.624   5.463
 5956TIP3   OH217806   4.530   1.554   5.238
 5956TIP3    H117807   4.443   1.567   5.281
 5956TIP3    H217808   4.513   1.588   5.148
 5957TIP3   OH217809   4.958   1.582   5.036
 5957TIP3    H117810   4.889   1.604   4.970
 5957TIP3    H217811   4.971   1.669   5.080
 5958TIP3   OH217812   5.227   1.522   5.087
 5958TIP3    H117813   5.133   1.541   5.068
 5958TIP3    H217814   5.270   1.600   5.047
 5959TIP3   OH217815   5.434   1.714   5.003
 5959TIP3    H117816   5.420   1.799   4.957
 5959TIP3    H217817   5.460   1.655   4.928
 5960TIP3   OH217818   4.205   1.368   5.122
 5960TIP3    H117819   4.232   1.344   5.213
 5960TIP3    H217820   4.280   1.326   5.073
 5961TIP3   OH217821   4.402   1.242   4.982
 5961TIP3    H117822   4.419   1.158   5.031
 5961TIP3    H217823   4.493   1.279   4.978
 5962TIP3   OH217824   4.667   1.334   4.988
 5962TIP3    H117825   4.700   1.243   4.977
 5962TIP3    H217826   4.715   1.359   5.069
 5963TIP3   OH217827   3.988   1.141   4.529
 5963TIP3    H117828   3.908   1.126   4.476
 5963TIP3    H217829   4.017   1.226   4.494
 5964TIP3   OH217830   4.771   1.328   4.094
 5964TIP3    H117831   4.858   1.351   4.058
 5964TIP3    H217832   4.747   1.253   4.036
 5965TIP3   OH217833   5.495   1.450   4.186
 5965TIP3    H117834   5.485   1.352   4.183
 5965TIP3    H217835   5.438   1.476   4.112
 5966TIP3   OH217836   5.712   1.593   5.377
 5966TIP3    H117837   5.633   1.563   5.328
 5966TIP3    H217838   5.693   1.689   5.383
 5967TIP3   OH217839   6.979   0.964   4.145
 5967TIP3    H117840   6.951   1.055   4.125
 5967TIP3    H217841   6.905   0.915   4.106
 5968TIP3   OH217842   6.977   0.969   4.528
 5968TIP3    H117843   7.010   0.941   4.616
 5968TIP3    H217844   6.938   0.887   4.494
 5969TIP3   OH217845   6.274   0.863   4.892
 5969TIP3    H117846   6.305   0.792   4.951
 5969TIP3    H217847   6.357   0.909   4.875
 5970TIP3   OH217848   7.223   1.271   4.208
 5970TIP3    H117849   7.208   1.200   4.272
 5970TIP3    H217850   7.253   1.344   4.264
 5971TIP3   OH217851   6.249   1.271   4.611
 5971TIP3    H117852   6.241   1.173   4.613
 5971TIP3    H217853   6.345   1.280   4.610
 5972TIP3   OH217854   5.945   0.483   4.413
 5972TIP3    H117855   5.889   0.563   4.421
 5972TIP3    H217856   5.889   0.427   4.357
 5973TIP3   OH217857   6.008   0.770   4.569
 5973TIP3    H117858   6.048   0.686   4.603
 5973TIP3    H217859   6.076   0.800   4.507
 5974TIP3   OH217860   6.873   1.730   4.225
 5974TIP3    H117861   6.916   1.659   4.173
 5974TIP3    H217862   6.868   1.690   4.313
 5975TIP3   OH217863   6.777   1.193   4.574
 5975TIP3    H117864   6.816   1.115   4.532
 5975TIP3    H217865   6.860   1.239   4.598
 5976TIP3   OH217866   7.195   0.693   4.620
 5976TIP3    H117867   7.216   0.603   4.645
 5976TIP3    H217868   7.158   0.683   4.530
 5977TIP3   OH217869   6.512   0.315   4.545
 5977TIP3    H117870   6.486   0.402   4.510
 5977TIP3    H217871   6.436   0.260   4.520
 5978TIP3   OH217872   7.182   0.468   4.244
 5978TIP3    H117873   7.242   0.420   4.306
 5978TIP3    H217874   7.238   0.466   4.164
 5979TIP3   OH217875   6.136   0.553   4.669
 5979TIP3    H117876   6.228   0.557   4.704
 5979TIP3    H217877   6.152   0.493   4.593
 5980TIP3   OH217878   6.597   0.755   4.476
 5980TIP3    H117879   6.692   0.730   4.490
 5980TIP3    H217880   6.559   0.669   4.449
 5981TIP3   OH217881   7.822   0.702   4.767
 5981TIP3    H117882   7.749   0.760   4.737
 5981TIP3    H217883   7.886   0.764   4.803
 5982TIP3   OH217884   6.869   1.186   4.014
 5982TIP3    H117885   6.830   1.167   3.928
 5982TIP3    H217886   6.823   1.269   4.039
 5983TIP3   OH217887   6.632   1.112   4.798
 5983TIP3    H117888   6.571   1.179   4.835
 5983TIP3    H217889   6.674   1.161   4.725
 5984TIP3   OH217890   6.392   0.524   4.738
 5984TIP3    H117891   6.464   0.562   4.791
 5984TIP3    H217892   6.421   0.431   4.735
 5985TIP3   OH217893   6.460   1.307   4.897
 5985TIP3    H117894   6.434   1.395   4.861
 5985TIP3    H217895   6.381   1.289   4.953
 5986TIP3   OH217896   5.852   0.997   4.133
 5986TIP3    H117897   5.814   1.026   4.049
 5986TIP3    H217898   5.887   1.080   4.171
 5987TIP3   OH217899   7.292   1.513   4.373
 5987TIP3    H117900   7.202   1.504   4.412
 5987TIP3    H217901   7.283   1.599   4.328
 5988TIP3   OH217902   6.990   1.558   4.044
 5988TIP3    H117903   7.040   1.475   4.026
 5988TIP3    H217904   7.053   1.622   4.005
 5989TIP3   OH217905   7.135   1.343   3.957
 5989TIP3    H117906   7.104   1.262   3.915
 5989TIP3    H217907   7.173   1.309   4.041
 5990TIP3   OH217908   7.520   1.424   4.718
 5990TIP3    H117909   7.506   1.346   4.659
 5990TIP3    H217910   7.501   1.498   4.657
 5991TIP3   OH217911   6.811   0.825   3.972
 5991TIP3    H117912   6.729   0.873   3.948
 5991TIP3    H217913   6.854   0.813   3.885
 5992TIP3   OH217914   6.767   0.599   3.701
 5992TIP3    H117915   6.842   0.651   3.734
 5992TIP3    H217916   6.813   0.533   3.647
 5993TIP3   OH217917   7.707   1.058   4.557
 5993TIP3    H117918   7.626   1.113   4.563
 5993TIP3    H217919   7.741   1.085   4.469
 5994TIP3   OH217920   7.156   0.903   3.944
 5994TIP3    H117921   7.102   0.925   4.023
 5994TIP3    H217922   7.241   0.879   3.986
 5995TIP3   OH217923   7.389   0.941   4.863
 5995TIP3    H117924   7.384   1.024   4.915
 5995TIP3    H217925   7.302   0.944   4.818
 5996TIP3   OH217926   6.391   0.899   4.363
 5996TIP3    H117927   6.349   0.839   4.298
 5996TIP3    H217928   6.466   0.845   4.395
 5997TIP3   OH217929   6.521   1.312   4.511
 5997TIP3    H117930   6.501   1.269   4.426
 5997TIP3    H217931   6.610   1.276   4.530
 5998TIP3   OH217932   6.523   0.868   4.724
 5998TIP3    H117933   6.555   0.839   4.636
 5998TIP3    H217934   6.570   0.952   4.737
 5999TIP3   OH217935   7.050   1.507   4.494
 5999TIP3    H117936   7.039   1.587   4.549
 5999TIP3    H217937   7.036   1.434   4.557
 6000TIP3   OH217938   6.665   1.426   5.041
 6000TIP3    H117939   6.605   1.487   5.088
 6000TIP3    H217940   6.600   1.372   4.992
 6001TIP3   OH217941   6.997   0.758   3.772
 6001TIP3    H117942   7.055   0.819   3.822
 6001TIP3    H217943   7.023   0.779   3.679
 6002TIP3   OH217944   6.413   0.992   5.140
 6002TIP3    H117945   6.416   1.076   5.189
 6002TIP3    H217946   6.319   0.968   5.153
 6003TIP3   OH217947   6.741   1.438   4.048
 6003TIP3    H117948   6.825   1.487   4.059
 6003TIP3    H217949   6.683   1.504   4.008
 6004TIP3   OH217950   6.458   1.592   5.129
 6004TIP3    H117951   6.422   1.593   5.038
 6004TIP3    H217952   6.378   1.571   5.182
 6005TIP3   OH217953   6.254   0.741   4.172
 6005TIP3    H117954   6.187   0.781   4.114
 6005TIP3    H217955   6.223   0.650   4.179
 6006TIP3   OH217956   7.307   1.368   3.370
 6006TIP3    H117957   7.320   1.464   3.355
 6006TIP3    H217958   7.399   1.335   3.359
 6007TIP3   OH217959   6.036   1.125   5.075
 6007TIP3    H117960   5.971   1.102   5.006
 6007TIP3    H217961   6.076   1.039   5.099
 6008TIP3   OH217962   5.892   1.321   4.701
 6008TIP3    H117963   5.988   1.309   4.698
 6008TIP3    H217964   5.885   1.395   4.763
 6009TIP3   OH217965   7.761   1.774   4.767
 6009TIP3    H117966   7.759   1.677   4.779
 6009TIP3    H217967   7.676   1.798   4.811
 6010TIP3   OH217968   6.860   1.556   4.898
 6010TIP3    H117969   6.858   1.648   4.931
 6010TIP3    H217970   6.790   1.515   4.953
 6011TIP3   OH217971   6.621   1.682   3.851
 6011TIP3    H117972   6.577   1.665   3.766
 6011TIP3    H217973   6.590   1.771   3.875
 6012TIP3   OH217974   6.059   1.532   4.239
 6012TIP3    H117975   6.111   1.526   4.323
 6012TIP3    H217976   6.014   1.446   4.241
 6013TIP3   OH217977   6.822   1.584   3.490
 6013TIP3    H117978   6.881   1.514   3.453
 6013TIP3    H217979   6.858   1.594   3.580
 6014TIP3   OH217980   6.874   1.634   3.760
 6014TIP3    H117981   6.787   1.641   3.804
 6014TIP3    H217982   6.928   1.595   3.830
 6015TIP3   OH217983   7.641   0.883   5.043
 6015TIP3    H117984   7.565   0.917   4.993
 6015TIP3    H217985   7.631   0.788   5.029
 6016TIP3   OH217986   6.241   1.309   5.062
 6016TIP3    H117987   6.291   1.292   5.144
 6016TIP3    H217988   6.168   1.244   5.070
 6017TIP3   OH217989   7.425   0.684   4.983
 6017TIP3    H117990   7.386   0.709   5.067
 6017TIP3    H217991   7.401   0.759   4.925
 6018TIP3   OH217992   7.077   0.805   3.519
 6018TIP3    H117993   7.038   0.780   3.433
 6018TIP3    H217994   7.159   0.848   3.490
 6019TIP3   OH217995   6.591   0.653   4.884
 6019TIP3    H117996   6.528   0.672   4.957
 6019TIP3    H217997   6.575   0.731   4.826
 6020TIP3   OH217998   6.456   0.535   4.388
 6020TIP3    H117999   6.361   0.513   4.398
 6020TIP3    H218000   6.473   0.504   4.296
 6021TIP3   OH218001   6.940   0.624   4.110
 6021TIP3    H118002   6.894   0.696   4.062
 6021TIP3    H218003   7.007   0.595   4.043
 6022TIP3   OH218004   7.131   0.926   5.183
 6022TIP3    H118005   7.106   0.844   5.233
 6022TIP3    H218006   7.225   0.932   5.207
 6023TIP3   OH218007   7.085   0.687   4.367
 6023TIP3    H118008   7.030   0.729   4.298
 6023TIP3    H218009   7.110   0.605   4.318
 6024TIP3   OH218010   6.390   0.681   5.076
 6024TIP3    H118011   6.418   0.740   5.147
 6024TIP3    H218012   6.377   0.596   5.122
 6025TIP3   OH218013   6.024   0.289   4.214
 6025TIP3    H118014   6.043   0.288   4.118
 6025TIP3    H218015   5.928   0.307   4.212
 6026TIP3   OH218016   7.110   0.898   4.770
 6026TIP3    H118017   7.148   0.827   4.714
 6026TIP3    H218018   7.086   0.844   4.849
 6027TIP3   OH218019   6.205   0.412   4.433
 6027TIP3    H118020   6.113   0.442   4.416
 6027TIP3    H218021   6.203   0.327   4.387
 6028TIP3   OH218022   6.497   0.433   4.139
 6028TIP3    H118023   6.589   0.417   4.112
 6028TIP3    H218024   6.446   0.421   4.057
 6029TIP3   OH218025   6.329   0.417   3.913
 6029TIP3    H118026   6.258   0.394   3.849
 6029TIP3    H218027   6.390   0.463   3.851
 6030TIP3   OH218028   7.448   2.119   4.864
 6030TIP3    H118029   7.446   2.143   4.770
 6030TIP3    H218030   7.527   2.168   4.895
 6031TIP3   OH218031   6.402   1.233   5.285
 6031TIP3    H118032   6.484   1.260   5.332
 6031TIP3    H218033   6.339   1.231   5.359
 6032TIP3   OH218034   6.854   0.685   4.540
 6032TIP3    H118035   6.938   0.656   4.501
 6032TIP3    H218036   6.861   0.651   4.632
 6033TIP3   OH218037   6.864   0.615   4.801
 6033TIP3    H118038   6.775   0.606   4.839
 6033TIP3    H218039   6.914   0.656   4.874
 6034TIP3   OH218040   6.575   0.973   3.920
 6034TIP3    H118041   6.505   0.905   3.911
 6034TIP3    H218042   6.559   1.005   4.012
 6035TIP3   OH218043   7.478   1.208   4.552
 6035TIP3    H118044   7.502   1.257   4.471
 6035TIP3    H218045   7.394   1.165   4.527
 6036TIP3   OH218046   7.013   0.352   3.744
 6036TIP3    H118047   6.954   0.302   3.804
 6036TIP3    H218048   7.050   0.417   3.808
 6037TIP3   OH218049   6.979   1.290   4.920
 6037TIP3    H118050   7.006   1.267   5.009
 6037TIP3    H218051   6.941   1.379   4.930
 6038TIP3   OH218052   7.116   0.545   3.908
 6038TIP3    H118053   7.213   0.555   3.914
 6038TIP3    H218054   7.092   0.621   3.851
 6039TIP3   OH218055   6.273   0.993   4.598
 6039TIP3    H118056   6.312   0.964   4.513
 6039TIP3    H218057   6.317   0.933   4.660
 6040TIP3   OH218058   6.726   1.120   3.746
 6040TIP3    H118059   6.677   1.205   3.751
 6040TIP3    H218060   6.672   1.064   3.805
 6041TIP3   OH218061   6.153   0.916   5.216
 6041TIP3    H118062   6.175   0.899   5.309
 6041TIP3    H218063   6.084   0.849   5.198
 6042TIP3   OH218064   6.879   1.031   5.236
 6042TIP3    H118065   6.819   0.976   5.183
 6042TIP3    H218066   6.967   1.001   5.203
 6043TIP3   OH218067   7.139   1.550   4.816
 6043TIP3    H118068   7.042   1.547   4.830
 6043TIP3    H218069   7.167   1.601   4.895
 6044TIP3   OH218070   7.548   0.618   3.712
 6044TIP3    H118071   7.485   0.571   3.652
 6044TIP3    H218072   7.537   0.709   3.677
 6045TIP3   OH218073   7.771   1.484   4.804
 6045TIP3    H118074   7.673   1.475   4.794
 6045TIP3    H218075   7.800   1.454   4.715
 6046TIP3   OH218076   7.246   1.440   3.635
 6046TIP3    H118077   7.225   1.368   3.696
 6046TIP3    H218078   7.261   1.393   3.551
 6047TIP3   OH218079   7.245   1.071   4.470
 6047TIP3    H118080   7.152   1.045   4.483
 6047TIP3    H218081   7.281   0.992   4.425
 6048TIP3   OH218082   6.376   1.298   4.226
 6048TIP3    H118083   6.375   1.377   4.170
 6048TIP3    H218084   6.282   1.279   4.236
 6049TIP3   OH218085   5.934   0.602   3.929
 6049TIP3    H118086   5.984   0.683   3.951
 6049TIP3    H218087   5.860   0.607   3.994
 6050TIP3   OH218088   6.508   1.061   4.166
 6050TIP3    H118089   6.476   1.150   4.188
 6050TIP3    H218090   6.476   1.009   4.242
 6051TIP3   OH218091   6.644   1.640   4.693
 6051TIP3    H118092   6.687   1.712   4.643
 6051TIP3    H218093   6.719   1.603   4.742
 6052TIP3   OH218094   6.289   1.539   4.075
 6052TIP3    H118095   6.206   1.547   4.125
 6052TIP3    H218096   6.323   1.631   4.080
 6053TIP3   OH218097   7.030   1.275   4.652
 6053TIP3    H118098   7.019   1.273   4.750
 6053TIP3    H218099   7.108   1.220   4.640
 6054TIP3   OH218100   7.007   1.171   3.537
 6054TIP3    H118101   7.062   1.146   3.615
 6054TIP3    H218102   6.920   1.137   3.566
 6055TIP3   OH218103   7.280   1.807   4.703
 6055TIP3    H118104   7.200   1.750   4.697
 6055TIP3    H218105   7.263   1.871   4.630
 6056TIP3   OH218106   7.346   1.645   3.355
 6056TIP3    H118107   7.384   1.721   3.309
 6056TIP3    H218108   7.263   1.686   3.388
 6057TIP3   OH218109   7.167   1.105   3.752
 6057TIP3    H118110   7.156   1.036   3.821
 6057TIP3    H218111   7.264   1.100   3.738
 6058TIP3   OH218112   6.080   1.501   4.852
 6058TIP3    H118113   6.136   1.429   4.886
 6058TIP3    H218114   6.107   1.574   4.910
 6059TIP3   OH218115   6.367   1.148   3.536
 6059TIP3    H118116   6.386   1.057   3.508
 6059TIP3    H218117   6.349   1.135   3.631
 6060TIP3   OH218118   6.312   1.153   3.811
 6060TIP3    H118119   6.390   1.122   3.860
 6060TIP3    H218120   6.321   1.251   3.819
 6061TIP3   OH218121   6.050   0.843   4.011
 6061TIP3    H118122   5.986   0.890   4.068
 6061TIP3    H218123   6.070   0.913   3.945
 6062TIP3   OH218124   6.580   1.348   3.755
 6062TIP3    H118125   6.495   1.376   3.792
 6062TIP3    H218126   6.600   1.422   3.697
 6063TIP3   OH218127   6.782   0.403   4.133
 6063TIP3    H118128   6.834   0.487   4.128
 6063TIP3    H218129   6.800   0.375   4.223
 6064TIP3   OH218130   7.054   0.736   4.981
 6064TIP3    H118131   7.050   0.795   5.058
 6064TIP3    H218132   7.102   0.661   5.019
 6065TIP3   OH218133   6.326   1.427   3.824
 6065TIP3    H118134   6.297   1.498   3.763
 6065TIP3    H218135   6.311   1.469   3.912
 6066TIP3   OH218136   7.333   0.831   4.348
 6066TIP3    H118137   7.253   0.777   4.367
 6066TIP3    H218138   7.403   0.782   4.397
 6067TIP3   OH218139   6.046   1.056   3.813
 6067TIP3    H118140   6.122   1.116   3.825
 6067TIP3    H218141   6.088   0.994   3.748
 6068TIP3   OH218142   5.990   0.332   3.941
 6068TIP3    H118143   5.983   0.429   3.932
 6068TIP3    H218144   5.899   0.303   3.926
 6069TIP3   OH218145   7.300   1.784   4.295
 6069TIP3    H118146   7.257   1.830   4.219
 6069TIP3    H218147   7.394   1.805   4.275
 6070TIP3   OH218148   5.917   1.273   4.199
 6070TIP3    H118149   5.846   1.298   4.260
 6070TIP3    H218150   5.886   1.311   4.114
 6071TIP3   OH218151   6.074   1.815   5.275
 6071TIP3    H118152   6.160   1.816   5.323
 6071TIP3    H218153   6.055   1.720   5.274
 6072TIP3   OH218154   6.550   1.775   5.319
 6072TIP3    H118155   6.645   1.758   5.328
 6072TIP3    H218156   6.527   1.713   5.247
 6073TIP3   OH218157   6.533   1.350   3.447
 6073TIP3    H118158   6.478   1.278   3.486
 6073TIP3    H218159   6.610   1.298   3.417
 6074TIP3   OH218160   7.192   1.682   5.052
 6074TIP3    H118161   7.184   1.613   5.122
 6074TIP3    H218162   7.269   1.733   5.083
 6075TIP3   OH218163   6.970   1.390   3.360
 6075TIP3    H118164   7.010   1.326   3.422
 6075TIP3    H218165   7.030   1.387   3.284
 6076TIP3   OH218166   6.202   1.217   5.476
 6076TIP3    H118167   6.219   1.121   5.481
 6076TIP3    H218168   6.115   1.220   5.430
 6077TIP3   OH218169   6.178   0.866   3.671
 6077TIP3    H118170   6.234   0.831   3.742
 6077TIP3    H218171   6.245   0.870   3.599
 6078TIP3   OH218172   6.809   1.304   5.250
 6078TIP3    H118173   6.769   1.321   5.162
 6078TIP3    H218174   6.839   1.211   5.242
 6079TIP3   OH218175   6.688   1.070   3.477
 6079TIP3    H118176   6.694   1.080   3.574
 6079TIP3    H218177   6.695   0.972   3.470
 6080TIP3   OH218178   7.302   1.315   4.856
 6080TIP3    H118179   7.378   1.358   4.812
 6080TIP3    H218180   7.232   1.380   4.840
 6081TIP3   OH218181   6.325   0.950   5.458
 6081TIP3    H118182   6.408   0.905   5.435
 6081TIP3    H218183   6.348   0.985   5.547
 6082TIP3   OH218184   6.382   0.773   3.889
 6082TIP3    H118185   6.366   0.730   3.974
 6082TIP3    H218186   6.423   0.701   3.837
 6083TIP3   OH218187   6.655   0.865   5.118
 6083TIP3    H118188   6.572   0.918   5.112
 6083TIP3    H218189   6.702   0.892   5.036
 6084TIP3   OH218190   6.487   0.568   3.738
 6084TIP3    H118191   6.463   0.570   3.643
 6084TIP3    H218192   6.585   0.569   3.731
 6085TIP3   OH218193   7.177   1.242   5.253
 6085TIP3    H118194   7.250   1.207   5.200
 6085TIP3    H218195   7.165   1.171   5.319
 6086TIP3   OH218196   7.307   0.896   3.395
 6086TIP3    H118197   7.289   0.851   3.310
 6086TIP3    H218198   7.274   0.986   3.373
 6087TIP3   OH218199   6.744   0.645   5.240
 6087TIP3    H118200   6.695   0.584   5.181
 6087TIP3    H218201   6.717   0.731   5.199
 6088TIP3   OH218202   6.819   0.954   4.923
 6088TIP3    H118203   6.899   0.956   4.870
 6088TIP3    H218204   6.761   1.017   4.875
 6089TIP3   OH218205   7.383   0.918   5.286
 6089TIP3    H118206   7.417   0.860   5.358
 6089TIP3    H218207   7.462   0.966   5.260
 6090TIP3   OH218208   7.434   1.169   5.041
 6090TIP3    H118209   7.375   1.223   4.983
 6090TIP3    H218210   7.521   1.192   5.001
 6091TIP3   OH218211   6.621   0.770   5.467
 6091TIP3    H118212   6.586   0.691   5.509
 6091TIP3    H218213   6.683   0.733   5.401
 6092TIP3   OH218214   7.023   0.699   5.275
 6092TIP3    H118215   7.048   0.669   5.365
 6092TIP3    H218216   6.927   0.684   5.277
 6093TIP3   OH218217   6.297   1.630   3.636
 6093TIP3    H118218   6.392   1.620   3.618
 6093TIP3    H218219   6.271   1.682   3.557
 6094TIP3   OH218220   5.777   1.014   3.850
 6094TIP3    H118221   5.873   1.034   3.836
 6094TIP3    H218222   5.771   0.923   3.812
 6095TIP3   OH218223   5.697   1.619   4.258
 6095TIP3    H118224   5.623   1.559   4.234
 6095TIP3    H218225   5.739   1.567   4.331
 6096TIP3   OH218226   5.823   1.475   4.455
 6096TIP3    H118227   5.813   1.402   4.518
 6096TIP3    H218228   5.878   1.535   4.508
 6097TIP3   OH218229   7.551   1.878   4.253
 6097TIP3    H118230   7.583   1.910   4.339
 6097TIP3    H218231   7.623   1.905   4.193
 6098TIP3   OH218232   7.580   1.895   4.537
 6098TIP3    H118233   7.537   1.807   4.533
 6098TIP3    H218234   7.661   1.872   4.585
 6099TIP3   OH218235   7.630   1.569   5.111
 6099TIP3    H118236   7.556   1.578   5.175
 6099TIP3    H218237   7.669   1.658   5.113
 6100TIP3   OH218238   7.444   1.088   3.723
 6100TIP3    H118239   7.515   1.150   3.696
 6100TIP3    H218240   7.485   1.050   3.805
 6101TIP3   OH218241   7.564   0.967   3.935
 6101TIP3    H118242   7.498   0.918   3.989
 6101TIP3    H218243   7.627   0.998   4.002
 6102TIP3   OH218244   7.629   1.343   4.363
 6102TIP3    H118245   7.678   1.279   4.309
 6102TIP3    H218246   7.623   1.420   4.304
 6103TIP3   OH218247   7.457   1.643   4.559
 6103TIP3    H118248   7.386   1.685   4.610
 6103TIP3    H218249   7.407   1.596   4.488
 6104TIP3   OH218250   7.503   0.857   3.580
 6104TIP3    H118251   7.434   0.865   3.510
 6104TIP3    H218252   7.479   0.936   3.634
 6105TIP3   OH218253   7.372   0.520   3.524
 6105TIP3    H118254   7.353   0.590   3.460
 6105TIP3    H218255   7.334   0.442   3.480
 6106TIP3   OH218256   7.385   0.820   4.075
 6106TIP3    H118257   7.389   0.726   4.050
 6106TIP3    H218258   7.373   0.817   4.172
 6107TIP3   OH218259   6.011   0.884   4.824
 6107TIP3    H118260   6.010   0.852   4.732
 6107TIP3    H218261   6.108   0.884   4.842
 6108TIP3   OH218262   7.678   1.234   4.934
 6108TIP3    H118263   7.750   1.167   4.926
 6108TIP3    H218264   7.705   1.301   4.869
 6109TIP3   OH218265   7.854   1.031   4.961
 6109TIP3    H118266   7.781   0.976   4.994
 6109TIP3    H218267   7.929   0.970   4.974
 6110TIP3   OH218268   7.388   0.572   3.943
 6110TIP3    H118269   7.413   0.493   3.996
 6110TIP3    H218270   7.453   0.571   3.871
 6111TIP3   OH218271   7.543   0.707   4.473
 6111TIP3    H118272   7.626   0.732   4.428
 6111TIP3    H218273   7.561   0.739   4.563
 6112TIP3   OH218274   7.605   0.852   4.704
 6112TIP3    H118275   7.526   0.887   4.749
 6112TIP3    H218276   7.637   0.930   4.654
 6113TIP3   OH218277   6.225   0.563   5.501
 6113TIP3    H118278   6.317   0.542   5.483
 6113TIP3    H218279   6.193   0.479   5.538
 6114TIP3   OH218280   5.989   0.534   4.902
 6114TIP3    H118281   6.035   0.533   4.815
 6114TIP3    H218282   6.026   0.613   4.942
 6115TIP3   OH218283   7.134   1.743   3.908
 6115TIP3    H118284   7.188   1.730   3.828
 6115TIP3    H218285   7.189   1.804   3.959
 6116TIP3   OH218286   6.237   1.547   5.294
 6116TIP3    H118287   6.145   1.519   5.279
 6116TIP3    H218288   6.250   1.526   5.387
 6117TIP3   OH218289   6.416   1.578   4.841
 6117TIP3    H118290   6.371   1.655   4.803
 6117TIP3    H218291   6.503   1.590   4.798
 6118TIP3   OH218292   6.859   1.822   4.980
 6118TIP3    H118293   6.901   1.821   5.068
 6118TIP3    H218294   6.926   1.873   4.929
 6119TIP3   OH218295   7.039   1.975   4.840
 6119TIP3    H118296   7.110   1.923   4.799
 6119TIP3    H218297   7.091   2.031   4.901
 6120TIP3   OH218298   6.091   1.834   4.865
 6120TIP3    H118299   6.001   1.867   4.846
 6120TIP3    H218300   6.106   1.874   4.952
 6121TIP3   OH218301   6.328   1.813   4.725
 6121TIP3    H118302   6.241   1.825   4.769
 6121TIP3    H218303   6.310   1.845   4.635
 6122TIP3   OH218304   6.754   1.840   4.523
 6122TIP3    H118305   6.686   1.861   4.457
 6122TIP3    H218306   6.767   1.927   4.567
 6123TIP3   OH218307   7.024   1.779   4.575
 6123TIP3    H118308   6.930   1.798   4.554
 6123TIP3    H218309   7.069   1.854   4.532
 6124TIP3   OH218310   7.228   1.970   4.488
 6124TIP3    H118311   7.216   2.055   4.440
 6124TIP3    H218312   7.257   1.910   4.415
 6125TIP3   OH218313   6.005   1.626   4.609
 6125TIP3    H118314   6.030   1.600   4.701
 6125TIP3    H218315   6.078   1.582   4.560
 6126TIP3   OH218316   6.201   1.499   4.468
 6126TIP3    H118317   6.214   1.414   4.518
 6126TIP3    H218318   6.292   1.534   4.467
 6127TIP3   OH218319   6.466   1.592   4.474
 6127TIP3    H118320   6.497   1.500   4.463
 6127TIP3    H218321   6.513   1.614   4.557
 6128TIP3   OH218322   5.794   1.406   3.996
 6128TIP3    H118323   5.710   1.377   3.954
 6128TIP3    H218324   5.766   1.482   4.047
 6129TIP3   OH218325   6.563   1.586   3.583
 6129TIP3    H118326   6.653   1.607   3.549
 6129TIP3    H218327   6.542   1.510   3.525
 6130TIP3   OH218328   7.283   1.706   3.678
 6130TIP3    H118329   7.274   1.608   3.667
 6130TIP3    H218330   7.238   1.737   3.596
 6131TIP3   OH218331   5.877   1.433   3.659
 6131TIP3    H118332   5.892   1.418   3.753
 6131TIP3    H218333   5.957   1.390   3.621
 6132TIP3   OH218334   7.510   1.850   4.864
 6132TIP3    H118335   7.432   1.819   4.814
 6132TIP3    H218336   7.490   1.946   4.869
 6133TIP3   OH218337   8.025   1.507   4.142
 6133TIP3    H118338   7.995   1.435   4.085
 6133TIP3    H218339   8.118   1.515   4.113
 6134TIP3   OH218340   7.750   0.761   3.922
 6134TIP3    H118341   7.676   0.820   3.900
 6134TIP3    H218342   7.734   0.686   3.864
 6135TIP3   OH218343   7.831   1.016   4.058
 6135TIP3    H118344   7.837   0.920   4.041
 6135TIP3    H218345   7.873   1.051   3.977
 6136TIP3   OH218346   7.650   1.251   3.621
 6136TIP3    H118347   7.606   1.281   3.539
 6136TIP3    H218348   7.675   1.338   3.660
 6137TIP3   OH218349   8.215   1.879   4.587
 6137TIP3    H118350   8.180   1.882   4.497
 6137TIP3    H218351   8.135   1.875   4.642
 6138TIP3   OH218352   7.838   1.389   4.557
 6138TIP3    H118353   7.767   1.360   4.497
 6138TIP3    H218354   7.871   1.304   4.595
 6139TIP3   OH218355   7.693   1.575   4.197
 6139TIP3    H118356   7.790   1.573   4.191
 6139TIP3    H218357   7.680   1.652   4.253
 6140TIP3   OH218358   7.826   1.782   3.717
 6140TIP3    H118359   7.911   1.798   3.760
 6140TIP3    H218360   7.793   1.707   3.768
 6141TIP3   OH218361   8.045   1.568   4.538
 6141TIP3    H118362   8.095   1.536   4.616
 6141TIP3    H218363   7.967   1.509   4.541
 6142TIP3   OH218364   7.815   0.547   3.686
 6142TIP3    H118365   7.828   0.553   3.589
 6142TIP3    H218366   7.719   0.559   3.694
 6143TIP3   OH218367   8.184   1.467   4.751
 6143TIP3    H118368   8.255   1.532   4.769
 6143TIP3    H218369   8.138   1.465   4.837
 6144TIP3   OH218370   7.929   1.180   4.706
 6144TIP3    H118371   7.976   1.170   4.791
 6144TIP3    H218372   7.875   1.100   4.701
 6145TIP3   OH218373   7.725   0.847   3.416
 6145TIP3    H118374   7.774   0.930   3.435
 6145TIP3    H218375   7.651   0.856   3.480
 6146TIP3   OH218376   7.872   1.758   4.343
 6146TIP3    H118377   7.932   1.690   4.378
 6146TIP3    H218378   7.906   1.839   4.383
 6147TIP3   OH218379   7.825   1.089   3.483
 6147TIP3    H118380   7.767   1.135   3.547
 6147TIP3    H218381   7.850   1.162   3.424
 6148TIP3   OH218382   7.829   1.299   3.285
 6148TIP3    H118383   7.895   1.365   3.316
 6148TIP3    H218384   7.870   1.268   3.203
 6149TIP3   OH218385   7.794   0.584   3.407
 6149TIP3    H118386   7.777   0.681   3.411
 6149TIP3    H218387   7.704   0.548   3.403
 6150TIP3   OH218388   7.694   1.509   3.691
 6150TIP3    H118389   7.631   1.555   3.749
 6150TIP3    H218390   7.689   1.565   3.611
 6151TIP3   OH218391   7.867   2.066   4.763
 6151TIP3    H118392   7.954   2.061   4.806
 6151TIP3    H218393   7.840   1.973   4.762
 6152TIP3   OH218394   7.995   1.472   4.967
 6152TIP3    H118395   8.013   1.376   4.965
 6152TIP3    H218396   7.911   1.477   4.917
 6153TIP3   OH218397   8.106   1.210   4.946
 6153TIP3    H118398   8.180   1.155   4.920
 6153TIP3    H218399   8.136   1.243   5.033
 6154TIP3   OH218400   7.561   1.265   3.338
 6154TIP3    H118401   7.656   1.282   3.323
 6154TIP3    H218402   7.554   1.174   3.303
 6155TIP3   OH218403   7.486   1.879   3.756
 6155TIP3    H118404   7.420   1.816   3.720
 6155TIP3    H218405   7.535   1.820   3.818
 6156TIP3   OH218406   7.623   1.723   3.939
 6156TIP3    H118407   7.614   1.655   4.007
 6156TIP3    H218408   7.676   1.789   3.987
 6157TIP3   OH218409   7.818   1.135   4.308
 6157TIP3    H118410   7.812   1.092   4.219
 6157TIP3    H218411   7.912   1.158   4.310
 6158TIP3   OH218412   8.024   0.820   4.993
 6158TIP3    H118413   8.117   0.798   4.982
 6158TIP3    H218414   7.988   0.734   5.022
 6159TIP3   OH218415   7.787   0.790   4.374
 6159TIP3    H118416   7.857   0.763   4.314
 6159TIP3    H218417   7.821   0.872   4.412
 6160TIP3   OH218418   8.039   1.797   4.790
 6160TIP3    H118419   7.950   1.768   4.762
 6160TIP3    H218420   8.037   1.776   4.884
 6161TIP3   OH218421   7.876   2.075   4.362
 6161TIP3    H118422   7.791   2.118   4.335
 6161TIP3    H218423   7.901   2.133   4.435
 6162TIP3   OH218424   8.133   2.061   4.230
 6162TIP3    H118425   8.040   2.071   4.258
 6162TIP3    H218426   8.128   2.095   4.138
 6163TIP3   OH218427   7.791   1.886   4.100
 6163TIP3    H118428   7.824   1.866   4.190
 6163TIP3    H218429   7.864   1.844   4.048
 6164TIP3   OH218430   7.978   1.751   3.959
 6164TIP3    H118431   7.991   1.659   3.986
 6164TIP3    H218432   8.069   1.772   3.927
 6165TIP3   OH218433   7.597   1.653   3.475
 6165TIP3    H118434   7.507   1.627   3.448
 6165TIP3    H218435   7.587   1.749   3.479
 6166TIP3   OH218436   7.665   1.689   3.141
 6166TIP3    H118437   7.634   1.718   3.229
 6166TIP3    H218438   7.738   1.629   3.163
 6167TIP3   OH218439   1.229   2.013   5.319
 6167TIP3    H118440   1.198   2.104   5.297
 6167TIP3    H218441   1.154   1.961   5.287
 6168TIP3   OH218442   1.232   2.011   5.702
 6168TIP3    H118443   1.260   1.980   5.789
 6168TIP3    H218444   1.187   1.933   5.666
 6169TIP3   OH218445   0.534   1.916   6.069
 6169TIP3    H118446   0.574   1.845   6.122
 6169TIP3    H218447   0.614   1.954   6.029
 6170TIP3   OH218448   1.474   2.312   5.384
 6170TIP3    H118449   1.452   2.246   5.450
 6170TIP3    H218450   1.502   2.388   5.438
 6171TIP3   OH218451   0.503   2.321   5.796
 6171TIP3    H118452   0.496   2.223   5.795
 6171TIP3    H218453   0.599   2.330   5.783
 6172TIP3   OH218454   0.291   1.833   5.767
 6172TIP3    H118455   0.328   1.751   5.805
 6172TIP3    H218456   0.297   1.816   5.672
 6173TIP3   OH218457   1.123   2.776   5.401
 6173TIP3    H118458   1.166   2.705   5.349
 6173TIP3    H218459   1.113   2.734   5.487
 6174TIP3   OH218460   1.024   2.238   5.751
 6174TIP3    H118461   1.060   2.162   5.704
 6174TIP3    H218462   1.108   2.282   5.775
 6175TIP3   OH218463   2.046   1.554   5.749
 6175TIP3    H118464   2.070   1.641   5.785
 6175TIP3    H218465   2.057   1.570   5.654
 6176TIP3   OH218466   1.445   1.736   5.781
 6176TIP3    H118467   1.481   1.647   5.798
 6176TIP3    H218468   1.406   1.724   5.692
 6177TIP3   OH218469   0.786   1.408   5.756
 6177TIP3    H118470   0.754   1.470   5.687
 6177TIP3    H218471   0.758   1.322   5.715
 6178TIP3   OH218472   1.474   1.495   5.370
 6178TIP3    H118473   1.546   1.475   5.434
 6178TIP3    H218474   1.526   1.526   5.294
 6179TIP3   OH218475   0.414   1.613   5.881
 6179TIP3    H118476   0.491   1.572   5.925
 6179TIP3    H218477   0.409   1.558   5.802
 6180TIP3   OH218478   0.851   1.803   5.654
 6180TIP3    H118479   0.945   1.777   5.666
 6180TIP3    H218480   0.813   1.719   5.618
 6181TIP3   OH218481   2.117   1.769   5.917
 6181TIP3    H118482   2.035   1.814   5.889
 6181TIP3    H218483   2.119   1.794   6.010
 6182TIP3   OH218484   0.794   1.377   6.172
 6182TIP3    H118485   0.738   1.420   6.103
 6182TIP3    H218486   0.731   1.378   6.246
 6183TIP3   OH218487   1.119   2.233   5.188
 6183TIP3    H118488   1.075   2.214   5.104
 6183TIP3    H218489   1.074   2.316   5.215
 6184TIP3   OH218490   0.882   2.159   5.977
 6184TIP3    H118491   0.818   2.225   6.012
 6184TIP3    H218492   0.921   2.207   5.901
 6185TIP3   OH218493   1.683   1.491   5.543
 6185TIP3    H118494   1.660   1.443   5.624
 6185TIP3    H218495   1.730   1.569   5.577
 6186TIP3   OH218496   0.649   1.499   5.975
 6186TIP3    H118497   0.716   1.570   5.984
 6186TIP3    H218498   0.684   1.453   5.895
 6187TIP3   OH218499   0.707   2.353   6.078
 6187TIP3    H118500   0.682   2.437   6.036
 6187TIP3    H218501   0.626   2.336   6.131
 6188TIP3   OH218502   0.117   2.038   5.308
 6188TIP3    H118503   0.062   2.062   5.232
 6188TIP3    H218504   0.136   2.124   5.349
 6189TIP3   OH218505   1.542   2.557   5.551
 6189TIP3    H118506   1.452   2.549   5.590
 6189TIP3    H218507   1.534   2.643   5.504
 6190TIP3   OH218508   1.832   1.460   5.917
 6190TIP3    H118509   1.742   1.478   5.884
 6190TIP3    H218510   1.887   1.488   5.841
 6191TIP3   OH218511   1.150   1.126   5.901
 6191TIP3    H118512   1.119   1.033   5.890
 6191TIP3    H218513   1.068   1.164   5.939
 6192TIP3   OH218514   1.241   2.602   5.223
 6192TIP3    H118515   1.291   2.520   5.203
 6192TIP3    H218516   1.303   2.668   5.183
 6193TIP3   OH218517   1.385   2.387   5.133
 6193TIP3    H118518   1.342   2.308   5.097
 6193TIP3    H218519   1.424   2.352   5.216
 6194TIP3   OH218520   1.768   2.467   5.895
 6194TIP3    H118521   1.754   2.391   5.834
 6194TIP3    H218522   1.748   2.543   5.836
 6195TIP3   OH218523   1.060   1.864   5.153
 6195TIP3    H118524   0.978   1.914   5.134
 6195TIP3    H218525   1.102   1.861   5.066
 6196TIP3   OH218526   1.018   1.650   4.864
 6196TIP3    H118527   1.085   1.700   4.914
 6196TIP3    H218528   1.076   1.589   4.814
 6197TIP3   OH218529   1.963   2.109   5.743
 6197TIP3    H118530   1.878   2.158   5.745
 6197TIP3    H218531   1.993   2.132   5.652
 6198TIP3   OH218532   1.407   1.946   5.122
 6198TIP3    H118533   1.351   1.970   5.200
 6198TIP3    H218534   1.491   1.922   5.167
 6199TIP3   OH218535   1.642   1.983   6.035
 6199TIP3    H118536   1.636   2.070   6.079
 6199TIP3    H218537   1.554   1.981   5.990
 6200TIP3   OH218538   0.639   1.946   5.538
 6200TIP3    H118539   0.595   1.886   5.473
 6200TIP3    H218540   0.714   1.890   5.570
 6201TIP3   OH218541   0.767   2.356   5.688
 6201TIP3    H118542   0.745   2.316   5.603
 6201TIP3    H218543   0.856   2.318   5.705
 6202TIP3   OH218544   0.777   1.912   5.903
 6202TIP3    H118545   0.802   1.889   5.811
 6202TIP3    H218546   0.817   2.001   5.914
 6203TIP3   OH218547   1.301   2.552   5.672
 6203TIP3    H118548   1.287   2.632   5.725
 6203TIP3    H218549   1.284   2.479   5.735
 6204TIP3   OH218550   0.914   2.469   6.220
 6204TIP3    H118551   0.852   2.532   6.264
 6204TIP3    H218552   0.850   2.416   6.168
 6205TIP3   OH218553   1.248   1.800   4.950
 6205TIP3    H118554   1.305   1.863   5.001
 6205TIP3    H218555   1.274   1.823   4.857
 6206TIP3   OH218556   0.690   2.033   6.320
 6206TIP3    H118557   0.682   2.121   6.360
 6206TIP3    H218558   0.597   2.005   6.314
 6207TIP3   OH218559   0.991   2.481   5.226
 6207TIP3    H118560   1.072   2.535   5.236
 6207TIP3    H218561   0.931   2.542   5.182
 6208TIP3   OH218562   0.707   2.638   6.306
 6208TIP3    H118563   0.674   2.642   6.214
 6208TIP3    H218564   0.626   2.622   6.357
 6209TIP3   OH218565   1.762   1.041   4.999
 6209TIP3    H118566   1.679   1.058   5.048
 6209TIP3    H218567   1.774   1.125   4.951
 6210TIP3   OH218568   0.505   1.789   5.347
 6210TIP3    H118569   0.436   1.826   5.289
 6210TIP3    H218570   0.477   1.697   5.356
 6211TIP3   OH218571   1.562   2.411   4.545
 6211TIP3    H118572   1.570   2.508   4.532
 6211TIP3    H218573   1.655   2.382   4.533
 6212TIP3   OH218574   0.306   2.153   6.249
 6212TIP3    H118575   0.244   2.138   6.176
 6212TIP3    H218576   0.336   2.062   6.265
 6213TIP3   OH218577   0.145   2.391   5.868
 6213TIP3    H118578   0.220   2.332   5.856
 6213TIP3    H218579   0.177   2.448   5.940
 6214TIP3   OH218580   2.006   2.817   5.945
 6214TIP3    H118581   2.002   2.720   5.955
 6214TIP3    H218582   1.922   2.843   5.988
 6215TIP3   OH218583   1.111   2.597   6.077
 6215TIP3    H118584   1.108   2.691   6.108
 6215TIP3    H218585   1.038   2.558   6.130
 6216TIP3   OH218586   0.873   2.727   5.028
 6216TIP3    H118587   0.827   2.709   4.944
 6216TIP3    H218588   0.840   2.816   5.052
 6217TIP3   OH218589   0.309   2.578   5.413
 6217TIP3    H118590   0.356   2.569   5.499
 6217TIP3    H218591   0.262   2.492   5.410
 6218TIP3   OH218592   1.072   2.629   4.668
 6218TIP3    H118593   1.131   2.560   4.631
 6218TIP3    H218594   1.107   2.639   4.758
 6219TIP3   OH218595   1.124   2.678   4.936
 6219TIP3    H118596   1.035   2.688   4.978
 6219TIP3    H218597   1.174   2.639   5.009
 6220TIP3   OH218598   1.893   1.942   6.218
 6220TIP3    H118599   1.811   1.963   6.170
 6220TIP3    H218600   1.903   1.847   6.198
 6221TIP3   OH218601   0.486   2.358   6.250
 6221TIP3    H118602   0.544   2.330   6.323
 6221TIP3    H218603   0.418   2.287   6.250
 6222TIP3   OH218604   0.902   1.188   5.999
 6222TIP3    H118605   0.818   1.145   5.975
 6222TIP3    H218606   0.870   1.260   6.057
 6223TIP3   OH218607   1.459   1.292   6.207
 6223TIP3    H118608   1.516   1.260   6.279
 6223TIP3    H218609   1.369   1.278   6.244
 6224TIP3   OH218610   1.669   1.724   6.146
 6224TIP3    H118611   1.612   1.721   6.226
 6224TIP3    H218612   1.640   1.807   6.102
 6225TIP3   OH218613   1.323   1.846   4.694
 6225TIP3    H118614   1.289   1.823   4.605
 6225TIP3    H218615   1.403   1.896   4.670
 6226TIP3   OH218616   0.836   1.690   6.045
 6226TIP3    H118617   0.785   1.707   6.127
 6226TIP3    H218618   0.816   1.771   5.993
 6227TIP3   OH218619   0.719   1.584   5.553
 6227TIP3    H118620   0.628   1.553   5.572
 6227TIP3    H218621   0.732   1.543   5.464
 6228TIP3   OH218622   1.202   1.670   5.289
 6228TIP3    H118623   1.146   1.738   5.246
 6228TIP3    H218624   1.251   1.633   5.214
 6229TIP3   OH218625   1.370   1.940   6.372
 6229TIP3    H118626   1.345   1.868   6.435
 6229TIP3    H218627   1.464   1.952   6.395
 6230TIP3   OH218628   1.355   1.694   5.524
 6230TIP3    H118629   1.291   1.720   5.454
 6230TIP3    H218630   1.389   1.613   5.480
 6231TIP3   OH218631   0.651   1.726   6.243
 6231TIP3    H118632   0.643   1.787   6.318
 6231TIP3    H218633   0.562   1.686   6.238
 6232TIP3   OH218634   0.711   1.220   4.960
 6232TIP3    H118635   0.715   1.188   5.052
 6232TIP3    H218636   0.617   1.239   4.951
 6233TIP3   OH218637   1.373   1.935   5.947
 6233TIP3    H118638   1.402   1.863   5.887
 6233TIP3    H218639   1.336   1.882   6.021
 6234TIP3   OH218640   1.036   1.400   5.618
 6234TIP3    H118641   0.949   1.400   5.662
 6234TIP3    H218642   1.095   1.399   5.695
 6235TIP3   OH218643   0.488   1.459   5.623
 6235TIP3    H118644   0.391   1.466   5.631
 6235TIP3    H218645   0.493   1.365   5.594
 6236TIP3   OH218646   0.742   1.451   5.315
 6236TIP3    H118647   0.837   1.452   5.290
 6236TIP3    H218648   0.695   1.466   5.231
 6237TIP3   OH218649   1.526   1.470   5.823
 6237TIP3    H118650   1.488   1.487   5.912
 6237TIP3    H218651   1.460   1.406   5.789
 6238TIP3   OH218652   0.568   1.500   5.094
 6238TIP3    H118653   0.504   1.444   5.047
 6238TIP3    H218654   0.627   1.524   5.020
 6239TIP3   OH218655   1.697   3.163   6.040
 6239TIP3    H118656   1.693   3.187   5.946
 6239TIP3    H218657   1.775   3.213   6.070
 6240TIP3   OH218658   0.651   2.277   6.460
 6240TIP3    H118659   0.734   2.304   6.506
 6240TIP3    H218660   0.589   2.276   6.536
 6241TIP3   OH218661   1.116   1.731   5.721
 6241TIP3    H118662   1.180   1.681   5.669
 6241TIP3    H218663   1.118   1.685   5.807
 6242TIP3   OH218664   0.721   1.198   5.606
 6242TIP3    H118665   0.625   1.181   5.588
 6242TIP3    H218666   0.758   1.177   5.519
 6243TIP3   OH218667   1.098   1.629   5.996
 6243TIP3    H118668   1.005   1.656   6.011
 6243TIP3    H218669   1.148   1.693   6.051
 6244TIP3   OH218670   0.828   2.014   5.101
 6244TIP3    H118671   0.756   1.948   5.090
 6244TIP3    H218672   0.809   2.048   5.192
 6245TIP3   OH218673   1.728   2.249   5.729
 6245TIP3    H118674   1.751   2.301   5.649
 6245TIP3    H218675   1.643   2.208   5.703
 6246TIP3   OH218676   1.267   1.333   4.961
 6246TIP3    H118677   1.174   1.329   4.987
 6246TIP3    H218678   1.294   1.422   4.990
 6247TIP3   OH218679   1.233   2.337   6.097
 6247TIP3    H118680   1.247   2.312   6.189
 6247TIP3    H218681   1.191   2.424   6.103
 6248TIP3   OH218682   1.357   1.571   5.066
 6248TIP3    H118683   1.452   1.581   5.083
 6248TIP3    H218684   1.335   1.653   5.016
 6249TIP3   OH218685   0.535   2.052   5.775
 6249TIP3    H118686   0.563   2.017   5.688
 6249TIP3    H218687   0.532   1.971   5.828
 6250TIP3   OH218688   0.974   2.164   4.924
 6250TIP3    H118689   0.926   2.250   4.928
 6250TIP3    H218690   0.919   2.109   4.984
 6251TIP3   OH218691   0.447   1.916   6.394
 6251TIP3    H118692   0.477   1.947   6.482
 6251TIP3    H218693   0.350   1.916   6.408
 6252TIP3   OH218694   1.126   2.074   6.410
 6252TIP3    H118695   1.062   2.013   6.370
 6252TIP3    H218696   1.211   2.036   6.377
 6253TIP3   OH218697   1.390   2.593   5.995
 6253TIP3    H118698   1.293   2.591   6.007
 6253TIP3    H218699   1.416   2.646   6.073
 6254TIP3   OH218700   1.800   1.667   4.901
 6254TIP3    H118701   1.738   1.622   4.839
 6254TIP3    H218702   1.794   1.757   4.862
 6255TIP3   OH218703   2.018   2.523   5.983
 6255TIP3    H118704   1.920   2.519   5.974
 6255TIP3    H218705   2.044   2.493   5.893
 6256TIP3   OH218706   1.494   2.483   4.810
 6256TIP3    H118707   1.472   2.413   4.872
 6256TIP3    H218708   1.511   2.435   4.727
 6257TIP3   OH218709   1.495   2.112   5.649
 6257TIP3    H118710   1.401   2.088   5.662
 6257TIP3    H218711   1.528   2.033   5.602
 6258TIP3   OH218712   0.624   2.343   5.404
 6258TIP3    H118713   0.621   2.423   5.349
 6258TIP3    H218714   0.530   2.322   5.412
 6259TIP3   OH218715   0.160   1.653   5.128
 6259TIP3    H118716   0.227   1.725   5.124
 6259TIP3    H218717   0.112   1.681   5.208
 6260TIP3   OH218718   0.760   2.107   5.344
 6260TIP3    H118719   0.725   2.196   5.365
 6260TIP3    H218720   0.723   2.055   5.418
 6261TIP3   OH218721   0.892   2.685   5.871
 6261TIP3    H118722   0.932   2.758   5.819
 6261TIP3    H218723   0.970   2.649   5.916
 6262TIP3   OH218724   0.541   2.581   5.253
 6262TIP3    H118725   0.456   2.591   5.300
 6262TIP3    H218726   0.574   2.674   5.256
 6263TIP3   OH218727   1.278   2.319   5.828
 6263TIP3    H118728   1.270   2.318   5.926
 6263TIP3    H218729   1.356   2.262   5.815
 6264TIP3   OH218730   1.256   2.212   4.711
 6264TIP3    H118731   1.308   2.187   4.791
 6264TIP3    H218732   1.167   2.186   4.740
 6265TIP3   OH218733   1.528   2.852   5.879
 6265TIP3    H118734   1.448   2.797   5.871
 6265TIP3    H218735   1.513   2.917   5.806
 6266TIP3   OH218736   1.593   2.688   4.531
 6266TIP3    H118737   1.634   2.765   4.488
 6266TIP3    H218738   1.511   2.731   4.564
 6267TIP3   OH218739   1.416   2.144   4.926
 6267TIP3    H118740   1.406   2.080   4.999
 6267TIP3    H218741   1.514   2.142   4.915
 6268TIP3   OH218742   0.322   2.543   6.033
 6268TIP3    H118743   0.387   2.476   6.060
 6268TIP3    H218744   0.354   2.621   6.079
 6269TIP3   OH218745   0.620   2.191   4.712
 6269TIP3    H118746   0.634   2.098   4.686
 6269TIP3    H218747   0.600   2.181   4.807
 6270TIP3   OH218748   0.564   2.198   4.984
 6270TIP3    H118749   0.638   2.170   5.041
 6270TIP3    H218750   0.569   2.296   4.992
 6271TIP3   OH218751   0.304   1.886   5.181
 6271TIP3    H118752   0.239   1.932   5.239
 6271TIP3    H218753   0.321   1.957   5.116
 6272TIP3   OH218754   1.453   1.538   6.083
 6272TIP3    H118755   1.537   1.570   6.118
 6272TIP3    H218756   1.444   1.451   6.128
 6273TIP3   OH218757   1.348   1.273   5.245
 6273TIP3    H118758   1.315   1.295   5.157
 6273TIP3    H218759   1.373   1.360   5.282
 6274TIP3   OH218760   0.832   2.394   4.934
 6274TIP3    H118761   0.745   2.421   4.970
 6274TIP3    H218762   0.847   2.465   4.870
 6275TIP3   OH218763   1.025   1.461   5.345
 6275TIP3    H118764   1.087   1.535   5.335
 6275TIP3    H218765   1.022   1.450   5.442
 6276TIP3   OH218766   1.287   1.777   6.151
 6276TIP3    H118767   1.311   1.827   6.232
 6276TIP3    H218768   1.339   1.695   6.160
 6277TIP3   OH218769   1.204   1.204   5.488
 6277TIP3    H118770   1.141   1.278   5.495
 6277TIP3    H218771   1.236   1.215   5.396
 6278TIP3   OH218772   0.576   2.470   5.002
 6278TIP3    H118773   0.547   2.540   4.939
 6278TIP3    H218774   0.560   2.514   5.088
 6279TIP3   OH218775   0.705   1.179   5.227
 6279TIP3    H118776   0.698   1.258   5.282
 6279TIP3    H218777   0.793   1.143   5.246
 6280TIP3   OH218778   1.932   1.674   6.133
 6280TIP3    H118779   1.834   1.676   6.146
 6280TIP3    H218780   1.935   1.633   6.046
 6281TIP3   OH218781   1.581   1.869   5.524
 6281TIP3    H118782   1.502   1.813   5.533
 6281TIP3    H218783   1.649   1.819   5.573
 6282TIP3   OH218784   0.297   2.100   4.988
 6282TIP3    H118785   0.367   2.167   4.999
 6282TIP3    H218786   0.341   2.042   4.923
 6283TIP3   OH218787   0.280   1.401   5.043
 6283TIP3    H118788   0.284   1.485   5.091
 6283TIP3    H218789   0.242   1.343   5.111
 6284TIP3   OH218790   1.548   2.829   5.472
 6284TIP3    H118791   1.505   2.876   5.397
 6284TIP3    H218792   1.642   2.848   5.452
 6285TIP3   OH218793   0.168   2.326   5.380
 6285TIP3    H118794   0.095   2.353   5.438
 6285TIP3    H218795   0.137   2.363   5.294
 6286TIP3   OH218796   0.344   2.874   6.430
 6286TIP3    H118797   0.421   2.881   6.490
 6286TIP3    H218798   0.322   2.781   6.441
 6287TIP3   OH218799   0.801   2.817   6.500
 6287TIP3    H118800   0.896   2.802   6.502
 6287TIP3    H218801   0.775   2.759   6.425
 6288TIP3   OH218802   0.784   2.395   4.626
 6288TIP3    H118803   0.728   2.322   4.663
 6288TIP3    H218804   0.858   2.343   4.590
 6289TIP3   OH218805   1.439   2.729   6.231
 6289TIP3    H118806   1.432   2.658   6.300
 6289TIP3    H218807   1.517   2.780   6.261
 6290TIP3   OH218808   1.220   2.435   4.537
 6290TIP3    H118809   1.261   2.371   4.598
 6290TIP3    H218810   1.278   2.433   4.460
 6291TIP3   OH218811   0.447   2.255   6.650
 6291TIP3    H118812   0.478   2.162   6.648
 6291TIP3    H218813   0.353   2.244   6.631
 6292TIP3   OH218814   0.428   1.909   4.846
 6292TIP3    H118815   0.483   1.877   4.920
 6292TIP3    H218816   0.497   1.915   4.776
 6293TIP3   OH218817   1.057   2.348   6.426
 6293TIP3    H118818   1.016   2.368   6.339
 6293TIP3    H218819   1.086   2.255   6.416
 6294TIP3   OH218820   0.942   2.111   4.655
 6294TIP3    H118821   0.943   2.123   4.752
 6294TIP3    H218822   0.941   2.013   4.649
 6295TIP3   OH218823   1.553   2.357   6.036
 6295TIP3    H118824   1.625   2.403   5.990
 6295TIP3    H218825   1.480   2.420   6.021
 6296TIP3   OH218826   0.554   2.002   6.638
 6296TIP3    H118827   0.623   1.937   6.619
 6296TIP3    H218828   0.576   2.021   6.731
 6297TIP3   OH218829   0.634   1.818   5.067
 6297TIP3    H118830   0.609   1.775   5.150
 6297TIP3    H218831   0.671   1.742   5.017
 6298TIP3   OH218832   0.923   1.888   6.303
 6298TIP3    H118833   0.839   1.939   6.301
 6298TIP3    H218834   0.966   1.919   6.220
 6299TIP3   OH218835   0.738   1.616   4.908
 6299TIP3    H118836   0.710   1.613   4.815
 6299TIP3    H218837   0.836   1.616   4.899
 6300TIP3   OH218838   1.424   2.285   6.432
 6300TIP3    H118839   1.496   2.252   6.377
 6300TIP3    H218840   1.416   2.216   6.500
 6301TIP3   OH218841   1.559   1.940   4.572
 6301TIP3    H118842   1.537   1.896   4.488
 6301TIP3    H218843   1.527   2.031   4.551
 6302TIP3   OH218844   1.036   1.666   6.410
 6302TIP3    H118845   1.036   1.591   6.347
 6302TIP3    H218846   0.992   1.736   6.358
 6303TIP3   OH218847   1.047   1.463   6.224
 6303TIP3    H118848   1.068   1.503   6.137
 6303TIP3    H218849   0.956   1.430   6.207
 6304TIP3   OH218850   1.060   1.996   6.102
 6304TIP3    H118851   1.141   2.004   6.049
 6304TIP3    H218852   1.000   2.060   6.058
 6305TIP3   OH218853   1.639   1.960   6.483
 6305TIP3    H118854   1.687   1.876   6.482
 6305TIP3    H218855   1.703   2.021   6.444
 6306TIP3   OH218856   1.681   2.212   6.222
 6306TIP3    H118857   1.622   2.265   6.164
 6306TIP3    H218858   1.768   2.234   6.182
 6307TIP3   OH218859   0.940   1.771   6.648
 6307TIP3    H118860   0.846   1.759   6.668
 6307TIP3    H218861   0.949   1.736   6.556
 6308TIP3   OH218862   1.203   1.244   6.274
 6308TIP3    H118863   1.146   1.323   6.256
 6308TIP3    H218864   1.134   1.175   6.276
 6309TIP3   OH218865   1.288   1.721   6.513
 6309TIP3    H118866   1.266   1.708   6.607
 6309TIP3    H218867   1.201   1.698   6.473
 6310TIP3   OH218868   1.529   1.677   6.372
 6310TIP3    H118869   1.449   1.677   6.428
 6310TIP3    H218870   1.596   1.639   6.432
 6311TIP3   OH218871   1.776   1.618   6.520
 6311TIP3    H118872   1.778   1.521   6.537
 6311TIP3    H218873   1.761   1.655   6.610
 6312TIP3   OH218874   1.250   1.217   6.542
 6312TIP3    H118875   1.322   1.151   6.539
 6312TIP3    H218876   1.233   1.228   6.447
 6313TIP3   OH218877   1.326   1.442   6.694
 6313TIP3    H118878   1.292   1.370   6.637
 6313TIP3    H218879   1.248   1.502   6.700
 6314TIP3   OH218880   0.545   2.671   4.815
 6314TIP3    H118881   0.641   2.666   4.796
 6314TIP3    H218882   0.516   2.721   4.736
 6315TIP3   OH218883   0.033   2.046   5.030
 6315TIP3    H118884   0.127   2.072   5.018
 6315TIP3    H218885   0.030   1.960   4.985
 6316TIP3   OH218886  -0.084   2.665   5.456
 6316TIP3    H118887  -0.119   2.597   5.398
 6316TIP3    H218888  -0.032   2.612   5.521
 6317TIP3   OH218889   0.066   2.523   5.637
 6317TIP3    H118890   0.073   2.452   5.703
 6317TIP3    H218891   0.121   2.590   5.682
 6318TIP3   OH218892   1.801   2.918   5.431
 6318TIP3    H118893   1.834   2.957   5.514
 6318TIP3    H218894   1.868   2.946   5.366
 6319TIP3   OH218895   1.830   2.941   5.717
 6319TIP3    H118896   1.786   2.854   5.707
 6319TIP3    H218897   1.909   2.914   5.765
 6320TIP3   OH218898   1.881   2.612   6.289
 6320TIP3    H118899   1.806   2.623   6.351
 6320TIP3    H218900   1.920   2.702   6.290
 6321TIP3   OH218901   1.696   2.127   4.904
 6321TIP3    H118902   1.761   2.193   4.875
 6321TIP3    H218903   1.741   2.090   4.983
 6322TIP3   OH218904   1.824   1.992   5.108
 6322TIP3    H118905   1.755   1.952   5.166
 6322TIP3    H218906   1.884   2.033   5.173
 6323TIP3   OH218907   1.881   2.389   5.544
 6323TIP3    H118908   1.927   2.324   5.490
 6323TIP3    H218909   1.876   2.466   5.483
 6324TIP3   OH218910   1.707   2.687   5.737
 6324TIP3    H118911   1.635   2.732   5.786
 6324TIP3    H218912   1.658   2.642   5.665
 6325TIP3   OH218913   1.760   1.902   4.755
 6325TIP3    H118914   1.688   1.905   4.687
 6325TIP3    H218915   1.733   1.979   4.809
 6326TIP3   OH218916   1.635   1.572   4.707
 6326TIP3    H118917   1.585   1.613   4.635
 6326TIP3    H218918   1.609   1.478   4.696
 6327TIP3   OH218919   1.636   1.852   5.254
 6327TIP3    H118920   1.639   1.756   5.247
 6327TIP3    H218921   1.621   1.865   5.351
 6328TIP3   OH218922   0.263   1.926   6.027
 6328TIP3    H118923   0.254   1.907   5.931
 6328TIP3    H218924   0.361   1.929   6.034
 6329TIP3   OH218925   1.924   2.278   6.114
 6329TIP3    H118926   1.996   2.213   6.099
 6329TIP3    H218927   1.944   2.347   6.049
 6330TIP3   OH218928   2.107   2.078   6.120
 6330TIP3    H118929   2.032   2.031   6.162
 6330TIP3    H218930   2.181   2.017   6.143
 6331TIP3   OH218931   1.574   1.306   4.690
 6331TIP3    H118932   1.641   1.275   4.754
 6331TIP3    H218933   1.495   1.252   4.713
 6332TIP3   OH218934   1.633   1.569   5.148
 6332TIP3    H118935   1.673   1.480   5.163
 6332TIP3    H218936   1.691   1.601   5.077
 6333TIP3   OH218937   1.795   1.736   5.647
 6333TIP3    H118938   1.880   1.763   5.606
 6333TIP3    H218939   1.806   1.778   5.735
 6334TIP3   OH218940   1.866   1.887   5.876
 6334TIP3    H118941   1.786   1.919   5.923
 6334TIP3    H218942   1.896   1.969   5.831
 6335TIP3   OH218943   2.329   1.489   6.431
 6335TIP3    H118944   2.379   1.417   6.389
 6335TIP3    H218945   2.288   1.533   6.353
 6336TIP3   OH218946   1.742   1.318   5.187
 6336TIP3    H118947   1.784   1.300   5.273
 6336TIP3    H218948   1.678   1.243   5.183
 6337TIP3   OH218949   2.183   1.614   6.240
 6337TIP3    H118950   2.097   1.657   6.259
 6337TIP3    H218951   2.150   1.544   6.179
 6338TIP3   OH218952   1.822   1.251   4.824
 6338TIP3    H118953   1.860   1.182   4.766
 6338TIP3    H218954   1.887   1.323   4.815
 6339TIP3   OH218955   1.387   2.786   5.089
 6339TIP3    H118956   1.435   2.771   5.004
 6339TIP3    H218957   1.443   2.852   5.132
 6340TIP3   OH218958   0.480   2.593   6.476
 6340TIP3    H118959   0.431   2.515   6.448
 6340TIP3    H218960   0.494   2.579   6.570
 6341TIP3   OH218961   0.665   2.625   6.020
 6341TIP3    H118962   0.619   2.701   5.980
 6341TIP3    H218963   0.751   2.636   5.975
 6342TIP3   OH218964   1.108   2.865   6.157
 6342TIP3    H118965   1.150   2.866   6.245
 6342TIP3    H218966   1.173   2.916   6.105
 6343TIP3   OH218967   1.286   3.018   6.018
 6343TIP3    H118968   1.356   2.969   5.973
 6343TIP3    H218969   1.340   3.075   6.078
 6344TIP3   OH218970   2.082   1.388   6.117
 6344TIP3    H118971   1.992   1.380   6.078
 6344TIP3    H218972   2.114   1.295   6.107
 6345TIP3   OH218973   0.341   2.875   6.046
 6345TIP3    H118974   0.250   2.904   6.022
 6345TIP3    H218975   0.351   2.920   6.131
 6346TIP3   OH218976   0.578   2.858   5.903
 6346TIP3    H118977   0.490   2.870   5.946
 6346TIP3    H218978   0.559   2.889   5.812
 6347TIP3   OH218979   1.002   2.884   5.701
 6347TIP3    H118980   0.934   2.902   5.633
 6347TIP3    H218981   1.014   2.972   5.741
 6348TIP3   OH218982   1.272   2.824   5.753
 6348TIP3    H118983   1.178   2.841   5.733
 6348TIP3    H218984   1.316   2.897   5.706
 6349TIP3   OH218985   1.479   3.016   5.665
 6349TIP3    H118986   1.464   3.100   5.617
 6349TIP3    H218987   1.506   2.956   5.591
 6350TIP3   OH218988   0.254   2.674   5.782
 6350TIP3    H118989   0.268   2.646   5.874
 6350TIP3    H218990   0.326   2.623   5.737
 6351TIP3   OH218991   0.449   2.542   5.645
 6351TIP3    H118992   0.464   2.459   5.696
 6351TIP3    H218993   0.539   2.578   5.641
 6352TIP3   OH218994   0.714   2.637   5.649
 6352TIP3    H118995   0.745   2.545   5.636
 6352TIP3    H218996   0.761   2.658   5.733
 6353TIP3   OH218997   1.309   1.302   5.751
 6353TIP3    H118998   1.257   1.239   5.807
 6353TIP3    H218999   1.300   1.260   5.664
 6354TIP3   OH219000   1.822   1.178   5.654
 6354TIP3    H119001   1.854   1.226   5.574
 6354TIP3    H219002   1.725   1.181   5.639
 6355TIP3   OH219003   1.907   1.269   5.407
 6355TIP3    H119004   1.980   1.222   5.362
 6355TIP3    H219005   1.936   1.362   5.392
 6356TIP3   OH219006   0.992   1.030   5.605
 6356TIP3    H119007   1.059   1.093   5.575
 6356TIP3    H219008   0.974   1.058   5.695
 6357TIP3   OH219009   1.555   1.171   5.605
 6357TIP3    H119010   1.503   1.164   5.524
 6357TIP3    H219011   1.516   1.100   5.660
 6358TIP3   OH219012   1.560   1.104   5.180
 6358TIP3    H119013   1.476   1.152   5.196
 6358TIP3    H219014   1.539   1.018   5.221
 6359TIP3   OH219015   0.027   2.448   5.183
 6359TIP3    H119016  -0.038   2.396   5.135
 6359TIP3    H219017   0.018   2.536   5.140
 6360TIP3   OH219018   0.813   2.631   4.763
 6360TIP3    H119019   0.900   2.655   4.726
 6360TIP3    H219020   0.791   2.557   4.701
 6361TIP3   OH219021   1.527   2.749   4.854
 6361TIP3    H119022   1.520   2.652   4.842
 6361TIP3    H219023   1.483   2.781   4.773
 6362TIP3   OH219024   0.118   2.468   4.817
 6362TIP3    H119025   0.123   2.501   4.908
 6362TIP3    H219026   0.206   2.425   4.805
 6363TIP3   OH219027   1.822   1.344   6.551
 6363TIP3    H119028   1.841   1.314   6.643
 6363TIP3    H219029   1.910   1.337   6.509
 6364TIP3   OH219030   1.756   2.894   6.043
 6364TIP3    H119031   1.679   2.863   5.990
 6364TIP3    H219032   1.738   2.990   6.046
 6365TIP3   OH219033   3.024   2.267   4.806
 6365TIP3    H119034   2.995   2.359   4.786
 6365TIP3    H219035   2.947   2.218   4.772
 6366TIP3   OH219036   3.029   2.267   5.187
 6366TIP3    H119037   3.057   2.240   5.276
 6366TIP3    H219038   2.982   2.188   5.156
 6367TIP3   OH219039   2.324   2.163   5.552
 6367TIP3    H119040   2.358   2.095   5.613
 6367TIP3    H219041   2.401   2.221   5.542
 6368TIP3   OH219042   3.270   2.569   4.871
 6368TIP3    H119043   3.250   2.504   4.940
 6368TIP3    H219044   3.297   2.647   4.922
 6369TIP3   OH219045   2.301   2.565   5.292
 6369TIP3    H119046   2.292   2.468   5.287
 6369TIP3    H219047   2.396   2.576   5.273
 6370TIP3   OH219048   2.002   1.774   5.062
 6370TIP3    H119049   1.953   1.857   5.079
 6370TIP3    H219050   1.932   1.722   5.019
 6371TIP3   OH219051   2.059   2.064   5.239
 6371TIP3    H119052   2.110   1.986   5.271
 6371TIP3    H219053   2.115   2.098   5.168
 6372TIP3   OH219054   2.920   3.034   4.886
 6372TIP3    H119055   2.964   2.960   4.840
 6372TIP3    H219056   2.898   2.996   4.972
 6373TIP3   OH219057   2.821   2.492   5.239
 6373TIP3    H119058   2.861   2.420   5.188
 6373TIP3    H219059   2.904   2.538   5.265
 6374TIP3   OH219060   3.837   1.811   5.235
 6374TIP3    H119061   3.865   1.895   5.276
 6374TIP3    H219062   3.860   1.827   5.142
 6375TIP3   OH219063   3.232   1.992   5.269
 6375TIP3    H119064   3.276   1.907   5.287
 6375TIP3    H219065   3.203   1.978   5.178
 6376TIP3   OH219066   2.576   1.653   5.233
 6376TIP3    H119067   2.554   1.726   5.171
 6376TIP3    H219068   2.528   1.580   5.189
 6377TIP3   OH219069   3.269   1.745   4.856
 6377TIP3    H119070   3.342   1.731   4.921
 6377TIP3    H219071   3.320   1.781   4.781
 6378TIP3   OH219072   2.206   1.855   5.342
 6378TIP3    H119073   2.289   1.836   5.389
 6378TIP3    H219074   2.218   1.799   5.262
 6379TIP3   OH219075   2.646   2.052   5.136
 6379TIP3    H119076   2.740   2.026   5.147
 6379TIP3    H219077   2.607   1.969   5.102
 6380TIP3   OH219078   3.908   2.019   5.409
 6380TIP3    H119079   3.826   2.068   5.388
 6380TIP3    H219080   3.933   2.061   5.493
 6381TIP3   OH219081   2.568   1.640   5.673
 6381TIP3    H119082   2.510   1.676   5.602
 6381TIP3    H219083   2.515   1.661   5.752
 6382TIP3   OH219084   2.916   2.489   4.675
 6382TIP3    H119085   2.872   2.474   4.590
 6382TIP3    H219086   2.872   2.572   4.703
 6383TIP3   OH219087   2.676   2.413   5.463
 6383TIP3    H119088   2.615   2.481   5.499
 6383TIP3    H219089   2.717   2.460   5.388
 6384TIP3   OH219090   3.476   1.747   5.033
 6384TIP3    H119091   3.457   1.711   5.121
 6384TIP3    H219092   3.530   1.826   5.054
 6385TIP3   OH219093   2.443   1.751   5.453
 6385TIP3    H119094   2.504   1.825   5.474
 6385TIP3    H219095   2.491   1.712   5.376
 6386TIP3   OH219096   2.507   2.608   5.562
 6386TIP3    H119097   2.481   2.692   5.519
 6386TIP3    H219098   2.426   2.593   5.616
 6387TIP3   OH219099   1.896   2.295   4.796
 6387TIP3    H119100   1.854   2.328   4.714
 6387TIP3    H219101   1.924   2.380   4.837
 6388TIP3   OH219102   3.339   2.813   5.035
 6388TIP3    H119103   3.250   2.805   5.076
 6388TIP3    H219104   3.330   2.899   4.991
 6389TIP3   OH219105   3.630   1.707   5.399
 6389TIP3    H119106   3.543   1.740   5.368
 6389TIP3    H219107   3.691   1.743   5.331
 6390TIP3   OH219108   2.927   1.355   5.388
 6390TIP3    H119109   2.907   1.261   5.400
 6390TIP3    H219110   2.848   1.395   5.432
 6391TIP3   OH219111   3.041   2.855   4.713
 6391TIP3    H119112   3.091   2.774   4.690
 6391TIP3    H219113   3.100   2.922   4.672
 6392TIP3   OH219114   3.184   2.641   4.618
 6392TIP3    H119115   3.139   2.563   4.583
 6392TIP3    H219116   3.221   2.607   4.702
 6393TIP3   OH219117   3.563   2.724   5.382
 6393TIP3    H119118   3.551   2.648   5.321
 6393TIP3    H219119   3.543   2.800   5.322
 6394TIP3   OH219120   2.855   2.118   4.640
 6394TIP3    H119121   2.775   2.171   4.622
 6394TIP3    H219122   2.899   2.118   4.553
 6395TIP3   OH219123   2.814   1.904   4.352
 6395TIP3    H119124   2.880   1.957   4.401
 6395TIP3    H219125   2.874   1.842   4.305
 6396TIP3   OH219126   3.757   2.361   5.227
 6396TIP3    H119127   3.674   2.414   5.230
 6396TIP3    H219128   3.789   2.386   5.137
 6397TIP3   OH219129   3.202   2.201   4.609
 6397TIP3    H119130   3.147   2.226   4.687
 6397TIP3    H219131   3.287   2.178   4.653
 6398TIP3   OH219132   3.437   2.239   5.525
 6398TIP3    H119133   3.435   2.324   5.573
 6398TIP3    H219134   3.351   2.244   5.478
 6399TIP3   OH219135   2.434   2.197   5.027
 6399TIP3    H119136   2.393   2.141   4.958
 6399TIP3    H219137   2.511   2.144   5.054
 6400TIP3   OH219138   2.561   2.602   5.178
 6400TIP3    H119139   2.542   2.570   5.089
 6400TIP3    H219140   2.652   2.571   5.193
 6401TIP3   OH219141   2.575   2.168   5.383
 6401TIP3    H119142   2.603   2.149   5.291
 6401TIP3    H219143   2.614   2.257   5.399
 6402TIP3   OH219144   3.101   2.808   5.160
 6402TIP3    H119145   3.082   2.890   5.208
 6402TIP3    H219146   3.079   2.738   5.224
 6403TIP3   OH219147   2.709   2.724   5.709
 6403TIP3    H119148   2.648   2.788   5.751
 6403TIP3    H219149   2.645   2.673   5.655
 6404TIP3   OH219150   3.043   2.058   4.436
 6404TIP3    H119151   3.101   2.119   4.486
 6404TIP3    H219152   3.069   2.081   4.343
 6405TIP3   OH219153   2.465   2.274   5.816
 6405TIP3    H119154   2.470   2.366   5.851
 6405TIP3    H219155   2.368   2.260   5.822
 6406TIP3   OH219156   2.788   2.737   4.711
 6406TIP3    H119157   2.868   2.792   4.725
 6406TIP3    H219158   2.726   2.801   4.673
 6407TIP3   OH219159   2.505   2.894   5.793
 6407TIP3    H119160   2.471   2.897   5.701
 6407TIP3    H219161   2.423   2.870   5.843
 6408TIP3   OH219162   3.563   1.295   4.482
 6408TIP3    H119163   3.482   1.321   4.530
 6408TIP3    H219164   3.579   1.376   4.429
 6409TIP3   OH219165   2.302   2.041   4.828
 6409TIP3    H119166   2.236   2.090   4.775
 6409TIP3    H219167   2.256   1.958   4.843
 6410TIP3   OH219168   3.357   2.667   4.032
 6410TIP3    H119169   3.365   2.764   4.019
 6410TIP3    H219170   3.450   2.638   4.020
 6411TIP3   OH219171   2.082   2.425   5.740
 6411TIP3    H119172   2.013   2.411   5.671
 6411TIP3    H219173   2.117   2.336   5.754
 6412TIP3   OH219174   1.938   2.615   5.378
 6412TIP3    H119175   2.033   2.616   5.356
 6412TIP3    H219176   1.928   2.699   5.425
 6413TIP3   OH219177   3.800   3.072   5.429
 6413TIP3    H119178   3.798   2.976   5.441
 6413TIP3    H219179   3.716   3.097   5.474
 6414TIP3   OH219180   2.910   2.852   5.567
 6414TIP3    H119181   2.906   2.946   5.596
 6414TIP3    H219182   2.835   2.814   5.618
 6415TIP3   OH219183   2.673   2.984   4.515
 6415TIP3    H119184   2.619   2.971   4.436
 6415TIP3    H219185   2.639   3.070   4.548
 6416TIP3   OH219186   2.869   2.887   4.152
 6416TIP3    H119187   2.928   2.816   4.118
 6416TIP3    H219188   2.902   2.898   4.244
 6417TIP3   OH219189   2.921   2.934   4.421
 6417TIP3    H119190   2.832   2.947   4.461
 6417TIP3    H219191   2.970   2.898   4.496
 6418TIP3   OH219192   3.688   2.199   5.705
 6418TIP3    H119193   3.609   2.212   5.652
 6418TIP3    H219194   3.704   2.103   5.693
 6419TIP3   OH219195   2.289   2.606   5.726
 6419TIP3    H119196   2.335   2.590   5.810
 6419TIP3    H219197   2.212   2.546   5.733
 6420TIP3   OH219198   2.687   1.432   5.513
 6420TIP3    H119199   2.598   1.401   5.485
 6420TIP3    H219200   2.661   1.515   5.557
 6421TIP3   OH219201   3.221   1.545   5.706
 6421TIP3    H119202   3.289   1.519   5.772
 6421TIP3    H219203   3.137   1.527   5.753
 6422TIP3   OH219204   3.456   1.975   5.622
 6422TIP3    H119205   3.407   1.974   5.707
 6422TIP3    H219206   3.436   2.064   5.586
 6423TIP3   OH219207   3.118   2.102   4.180
 6423TIP3    H119208   3.085   2.080   4.091
 6423TIP3    H219209   3.200   2.150   4.157
 6424TIP3   OH219210   2.832   1.478   4.484
 6424TIP3    H119211   2.796   1.476   4.575
 6424TIP3    H219212   2.790   1.398   4.447
 6425TIP3   OH219213   2.620   1.947   5.531
 6425TIP3    H119214   2.567   1.968   5.611
 6425TIP3    H219215   2.606   2.028   5.477
 6426TIP3   OH219216   2.503   1.832   5.044
 6426TIP3    H119217   2.409   1.809   5.062
 6426TIP3    H219218   2.514   1.793   4.955
 6427TIP3   OH219219   2.992   1.919   4.773
 6427TIP3    H119220   2.941   1.991   4.730
 6427TIP3    H219221   3.047   1.888   4.698
 6428TIP3   OH219222   3.168   2.197   5.856
 6428TIP3    H119223   3.148   2.124   5.918
 6428TIP3    H219224   3.262   2.212   5.877
 6429TIP3   OH219225   3.148   1.947   5.011
 6429TIP3    H119226   3.088   1.979   4.941
 6429TIP3    H219227   3.181   1.867   4.966
 6430TIP3   OH219228   2.442   1.979   5.738
 6430TIP3    H119229   2.449   2.053   5.801
 6430TIP3    H219230   2.422   1.903   5.796
 6431TIP3   OH219231   2.489   1.455   4.450
 6431TIP3    H119232   2.475   1.454   4.547
 6431TIP3    H219233   2.411   1.507   4.422
 6432TIP3   OH219234   2.029   1.495   5.324
 6432TIP3    H119235   2.106   1.529   5.373
 6432TIP3    H219236   2.065   1.468   5.238
 6433TIP3   OH219237   2.001   1.480   4.839
 6433TIP3    H119238   2.044   1.519   4.760
 6433TIP3    H219239   1.938   1.552   4.860
 6434TIP3   OH219240   3.159   2.191   5.434
 6434TIP3    H119241   3.192   2.120   5.375
 6434TIP3    H219242   3.127   2.137   5.510
 6435TIP3   OH219243   2.832   1.648   5.105
 6435TIP3    H119244   2.747   1.651   5.154
 6435TIP3    H219245   2.897   1.659   5.176
 6436TIP3   OH219246   2.262   1.713   5.113
 6436TIP3    H119247   2.168   1.724   5.086
 6436TIP3    H219248   2.281   1.621   5.089
 6437TIP3   OH219249   2.532   1.707   4.802
 6437TIP3    H119250   2.624   1.726   4.777
 6437TIP3    H219251   2.481   1.729   4.721
 6438TIP3   OH219252   3.320   1.730   5.307
 6438TIP3    H119253   3.289   1.745   5.399
 6438TIP3    H219254   3.250   1.671   5.273
 6439TIP3   OH219255   2.379   1.738   4.582
 6439TIP3    H119256   2.306   1.696   4.534
 6439TIP3    H219257   2.429   1.777   4.507
 6440TIP3   OH219258   3.493   3.419   5.528
 6440TIP3    H119259   3.488   3.439   5.433
 6440TIP3    H219260   3.573   3.469   5.555
 6441TIP3   OH219261   2.450   2.525   5.949
 6441TIP3    H119262   2.527   2.561   5.996
 6441TIP3    H219263   2.383   2.530   6.020
 6442TIP3   OH219264   2.912   1.981   5.201
 6442TIP3    H119265   2.989   1.949   5.151
 6442TIP3    H219266   2.924   1.939   5.288
 6443TIP3   OH219267   2.438   1.469   5.084
 6443TIP3    H119268   2.399   1.392   5.130
 6443TIP3    H219269   2.471   1.430   5.002
 6444TIP3   OH219270   2.889   1.879   5.498
 6444TIP3    H119271   2.799   1.917   5.506
 6444TIP3    H219272   2.945   1.944   5.544
 6445TIP3   OH219273   2.628   2.270   4.590
 6445TIP3    H119274   2.554   2.207   4.577
 6445TIP3    H219275   2.606   2.306   4.680
 6446TIP3   OH219276   3.525   2.507   5.216
 6446TIP3    H119277   3.549   2.558   5.136
 6446TIP3    H219278   3.440   2.466   5.189
 6447TIP3   OH219279   3.084   1.580   4.456
 6447TIP3    H119280   2.987   1.564   4.461
 6447TIP3    H219281   3.093   1.675   4.476
 6448TIP3   OH219282   3.022   2.589   5.587
 6448TIP3    H119283   3.050   2.579   5.678
 6448TIP3    H219284   2.986   2.680   5.586
 6449TIP3   OH219285   3.152   1.831   4.555
 6449TIP3    H119286   3.249   1.840   4.568
 6449TIP3    H219287   3.131   1.911   4.502
 6450TIP3   OH219288   2.319   2.289   5.263
 6450TIP3    H119289   2.355   2.264   5.176
 6450TIP3    H219290   2.360   2.224   5.322
 6451TIP3   OH219291   2.769   2.422   4.410
 6451TIP3    H119292   2.720   2.508   4.413
 6451TIP3    H219293   2.715   2.368   4.471
 6452TIP3   OH219294   2.201   2.204   5.874
 6452TIP3    H119295   2.206   2.193   5.971
 6452TIP3    H219296   2.124   2.149   5.852
 6453TIP3   OH219297   2.924   2.323   5.906
 6453TIP3    H119298   2.864   2.274   5.848
 6453TIP3    H219299   3.011   2.294   5.872
 6454TIP3   OH219300   3.186   2.843   5.487
 6454TIP3    H119301   3.089   2.847   5.496
 6454TIP3    H219302   3.213   2.900   5.561
 6455TIP3   OH219303   3.593   1.924   4.391
 6455TIP3    H119304   3.530   1.880   4.329
 6455TIP3    H219305   3.591   2.013   4.351
 6456TIP3   OH219306   3.813   2.781   5.469
 6456TIP3    H119307   3.716   2.775   5.460
 6456TIP3    H219308   3.840   2.751   5.380
 6457TIP3   OH219309   3.300   2.741   4.299
 6457TIP3    H119310   3.266   2.674   4.361
 6457TIP3    H219311   3.307   2.692   4.215
 6458TIP3   OH219312   3.291   2.370   5.136
 6458TIP3    H119313   3.197   2.346   5.147
 6458TIP3    H219314   3.324   2.291   5.088
 6459TIP3   OH219315   2.415   2.601   4.892
 6459TIP3    H119316   2.427   2.692   4.858
 6459TIP3    H219317   2.319   2.598   4.899
 6460TIP3   OH219318   1.985   1.902   4.595
 6460TIP3    H119319   2.027   1.988   4.615
 6460TIP3    H219320   1.906   1.907   4.654
 6461TIP3   OH219321   2.551   2.365   4.832
 6461TIP3    H119322   2.514   2.454   4.847
 6461TIP3    H219323   2.514   2.315   4.907
 6462TIP3   OH219324   2.690   2.941   5.362
 6462TIP3    H119325   2.724   3.013   5.305
 6462TIP3    H219326   2.771   2.910   5.404
 6463TIP3   OH219327   3.073   2.574   5.318
 6463TIP3    H119328   3.064   2.572   5.416
 6463TIP3    H219329   3.155   2.525   5.305
 6464TIP3   OH219330   3.052   2.470   4.199
 6464TIP3    H119331   3.104   2.443   4.278
 6464TIP3    H219332   2.963   2.444   4.227
 6465TIP3   OH219333   3.324   3.108   5.365
 6465TIP3    H119334   3.242   3.056   5.355
 6465TIP3    H219335   3.312   3.174   5.293
 6466TIP3   OH219336   3.390   2.943   4.018
 6466TIP3    H119337   3.427   3.018   3.968
 6466TIP3    H219338   3.309   2.986   4.054
 6467TIP3   OH219339   2.408   1.722   5.902
 6467TIP3    H119340   2.310   1.730   5.900
 6467TIP3    H219341   2.419   1.640   5.953
 6468TIP3   OH219342   3.212   2.399   4.413
 6468TIP3    H119343   3.202   2.335   4.486
 6468TIP3    H219344   3.309   2.399   4.402
 6469TIP3   OH219345   2.121   2.807   5.520
 6469TIP3    H119346   2.178   2.732   5.541
 6469TIP3    H219347   2.161   2.877   5.572
 6470TIP3   OH219348   2.417   2.448   4.197
 6470TIP3    H119349   2.429   2.355   4.173
 6470TIP3    H219350   2.398   2.442   4.293
 6471TIP3   OH219351   2.363   2.461   4.469
 6471TIP3    H119352   2.430   2.434   4.533
 6471TIP3    H219353   2.362   2.558   4.481
 6472TIP3   OH219354   2.096   2.149   4.676
 6472TIP3    H119355   2.029   2.193   4.733
 6472TIP3    H219356   2.107   2.217   4.607
 6473TIP3   OH219357   3.249   1.783   5.567
 6473TIP3    H119358   3.329   1.824   5.604
 6473TIP3    H219359   3.237   1.703   5.621
 6474TIP3   OH219360   3.134   1.530   4.733
 6474TIP3    H119361   3.115   1.553   4.640
 6474TIP3    H219362   3.169   1.615   4.768
 6475TIP3   OH219363   2.624   2.652   4.419
 6475TIP3    H119364   2.540   2.679   4.460
 6475TIP3    H219365   2.642   2.730   4.365
 6476TIP3   OH219366   2.819   1.713   4.833
 6476TIP3    H119367   2.880   1.787   4.815
 6476TIP3    H219368   2.821   1.709   4.931
 6477TIP3   OH219369   3.084   2.031   5.642
 6477TIP3    H119370   3.109   2.087   5.718
 6477TIP3    H219371   3.141   1.953   5.653
 6478TIP3   OH219372   2.960   1.440   4.937
 6478TIP3    H119373   2.941   1.520   4.989
 6478TIP3    H219374   3.021   1.477   4.869
 6479TIP3   OH219375   2.367   2.737   4.496
 6479TIP3    H119376   2.342   2.796   4.421
 6479TIP3    H219377   2.333   2.790   4.570
 6480TIP3   OH219378   2.472   1.441   4.728
 6480TIP3    H119379   2.468   1.533   4.761
 6480TIP3    H219380   2.568   1.425   4.734
 6481TIP3   OH219381   3.724   1.933   5.628
 6481TIP3    H119382   3.626   1.929   5.628
 6481TIP3    H219383   3.742   1.905   5.537
 6482TIP3   OH219384   3.376   2.127   5.010
 6482TIP3    H119385   3.300   2.068   5.022
 6482TIP3    H219386   3.448   2.080   5.059
 6483TIP3   OH219387   2.088   2.352   4.481
 6483TIP3    H119388   2.148   2.428   4.491
 6483TIP3    H219389   2.137   2.301   4.413
 6484TIP3   OH219390   2.032   1.631   4.613
 6484TIP3    H119391   2.032   1.729   4.611
 6484TIP3    H219392   1.948   1.612   4.570
 6485TIP3   OH219393   3.347   3.082   4.959
 6485TIP3    H119394   3.302   3.128   4.884
 6485TIP3    H219395   3.440   3.101   4.936
 6486TIP3   OH219396   2.424   1.351   5.484
 6486TIP3    H119397   2.391   1.320   5.397
 6486TIP3    H219398   2.410   1.272   5.541
 6487TIP3   OH219399   1.955   2.549   4.872
 6487TIP3    H119400   1.913   2.606   4.937
 6487TIP3    H219401   1.951   2.606   4.793
 6488TIP3   OH219402   2.117   3.115   5.939
 6488TIP3    H119403   2.204   3.115   5.986
 6488TIP3    H219404   2.096   3.021   5.937
 6489TIP3   OH219405   2.597   3.071   5.988
 6489TIP3    H119406   2.692   3.059   5.986
 6489TIP3    H219407   2.569   3.014   5.913
 6490TIP3   OH219408   2.579   2.651   4.107
 6490TIP3    H119409   2.522   2.582   4.147
 6490TIP3    H219410   2.655   2.598   4.078
 6491TIP3   OH219411   3.236   2.985   5.719
 6491TIP3    H119412   3.230   2.915   5.787
 6491TIP3    H219413   3.313   3.037   5.748
 6492TIP3   OH219414   3.016   2.691   4.023
 6492TIP3    H119415   3.057   2.626   4.083
 6492TIP3    H219416   3.074   2.689   3.945
 6493TIP3   OH219417   2.247   2.520   6.140
 6493TIP3    H119418   2.263   2.424   6.143
 6493TIP3    H219419   2.160   2.524   6.095
 6494TIP3   OH219420   2.226   2.168   4.332
 6494TIP3    H119421   2.281   2.139   4.406
 6494TIP3    H219422   2.293   2.173   4.261
 6495TIP3   OH219423   2.854   2.605   5.913
 6495TIP3    H119424   2.812   2.628   5.827
 6495TIP3    H219425   2.883   2.513   5.899
 6496TIP3   OH219426   2.740   2.369   4.140
 6496TIP3    H119427   2.739   2.382   4.237
 6496TIP3    H219428   2.737   2.271   4.135
 6497TIP3   OH219429   3.348   2.615   5.521
 6497TIP3    H119430   3.423   2.657   5.475
 6497TIP3    H219431   3.278   2.682   5.507
 6498TIP3   OH219432   2.360   2.259   6.130
 6498TIP3    H119433   2.437   2.216   6.093
 6498TIP3    H219434   2.390   2.283   6.220
 6499TIP3   OH219435   2.433   2.074   4.554
 6499TIP3    H119436   2.402   2.035   4.637
 6499TIP3    H219437   2.468   1.997   4.506
 6500TIP3   OH219438   2.707   2.141   5.789
 6500TIP3    H119439   2.625   2.195   5.787
 6500TIP3    H219440   2.754   2.173   5.709
 6501TIP3   OH219441   2.534   1.866   4.395
 6501TIP3    H119442   2.507   1.874   4.301
 6501TIP3    H219443   2.632   1.872   4.386
 6502TIP3   OH219444   3.217   2.539   5.918
 6502TIP3    H119445   3.294   2.515   5.865
 6502TIP3    H219446   3.217   2.471   5.987
 6503TIP3   OH219447   3.354   2.196   4.060
 6503TIP3    H119448   3.334   2.152   3.975
 6503TIP3    H219449   3.320   2.287   4.038
 6504TIP3   OH219450   2.822   1.927   5.912
 6504TIP3    H119451   2.825   1.850   5.852
 6504TIP3    H219452   2.783   1.996   5.853
 6505TIP3   OH219453   2.828   1.714   5.720
 6505TIP3    H119454   2.856   1.757   5.637
 6505TIP3    H219455   2.734   1.692   5.699
 6506TIP3   OH219456   2.853   2.250   5.593
 6506TIP3    H119457   2.937   2.264   5.546
 6506TIP3    H219458   2.794   2.314   5.547
 6507TIP3   OH219459   3.436   2.215   5.970
 6507TIP3    H119460   3.487   2.133   5.974
 6507TIP3    H219461   3.501   2.277   5.933
 6508TIP3   OH219462   3.476   2.468   5.706
 6508TIP3    H119463   3.419   2.523   5.647
 6508TIP3    H219464   3.564   2.489   5.667
 6509TIP3   OH219465   2.698   2.030   6.142
 6509TIP3    H119466   2.634   1.956   6.141
 6509TIP3    H219467   2.733   2.024   6.050
 6510TIP3   OH219468   2.959   1.476   5.785
 6510TIP3    H119469   2.910   1.558   5.761
 6510TIP3    H219470   2.890   1.408   5.772
 6511TIP3   OH219471   3.088   1.978   5.998
 6511TIP3    H119472   3.076   1.963   6.093
 6511TIP3    H219473   2.998   1.954   5.965
 6512TIP3   OH219474   3.325   1.930   5.853
 6512TIP3    H119475   3.250   1.932   5.916
 6512TIP3    H219476   3.399   1.900   5.910
 6513TIP3   OH219477   3.550   1.870   6.006
 6513TIP3    H119478   3.565   1.775   6.022
 6513TIP3    H219479   3.549   1.908   6.097
 6514TIP3   OH219480   2.554   1.803   6.201
 6514TIP3    H119481   2.535   1.768   6.113
 6514TIP3    H219482   2.585   1.721   6.243
 6515TIP3   OH219483   3.053   1.484   6.043
 6515TIP3    H119484   3.120   1.413   6.035
 6515TIP3    H219485   3.013   1.480   5.954
 6516TIP3   OH219486   3.120   1.697   6.202
 6516TIP3    H119487   3.101   1.626   6.137
 6516TIP3    H219488   3.043   1.756   6.191
 6517TIP3   OH219489   2.341   2.919   4.290
 6517TIP3    H119490   2.437   2.920   4.277
 6517TIP3    H219491   2.314   2.978   4.217
 6518TIP3   OH219492   1.819   2.312   4.511
 6518TIP3    H119493   1.914   2.333   4.502
 6518TIP3    H219494   1.815   2.222   4.472
 6519TIP3   OH219495   1.732   2.919   4.929
 6519TIP3    H119496   1.665   2.856   4.894
 6519TIP3    H219497   1.777   2.862   4.995
 6520TIP3   OH219498   1.863   2.772   5.118
 6520TIP3    H119499   1.859   2.701   5.184
 6520TIP3    H219500   1.924   2.835   5.162
 6521TIP3   OH219501   3.603   3.168   4.919
 6521TIP3    H119502   3.625   3.207   5.005
 6521TIP3    H219503   3.657   3.220   4.858
 6522TIP3   OH219504   3.626   3.197   5.201
 6522TIP3    H119505   3.581   3.111   5.194
 6522TIP3    H219506   3.702   3.171   5.256
 6523TIP3   OH219507   3.675   2.870   5.774
 6523TIP3    H119508   3.602   2.881   5.838
 6523TIP3    H219509   3.716   2.959   5.777
 6524TIP3   OH219510   3.491   2.383   4.391
 6524TIP3    H119511   3.557   2.449   4.362
 6524TIP3    H219512   3.535   2.346   4.471
 6525TIP3   OH219513   3.619   2.251   4.595
 6525TIP3    H119514   3.552   2.211   4.654
 6525TIP3    H219515   3.684   2.288   4.658
 6526TIP3   OH219516   3.675   2.645   5.029
 6526TIP3    H119517   3.725   2.579   4.979
 6526TIP3    H219518   3.668   2.719   4.966
 6527TIP3   OH219519   3.502   2.944   5.223
 6527TIP3    H119520   3.430   2.988   5.272
 6527TIP3    H219521   3.454   2.899   5.151
 6528TIP3   OH219522   3.557   2.160   4.240
 6528TIP3    H119523   3.485   2.161   4.173
 6528TIP3    H219524   3.528   2.235   4.296
 6529TIP3   OH219525   3.425   1.835   4.199
 6529TIP3    H119526   3.389   1.872   4.117
 6529TIP3    H219527   3.400   1.740   4.190
 6530TIP3   OH219528   3.431   2.111   4.741
 6530TIP3    H119529   3.440   2.014   4.734
 6530TIP3    H219530   3.417   2.123   4.838
 6531TIP3   OH219531   2.058   2.173   5.493
 6531TIP3    H119532   2.053   2.146   5.399
 6531TIP3    H219533   2.155   2.180   5.505
 6532TIP3   OH219534   3.721   2.534   5.600
 6532TIP3    H119535   3.793   2.468   5.589
 6532TIP3    H219536   3.744   2.602   5.535
 6533TIP3   OH219537   3.904   2.336   5.613
 6533TIP3    H119538   3.830   2.286   5.654
 6533TIP3    H219539   3.977   2.273   5.628
 6534TIP3   OH219540   3.371   1.569   4.187
 6534TIP3    H119541   3.447   1.532   4.236
 6534TIP3    H219542   3.299   1.506   4.203
 6535TIP3   OH219543   3.429   1.827   4.635
 6535TIP3    H119544   3.470   1.738   4.649
 6535TIP3    H219545   3.486   1.861   4.564
 6536TIP3   OH219546   3.589   1.996   5.132
 6536TIP3    H119547   3.674   2.021   5.090
 6536TIP3    H219548   3.604   2.035   5.220
 6537TIP3   OH219549   3.660   2.143   5.363
 6537TIP3    H119550   3.581   2.178   5.410
 6537TIP3    H219551   3.692   2.223   5.316
 6538TIP3   OH219552   2.275   1.864   6.170
 6538TIP3    H119553   2.371   1.857   6.178
 6538TIP3    H219554   2.246   1.776   6.201
 6539TIP3   OH219555   4.108   1.733   5.919
 6539TIP3    H119556   4.170   1.669   5.877
 6539TIP3    H219557   4.079   1.787   5.842
 6540TIP3   OH219558   3.534   1.575   4.674
 6540TIP3    H119559   3.585   1.561   4.756
 6540TIP3    H219560   3.475   1.498   4.674
 6541TIP3   OH219561   2.240   1.560   5.494
 6541TIP3    H119562   2.303   1.486   5.501
 6541TIP3    H219563   2.300   1.635   5.485
 6542TIP3   OH219564   2.043   1.834   5.572
 6542TIP3    H119565   2.088   1.828   5.485
 6542TIP3    H219566   2.058   1.926   5.595
 6543TIP3   OH219567   3.979   1.871   5.725
 6543TIP3    H119568   3.892   1.915   5.742
 6543TIP3    H219569   3.949   1.800   5.666
 6544TIP3   OH219570   3.626   1.505   4.312
 6544TIP3    H119571   3.675   1.444   4.255
 6544TIP3    H219572   3.684   1.584   4.311
 6545TIP3   OH219573   2.023   1.341   5.070
 6545TIP3    H119574   1.930   1.332   5.096
 6545TIP3    H219575   2.017   1.397   4.990
 6546TIP3   OH219576   3.184   3.036   4.574
 6546TIP3    H119577   3.237   3.030   4.491
 6546TIP3    H219578   3.228   3.109   4.621
 6547TIP3   OH219579   2.245   1.418   5.883
 6547TIP3    H119580   2.191   1.417   5.964
 6547TIP3    H219581   2.181   1.458   5.820
 6548TIP3   OH219582   2.285   2.841   5.959
 6548TIP3    H119583   2.191   2.820   5.940
 6548TIP3    H219584   2.287   2.832   6.055
 6549TIP3   OH219585   2.463   2.880   5.509
 6549TIP3    H119586   2.413   2.953   5.467
 6549TIP3    H219587   2.549   2.895   5.463
 6550TIP3   OH219588   2.904   3.119   5.644
 6550TIP3    H119589   2.946   3.124   5.732
 6550TIP3    H219590   2.968   3.171   5.591
 6551TIP3   OH219591   3.082   3.273   5.507
 6551TIP3    H119592   3.152   3.227   5.458
 6551TIP3    H219593   3.136   3.331   5.566
 6552TIP3   OH219594   3.880   1.636   5.604
 6552TIP3    H119595   3.790   1.632   5.566
 6552TIP3    H219596   3.911   1.544   5.592
 6553TIP3   OH219597   2.137   3.134   5.531
 6553TIP3    H119598   2.049   3.167   5.504
 6553TIP3    H219599   2.144   3.177   5.618
 6554TIP3   OH219600   2.376   3.112   5.390
 6554TIP3    H119601   2.288   3.126   5.430
 6554TIP3    H219602   2.360   3.143   5.298
 6555TIP3   OH219603   2.801   3.137   5.189
 6555TIP3    H119604   2.726   3.151   5.126
 6555TIP3    H219605   2.811   3.228   5.225
 6556TIP3   OH219606   3.069   3.079   5.240
 6556TIP3    H119607   2.975   3.096   5.221
 6556TIP3    H219608   3.111   3.153   5.193
 6557TIP3   OH219609   3.278   3.270   5.152
 6557TIP3    H119610   3.260   3.354   5.104
 6557TIP3    H219611   3.301   3.211   5.077
 6558TIP3   OH219612   2.037   2.931   5.280
 6558TIP3    H119613   2.070   2.905   5.369
 6558TIP3    H219614   2.109   2.891   5.226
 6559TIP3   OH219615   2.238   2.809   5.159
 6559TIP3    H119616   2.270   2.723   5.191
 6559TIP3    H219617   2.312   2.842   5.106
 6560TIP3   OH219618   2.520   2.888   5.130
 6560TIP3    H119619   2.542   2.793   5.133
 6560TIP3    H219620   2.553   2.917   5.216
 6561TIP3   OH219621   3.090   1.554   5.232
 6561TIP3    H119622   3.041   1.484   5.279
 6561TIP3    H219623   3.157   1.505   5.182
 6562TIP3   OH219624   3.606   1.424   5.124
 6562TIP3    H119625   3.645   1.480   5.052
 6562TIP3    H219626   3.513   1.451   5.120
 6563TIP3   OH219627   3.701   1.528   4.890
 6563TIP3    H119628   3.777   1.480   4.849
 6563TIP3    H219629   3.732   1.621   4.879
 6564TIP3   OH219630   2.333   1.259   5.238
 6564TIP3    H119631   2.240   1.229   5.239
 6564TIP3    H219632   2.380   1.173   5.232
 6565TIP3   OH219633   2.130   1.130   4.889
 6565TIP3    H119634   2.151   1.188   4.814
 6565TIP3    H219635   2.094   1.194   4.954
 6566TIP3   OH219636   2.784   1.286   5.119
 6566TIP3    H119637   2.836   1.340   5.058
 6566TIP3    H219638   2.792   1.334   5.201
 6567TIP3   OH219639   3.323   1.440   5.103
 6567TIP3    H119640   3.308   1.411   5.013
 6567TIP3    H219641   3.306   1.359   5.155
 6568TIP3   OH219642   3.354   1.361   4.664
 6568TIP3    H119643   3.271   1.410   4.678
 6568TIP3    H219644   3.334   1.276   4.710
 6569TIP3   OH219645   1.843   2.697   4.658
 6569TIP3    H119646   1.754   2.671   4.628
 6569TIP3    H219647   1.836   2.793   4.654
 6570TIP3   OH219648   2.237   1.287   4.650
 6570TIP3    H119649   2.286   1.226   4.591
 6570TIP3    H219650   2.310   1.342   4.686
 6571TIP3   OH219651   2.749   1.464   4.748
 6571TIP3    H119652   2.810   1.419   4.810
 6571TIP3    H219653   2.769   1.557   4.772
 6572TIP3   OH219654   2.609   2.886   4.247
 6572TIP3    H119655   2.697   2.910   4.211
 6572TIP3    H219656   2.588   2.811   4.187
 6573TIP3   OH219657   3.330   3.009   4.340
 6573TIP3    H119658   3.321   2.911   4.329
 6573TIP3    H219659   3.281   3.040   4.261
 6574TIP3   OH219660   2.533   1.527   6.132
 6574TIP3    H119661   2.503   1.455   6.190
 6574TIP3    H219662   2.629   1.529   6.154
 6575TIP3   OH219663   2.786   1.535   6.236
 6575TIP3    H119664   2.873   1.512   6.200
 6575TIP3    H219665   2.780   1.476   6.313
 6576TIP3   OH219666   1.911   2.725   4.304
 6576TIP3    H119667   1.910   2.746   4.399
 6576TIP3    H219668   2.001   2.685   4.293
 6577TIP3   OH219669   3.617   1.600   6.035
 6577TIP3    H119670   3.636   1.569   6.126
 6577TIP3    H219671   3.706   1.596   5.994
 6578TIP3   OH219672   3.551   3.149   5.529
 6578TIP3    H119673   3.474   3.119   5.478
 6578TIP3    H219674   3.532   3.245   5.534
 6579TIP3   OH219675   4.824   2.527   4.286
 6579TIP3    H119676   4.796   2.619   4.272
 6579TIP3    H219677   4.739   2.481   4.288
 6580TIP3   OH219678   4.828   2.515   4.688
 6580TIP3    H119679   4.829   2.478   4.780
 6580TIP3    H219680   4.783   2.443   4.644
 6581TIP3   OH219681   4.118   2.422   5.046
 6581TIP3    H119682   4.150   2.353   5.107
 6581TIP3    H219683   4.201   2.465   5.022
 6582TIP3   OH219684   5.062   2.828   4.359
 6582TIP3    H119685   5.049   2.759   4.425
 6582TIP3    H219686   5.092   2.903   4.413
 6583TIP3   OH219687   4.091   2.828   4.763
 6583TIP3    H119688   4.082   2.730   4.765
 6583TIP3    H219689   4.188   2.836   4.762
 6584TIP3   OH219690   3.797   2.030   4.548
 6584TIP3    H119691   3.748   2.113   4.565
 6584TIP3    H219692   3.726   1.978   4.506
 6585TIP3   OH219693   3.854   2.318   4.725
 6585TIP3    H119694   3.904   2.241   4.759
 6585TIP3    H219695   3.917   2.355   4.661
 6586TIP3   OH219696   4.713   3.287   4.372
 6586TIP3    H119697   4.760   3.214   4.327
 6586TIP3    H219698   4.704   3.253   4.462
 6587TIP3   OH219699   4.618   2.750   4.723
 6587TIP3    H119700   4.657   2.667   4.692
 6587TIP3    H219701   4.701   2.797   4.746
 6588TIP3   OH219702   5.636   2.071   4.722
 6588TIP3    H119703   5.663   2.153   4.769
 6588TIP3    H219704   5.649   2.098   4.630
 6589TIP3   OH219705   5.095   2.262   4.728
 6589TIP3    H119706   5.083   2.200   4.801
 6589TIP3    H219707   5.012   2.249   4.679
 6590TIP3   OH219708   4.371   1.909   4.719
 6590TIP3    H119709   4.351   1.984   4.660
 6590TIP3    H219710   4.323   1.837   4.673
 6591TIP3   OH219711   5.066   1.998   4.343
 6591TIP3    H119712   5.134   1.984   4.413
 6591TIP3    H219713   5.121   2.041   4.275
 6592TIP3   OH219714   4.001   2.111   4.828
 6592TIP3    H119715   4.084   2.092   4.875
 6592TIP3    H219716   4.014   2.056   4.748
 6593TIP3   OH219717   4.442   2.309   4.618
 6593TIP3    H119718   4.535   2.281   4.634
 6593TIP3    H219719   4.402   2.225   4.590
 6594TIP3   OH219720   5.707   2.279   4.890
 6594TIP3    H119721   5.622   2.325   4.868
 6594TIP3    H219722   5.709   2.294   4.986
 6595TIP3   OH219723   4.365   1.893   5.155
 6595TIP3    H119724   4.307   1.931   5.086
 6595TIP3    H219725   4.312   1.915   5.235
 6596TIP3   OH219726   4.718   2.754   4.157
 6596TIP3    H119727   4.654   2.732   4.089
 6596TIP3    H219728   4.678   2.837   4.190
 6597TIP3   OH219729   4.455   2.659   4.955
 6597TIP3    H119730   4.403   2.734   4.990
 6597TIP3    H219731   4.522   2.704   4.901
 6598TIP3   OH219732   5.272   2.002   4.524
 6598TIP3    H119733   5.233   1.976   4.610
 6598TIP3    H219734   5.317   2.086   4.549
 6599TIP3   OH219735   4.231   2.001   4.937
 6599TIP3    H119736   4.291   2.076   4.962
 6599TIP3    H219737   4.284   1.963   4.862
 6600TIP3   OH219738   4.300   2.870   5.050
 6600TIP3    H119739   4.275   2.956   5.013
 6600TIP3    H219740   4.220   2.852   5.105
 6601TIP3   OH219741   3.694   2.554   4.283
 6601TIP3    H119742   3.649   2.582   4.202
 6601TIP3    H219743   3.723   2.640   4.320
 6602TIP3   OH219744   5.132   3.069   4.519
 6602TIP3    H119745   5.044   3.061   4.562
 6602TIP3    H219746   5.125   3.158   4.479
 6603TIP3   OH219747   5.428   1.968   4.889
 6603TIP3    H119748   5.338   1.992   4.861
 6603TIP3    H219749   5.482   2.002   4.815
 6604TIP3   OH219750   4.720   1.613   4.871
 6604TIP3    H119751   4.705   1.518   4.887
 6604TIP3    H219752   4.643   1.652   4.917
 6605TIP3   OH219753   4.836   3.112   4.195
 6605TIP3    H119754   4.889   3.031   4.177
 6605TIP3    H219755   4.896   3.180   4.156
 6606TIP3   OH219756   4.982   2.894   4.104
 6606TIP3    H119757   4.917   2.824   4.090
 6606TIP3    H219758   5.023   2.867   4.189
 6607TIP3   OH219759   5.361   2.981   4.869
 6607TIP3    H119760   5.348   2.904   4.810
 6607TIP3    H219761   5.342   3.056   4.808
 6608TIP3   OH219762   4.644   2.360   4.124
 6608TIP3    H119763   4.570   2.423   4.113
 6608TIP3    H219764   4.706   2.384   4.053
 6609TIP3   OH219765   4.609   2.196   3.831
 6609TIP3    H119766   4.680   2.211   3.897
 6609TIP3    H219767   4.652   2.126   3.778
 6610TIP3   OH219768   5.554   2.620   4.711
 6610TIP3    H119769   5.470   2.670   4.717
 6610TIP3    H219770   5.584   2.646   4.621
 6611TIP3   OH219771   5.003   2.457   4.096
 6611TIP3    H119772   4.948   2.481   4.175
 6611TIP3    H219773   5.086   2.432   4.140
 6612TIP3   OH219774   5.236   2.498   5.002
 6612TIP3    H119775   5.220   2.581   5.050
 6612TIP3    H219776   5.153   2.488   4.952
 6613TIP3   OH219777   4.236   2.457   4.509
 6613TIP3    H119778   4.195   2.396   4.444
 6613TIP3    H219779   4.310   2.403   4.544
 6614TIP3   OH219780   4.364   2.871   4.661
 6614TIP3    H119781   4.344   2.824   4.579
 6614TIP3    H219782   4.451   2.834   4.685
 6615TIP3   OH219783   4.358   2.422   4.867
 6615TIP3    H119784   4.402   2.399   4.782
 6615TIP3    H219785   4.405   2.505   4.892
 6616TIP3   OH219786   4.893   3.066   4.643
 6616TIP3    H119787   4.880   3.145   4.698
 6616TIP3    H219788   4.878   2.993   4.707
 6617TIP3   OH219789   4.506   2.984   5.193
 6617TIP3    H119790   4.445   3.046   5.238
 6617TIP3    H219791   4.442   2.931   5.142
 6618TIP3   OH219792   4.838   2.330   3.924
 6618TIP3    H119793   4.903   2.383   3.976
 6618TIP3    H219794   4.869   2.348   3.832
 6619TIP3   OH219795   4.264   2.534   5.303
 6619TIP3    H119796   4.266   2.625   5.341
 6619TIP3    H219797   4.167   2.519   5.303
 6620TIP3   OH219798   4.585   2.992   4.193
 6620TIP3    H119799   4.663   3.048   4.211
 6620TIP3    H219800   4.520   3.057   4.164
 6621TIP3   OH219801   4.299   3.152   5.279
 6621TIP3    H119802   4.265   3.153   5.188
 6621TIP3    H219803   4.218   3.129   5.331
 6622TIP3   OH219804   5.348   1.560   3.969
 6622TIP3    H119805   5.265   1.553   4.022
 6622TIP3    H219806   5.356   1.656   3.967
 6623TIP3   OH219807   4.102   2.299   4.307
 6623TIP3    H119808   4.028   2.342   4.260
 6623TIP3    H219809   4.064   2.213   4.330
 6624TIP3   OH219810   5.153   2.922   3.518
 6624TIP3    H119811   5.161   3.020   3.507
 6624TIP3    H219812   5.246   2.894   3.505
 6625TIP3   OH219813   3.877   2.684   5.226
 6625TIP3    H119814   3.811   2.663   5.157
 6625TIP3    H219815   3.915   2.596   5.247
 6626TIP3   OH219816   3.731   2.875   4.860
 6626TIP3    H119817   3.827   2.874   4.851
 6626TIP3    H219818   3.717   2.956   4.911
 6627TIP3   OH219819   5.596   3.328   4.918
 6627TIP3    H119820   5.594   3.231   4.930
 6627TIP3    H219821   5.512   3.354   4.963
 6628TIP3   OH219822   4.701   3.113   5.049
 6628TIP3    H119823   4.699   3.206   5.081
 6628TIP3    H219824   4.629   3.073   5.103
 6629TIP3   OH219825   4.468   3.243   4.001
 6629TIP3    H119826   4.416   3.228   3.920
 6629TIP3    H219827   4.434   3.330   4.032
 6630TIP3   OH219828   3.904   3.088   4.385
 6630TIP3    H119829   3.950   3.080   4.471
 6630TIP3    H219830   3.844   3.012   4.389
 6631TIP3   OH219831   4.665   3.142   3.639
 6631TIP3    H119832   4.726   3.073   3.606
 6631TIP3    H219833   4.698   3.154   3.731
 6632TIP3   OH219834   4.716   3.187   3.909
 6632TIP3    H119835   4.627   3.200   3.950
 6632TIP3    H219836   4.766   3.155   3.985
 6633TIP3   OH219837   5.486   2.461   5.184
 6633TIP3    H119838   5.400   2.470   5.139
 6633TIP3    H219839   5.499   2.364   5.179
 6634TIP3   OH219840   4.081   2.867   5.214
 6634TIP3    H119841   4.131   2.848   5.296
 6634TIP3    H219842   4.007   2.803   5.220
 6635TIP3   OH219843   4.483   1.688   5.001
 6635TIP3    H119844   4.393   1.659   4.973
 6635TIP3    H219845   4.459   1.771   5.046
 6636TIP3   OH219846   5.014   1.797   5.197
 6636TIP3    H119847   5.084   1.774   5.262
 6636TIP3    H219848   4.932   1.781   5.247
 6637TIP3   OH219849   5.267   2.243   5.120
 6637TIP3    H119850   5.209   2.227   5.198
 6637TIP3    H219851   5.222   2.317   5.076
 6638TIP3   OH219852   4.905   2.367   3.665
 6638TIP3    H119853   4.873   2.336   3.578
 6638TIP3    H219854   4.989   2.410   3.640
 6639TIP3   OH219855   4.633   1.737   3.970
 6639TIP3    H119856   4.599   1.733   4.062
 6639TIP3    H219857   4.588   1.658   3.934
 6640TIP3   OH219858   4.398   2.193   5.016
 6640TIP3    H119859   4.353   2.227   5.096
 6640TIP3    H219860   4.403   2.274   4.961
 6641TIP3   OH219861   4.295   2.091   4.533
 6641TIP3    H119862   4.203   2.062   4.552
 6641TIP3    H219863   4.308   2.049   4.445
 6642TIP3   OH219864   4.791   2.174   4.259
 6642TIP3    H119865   4.735   2.242   4.216
 6642TIP3    H219866   4.845   2.144   4.183
 6643TIP3   OH219867   4.964   2.477   5.374
 6643TIP3    H119868   4.939   2.388   5.404
 6643TIP3    H219869   5.061   2.468   5.371
 6644TIP3   OH219870   4.930   2.201   4.500
 6644TIP3    H119871   4.872   2.223   4.425
 6644TIP3    H219872   4.973   2.122   4.463
 6645TIP3   OH219873   4.232   2.239   5.231
 6645TIP3    H119874   4.258   2.303   5.299
 6645TIP3    H219875   4.226   2.156   5.282
 6646TIP3   OH219876   4.288   1.713   3.935
 6646TIP3    H119877   4.275   1.703   4.032
 6646TIP3    H219878   4.206   1.759   3.910
 6647TIP3   OH219879   3.818   1.759   4.821
 6647TIP3    H119880   3.901   1.788   4.864
 6647TIP3    H219881   3.845   1.731   4.732
 6648TIP3   OH219882   3.791   1.729   4.324
 6648TIP3    H119883   3.836   1.772   4.248
 6648TIP3    H219884   3.732   1.802   4.351
 6649TIP3   OH219885   4.624   1.904   4.587
 6649TIP3    H119886   4.543   1.908   4.642
 6649TIP3    H219887   4.692   1.926   4.652
 6650TIP3   OH219888   4.058   1.969   4.599
 6650TIP3    H119889   3.963   1.977   4.572
 6650TIP3    H219890   4.079   1.876   4.577
 6651TIP3   OH219891   4.327   1.967   4.293
 6651TIP3    H119892   4.420   1.981   4.269
 6651TIP3    H219893   4.278   1.988   4.210
 6652TIP3   OH219894   5.132   1.962   4.776
 6652TIP3    H119895   5.111   1.982   4.871
 6652TIP3    H219896   5.048   1.922   4.749
 6653TIP3   OH219897   4.173   2.006   4.072
 6653TIP3    H119898   4.100   1.952   4.037
 6653TIP3    H219899   4.218   2.032   3.990
 6654TIP3   OH219900   5.289   3.677   5.014
 6654TIP3    H119901   5.286   3.702   4.920
 6654TIP3    H219902   5.369   3.725   5.044
 6655TIP3   OH219903   4.244   2.787   5.434
 6655TIP3    H119904   4.324   2.817   5.481
 6655TIP3    H219905   4.179   2.787   5.508
 6656TIP3   OH219906   4.697   2.229   4.670
 6656TIP3    H119907   4.784   2.203   4.637
 6656TIP3    H219908   4.718   2.253   4.764
 6657TIP3   OH219909   4.231   1.728   4.567
 6657TIP3    H119910   4.195   1.651   4.616
 6657TIP3    H219911   4.267   1.687   4.487
 6658TIP3   OH219912   4.427   2.521   4.072
 6658TIP3    H119913   4.351   2.458   4.067
 6658TIP3    H219914   4.407   2.562   4.161
 6659TIP3   OH219915   5.321   2.764   4.702
 6659TIP3    H119916   5.344   2.815   4.621
 6659TIP3    H219917   5.235   2.723   4.677
 6660TIP3   OH219918   4.878   1.845   3.927
 6660TIP3    H119919   4.784   1.820   3.945
 6660TIP3    H219920   4.884   1.937   3.961
 6661TIP3   OH219921   4.833   2.857   5.068
 6661TIP3    H119922   4.841   2.820   5.157
 6661TIP3    H219923   4.783   2.940   5.082
 6662TIP3   OH219924   4.948   2.091   4.036
 6662TIP3    H119925   5.043   2.093   4.060
 6662TIP3    H219926   4.936   2.175   3.989
 6663TIP3   OH219927   4.114   2.547   4.747
 6663TIP3    H119928   4.153   2.522   4.661
 6663TIP3    H219929   4.166   2.494   4.808
 6664TIP3   OH219930   4.550   2.643   3.866
 6664TIP3    H119931   4.520   2.738   3.863
 6664TIP3    H219932   4.505   2.617   3.950
 6665TIP3   OH219933   3.994   2.472   5.364
 6665TIP3    H119934   4.014   2.457   5.459
 6665TIP3    H219935   3.925   2.405   5.347
 6666TIP3   OH219936   4.713   2.587   5.385
 6666TIP3    H119937   4.656   2.520   5.343
 6666TIP3    H219938   4.803   2.552   5.362
 6667TIP3   OH219939   4.982   3.115   4.964
 6667TIP3    H119940   4.886   3.103   4.979
 6667TIP3    H219941   5.008   3.163   5.045
 6668TIP3   OH219942   5.384   2.176   3.884
 6668TIP3    H119943   5.331   2.129   3.816
 6668TIP3    H219944   5.390   2.263   3.839
 6669TIP3   OH219945   5.611   3.038   4.958
 6669TIP3    H119946   5.514   3.032   4.949
 6669TIP3    H219947   5.638   3.009   4.868
 6670TIP3   OH219948   5.084   2.999   3.784
 6670TIP3    H119949   5.066   2.936   3.855
 6670TIP3    H219950   5.104   2.943   3.708
 6671TIP3   OH219951   5.084   2.625   4.622
 6671TIP3    H119952   4.994   2.593   4.646
 6671TIP3    H219953   5.119   2.544   4.580
 6672TIP3   OH219954   4.214   2.852   4.366
 6672TIP3    H119955   4.209   2.937   4.318
 6672TIP3    H219956   4.121   2.840   4.391
 6673TIP3   OH219957   3.780   2.155   4.077
 6673TIP3    H119958   3.823   2.240   4.099
 6673TIP3    H219959   3.701   2.159   4.136
 6674TIP3   OH219960   4.353   2.620   4.310
 6674TIP3    H119961   4.315   2.708   4.331
 6674TIP3    H219962   4.320   2.568   4.386
 6675TIP3   OH219963   4.485   3.199   4.844
 6675TIP3    H119964   4.527   3.271   4.794
 6675TIP3    H219965   4.561   3.161   4.890
 6676TIP3   OH219966   4.135   3.090   4.226
 6676TIP3    H119967   4.049   3.102   4.271
 6676TIP3    H219968   4.169   3.183   4.229
 6677TIP3   OH219969   4.871   2.835   4.800
 6677TIP3    H119970   4.861   2.834   4.898
 6677TIP3    H219971   4.945   2.774   4.788
 6678TIP3   OH219972   4.835   2.714   3.691
 6678TIP3    H119973   4.900   2.686   3.760
 6678TIP3    H219974   4.755   2.718   3.744
 6679TIP3   OH219975   5.121   3.364   4.853
 6679TIP3    H119976   5.043   3.307   4.849
 6679TIP3    H219977   5.103   3.428   4.781
 6680TIP3   OH219978   5.180   3.203   3.497
 6680TIP3    H119979   5.175   3.258   3.416
 6680TIP3    H219980   5.108   3.245   3.548
 6681TIP3   OH219981   4.205   1.977   5.371
 6681TIP3    H119982   4.109   1.978   5.383
 6681TIP3    H219983   4.234   1.918   5.444
 6682TIP3   OH219984   5.009   2.645   3.890
 6682TIP3    H119985   5.000   2.591   3.971
 6682TIP3    H219986   5.106   2.651   3.885
 6683TIP3   OH219987   3.924   3.060   5.001
 6683TIP3    H119988   3.976   2.985   5.036
 6683TIP3    H219989   3.952   3.131   5.060
 6684TIP3   OH219990   4.239   2.697   3.684
 6684TIP3    H119991   4.219   2.606   3.658
 6684TIP3    H219992   4.209   2.698   3.778
 6685TIP3   OH219993   4.166   2.711   3.949
 6685TIP3    H119994   4.213   2.686   4.029
 6685TIP3    H219995   4.162   2.809   3.958
 6686TIP3   OH219996   3.892   2.406   4.162
 6686TIP3    H119997   3.825   2.447   4.220
 6686TIP3    H219998   3.900   2.476   4.094
 6687TIP3   OH219999   5.068   2.015   5.033
 6687TIP3    H120000   5.071   2.092   5.091
 6687TIP3    H220001   5.043   1.944   5.096
 6688TIP3   OH220002   4.935   1.787   4.219
 6688TIP3    H120003   4.911   1.817   4.130
 6688TIP3    H220004   4.970   1.868   4.261
 6689TIP3   OH220005   4.433   2.898   3.896
 6689TIP3    H120006   4.348   2.918   3.940
 6689TIP3    H220007   4.448   2.983   3.852
 6690TIP3   OH220008   4.612   1.974   4.321
 6690TIP3    H120009   4.677   2.047   4.310
 6690TIP3    H220010   4.614   1.961   4.419
 6691TIP3   OH220011   4.756   1.694   4.424
 6691TIP3    H120012   4.747   1.769   4.487
 6691TIP3    H220013   4.819   1.731   4.359
 6692TIP3   OH220014   4.174   2.980   3.975
 6692TIP3    H120015   4.142   3.049   3.913
 6692TIP3    H220016   4.156   3.023   4.062
 6693TIP3   OH220017   4.282   1.702   4.210
 6693TIP3    H120018   4.274   1.790   4.252
 6693TIP3    H220019   4.378   1.687   4.218
 6694TIP3   OH220020   5.526   2.188   5.106
 6694TIP3    H120021   5.429   2.195   5.122
 6694TIP3    H220022   5.525   2.140   5.023
 6695TIP3   OH220023   5.176   2.382   4.490
 6695TIP3    H120024   5.099   2.335   4.526
 6695TIP3    H220025   5.247   2.339   4.543
 6696TIP3   OH220026   3.886   2.609   3.968
 6696TIP3    H120027   3.940   2.688   3.974
 6696TIP3    H220028   3.934   2.560   3.898
 6697TIP3   OH220029   3.835   1.887   4.104
 6697TIP3    H120030   3.826   1.985   4.100
 6697TIP3    H220031   3.766   1.858   4.044
 6698TIP3   OH220032   5.142   3.339   4.445
 6698TIP3    H120033   5.099   3.386   4.370
 6698TIP3    H220034   5.236   3.360   4.425
 6699TIP3   OH220035   4.218   1.608   4.973
 6699TIP3    H120036   4.188   1.577   4.885
 6699TIP3    H220037   4.206   1.529   5.029
 6700TIP3   OH220038   3.751   2.822   4.351
 6700TIP3    H120039   3.688   2.855   4.417
 6700TIP3    H220040   3.719   2.867   4.269
 6701TIP3   OH220041   3.914   3.372   5.427
 6701TIP3    H120042   4.001   3.370   5.472
 6701TIP3    H220043   3.892   3.277   5.423
 6702TIP3   OH220044   4.394   3.331   5.470
 6702TIP3    H120045   4.488   3.311   5.475
 6702TIP3    H220046   4.366   3.272   5.397
 6703TIP3   OH220047   4.377   2.915   3.589
 6703TIP3    H120048   4.329   2.841   3.632
 6703TIP3    H220049   4.453   2.868   3.549
 6704TIP3   OH220050   5.031   3.242   5.205
 6704TIP3    H120051   5.024   3.171   5.273
 6704TIP3    H220052   5.109   3.291   5.235
 6705TIP3   OH220053   4.812   2.948   3.504
 6705TIP3    H120054   4.865   2.896   3.567
 6705TIP3    H220055   4.868   2.948   3.424
 6706TIP3   OH220056   4.043   2.776   5.626
 6706TIP3    H120057   4.058   2.679   5.631
 6706TIP3    H220058   3.956   2.779   5.580
 6707TIP3   OH220059   4.027   2.428   3.814
 6707TIP3    H120060   4.070   2.391   3.893
 6707TIP3    H220061   4.100   2.424   3.749
 6708TIP3   OH220062   4.649   2.862   5.400
 6708TIP3    H120063   4.608   2.881   5.313
 6708TIP3    H220064   4.678   2.769   5.390
 6709TIP3   OH220065   5.145   2.868   5.007
 6709TIP3    H120066   5.217   2.917   4.963
 6709TIP3    H220067   5.070   2.928   4.994
 6710TIP3   OH220068   4.162   2.509   5.610
 6710TIP3    H120069   4.241   2.465   5.579
 6710TIP3    H220070   4.191   2.543   5.698
 6711TIP3   OH220071   4.234   2.330   4.043
 6711TIP3    H120072   4.196   2.300   4.128
 6711TIP3    H220073   4.258   2.245   4.001
 6712TIP3   OH220074   4.510   2.406   5.263
 6712TIP3    H120075   4.427   2.460   5.269
 6712TIP3    H220076   4.535   2.418   5.170
 6713TIP3   OH220077   4.328   2.126   3.876
 6713TIP3    H120078   4.299   2.120   3.783
 6713TIP3    H220079   4.423   2.111   3.868
 6714TIP3   OH220080   5.020   2.799   5.404
 6714TIP3    H120081   5.090   2.764   5.348
 6714TIP3    H220082   5.001   2.724   5.462
 6715TIP3   OH220083   5.146   2.451   3.548
 6715TIP3    H120084   5.127   2.409   3.463
 6715TIP3    H220085   5.114   2.542   3.528
 6716TIP3   OH220086   4.617   2.186   5.395
 6716TIP3    H120087   4.623   2.108   5.336
 6716TIP3    H220088   4.584   2.255   5.333
 6717TIP3   OH220089   4.623   1.975   5.199
 6717TIP3    H120090   4.646   2.032   5.124
 6717TIP3    H220091   4.529   1.953   5.180
 6718TIP3   OH220092   5.239   2.473   5.461
 6718TIP3    H120093   5.282   2.386   5.462
 6718TIP3    H220094   5.306   2.529   5.420
 6719TIP3   OH220095   5.273   2.729   5.199
 6719TIP3    H120096   5.216   2.780   5.137
 6719TIP3    H220097   5.360   2.745   5.158
 6720TIP3   OH220098   4.499   2.292   5.628
 6720TIP3    H120099   4.431   2.223   5.642
 6720TIP3    H220100   4.533   2.268   5.540
 6721TIP3   OH220101   4.751   1.735   5.274
 6721TIP3    H120102   4.704   1.816   5.246
 6721TIP3    H220103   4.682   1.667   5.260
 6722TIP3   OH220104   4.884   2.233   5.480
 6722TIP3    H120105   4.871   2.224   5.576
 6722TIP3    H220106   4.794   2.211   5.448
 6723TIP3   OH220107   5.125   2.190   5.342
 6723TIP3    H120108   5.044   2.192   5.397
 6723TIP3    H220109   5.193   2.156   5.404
 6724TIP3   OH220110   5.361   2.129   5.496
 6724TIP3    H120111   5.369   2.033   5.512
 6724TIP3    H220112   5.353   2.165   5.587
 6725TIP3   OH220113   4.336   2.073   5.682
 6725TIP3    H120114   4.345   1.983   5.646
 6725TIP3    H220115   4.374   2.060   5.771
 6726TIP3   OH220116   4.847   1.741   5.531
 6726TIP3    H120117   4.915   1.671   5.523
 6726TIP3    H220118   4.808   1.737   5.442
 6727TIP3   OH220119   4.915   1.956   5.689
 6727TIP3    H120120   4.894   1.886   5.624
 6727TIP3    H220121   4.838   2.016   5.680
 6728TIP3   OH220122   4.136   3.177   3.783
 6728TIP3    H120123   4.232   3.180   3.767
 6728TIP3    H220124   4.105   3.235   3.710
 6729TIP3   OH220125   3.615   2.568   4.000
 6729TIP3    H120126   3.711   2.587   3.988
 6729TIP3    H220127   3.608   2.478   3.960
 6730TIP3   OH220128   3.534   3.177   4.417
 6730TIP3    H120129   3.465   3.118   4.379
 6730TIP3    H220130   3.577   3.118   4.482
 6731TIP3   OH220131   3.671   3.025   4.602
 6731TIP3    H120132   3.653   2.958   4.669
 6731TIP3    H220133   3.721   3.090   4.655
 6732TIP3   OH220134   5.395   3.431   4.404
 6732TIP3    H120135   5.419   3.463   4.493
 6732TIP3    H220136   5.458   3.479   4.348
 6733TIP3   OH220137   5.421   3.450   4.685
 6733TIP3    H120138   5.379   3.362   4.684
 6733TIP3    H220139   5.500   3.431   4.738
 6734TIP3   OH220140   5.476   3.123   5.265
 6734TIP3    H120141   5.400   3.134   5.326
 6734TIP3    H220142   5.514   3.213   5.265
 6735TIP3   OH220143   5.288   2.640   3.877
 6735TIP3    H120144   5.357   2.704   3.850
 6735TIP3    H220145   5.330   2.602   3.958
 6736TIP3   OH220146   5.414   2.506   4.080
 6736TIP3    H120147   5.349   2.465   4.142
 6736TIP3    H220148   5.481   2.543   4.142
 6737TIP3   OH220149   5.469   2.902   4.513
 6737TIP3    H120150   5.524   2.836   4.465
 6737TIP3    H220151   5.464   2.975   4.449
 6738TIP3   OH220152   5.298   3.199   4.709
 6738TIP3    H120153   5.227   3.243   4.760
 6738TIP3    H220154   5.247   3.154   4.638
 6739TIP3   OH220155   5.353   2.414   3.727
 6739TIP3    H120156   5.279   2.420   3.661
 6739TIP3    H220157   5.328   2.488   3.785
 6740TIP3   OH220158   5.231   2.079   3.676
 6740TIP3    H120159   5.183   2.129   3.609
 6740TIP3    H220160   5.199   1.988   3.659
 6741TIP3   OH220161   5.228   2.365   4.226
 6741TIP3    H120162   5.237   2.268   4.225
 6741TIP3    H220163   5.211   2.381   4.322
 6742TIP3   OH220164   3.854   2.435   4.978
 6742TIP3    H120165   3.852   2.405   4.885
 6742TIP3    H220166   3.951   2.440   4.994
 6743TIP3   OH220167   5.519   2.790   5.090
 6743TIP3    H120168   5.591   2.725   5.077
 6743TIP3    H220169   5.541   2.859   5.024
 6744TIP3   OH220170   5.708   2.596   5.105
 6744TIP3    H120171   5.628   2.549   5.139
 6744TIP3    H220172   5.774   2.525   5.119
 6745TIP3   OH220173   5.164   1.808   3.671
 6745TIP3    H120174   5.188   1.786   3.761
 6745TIP3    H220175   5.075   1.767   3.665
 6746TIP3   OH220176   5.223   2.077   4.119
 6746TIP3    H120177   5.266   1.990   4.133
 6746TIP3    H220178   5.283   2.116   4.051
 6747TIP3   OH220179   5.390   2.247   4.611
 6747TIP3    H120180   5.477   2.280   4.580
 6747TIP3    H220181   5.390   2.283   4.702
 6748TIP3   OH220182   5.457   2.396   4.847
 6748TIP3    H120183   5.380   2.427   4.898
 6748TIP3    H220184   5.486   2.480   4.803
 6749TIP3   OH220185   4.069   2.122   5.646
 6749TIP3    H120186   4.167   2.118   5.650
 6749TIP3    H220187   4.047   2.036   5.688
 6750TIP3   OH220188   5.904   1.991   5.404
 6750TIP3    H120189   5.965   1.926   5.363
 6750TIP3    H220190   5.877   2.045   5.327
 6751TIP3   OH220191   5.339   1.820   4.149
 6751TIP3    H120192   5.382   1.816   4.238
 6751TIP3    H220193   5.268   1.753   4.163
 6752TIP3   OH220194   4.032   1.815   4.988
 6752TIP3    H120195   4.096   1.741   4.994
 6752TIP3    H220196   4.093   1.890   4.974
 6753TIP3   OH220197   3.834   2.090   5.054
 6753TIP3    H120198   3.883   2.084   4.970
 6753TIP3    H220199   3.861   2.178   5.085
 6754TIP3   OH220200   5.777   2.130   5.207
 6754TIP3    H120201   5.690   2.171   5.225
 6754TIP3    H220202   5.748   2.055   5.151
 6755TIP3   OH220203   3.820   1.626   4.578
 6755TIP3    H120204   3.726   1.600   4.583
 6755TIP3    H220205   3.828   1.653   4.484
 6756TIP3   OH220206   4.979   3.295   4.058
 6756TIP3    H120207   5.036   3.291   3.979
 6756TIP3    H220208   5.023   3.364   4.111
 6757TIP3   OH220209   4.039   1.670   5.367
 6757TIP3    H120210   3.988   1.672   5.450
 6757TIP3    H220211   3.975   1.712   5.306
 6758TIP3   OH220212   4.079   3.105   5.445
 6758TIP3    H120213   3.986   3.078   5.427
 6758TIP3    H220214   4.088   3.083   5.539
 6759TIP3   OH220215   4.258   3.139   4.994
 6759TIP3    H120216   4.210   3.214   4.953
 6759TIP3    H220217   4.344   3.151   4.949
 6760TIP3   OH220218   4.700   3.379   5.132
 6760TIP3    H120219   4.744   3.379   5.220
 6760TIP3    H220220   4.766   3.430   5.079
 6761TIP3   OH220221   4.880   3.531   4.992
 6761TIP3    H120222   4.950   3.481   4.948
 6761TIP3    H220223   4.933   3.589   5.051
 6762TIP3   OH220224   5.678   1.892   5.089
 6762TIP3    H120225   5.586   1.887   5.055
 6762TIP3    H220226   5.707   1.799   5.079
 6763TIP3   OH220227   3.932   3.394   5.015
 6763TIP3    H120228   3.842   3.425   4.993
 6763TIP3    H220229   3.941   3.430   5.104
 6764TIP3   OH220230   4.169   3.370   4.874
 6764TIP3    H120231   4.082   3.384   4.918
 6764TIP3    H220232   4.151   3.405   4.785
 6765TIP3   OH220233   4.597   3.399   4.672
 6765TIP3    H120234   4.525   3.417   4.608
 6765TIP3    H220235   4.608   3.487   4.713
 6766TIP3   OH220236   4.865   3.337   4.724
 6766TIP3    H120237   4.771   3.356   4.705
 6766TIP3    H220238   4.909   3.413   4.682
 6767TIP3   OH220239   5.068   3.526   4.639
 6767TIP3    H120240   5.057   3.612   4.592
 6767TIP3    H220241   5.097   3.468   4.566
 6768TIP3   OH220242   3.846   3.187   4.759
 6768TIP3    H120243   3.871   3.159   4.850
 6768TIP3    H220244   3.918   3.142   4.709
 6769TIP3   OH220245   4.041   3.056   4.619
 6769TIP3    H120246   4.056   2.972   4.670
 6769TIP3    H220247   4.132   3.092   4.616
 6770TIP3   OH220248   4.307   3.148   4.624
 6770TIP3    H120249   4.337   3.055   4.617
 6770TIP3    H220250   4.353   3.173   4.706
 6771TIP3   OH220251   4.883   1.806   4.705
 6771TIP3    H120252   4.837   1.738   4.758
 6771TIP3    H220253   4.959   1.757   4.668
 6772TIP3   OH220254   5.400   1.678   4.605
 6772TIP3    H120255   5.435   1.740   4.537
 6772TIP3    H220256   5.307   1.708   4.612
 6773TIP3   OH220257   5.499   1.789   4.371
 6773TIP3    H120258   5.578   1.738   4.343
 6773TIP3    H220259   5.533   1.880   4.360
 6774TIP3   OH220260   4.131   1.518   4.725
 6774TIP3    H120261   4.037   1.489   4.724
 6774TIP3    H220262   4.177   1.431   4.719
 6775TIP3   OH220263   4.578   1.544   4.608
 6775TIP3    H120264   4.630   1.597   4.546
 6775TIP3    H220265   4.596   1.589   4.691
 6776TIP3   OH220266   5.116   1.692   4.587
 6776TIP3    H120267   5.114   1.650   4.500
 6776TIP3    H220268   5.105   1.614   4.647
 6777TIP3   OH220269   5.148   1.616   4.152
 6777TIP3    H120270   5.065   1.663   4.171
 6777TIP3    H220271   5.132   1.532   4.201
 6778TIP3   OH220272   3.635   2.959   4.149
 6778TIP3    H120273   3.548   2.927   4.118
 6778TIP3    H220274   3.624   3.054   4.132
 6779TIP3   OH220275   4.555   1.724   4.233
 6779TIP3    H120276   4.610   1.676   4.298
 6779TIP3    H220277   4.573   1.816   4.261
 6780TIP3   OH220278   4.406   3.145   3.737
 6780TIP3    H120279   4.493   3.169   3.699
 6780TIP3    H220280   4.382   3.072   3.677
 6781TIP3   OH220281   5.129   3.265   3.825
 6781TIP3    H120282   5.113   3.168   3.815
 6781TIP3    H220283   5.073   3.301   3.752
 6782TIP3   OH220284   4.336   1.793   5.614
 6782TIP3    H120285   4.302   1.724   5.673
 6782TIP3    H220286   4.431   1.795   5.642
 6783TIP3   OH220287   4.585   1.794   5.734
 6783TIP3    H120288   4.671   1.774   5.693
 6783TIP3    H220289   4.577   1.722   5.800
 6784TIP3   OH220290   3.706   2.983   3.790
 6784TIP3    H120291   3.703   3.009   3.883
 6784TIP3    H220292   3.794   2.942   3.781
 6785TIP3   OH220293   5.412   1.855   5.523
 6785TIP3    H120294   5.431   1.824   5.614
 6785TIP3    H220295   5.501   1.851   5.482
 6786TIP3   OH220296   5.347   3.407   5.017
 6786TIP3    H120297   5.270   3.378   4.965
 6786TIP3    H220298   5.330   3.504   5.020
 6787TIP3   OH220299   6.618   2.780   3.778
 6787TIP3    H120300   6.590   2.872   3.760
 6787TIP3    H220301   6.539   2.732   3.752
 6788TIP3   OH220302   6.615   2.779   4.165
 6788TIP3    H120303   6.651   2.758   4.253
 6788TIP3    H220304   6.574   2.695   4.139
 6789TIP3   OH220305   5.914   2.674   4.528
 6789TIP3    H120306   5.942   2.605   4.591
 6789TIP3    H220307   5.991   2.733   4.529
 6790TIP3   OH220308   6.859   3.085   3.845
 6790TIP3    H120309   6.846   3.016   3.912
 6790TIP3    H220310   6.889   3.160   3.899
 6791TIP3   OH220311   5.884   3.083   4.244
 6791TIP3    H120312   5.877   2.986   4.250
 6791TIP3    H220313   5.980   3.095   4.253
 6792TIP3   OH220314   5.595   2.280   4.031
 6792TIP3    H120315   5.551   2.364   4.055
 6792TIP3    H220316   5.520   2.233   3.988
 6793TIP3   OH220317   5.651   2.573   4.207
 6793TIP3    H120318   5.701   2.498   4.245
 6793TIP3    H220319   5.719   2.618   4.154
 6794TIP3   OH220320   6.504   3.543   3.856
 6794TIP3    H120321   6.553   3.470   3.813
 6794TIP3    H220322   6.497   3.512   3.947
 6795TIP3   OH220323   6.415   3.006   4.209
 6795TIP3    H120324   6.458   2.929   4.168
 6795TIP3    H220325   6.497   3.055   4.235
 6796TIP3   OH220326   7.426   2.327   4.206
 6796TIP3    H120327   7.457   2.409   4.249
 6796TIP3    H220328   7.457   2.341   4.115
 6797TIP3   OH220329   6.826   2.507   4.241
 6797TIP3    H120330   6.870   2.423   4.263
 6797TIP3    H220331   6.796   2.489   4.150
 6798TIP3   OH220332   6.164   2.166   4.207
 6798TIP3    H120333   6.148   2.240   4.145
 6798TIP3    H220334   6.113   2.095   4.163
 6799TIP3   OH220335   6.860   2.258   3.827
 6799TIP3    H120336   6.930   2.243   3.895
 6799TIP3    H220337   6.915   2.293   3.755
 6800TIP3   OH220338   5.799   2.371   4.314
 6800TIP3    H120339   5.881   2.354   4.365
 6800TIP3    H220340   5.817   2.316   4.235
 6801TIP3   OH220341   6.241   2.567   4.107
 6801TIP3    H120342   6.335   2.543   4.121
 6801TIP3    H220343   6.203   2.482   4.076
 6802TIP3   OH220344   7.501   2.533   4.378
 6802TIP3    H120345   7.416   2.580   4.360
 6802TIP3    H220346   7.518   2.563   4.469
 6803TIP3   OH220347   6.161   2.151   4.642
 6803TIP3    H120348   6.101   2.190   4.576
 6803TIP3    H220349   6.110   2.168   4.724
 6804TIP3   OH220350   6.509   3.004   3.647
 6804TIP3    H120351   6.463   2.986   3.565
 6804TIP3    H220352   6.465   3.087   3.676
 6805TIP3   OH220353   6.267   2.925   4.435
 6805TIP3    H120354   6.206   2.992   4.474
 6805TIP3    H220355   6.311   2.978   4.365
 6806TIP3   OH220356   7.066   2.264   4.004
 6806TIP3    H120357   7.056   2.218   4.088
 6806TIP3    H220358   7.121   2.340   4.029
 6807TIP3   OH220359   6.031   2.266   4.426
 6807TIP3    H120360   6.092   2.339   4.451
 6807TIP3    H220361   6.083   2.226   4.353
 6808TIP3   OH220362   6.089   3.116   4.527
 6808TIP3    H120363   6.072   3.208   4.498
 6808TIP3    H220364   6.013   3.104   4.587
 6809TIP3   OH220365   5.489   2.809   3.769
 6809TIP3    H120366   5.447   2.841   3.688
 6809TIP3    H220367   5.520   2.893   3.810
 6810TIP3   OH220368   6.929   3.327   4.008
 6810TIP3    H120369   6.840   3.318   4.050
 6810TIP3    H220370   6.920   3.414   3.965
 6811TIP3   OH220371   7.223   2.225   4.373
 6811TIP3    H120372   7.136   2.256   4.343
 6811TIP3    H220373   7.283   2.258   4.304
 6812TIP3   OH220374   6.513   1.867   4.353
 6812TIP3    H120375   6.502   1.772   4.376
 6812TIP3    H220376   6.437   1.906   4.403
 6813TIP3   OH220377   6.631   3.368   3.683
 6813TIP3    H120378   6.683   3.287   3.663
 6813TIP3    H220379   6.692   3.435   3.644
 6814TIP3   OH220380   6.778   3.154   3.591
 6814TIP3    H120381   6.728   3.076   3.563
 6814TIP3    H220382   6.815   3.123   3.677
 6815TIP3   OH220383   7.156   3.239   4.354
 6815TIP3    H120384   7.143   3.161   4.297
 6815TIP3    H220385   7.137   3.313   4.293
 6816TIP3   OH220386   6.445   2.629   3.611
 6816TIP3    H120387   6.367   2.684   3.590
 6816TIP3    H220388   6.494   2.631   3.528
 6817TIP3   OH220389   6.404   2.420   3.323
 6817TIP3    H120390   6.469   2.469   3.377
 6817TIP3    H220391   6.464   2.357   3.278
 6818TIP3   OH220392   7.351   2.878   4.201
 6818TIP3    H120393   7.267   2.929   4.205
 6818TIP3    H220394   7.380   2.900   4.110
 6819TIP3   OH220395   6.795   2.714   3.582
 6819TIP3    H120396   6.741   2.738   3.660
 6819TIP3    H220397   6.880   2.689   3.625
 6820TIP3   OH220398   7.029   2.754   4.498
 6820TIP3    H120399   7.026   2.836   4.551
 6820TIP3    H220400   6.943   2.759   4.453
 6821TIP3   OH220401   6.029   2.711   4.000
 6821TIP3    H120402   5.991   2.653   3.932
 6821TIP3    H220403   6.106   2.659   4.032
 6822TIP3   OH220404   6.161   3.126   4.147
 6822TIP3    H120405   6.142   3.080   4.064
 6822TIP3    H220406   6.250   3.092   4.169
 6823TIP3   OH220407   6.161   2.685   4.352
 6823TIP3    H120408   6.199   2.663   4.264
 6823TIP3    H220409   6.205   2.770   4.374
 6824TIP3   OH220410   6.690   3.321   4.132
 6824TIP3    H120411   6.675   3.401   4.185
 6824TIP3    H220412   6.673   3.249   4.196
 6825TIP3   OH220413   6.299   3.262   4.653
 6825TIP3    H120414   6.263   3.295   4.737
 6825TIP3    H220415   6.236   3.191   4.632
 6826TIP3   OH220416   6.633   2.575   3.409
 6826TIP3    H120417   6.694   2.633   3.461
 6826TIP3    H220418   6.660   2.598   3.317
 6827TIP3   OH220419   6.055   2.795   4.783
 6827TIP3    H120420   6.063   2.884   4.823
 6827TIP3    H220421   5.959   2.779   4.795
 6828TIP3   OH220422   6.379   3.252   3.679
 6828TIP3    H120423   6.461   3.302   3.697
 6828TIP3    H220424   6.319   3.321   3.651
 6829TIP3   OH220425   6.087   3.427   4.766
 6829TIP3    H120426   6.061   3.408   4.675
 6829TIP3    H220427   6.012   3.389   4.818
 6830TIP3   OH220428   7.149   1.814   3.457
 6830TIP3    H120429   7.069   1.834   3.509
 6830TIP3    H220430   7.164   1.898   3.409
 6831TIP3   OH220431   5.897   2.554   3.798
 6831TIP3    H120432   5.826   2.598   3.746
 6831TIP3    H220433   5.856   2.470   3.821
 6832TIP3   OH220434   6.950   3.179   3.003
 6832TIP3    H120435   6.959   3.277   2.993
 6832TIP3    H220436   7.043   3.151   2.992
 6833TIP3   OH220437   5.672   2.940   4.714
 6833TIP3    H120438   5.605   2.919   4.645
 6833TIP3    H220439   5.710   2.852   4.736
 6834TIP3   OH220440   5.529   3.135   4.341
 6834TIP3    H120441   5.625   3.128   4.338
 6834TIP3    H220442   5.518   3.211   4.400
 6835TIP3   OH220443   7.392   3.586   4.400
 6835TIP3    H120444   7.392   3.489   4.414
 6835TIP3    H220445   7.308   3.609   4.447
 6836TIP3   OH220446   6.505   3.373   4.527
 6836TIP3    H120447   6.500   3.464   4.563
 6836TIP3    H220448   6.430   3.331   4.575
 6837TIP3   OH220449   6.259   3.498   3.489
 6837TIP3    H120450   6.214   3.490   3.403
 6837TIP3    H220451   6.231   3.587   3.518
 6838TIP3   OH220452   5.697   3.343   3.876
 6838TIP3    H120453   5.754   3.341   3.956
 6838TIP3    H220454   5.632   3.275   3.901
 6839TIP3   OH220455   6.457   3.396   3.128
 6839TIP3    H120456   6.519   3.329   3.094
 6839TIP3    H220457   6.492   3.411   3.219
 6840TIP3   OH220458   6.510   3.447   3.395
 6840TIP3    H120459   6.423   3.457   3.440
 6840TIP3    H220460   6.565   3.415   3.469
 6841TIP3   OH220461   7.283   2.715   4.676
 6841TIP3    H120462   7.200   2.725   4.628
 6841TIP3    H220463   7.299   2.619   4.667
 6842TIP3   OH220464   5.878   3.121   4.698
 6842TIP3    H120465   5.929   3.108   4.781
 6842TIP3    H220466   5.804   3.058   4.709
 6843TIP3   OH220467   6.277   1.946   4.487
 6843TIP3    H120468   6.188   1.916   4.460
 6843TIP3    H220469   6.253   2.027   4.535
 6844TIP3   OH220470   6.814   2.059   4.680
 6844TIP3    H120471   6.883   2.032   4.744
 6844TIP3    H220472   6.731   2.040   4.729
 6845TIP3   OH220473   7.049   2.490   4.597
 6845TIP3    H120474   7.000   2.485   4.683
 6845TIP3    H220475   7.026   2.578   4.564
 6846TIP3   OH220476   6.706   2.617   3.150
 6846TIP3    H120477   6.679   2.591   3.060
 6846TIP3    H220478   6.790   2.663   3.132
 6847TIP3   OH220479   6.420   1.997   3.455
 6847TIP3    H120480   6.390   1.992   3.549
 6847TIP3    H220481   6.385   1.911   3.423
 6848TIP3   OH220482   6.208   2.462   4.501
 6848TIP3    H120483   6.165   2.486   4.585
 6848TIP3    H220484   6.192   2.544   4.448
 6849TIP3   OH220485   6.095   2.348   4.018
 6849TIP3    H120486   6.002   2.323   4.037
 6849TIP3    H220487   6.107   2.307   3.930
 6850TIP3   OH220488   6.584   2.431   3.746
 6850TIP3    H120489   6.533   2.503   3.703
 6850TIP3    H220490   6.640   2.400   3.673
 6851TIP3   OH220491   6.769   2.708   4.824
 6851TIP3    H120492   6.739   2.641   4.889
 6851TIP3    H220493   6.860   2.722   4.853
 6852TIP3   OH220494   6.740   2.459   3.984
 6852TIP3    H120495   6.679   2.488   3.914
 6852TIP3    H220496   6.776   2.378   3.941
 6853TIP3   OH220497   6.024   2.489   4.711
 6853TIP3    H120498   6.068   2.552   4.771
 6853TIP3    H220499   6.017   2.409   4.767
 6854TIP3   OH220500   6.074   1.963   3.423
 6854TIP3    H120501   6.069   1.958   3.521
 6854TIP3    H220502   6.004   2.028   3.404
 6855TIP3   OH220503   5.642   2.001   4.275
 6855TIP3    H120504   5.680   2.049   4.352
 6855TIP3    H220505   5.723   1.980   4.228
 6856TIP3   OH220506   6.749   2.706   4.405
 6856TIP3    H120507   6.783   2.635   4.347
 6856TIP3    H220508   6.721   2.653   4.483
 6857TIP3   OH220509   6.421   2.171   4.078
 6857TIP3    H120510   6.343   2.169   4.137
 6857TIP3    H220511   6.495   2.163   4.142
 6858TIP3   OH220512   5.857   2.228   4.086
 6858TIP3    H120513   5.763   2.234   4.059
 6858TIP3    H220514   5.883   2.138   4.061
 6859TIP3   OH220515   6.122   2.220   3.778
 6859TIP3    H120516   6.217   2.235   3.760
 6859TIP3    H220517   6.079   2.244   3.692
 6860TIP3   OH220518   6.914   2.246   4.280
 6860TIP3    H120519   6.883   2.258   4.373
 6860TIP3    H220520   6.848   2.185   4.246
 6861TIP3   OH220521   5.967   2.256   3.550
 6861TIP3    H120522   5.900   2.210   3.497
 6861TIP3    H220523   6.022   2.296   3.480
 6862TIP3   OH220524   7.084   3.933   4.500
 6862TIP3    H120525   7.078   3.955   4.405
 6862TIP3    H220526   7.160   3.986   4.529
 6863TIP3   OH220527   6.048   3.047   4.915
 6863TIP3    H120528   6.132   3.094   4.940
 6863TIP3    H220529   6.000   3.059   4.999
 6864TIP3   OH220530   6.504   2.499   4.176
 6864TIP3    H120531   6.579   2.460   4.128
 6864TIP3    H220532   6.510   2.456   4.264
 6865TIP3   OH220533   6.016   1.986   4.055
 6865TIP3    H120534   5.992   1.905   4.105
 6865TIP3    H220535   6.080   1.951   3.990
 6866TIP3   OH220536   6.480   2.397   4.466
 6866TIP3    H120537   6.391   2.434   4.482
 6866TIP3    H220538   6.539   2.457   4.517
 6867TIP3   OH220539   6.217   2.785   3.558
 6867TIP3    H120540   6.144   2.720   3.548
 6867TIP3    H220541   6.199   2.819   3.649
 6868TIP3   OH220542   7.117   3.022   4.189
 6868TIP3    H120543   7.141   3.072   4.108
 6868TIP3    H220544   7.032   2.979   4.163
 6869TIP3   OH220545   6.672   2.100   3.418
 6869TIP3    H120546   6.577   2.081   3.433
 6869TIP3    H220547   6.684   2.191   3.450
 6870TIP3   OH220548   6.620   3.106   4.558
 6870TIP3    H120549   6.629   3.079   4.650
 6870TIP3    H220550   6.572   3.191   4.567
 6871TIP3   OH220551   6.744   2.344   3.527
 6871TIP3    H120552   6.840   2.349   3.546
 6871TIP3    H220553   6.729   2.426   3.477
 6872TIP3   OH220554   5.905   2.800   4.235
 6872TIP3    H120555   5.949   2.775   4.152
 6872TIP3    H220556   5.956   2.749   4.300
 6873TIP3   OH220557   6.360   2.933   3.377
 6873TIP3    H120558   6.312   3.019   3.383
 6873TIP3    H220559   6.308   2.879   3.441
 6874TIP3   OH220560   5.787   2.726   4.848
 6874TIP3    H120561   5.803   2.709   4.943
 6874TIP3    H220562   5.718   2.660   4.828
 6875TIP3   OH220563   6.516   2.806   4.885
 6875TIP3    H120564   6.458   2.792   4.810
 6875TIP3    H220565   6.605   2.796   4.846
 6876TIP3   OH220566   6.777   3.367   4.452
 6876TIP3    H120567   6.681   3.362   4.466
 6876TIP3    H220568   6.804   3.416   4.532
 6877TIP3   OH220569   7.183   2.437   3.364
 6877TIP3    H120570   7.121   2.393   3.302
 6877TIP3    H220571   7.182   2.526   3.324
 6878TIP3   OH220572   7.407   3.298   4.441
 6878TIP3    H120573   7.309   3.289   4.435
 6878TIP3    H220574   7.432   3.265   4.352
 6879TIP3   OH220575   6.884   3.256   3.270
 6879TIP3    H120576   6.861   3.190   3.338
 6879TIP3    H220577   6.899   3.202   3.191
 6880TIP3   OH220578   6.883   2.885   4.104
 6880TIP3    H120579   6.790   2.860   4.120
 6880TIP3    H220580   6.917   2.803   4.061
 6881TIP3   OH220581   6.011   3.108   3.853
 6881TIP3    H120582   6.011   3.193   3.805
 6881TIP3    H220583   5.919   3.102   3.882
 6882TIP3   OH220584   5.579   2.410   3.569
 6882TIP3    H120585   5.623   2.495   3.589
 6882TIP3    H220586   5.501   2.415   3.630
 6883TIP3   OH220587   6.146   2.874   3.802
 6883TIP3    H120588   6.110   2.963   3.820
 6883TIP3    H220589   6.114   2.825   3.879
 6884TIP3   OH220590   6.279   3.454   4.328
 6884TIP3    H120591   6.323   3.527   4.281
 6884TIP3    H220592   6.353   3.419   4.381
 6885TIP3   OH220593   5.928   3.353   3.710
 6885TIP3    H120594   5.845   3.360   3.761
 6885TIP3    H220595   5.962   3.445   3.717
 6886TIP3   OH220596   6.667   3.088   4.291
 6886TIP3    H120597   6.655   3.090   4.389
 6886TIP3    H220598   6.748   3.038   4.282
 6887TIP3   OH220599   6.644   2.983   3.174
 6887TIP3    H120600   6.700   2.957   3.250
 6887TIP3    H220601   6.557   2.957   3.207
 6888TIP3   OH220602   6.917   3.621   4.340
 6888TIP3    H120603   6.838   3.563   4.336
 6888TIP3    H220604   6.898   3.684   4.267
 6889TIP3   OH220605   6.983   3.457   2.994
 6889TIP3    H120606   7.023   3.534   2.950
 6889TIP3    H220607   6.901   3.499   3.026
 6890TIP3   OH220608   6.001   2.233   4.858
 6890TIP3    H120609   5.904   2.237   4.870
 6890TIP3    H220610   6.027   2.173   4.930
 6891TIP3   OH220611   6.805   2.909   3.383
 6891TIP3    H120612   6.795   2.848   3.458
 6891TIP3    H220613   6.903   2.910   3.375
 6892TIP3   OH220614   5.718   3.315   4.489
 6892TIP3    H120615   5.775   3.248   4.530
 6892TIP3    H220616   5.745   3.394   4.538
 6893TIP3   OH220617   6.006   2.962   3.173
 6893TIP3    H120618   6.023   2.869   3.148
 6893TIP3    H220619   5.988   2.953   3.269
 6894TIP3   OH220620   5.951   2.968   3.445
 6894TIP3    H120621   6.024   2.940   3.503
 6894TIP3    H220622   5.956   3.066   3.454
 6895TIP3   OH220623   5.686   2.658   3.648
 6895TIP3    H120624   5.621   2.703   3.706
 6895TIP3    H220625   5.703   2.729   3.583
 6896TIP3   OH220626   6.842   2.294   4.539
 6896TIP3    H120627   6.919   2.336   4.580
 6896TIP3    H220628   6.828   2.215   4.595
 6897TIP3   OH220629   6.719   2.048   3.707
 6897TIP3    H120630   6.710   2.073   3.613
 6897TIP3    H220631   6.761   2.128   3.745
 6898TIP3   OH220632   6.217   3.163   3.388
 6898TIP3    H120633   6.132   3.188   3.429
 6898TIP3    H220634   6.241   3.246   3.345
 6899TIP3   OH220635   6.402   2.231   3.809
 6899TIP3    H120636   6.468   2.301   3.792
 6899TIP3    H220637   6.411   2.220   3.906
 6900TIP3   OH220638   6.678   2.546   4.614
 6900TIP3    H120639   6.702   2.602   4.691
 6900TIP3    H220640   6.732   2.467   4.629
 6901TIP3   OH220641   6.551   1.950   3.907
 6901TIP3    H120642   6.555   2.022   3.973
 6901TIP3    H220643   6.612   1.986   3.839
 6902TIP3   OH220644   5.961   3.240   3.461
 6902TIP3    H120645   5.933   3.312   3.401
 6902TIP3    H220646   5.949   3.282   3.550
 6903TIP3   OH220647   6.070   1.958   3.698
 6903TIP3    H120648   6.069   2.048   3.737
 6903TIP3    H220649   6.166   1.937   3.706
 6904TIP3   OH220650   7.317   2.448   4.597
 6904TIP3    H120651   7.219   2.446   4.603
 6904TIP3    H220652   7.329   2.404   4.512
 6905TIP3   OH220653   6.968   2.641   3.983
 6905TIP3    H120654   6.893   2.581   3.998
 6905TIP3    H220655   7.041   2.596   4.031
 6906TIP3   OH220656   5.682   2.870   3.451
 6906TIP3    H120657   5.755   2.934   3.465
 6906TIP3    H220658   5.727   2.812   3.385
 6907TIP3   OH220659   5.614   2.128   3.579
 6907TIP3    H120660   5.638   2.222   3.586
 6907TIP3    H220661   5.519   2.134   3.573
 6908TIP3   OH220662   6.937   3.598   3.932
 6908TIP3    H120663   6.895   3.643   3.856
 6908TIP3    H220664   7.032   3.616   3.911
 6909TIP3   OH220665   6.012   1.865   4.460
 6909TIP3    H120666   5.983   1.827   4.374
 6909TIP3    H220667   6.005   1.788   4.520
 6910TIP3   OH220668   5.541   3.072   3.833
 6910TIP3    H120669   5.485   3.113   3.900
 6910TIP3    H220670   5.523   3.125   3.753
 6911TIP3   OH220671   5.710   3.629   4.914
 6911TIP3    H120672   5.797   3.630   4.960
 6911TIP3    H220673   5.694   3.533   4.909
 6912TIP3   OH220674   6.181   3.598   4.959
 6912TIP3    H120675   6.264   3.559   4.989
 6912TIP3    H220676   6.158   3.537   4.885
 6913TIP3   OH220677   6.168   3.164   3.079
 6913TIP3    H120678   6.112   3.095   3.122
 6913TIP3    H220679   6.247   3.112   3.059
 6914TIP3   OH220680   6.832   3.496   4.689
 6914TIP3    H120681   6.821   3.427   4.758
 6914TIP3    H220682   6.907   3.548   4.723
 6915TIP3   OH220683   6.607   3.203   2.997
 6915TIP3    H120684   6.647   3.140   3.061
 6915TIP3    H220685   6.672   3.202   2.924
 6916TIP3   OH220686   5.841   3.031   5.118
 6916TIP3    H120687   5.870   2.940   5.098
 6916TIP3    H220688   5.755   3.035   5.070
 6917TIP3   OH220689   5.818   2.681   3.308
 6917TIP3    H120690   5.873   2.650   3.382
 6917TIP3    H220691   5.886   2.686   3.237
 6918TIP3   OH220692   6.325   2.881   3.110
 6918TIP3    H120693   6.331   2.894   3.207
 6918TIP3    H220694   6.327   2.783   3.106
 6919TIP3   OH220695   6.940   3.125   4.492
 6919TIP3    H120696   7.012   3.174   4.449
 6919TIP3    H220697   6.866   3.188   4.482
 6920TIP3   OH220698   5.955   2.778   5.092
 6920TIP3    H120699   6.034   2.731   5.061
 6920TIP3    H220700   5.937   2.740   5.179
 6921TIP3   OH220701   6.019   2.589   3.525
 6921TIP3    H120702   5.996   2.553   3.612
 6921TIP3    H220703   6.059   2.512   3.479
 6922TIP3   OH220704   6.281   2.637   4.745
 6922TIP3    H120705   6.214   2.708   4.754
 6922TIP3    H220706   6.341   2.677   4.678
 6923TIP3   OH220707   6.127   2.381   3.368
 6923TIP3    H120708   6.103   2.388   3.274
 6923TIP3    H220709   6.225   2.385   3.362
 6924TIP3   OH220710   6.813   3.057   4.889
 6924TIP3    H120711   6.892   3.023   4.843
 6924TIP3    H220712   6.801   2.991   4.960
 6925TIP3   OH220713   6.943   2.711   3.033
 6925TIP3    H120714   6.925   2.666   2.948
 6925TIP3    H220715   6.910   2.801   3.011
 6926TIP3   OH220716   6.414   2.442   4.886
 6926TIP3    H120717   6.418   2.363   4.829
 6926TIP3    H220718   6.371   2.507   4.826
 6927TIP3   OH220719   6.420   2.227   4.690
 6927TIP3    H120720   6.448   2.268   4.606
 6927TIP3    H220721   6.326   2.205   4.671
 6928TIP3   OH220722   6.443   2.761   4.569
 6928TIP3    H120723   6.528   2.771   4.524
 6928TIP3    H220724   6.387   2.826   4.521
 6929TIP3   OH220725   7.028   2.726   4.942
 6929TIP3    H120726   7.077   2.644   4.957
 6929TIP3    H220727   7.097   2.784   4.908
 6930TIP3   OH220728   7.070   2.981   4.679
 6930TIP3    H120729   7.012   3.034   4.621
 6930TIP3    H220730   7.158   3.002   4.639
 6931TIP3   OH220731   6.287   2.551   5.122
 6931TIP3    H120732   6.229   2.471   5.126
 6931TIP3    H220733   6.327   2.539   5.033
 6932TIP3   OH220734   6.552   1.988   4.757
 6932TIP3    H120735   6.502   2.070   4.735
 6932TIP3    H220736   6.483   1.920   4.747
 6933TIP3   OH220737   6.680   2.494   4.971
 6933TIP3    H120738   6.670   2.483   5.067
 6933TIP3    H220739   6.589   2.473   4.942
 6934TIP3   OH220740   6.916   2.438   4.826
 6934TIP3    H120741   6.842   2.445   4.889
 6934TIP3    H220742   6.990   2.410   4.884
 6935TIP3   OH220743   7.146   2.384   4.977
 6935TIP3    H120744   7.159   2.288   4.995
 6935TIP3    H220745   7.142   2.422   5.068
 6936TIP3   OH220746   6.136   2.327   5.170
 6936TIP3    H120747   6.140   2.236   5.133
 6936TIP3    H220748   6.177   2.310   5.258
 6937TIP3   OH220749   6.645   1.999   5.016
 6937TIP3    H120750   6.712   1.928   5.011
 6937TIP3    H220751   6.606   1.993   4.926
 6938TIP3   OH220752   6.713   2.214   5.174
 6938TIP3    H120753   6.691   2.142   5.110
 6938TIP3    H220754   6.635   2.272   5.166
 6939TIP3   OH220755   5.927   3.442   3.271
 6939TIP3    H120756   6.024   3.433   3.261
 6939TIP3    H220757   5.909   3.495   3.191
 6940TIP3   OH220758   5.412   2.829   3.481
 6940TIP3    H120759   5.508   2.848   3.473
 6940TIP3    H220760   5.408   2.737   3.446
 6941TIP3   OH220761   5.338   3.427   3.894
 6941TIP3    H120762   5.260   3.373   3.869
 6941TIP3    H220763   5.375   3.374   3.968
 6942TIP3   OH220764   5.470   3.279   4.087
 6942TIP3    H120765   5.455   3.213   4.157
 6942TIP3    H220766   5.520   3.345   4.139
 6943TIP3   OH220767   7.193   3.685   3.892
 6943TIP3    H120768   7.218   3.717   3.980
 6943TIP3    H220769   7.253   3.733   3.834
 6944TIP3   OH220770   7.222   3.707   4.173
 6944TIP3    H120771   7.173   3.622   4.167
 6944TIP3    H220772   7.293   3.680   4.233
 6945TIP3   OH220773   7.266   3.385   4.746
 6945TIP3    H120774   7.193   3.393   4.811
 6945TIP3    H220775   7.307   3.473   4.752
 6946TIP3   OH220776   7.084   2.898   3.365
 6946TIP3    H120777   7.152   2.962   3.337
 6946TIP3    H220778   7.126   2.860   3.445
 6947TIP3   OH220779   7.209   2.767   3.570
 6947TIP3    H120780   7.144   2.724   3.630
 6947TIP3    H220781   7.276   2.802   3.632
 6948TIP3   OH220782   7.266   3.159   4.001
 6948TIP3    H120783   7.320   3.091   3.955
 6948TIP3    H220784   7.260   3.229   3.934
 6949TIP3   OH220785   7.094   3.459   4.194
 6949TIP3    H120786   7.022   3.499   4.246
 6949TIP3    H220787   7.045   3.411   4.124
 6950TIP3   OH220788   7.147   2.673   3.215
 6950TIP3    H120789   7.075   2.676   3.149
 6950TIP3    H220790   7.121   2.749   3.272
 6951TIP3   OH220791   7.015   2.347   3.170
 6951TIP3    H120792   6.975   2.379   3.088
 6951TIP3    H220793   6.994   2.251   3.164
 6952TIP3   OH220794   7.022   2.623   3.714
 6952TIP3    H120795   7.033   2.526   3.709
 6952TIP3    H220796   7.009   2.637   3.811
 6953TIP3   OH220797   5.650   2.696   4.461
 6953TIP3    H120798   5.649   2.664   4.368
 6953TIP3    H220799   5.747   2.697   4.478
 6954TIP3   OH220800   7.315   3.048   4.572
 6954TIP3    H120801   7.386   2.980   4.562
 6954TIP3    H220802   7.340   3.114   4.506
 6955TIP3   OH220803   7.499   2.851   4.585
 6955TIP3    H120804   7.424   2.801   4.624
 6955TIP3    H220805   7.571   2.786   4.601
 6956TIP3   OH220806   6.963   2.080   3.153
 6956TIP3    H120807   7.041   2.052   3.204
 6956TIP3    H220808   6.894   2.018   3.180
 6957TIP3   OH220809   7.019   2.337   3.607
 6957TIP3    H120810   7.060   2.249   3.623
 6957TIP3    H220811   7.079   2.371   3.538
 6958TIP3   OH220812   7.180   2.512   4.104
 6958TIP3    H120813   7.266   2.537   4.063
 6958TIP3    H220814   7.195   2.547   4.193
 6959TIP3   OH220815   7.251   2.656   4.336
 6959TIP3    H120816   7.174   2.690   4.385
 6959TIP3    H220817   7.284   2.737   4.291
 6960TIP3   OH220818   5.872   2.385   5.146
 6960TIP3    H120819   5.969   2.370   5.141
 6960TIP3    H220820   5.843   2.298   5.179
 6961TIP3   OH220821   7.703   2.248   4.891
 6961TIP3    H120822   7.762   2.182   4.848
 6961TIP3    H220823   7.673   2.302   4.814
 6962TIP3   OH220824   7.128   2.089   3.648
 6962TIP3    H120825   7.179   2.074   3.730
 6962TIP3    H220826   7.069   2.011   3.648
 6963TIP3   OH220827   5.827   2.075   4.462
 6963TIP3    H120828   5.889   2.001   4.477
 6963TIP3    H220829   5.888   2.150   4.459
 6964TIP3   OH220830   5.635   2.346   4.540
 6964TIP3    H120831   5.685   2.351   4.456
 6964TIP3    H220832   5.659   2.430   4.581
 6965TIP3   OH220833   7.572   2.386   4.696
 6965TIP3    H120834   7.485   2.427   4.715
 6965TIP3    H220835   7.543   2.312   4.638
 6966TIP3   OH220836   7.206   2.023   3.277
 6966TIP3    H120837   7.250   1.950   3.229
 6966TIP3    H220838   7.276   2.092   3.278
 6967TIP3   OH220839   5.571   1.856   3.953
 6967TIP3    H120840   5.515   1.829   4.029
 6967TIP3    H220841   5.595   1.945   3.984
 6968TIP3   OH220842   6.775   3.552   3.546
 6968TIP3    H120843   6.831   3.546   3.465
 6968TIP3    H220844   6.819   3.622   3.596
 6969TIP3   OH220845   5.836   1.931   4.855
 6969TIP3    H120846   5.785   1.925   4.937
 6969TIP3    H220847   5.769   1.970   4.795
 6970TIP3   OH220848   5.872   3.359   4.926
 6970TIP3    H120849   5.779   3.332   4.921
 6970TIP3    H220850   5.893   3.346   5.019
 6971TIP3   OH220851   6.050   3.388   4.476
 6971TIP3    H120852   6.007   3.468   4.439
 6971TIP3    H220853   6.140   3.401   4.439
 6972TIP3   OH220854   6.496   3.635   4.618
 6972TIP3    H120855   6.536   3.632   4.707
 6972TIP3    H220856   6.563   3.687   4.568
 6973TIP3   OH220857   6.677   3.787   4.479
 6973TIP3    H120858   6.747   3.736   4.437
 6973TIP3    H220859   6.729   3.845   4.539
 6974TIP3   OH220860   7.471   2.147   4.578
 6974TIP3    H120861   7.380   2.137   4.543
 6974TIP3    H220862   7.505   2.056   4.567
 6975TIP3   OH220863   5.726   3.641   4.506
 6975TIP3    H120864   5.638   3.677   4.483
 6975TIP3    H220865   5.745   3.693   4.586
 6976TIP3   OH220866   5.965   3.627   4.360
 6976TIP3    H120867   5.878   3.639   4.405
 6976TIP3    H220868   5.946   3.664   4.271
 6977TIP3   OH220869   6.392   3.655   4.157
 6977TIP3    H120870   6.323   3.675   4.092
 6977TIP3    H220871   6.403   3.743   4.200
 6978TIP3   OH220872   6.661   3.595   4.209
 6978TIP3    H120873   6.565   3.611   4.193
 6978TIP3    H220874   6.700   3.673   4.169
 6979TIP3   OH220875   6.872   3.788   4.126
 6979TIP3    H120876   6.854   3.871   4.078
 6979TIP3    H220877   6.894   3.726   4.052
 6980TIP3   OH220878   5.641   3.440   4.244
 6980TIP3    H120879   5.665   3.416   4.336
 6980TIP3    H220880   5.716   3.398   4.197
 6981TIP3   OH220881   5.838   3.313   4.103
 6981TIP3    H120882   5.852   3.229   4.154
 6981TIP3    H220883   5.929   3.350   4.104
 6982TIP3   OH220884   6.101   3.403   4.112
 6982TIP3    H120885   6.134   3.311   4.108
 6982TIP3    H220886   6.146   3.432   4.194
 6983TIP3   OH220887   6.670   2.060   4.186
 6983TIP3    H120888   6.633   1.990   4.243
 6983TIP3    H220889   6.750   2.017   4.150
 6984TIP3   OH220890   7.197   1.943   4.098
 6984TIP3    H120891   7.236   1.995   4.025
 6984TIP3    H220892   7.103   1.966   4.093
 6985TIP3   OH220893   7.294   2.046   3.863
 6985TIP3    H120894   7.368   1.992   3.827
 6985TIP3    H220895   7.330   2.136   3.849
 6986TIP3   OH220896   5.923   1.769   4.208
 6986TIP3    H120897   5.835   1.727   4.222
 6986TIP3    H220898   5.979   1.689   4.208
 6987TIP3   OH220899   6.366   1.809   4.096
 6987TIP3    H120900   6.424   1.853   4.032
 6987TIP3    H220901   6.401   1.841   4.180
 6988TIP3   OH220902   6.910   1.952   4.076
 6988TIP3    H120903   6.920   1.910   3.990
 6988TIP3    H220904   6.900   1.872   4.134
 6989TIP3   OH220905   6.945   1.875   3.639
 6989TIP3    H120906   6.859   1.916   3.655
 6989TIP3    H220907   6.933   1.789   3.685
 6990TIP3   OH220908   5.432   3.227   3.625
 6990TIP3    H120909   5.346   3.202   3.586
 6990TIP3    H220910   5.406   3.302   3.680
 6991TIP3   OH220911   6.345   1.979   3.721
 6991TIP3    H120912   6.405   1.933   3.782
 6991TIP3    H220913   6.365   2.072   3.747
 6992TIP3   OH220914   6.197   3.400   3.222
 6992TIP3    H120915   6.286   3.423   3.188
 6992TIP3    H220916   6.178   3.324   3.163
 6993TIP3   OH220917   6.924   3.523   3.312
 6993TIP3    H120918   6.912   3.425   3.302
 6993TIP3    H220919   6.874   3.555   3.234
 6994TIP3   OH220920   6.133   2.053   5.102
 6994TIP3    H120921   6.098   1.983   5.159
 6994TIP3    H220922   6.227   2.052   5.130
 6995TIP3   OH220923   6.382   2.051   5.222
 6995TIP3    H120924   6.468   2.027   5.184
 6995TIP3    H220925   6.371   1.980   5.289
 6996TIP3   OH220926   5.526   3.260   3.312
 6996TIP3    H120927   5.515   3.222   3.401
 6996TIP3    H220928   5.603   3.208   3.278
 6997TIP3   OH220929   7.209   2.113   5.009
 6997TIP3    H120930   7.226   2.082   5.100
 6997TIP3    H220931   7.298   2.108   4.969
 6998TIP3   OH220932   7.145   3.664   4.502
 6998TIP3    H120933   7.067   3.631   4.453
 6998TIP3    H220934   7.123   3.759   4.507
 6999TIP3   OH220935   7.707   2.930   4.016
 6999TIP3    H120936   7.733   2.861   4.080
 6999TIP3    H220937   7.789   2.982   4.011
 7000TIP3   OH220938   7.681   3.344   3.738
 7000TIP3    H120939   7.672   3.246   3.739
 7000TIP3    H220940   7.777   3.352   3.733
 7001TIP3   OH220941   7.388   2.545   3.520
 7001TIP3    H120942   7.340   2.627   3.538
 7001TIP3    H220943   7.316   2.490   3.482
 7002TIP3   OH220944   7.447   2.830   3.697
 7002TIP3    H120945   7.495   2.752   3.734
 7002TIP3    H220946   7.509   2.860   3.629
 7003TIP3   OH220947   8.315   3.762   3.326
 7003TIP3    H120948   8.410   3.739   3.328
 7003TIP3    H220949   8.298   3.773   3.421
 7004TIP3   OH220950   8.211   3.256   3.697
 7004TIP3    H120951   8.222   3.213   3.611
 7004TIP3    H220952   8.294   3.307   3.707
 7005TIP3   OH220953   7.932   2.426   3.707
 7005TIP3    H120954   7.953   2.490   3.637
 7005TIP3    H220955   7.902   2.350   3.655
 7006TIP3   OH220956   7.596   2.626   3.799
 7006TIP3    H120957   7.676   2.606   3.851
 7006TIP3    H220958   7.614   2.571   3.720
 7007TIP3   OH220959   8.020   2.827   3.595
 7007TIP3    H120960   8.112   2.794   3.609
 7007TIP3    H220961   7.978   2.744   3.563
 7008TIP3   OH220962   7.960   2.416   4.139
 7008TIP3    H120963   7.901   2.446   4.067
 7008TIP3    H220964   7.904   2.435   4.217
 7009TIP3   OH220965   8.069   3.180   3.930
 7009TIP3    H120966   8.004   3.244   3.968
 7009TIP3    H220967   8.109   3.233   3.859
 7010TIP3   OH220968   7.821   2.527   3.926
 7010TIP3    H120969   7.888   2.595   3.946
 7010TIP3    H220970   7.864   2.484   3.848
 7011TIP3   OH220971   7.894   3.376   4.022
 7011TIP3    H120972   7.868   3.463   3.985
 7011TIP3    H220973   7.815   3.357   4.077
 7012TIP3   OH220974   7.286   3.069   3.257
 7012TIP3    H120975   7.245   3.100   3.175
 7012TIP3    H220976   7.319   3.153   3.296
 7013TIP3   OH220977   7.815   2.972   3.485
 7013TIP3    H120978   7.775   2.913   3.418
 7013TIP3    H220979   7.891   2.919   3.517
 7014TIP3   OH220980   7.947   3.385   3.632
 7014TIP3    H120981   7.924   3.346   3.546
 7014TIP3    H220982   8.032   3.342   3.653
 7015TIP3   OH220983   7.952   2.944   3.839
 7015TIP3    H120984   7.984   2.914   3.751
 7015TIP3    H220985   8.000   3.027   3.855
 7016TIP3   OH220986   8.095   3.497   4.172
 7016TIP3    H120987   8.032   3.560   4.215
 7016TIP3    H220988   8.032   3.442   4.121
 7017TIP3   OH220989   7.847   3.064   4.264
 7017TIP3    H120990   7.848   3.149   4.313
 7017TIP3    H220991   7.754   3.036   4.280
 7018TIP3   OH220992   8.181   3.548   3.198
 7018TIP3    H120993   8.215   3.633   3.233
 7018TIP3    H220994   8.118   3.577   3.130
 7019TIP3   OH220995   7.889   3.667   4.253
 7019TIP3    H120996   7.855   3.665   4.162
 7019TIP3    H220997   7.809   3.644   4.306
 7020TIP3   OH220998   7.690   2.813   3.289
 7020TIP3    H120999   7.619   2.851   3.234
 7020TIP3    H221000   7.656   2.725   3.309
 7021TIP3   OH221001   7.471   3.197   4.198
 7021TIP3    H121002   7.404   3.174   4.132
 7021TIP3    H221003   7.508   3.110   4.223
 7022TIP3   OH221004   7.324   3.390   3.827
 7022TIP3    H121005   7.420   3.384   3.823
 7022TIP3    H221006   7.311   3.467   3.885
 7023TIP3   OH221007   8.280   3.616   4.010
 7023TIP3    H121008   8.284   3.706   4.048
 7023TIP3    H221009   8.214   3.574   4.070
 7024TIP3   OH221010   8.058   3.751   2.974
 7024TIP3    H121011   8.012   3.738   2.889
 7024TIP3    H221012   8.026   3.839   3.001
 7025TIP3   OH221013   7.494   3.603   3.360
 7025TIP3    H121014   7.542   3.595   3.445
 7025TIP3    H221015   7.439   3.523   3.363
 7026TIP3   OH221016   8.325   3.714   2.903
 7026TIP3    H121017   8.233   3.728   2.934
 7026TIP3    H221018   8.342   3.623   2.931
 7027TIP3   OH221019   7.676   3.380   4.186
 7027TIP3    H121020   7.725   3.361   4.269
 7027TIP3    H221021   7.602   3.316   4.193
 7028TIP3   OH221022   8.058   2.187   3.997
 7028TIP3    H121023   7.970   2.170   3.958
 7028TIP3    H221024   8.048   2.280   4.025
 7029TIP3   OH221025   7.999   2.725   3.992
 7029TIP3    H121026   7.948   2.743   4.074
 7029TIP3    H221027   7.979   2.805   3.939
 7030TIP3   OH221028   7.891   2.607   3.497
 7030TIP3    H121029   7.803   2.572   3.523
 7030TIP3    H221030   7.904   2.562   3.411
 7031TIP3   OH221031   7.814   2.746   4.202
 7031TIP3    H121032   7.871   2.796   4.262
 7031TIP3    H221033   7.806   2.661   4.250
 7032TIP3   OH221034   7.852   2.179   2.895
 7032TIP3    H121035   7.870   2.203   2.987
 7032TIP3    H221036   7.800   2.254   2.865
 7033TIP3   OH221037   7.420   2.268   3.777
 7033TIP3    H121038   7.491   2.302   3.835
 7033TIP3    H221039   7.469   2.232   3.701
 7034TIP3   OH221040   7.385   2.247   3.298
 7034TIP3    H121041   7.435   2.284   3.222
 7034TIP3    H221042   7.327   2.323   3.318
 7035TIP3   OH221043   7.653   2.485   3.569
 7035TIP3    H121044   7.558   2.487   3.543
 7035TIP3    H221045   7.679   2.392   3.554
 7036TIP3   OH221046   7.931   2.479   3.251
 7036TIP3    H121047   8.013   2.480   3.201
 7036TIP3    H221048   7.865   2.496   3.180
 7037TIP3   OH221049   7.763   2.513   3.042
 7037TIP3    H121050   7.694   2.465   2.992
 7037TIP3    H221051   7.819   2.545   2.968
 7038TIP3   OH221052   7.836   3.305   4.409
 7038TIP3    H121053   7.917   3.331   4.458
 7038TIP3    H221054   7.772   3.298   4.482
 7039TIP3   OH221055   7.813   2.241   3.540
 7039TIP3    H121056   7.782   2.167   3.596
 7039TIP3    H221057   7.867   2.194   3.475
 7040TIP3   OH221058   8.269   2.651   4.006
 7040TIP3    H121059   8.179   2.678   3.979
 7040TIP3    H221060   8.319   2.735   4.003
 7041TIP3   OH221061   7.977   3.071   3.044
 7041TIP3    H121062   7.933   2.984   3.041
 7041TIP3    H221063   7.989   3.085   3.141
 7042TIP3   OH221064   8.368   3.329   4.079
 7042TIP3    H121065   8.418   3.315   4.160
 7042TIP3    H221066   8.362   3.425   4.072
 7043TIP3   OH221067   7.707   3.068   3.723
 7043TIP3    H121068   7.741   3.036   3.638
 7043TIP3    H221069   7.746   3.005   3.786
 7044TIP3   OH221070   8.118   3.186   2.837
 7044TIP3    H121071   8.094   3.277   2.866
 7044TIP3    H221072   8.092   3.135   2.916
 7045TIP3   OH221073   7.586   2.987   4.338
 7045TIP3    H121074   7.606   2.969   4.432
 7045TIP3    H221075   7.521   2.918   4.318
 7046TIP3   OH221076   8.318   3.097   4.355
 7046TIP3    H121077   8.261   3.051   4.291
 7046TIP3    H221078   8.402   3.051   4.342
 7047TIP3   OH221079   7.808   3.368   3.351
 7047TIP3    H121080   7.807   3.448   3.295
 7047TIP3    H221081   7.714   3.350   3.359
 7048TIP3   OH221082   7.367   2.673   3.049
 7048TIP3    H121083   7.416   2.755   3.074
 7048TIP3    H221084   7.293   2.676   3.114
 7049TIP3   OH221085   7.959   3.136   3.312
 7049TIP3    H121086   7.914   3.223   3.318
 7049TIP3    H221087   7.908   3.083   3.376
 7050TIP3   OH221088   8.075   3.708   3.818
 7050TIP3    H121089   8.112   3.784   3.769
 7050TIP3    H221090   8.152   3.677   3.868
 7051TIP3   OH221091   7.725   3.608   3.200
 7051TIP3    H121092   7.640   3.617   3.247
 7051TIP3    H221093   7.758   3.700   3.203
 7052TIP3   OH221094   7.794   2.495   4.348
 7052TIP3    H121095   7.697   2.491   4.358
 7052TIP3    H221096   7.823   2.431   4.416
 7053TIP3   OH221097   7.516   3.572   3.975
 7053TIP3    H121098   7.568   3.497   4.008
 7053TIP3    H221099   7.542   3.641   4.037
 7054TIP3   OH221100   7.800   3.217   2.659
 7054TIP3    H121101   7.814   3.123   2.638
 7054TIP3    H221102   7.784   3.211   2.756
 7055TIP3   OH221103   7.754   3.221   2.930
 7055TIP3    H121104   7.833   3.185   2.974
 7055TIP3    H221105   7.762   3.317   2.947
 7056TIP3   OH221106   7.481   2.914   3.135
 7056TIP3    H121107   7.416   2.960   3.192
 7056TIP3    H221108   7.500   2.985   3.070
 7057TIP3   OH221109   8.014   3.433   2.881
 7057TIP3    H121110   7.925   3.454   2.915
 7057TIP3    H221111   8.040   3.518   2.843
 7058TIP3   OH221112   7.756   3.498   2.948
 7058TIP3    H121113   7.723   3.568   2.888
 7058TIP3    H221114   7.741   3.539   3.036
 7059TIP3   OH221115   7.851   2.214   3.179
 7059TIP3    H121116   7.863   2.302   3.221
 7059TIP3    H221117   7.943   2.184   3.171
 7060TIP3   OH221118   7.480   3.124   2.937
 7060TIP3    H121119   7.550   3.191   2.953
 7060TIP3    H221120   7.526   3.068   2.871
 7061TIP3   OH221121   7.423   2.404   3.075
 7061TIP3    H121122   7.421   2.501   3.070
 7061TIP3    H221123   7.341   2.379   3.031
 7062TIP3   OH221124   7.789   2.125   3.947
 7062TIP3    H121125   7.778   2.086   3.858
 7062TIP3    H221126   7.792   2.046   4.004
 7063TIP3   OH221127   7.346   3.338   3.325
 7063TIP3    H121128   7.282   3.370   3.390
 7063TIP3    H221129   7.314   3.381   3.243
 7064TIP3   OH221130   7.504   3.885   4.403
 7064TIP3    H121131   7.592   3.879   4.445
 7064TIP3    H221132   7.480   3.791   4.398
 7065TIP3   OH221133   7.986   3.847   4.441
 7065TIP3    H121134   8.078   3.819   4.451
 7065TIP3    H221135   7.957   3.787   4.369
 7066TIP3   OH221136   7.962   3.418   2.569
 7066TIP3    H121137   7.903   3.349   2.607
 7066TIP3    H221138   8.047   3.389   2.606
 7067TIP3   OH221139   7.636   3.291   4.599
 7067TIP3    H121140   7.652   3.195   4.607
 7067TIP3    H221141   7.549   3.292   4.554
 7068TIP3   OH221142   7.621   2.937   2.793
 7068TIP3    H121143   7.670   2.904   2.870
 7068TIP3    H221144   7.693   2.943   2.727
 7069TIP3   OH221145   8.255   3.375   4.370
 7069TIP3    H121146   8.209   3.391   4.285
 7069TIP3    H221147   8.274   3.279   4.366
 7070TIP3   OH221148   8.107   3.117   2.580
 7070TIP3    H121149   8.125   3.152   2.671
 7070TIP3    H221150   8.040   3.051   2.604
 7071TIP3   OH221151   7.758   3.028   4.580
 7071TIP3    H121152   7.828   2.966   4.558
 7071TIP3    H221153   7.785   3.057   4.669
 7072TIP3   OH221154   7.813   2.840   3.007
 7072TIP3    H121155   7.792   2.801   3.094
 7072TIP3    H221156   7.860   2.766   2.962
 7073TIP3   OH221157   8.052   2.890   4.260
 7073TIP3    H121158   7.985   2.962   4.261
 7073TIP3    H221159   8.116   2.927   4.195
 7074TIP3   OH221160   7.927   2.633   2.856
 7074TIP3    H121161   7.895   2.639   2.764
 7074TIP3    H221162   8.022   2.613   2.837
 7075TIP3   OH221163   8.219   2.700   4.368
 7075TIP3    H121164   8.221   2.613   4.321
 7075TIP3    H221165   8.156   2.751   4.313
 7076TIP3   OH221166   8.224   2.471   4.201
 7076TIP3    H121167   8.234   2.524   4.119
 7076TIP3    H221168   8.136   2.432   4.185
 7077TIP3   OH221169   8.218   3.013   4.090
 7077TIP3    H121170   8.291   2.998   4.027
 7077TIP3    H221171   8.164   3.079   4.041
 7078TIP3   OH221172   8.095   2.808   4.599
 7078TIP3    H121173   8.028   2.738   4.614
 7078TIP3    H221174   8.129   2.785   4.511
 7079TIP3   OH221175   7.931   2.589   4.654
 7079TIP3    H121176   7.936   2.499   4.617
 7079TIP3    H221177   7.967   2.574   4.744
 7080TIP3   OH221178   7.719   3.700   2.759
 7080TIP3    H121179   7.816   3.696   2.750
 7080TIP3    H221180   7.698   3.755   2.680
 7081TIP3   OH221181   7.209   3.084   2.971
 7081TIP3    H121182   7.305   3.104   2.961
 7081TIP3    H221183   7.205   2.993   2.934
 7082TIP3   OH221184   7.129   3.691   3.388
 7082TIP3    H121185   7.059   3.632   3.353
 7082TIP3    H221186   7.170   3.633   3.456
 7083TIP3   OH221187   7.261   3.540   3.577
 7083TIP3    H121188   7.247   3.470   3.644
 7083TIP3    H221189   7.311   3.604   3.631
 7084TIP3   OH221190   7.444   2.954   3.948
 7084TIP3    H121191   7.443   2.919   3.856
 7084TIP3    H221192   7.541   2.954   3.966
 7085TIP3   OH221193   7.663   2.639   4.626
 7085TIP3    H121194   7.761   2.632   4.626
 7085TIP3    H221195   7.640   2.552   4.664
 7086TIP3   OH221196   7.616   2.336   3.959
 7086TIP3    H121197   7.675   2.257   3.963
 7086TIP3    H221198   7.684   2.407   3.953
 7087TIP3   OH221199   7.424   2.606   4.023
 7087TIP3    H121200   7.476   2.597   3.941
 7087TIP3    H221201   7.463   2.685   4.061
 7088TIP3   OH221202   7.410   2.101   3.523
 7088TIP3    H121203   7.319   2.103   3.556
 7088TIP3    H221204   7.407   2.163   3.448
 7089TIP3   OH221205   7.630   2.198   4.346
 7089TIP3    H121206   7.577   2.187   4.427
 7089TIP3    H221207   7.563   2.228   4.282
 7090TIP3   OH221208   7.670   3.622   4.420
 7090TIP3    H121209   7.579   3.592   4.402
 7090TIP3    H221210   7.682   3.591   4.511
 7091TIP3   OH221211   7.851   3.648   3.968
 7091TIP3    H121212   7.802   3.723   3.928
 7091TIP3    H221213   7.936   3.661   3.922
 7092TIP3   OH221214   8.281   3.879   4.111
 7092TIP3    H121215   8.331   3.886   4.196
 7092TIP3    H221216   8.332   3.937   4.051
 7093TIP3   OH221217   8.420   4.040   3.928
 7093TIP3    H121218   8.471   4.033   3.844
 7093TIP3    H221219   8.472   4.107   3.975
 7094TIP3   OH221220   7.526   3.907   3.989
 7094TIP3    H121221   7.437   3.940   3.965
 7094TIP3    H221222   7.531   3.936   4.080
 7095TIP3   OH221223   7.761   3.882   3.849
 7095TIP3    H121224   7.674   3.895   3.893
 7095TIP3    H221225   7.742   3.914   3.758
 7096TIP3   OH221226   8.160   3.919   3.651
 7096TIP3    H121227   8.088   3.932   3.587
 7096TIP3    H221228   8.174   4.011   3.684
 7097TIP3   OH221229   8.410   3.816   3.630
 7097TIP3    H121230   8.320   3.853   3.639
 7097TIP3    H221231   8.465   3.893   3.656
 7098TIP3   OH221232   7.438   3.699   3.734
 7098TIP3    H121233   7.463   3.670   3.825
 7098TIP3    H221234   7.510   3.654   3.683
 7099TIP3   OH221235   7.632   3.570   3.593
 7099TIP3    H121236   7.646   3.486   3.643
 7099TIP3    H221237   7.723   3.606   3.589
 7100TIP3   OH221238   7.898   3.665   3.597
 7100TIP3    H121239   7.926   3.572   3.585
 7100TIP3    H221240   7.945   3.685   3.680
 7101TIP3   OH221241   7.722   2.031   3.691
 7101TIP3    H121242   7.632   1.994   3.699
 7101TIP3    H221243   7.773   1.947   3.687
 7102TIP3   OH221244   7.502   1.902   3.336
 7102TIP3    H121245   7.537   1.962   3.268
 7102TIP3    H221246   7.482   1.964   3.409
 7103TIP3   OH221247   7.227   3.470   3.123
 7103TIP3    H121248   7.140   3.440   3.090
 7103TIP3    H221249   7.216   3.566   3.114
 7104TIP3   OH221250   7.623   2.060   3.112
 7104TIP3    H121251   7.669   2.002   3.047
 7104TIP3    H221252   7.697   2.118   3.141
 7105TIP3   OH221253   7.987   3.659   2.715
 7105TIP3    H121254   8.080   3.668   2.683
 7105TIP3    H221255   7.959   3.586   2.657
 7106TIP3   OH221256   7.922   2.312   4.584
 7106TIP3    H121257   7.889   2.240   4.641
 7106TIP3    H221258   8.016   2.313   4.612
 7107TIP3   OH221259   8.162   2.309   4.716
 7107TIP3    H121260   8.240   2.271   4.671
 7107TIP3    H221261   8.146   2.239   4.783
 7108TIP3   OH221262   7.299   3.496   2.763
 7108TIP3    H121263   7.300   3.515   2.858
 7108TIP3    H221264   7.388   3.455   2.750
 7109TIP3   OH221265   0.883   3.835   5.335
 7109TIP3    H121266   0.901   3.789   5.419
 7109TIP3    H221267   0.837   3.767   5.284
 7110TIP3   OH221268   0.192   3.702   5.667
 7110TIP3    H121269   0.176   3.647   5.745
 7110TIP3    H221270   0.245   3.774   5.702
 7111TIP3   OH221271   0.139   4.115   5.372
 7111TIP3    H121272   0.126   4.020   5.393
 7111TIP3    H221273   0.234   4.123   5.391
 7112TIP3   OH221274  -0.095   3.611   5.347
 7112TIP3    H121275  -0.052   3.571   5.424
 7112TIP3    H221276  -0.031   3.679   5.322
 7113TIP3   OH221277   0.755   4.588   5.041
 7113TIP3    H121278   0.805   4.526   4.984
 7113TIP3    H221279   0.769   4.550   5.128
 7114TIP3   OH221280   0.659   4.058   5.383
 7114TIP3    H121281   0.689   3.986   5.326
 7114TIP3    H221282   0.746   4.089   5.417
 7115TIP3   OH221283   1.678   3.369   5.385
 7115TIP3    H121284   1.707   3.454   5.424
 7115TIP3    H221285   1.703   3.382   5.292
 7116TIP3   OH221286   1.074   3.552   5.418
 7116TIP3    H121287   1.118   3.466   5.436
 7116TIP3    H221288   1.044   3.538   5.326
 7117TIP3   OH221289   0.419   3.212   5.383
 7117TIP3    H121290   0.398   3.284   5.320
 7117TIP3    H221291   0.370   3.138   5.340
 7118TIP3   OH221292   1.108   3.303   5.007
 7118TIP3    H121293   1.182   3.288   5.070
 7118TIP3    H221294   1.157   3.339   4.931
 7119TIP3   OH221295   0.050   3.414   5.494
 7119TIP3    H121296   0.131   3.405   5.548
 7119TIP3    H221297   0.078   3.371   5.411
 7120TIP3   OH221298   0.490   3.612   5.274
 7120TIP3    H121299   0.583   3.586   5.295
 7120TIP3    H221300   0.452   3.526   5.247
 7121TIP3   OH221301   1.753   3.581   5.553
 7121TIP3    H121302   1.667   3.624   5.534
 7121TIP3    H221303   1.763   3.604   5.647
 7122TIP3   OH221304   0.410   3.193   5.822
 7122TIP3    H121305   0.355   3.236   5.754
 7122TIP3    H221306   0.358   3.213   5.903
 7123TIP3   OH221307   0.517   3.977   5.616
 7123TIP3    H121308   0.458   4.043   5.658
 7123TIP3    H221309   0.557   4.028   5.542
 7124TIP3   OH221310   1.317   3.306   5.180
 7124TIP3    H121311   1.305   3.258   5.262
 7124TIP3    H221312   1.370   3.384   5.208
 7125TIP3   OH221313   0.288   3.308   5.603
 7125TIP3    H121314   0.346   3.384   5.628
 7125TIP3    H221315   0.340   3.272   5.528
 7126TIP3   OH221316   0.330   4.156   5.733
 7126TIP3    H121317   0.273   4.205   5.672
 7126TIP3    H221318   0.262   4.113   5.788
 7127TIP3   OH221319   1.173   4.341   5.173
 7127TIP3    H121320   1.096   4.368   5.228
 7127TIP3    H221321   1.186   4.423   5.121
 7128TIP3   OH221322   1.470   3.272   5.553
 7128TIP3    H121323   1.382   3.296   5.519
 7128TIP3    H221324   1.529   3.303   5.481
 7129TIP3   OH221325   0.764   2.911   5.534
 7129TIP3    H121326   0.749   2.817   5.551
 7129TIP3    H221327   0.688   2.951   5.580
 7130TIP3   OH221328   0.894   4.428   4.873
 7130TIP3    H121329   0.929   4.342   4.839
 7130TIP3    H221330   0.952   4.490   4.824
 7131TIP3   OH221331   0.984   4.194   4.767
 7131TIP3    H121332   0.999   4.138   4.690
 7131TIP3    H221333   0.991   4.125   4.837
 7132TIP3   OH221334   1.405   4.285   5.539
 7132TIP3    H121335   1.397   4.209   5.478
 7132TIP3    H221336   1.386   4.361   5.480
 7133TIP3   OH221337   0.682   3.661   4.771
 7133TIP3    H121338   0.609   3.724   4.760
 7133TIP3    H221339   0.722   3.667   4.682
 7134TIP3   OH221340   0.654   3.412   4.539
 7134TIP3    H121341   0.678   3.505   4.554
 7134TIP3    H221342   0.720   3.387   4.472
 7135TIP3   OH221343   1.601   3.921   5.386
 7135TIP3    H121344   1.520   3.976   5.385
 7135TIP3    H221345   1.635   3.939   5.295
 7136TIP3   OH221346   1.031   3.764   4.755
 7136TIP3    H121347   0.995   3.828   4.821
 7136TIP3    H221348   1.111   3.739   4.805
 7137TIP3   OH221349   1.281   3.800   5.675
 7137TIP3    H121350   1.275   3.883   5.725
 7137TIP3    H221351   1.191   3.797   5.635
 7138TIP3   OH221352   0.270   3.751   5.184
 7138TIP3    H121353   0.227   3.694   5.118
 7138TIP3    H221354   0.353   3.701   5.204
 7139TIP3   OH221355   0.415   4.182   5.318
 7139TIP3    H121356   0.389   4.138   5.236
 7139TIP3    H221357   0.501   4.139   5.338
 7140TIP3   OH221358   0.459   3.720   5.530
 7140TIP3    H121359   0.462   3.708   5.433
 7140TIP3    H221360   0.471   3.815   5.543
 7141TIP3   OH221361   0.948   4.354   5.309
 7141TIP3    H121362   0.932   4.446   5.342
 7141TIP3    H221363   0.922   4.300   5.386
 7142TIP3   OH221364   0.548   4.290   5.856
 7142TIP3    H121365   0.495   4.346   5.915
 7142TIP3    H221366   0.479   4.235   5.813
 7143TIP3   OH221367   0.899   3.600   4.584
 7143TIP3    H121368   0.939   3.671   4.639
 7143TIP3    H221369   0.914   3.634   4.493
 7144TIP3   OH221370   0.293   3.840   5.961
 7144TIP3    H121371   0.299   3.923   6.013
 7144TIP3    H221372   0.198   3.839   5.940
 7145TIP3   OH221373   0.612   4.329   4.833
 7145TIP3    H121374   0.691   4.355   4.881
 7145TIP3    H221375   0.561   4.410   4.823
 7146TIP3   OH221376   0.321   4.468   5.941
 7146TIP3    H121377   0.308   4.464   5.845
 7146TIP3    H221378   0.251   4.409   5.975
 7147TIP3   OH221379   1.397   2.857   4.634
 7147TIP3    H121380   1.316   2.879   4.685
 7147TIP3    H221381   1.412   2.941   4.586
 7148TIP3   OH221382   0.130   3.602   4.991
 7148TIP3    H121383   0.109   3.620   4.898
 7148TIP3    H221384   0.114   3.507   4.996
 7149TIP3   OH221385   1.198   4.224   4.177
 7149TIP3    H121386   1.208   4.322   4.168
 7149TIP3    H221387   1.291   4.195   4.167
 7150TIP3   OH221388   1.639   4.633   5.580
 7150TIP3    H121389   1.638   4.537   5.596
 7150TIP3    H221390   1.557   4.659   5.627
 7151TIP3   OH221391   0.735   4.420   5.693
 7151TIP3    H121392   0.783   4.500   5.727
 7151TIP3    H221393   0.681   4.393   5.770
 7152TIP3   OH221394   0.499   4.547   4.663
 7152TIP3    H121395   0.457   4.530   4.577
 7152TIP3    H221396   0.472   4.638   4.683
 7153TIP3   OH221397   0.709   4.445   4.303
 7153TIP3    H121398   0.768   4.374   4.269
 7153TIP3    H221399   0.742   4.455   4.395
 7154TIP3   OH221400   0.755   4.494   4.576
 7154TIP3    H121401   0.667   4.498   4.619
 7154TIP3    H221402   0.803   4.439   4.640
 7155TIP3   OH221403   1.531   3.759   5.852
 7155TIP3    H121404   1.448   3.771   5.803
 7155TIP3    H221405   1.547   3.663   5.841
 7156TIP3   OH221406   0.528   2.989   5.664
 7156TIP3    H121407   0.439   2.957   5.636
 7156TIP3    H221408   0.501   3.070   5.711
 7157TIP3   OH221409   1.061   3.105   5.857
 7157TIP3    H121410   1.129   3.077   5.921
 7157TIP3    H221411   0.977   3.085   5.903
 7158TIP3   OH221412   1.302   3.536   5.778
 7158TIP3    H121413   1.249   3.532   5.861
 7158TIP3    H221414   1.274   3.621   5.740
 7159TIP3   OH221415   0.969   3.655   4.327
 7159TIP3    H121416   0.915   3.637   4.248
 7159TIP3    H221417   1.043   3.706   4.291
 7160TIP3   OH221418   0.671   3.031   4.632
 7160TIP3    H121419   0.636   3.033   4.723
 7160TIP3    H221420   0.632   2.947   4.600
 7161TIP3   OH221421   0.460   3.502   5.686
 7161TIP3    H121422   0.404   3.527   5.762
 7161TIP3    H221423   0.454   3.584   5.630
 7162TIP3   OH221424   0.343   3.390   5.193
 7162TIP3    H121425   0.248   3.369   5.206
 7162TIP3    H221426   0.358   3.350   5.104
 7163TIP3   OH221427   0.829   3.484   4.924
 7163TIP3    H121428   0.776   3.554   4.878
 7163TIP3    H221429   0.882   3.450   4.849
 7164TIP3   OH221430   1.009   3.753   6.007
 7164TIP3    H121431   0.986   3.681   6.069
 7164TIP3    H221432   1.103   3.768   6.030
 7165TIP3   OH221433   0.988   3.506   5.158
 7165TIP3    H121434   0.926   3.531   5.086
 7165TIP3    H221435   1.025   3.426   5.116
 7166TIP3   OH221436   0.285   3.527   5.897
 7166TIP3    H121437   0.293   3.600   5.959
 7166TIP3    H221438   0.276   3.450   5.956
 7167TIP3   OH221439   0.324   3.008   4.598
 7167TIP3    H121440   0.318   3.011   4.696
 7167TIP3    H221441   0.250   3.065   4.573
 7168TIP3   OH221442  -0.110   3.084   5.457
 7168TIP3    H121443  -0.033   3.091   5.516
 7168TIP3    H221444  -0.091   3.003   5.406
 7169TIP3   OH221445  -0.137   3.089   5.022
 7169TIP3    H121446  -0.107   3.096   4.929
 7169TIP3    H221447  -0.141   3.182   5.045
 7170TIP3   OH221448   1.016   3.750   5.590
 7170TIP3    H121449   1.042   3.679   5.527
 7170TIP3    H221450   0.977   3.696   5.662
 7171TIP3   OH221451   0.675   3.211   5.256
 7171TIP3    H121452   0.593   3.212   5.310
 7171TIP3    H221453   0.743   3.211   5.325
 7172TIP3   OH221454   0.103   3.259   5.260
 7172TIP3    H121455   0.013   3.227   5.268
 7172TIP3    H221456   0.153   3.176   5.246
 7173TIP3   OH221457   0.372   3.268   4.949
 7173TIP3    H121458   0.467   3.282   4.929
 7173TIP3    H221459   0.328   3.287   4.864
 7174TIP3   OH221460   1.163   3.289   5.459
 7174TIP3    H121461   1.128   3.303   5.550
 7174TIP3    H221462   1.096   3.229   5.423
 7175TIP3   OH221463   0.216   3.290   4.724
 7175TIP3    H121464   0.153   3.253   4.659
 7175TIP3    H221465   0.271   3.344   4.663
 7176TIP3   OH221466   1.345   4.978   5.669
 7176TIP3    H121467   1.343   5.003   5.575
 7176TIP3    H221468   1.420   5.029   5.704
 7177TIP3   OH221469   0.286   4.076   6.120
 7177TIP3    H121470   0.365   4.109   6.168
 7177TIP3    H221471   0.216   4.128   6.162
 7178TIP3   OH221472   0.750   3.541   5.356
 7178TIP3    H121473   0.824   3.505   5.305
 7178TIP3    H221474   0.759   3.496   5.442
 7179TIP3   OH221475   0.269   3.034   5.234
 7179TIP3    H121476   0.237   2.953   5.280
 7179TIP3    H221477   0.318   2.996   5.160
 7180TIP3   OH221478   0.729   3.439   5.645
 7180TIP3    H121479   0.638   3.475   5.656
 7180TIP3    H221480   0.784   3.503   5.693
 7181TIP3   OH221481   1.374   4.076   5.360
 7181TIP3    H121482   1.367   4.119   5.274
 7181TIP3    H221483   1.294   4.019   5.357
 7182TIP3   OH221484   0.919   3.144   4.598
 7182TIP3    H121485   0.822   3.127   4.607
 7182TIP3    H221486   0.928   3.237   4.628
 7183TIP3   OH221487   0.859   4.145   5.736
 7183TIP3    H121488   0.896   4.124   5.822
 7183TIP3    H221489   0.836   4.239   5.745
 7184TIP3   OH221490   0.995   3.384   4.713
 7184TIP3    H121491   1.090   3.402   4.721
 7184TIP3    H221492   0.964   3.462   4.660
 7185TIP3   OH221493   0.163   3.847   5.421
 7185TIP3    H121494   0.206   3.801   5.346
 7185TIP3    H221495   0.170   3.783   5.495
 7186TIP3   OH221496   0.766   3.883   6.050
 7186TIP3    H121497   0.703   3.827   6.001
 7186TIP3    H221498   0.851   3.849   6.017
 7187TIP3   OH221499   1.029   4.390   5.655
 7187TIP3    H121500   0.937   4.406   5.631
 7187TIP3    H221501   1.045   4.470   5.708
 7188TIP3   OH221502   1.437   3.481   4.538
 7188TIP3    H121503   1.376   3.436   4.475
 7188TIP3    H221504   1.431   3.571   4.500
 7189TIP3   OH221505   1.657   4.338   5.621
 7189TIP3    H121506   1.559   4.335   5.617
 7189TIP3    H221507   1.679   4.308   5.530
 7190TIP3   OH221508   1.134   4.285   4.443
 7190TIP3    H121509   1.115   4.213   4.504
 7190TIP3    H221510   1.150   4.239   4.359
 7191TIP3   OH221511   1.136   3.942   5.281
 7191TIP3    H121512   1.046   3.905   5.292
 7191TIP3    H221513   1.173   3.871   5.224
 7192TIP3   OH221514   0.267   4.164   5.048
 7192TIP3    H121515   0.264   4.235   4.981
 7192TIP3    H221516   0.174   4.147   5.065
 7193TIP3   OH221517  -0.172   3.467   4.753
 7193TIP3    H121518  -0.115   3.546   4.766
 7193TIP3    H221519  -0.256   3.504   4.780
 7194TIP3   OH221520   0.400   3.923   5.005
 7194TIP3    H121521   0.362   4.012   5.014
 7194TIP3    H221522   0.353   3.872   5.072
 7195TIP3   OH221523   0.537   4.501   5.508
 7195TIP3    H121524   0.586   4.568   5.456
 7195TIP3    H221525   0.610   4.466   5.564
 7196TIP3   OH221526   0.174   4.403   4.893
 7196TIP3    H121527   0.098   4.418   4.951
 7196TIP3    H221528   0.214   4.493   4.891
 7197TIP3   OH221529   0.917   4.129   5.469
 7197TIP3    H121530   0.896   4.137   5.565
 7197TIP3    H221531   0.989   4.064   5.474
 7198TIP3   OH221532   0.883   4.019   4.348
 7198TIP3    H121533   0.941   4.003   4.426
 7198TIP3    H221534   0.805   3.969   4.376
 7199TIP3   OH221535   1.176   4.661   5.516
 7199TIP3    H121536   1.098   4.656   5.574
 7199TIP3    H221537   1.149   4.728   5.451
 7200TIP3   OH221538   1.234   4.505   4.170
 7200TIP3    H121539   1.278   4.584   4.135
 7200TIP3    H221540   1.148   4.545   4.195
 7201TIP3   OH221541   0.258   3.267   6.049
 7201TIP3    H121542   0.165   3.255   6.070
 7201TIP3    H221543   0.300   3.212   6.117
 7202TIP3   OH221544   1.055   3.975   4.565
 7202TIP3    H121545   1.033   3.905   4.630
 7202TIP3    H221546   1.151   3.956   4.553
 7203TIP3   OH221547   0.255   3.999   4.346
 7203TIP3    H121548   0.282   3.907   4.327
 7203TIP3    H221549   0.252   3.996   4.443
 7204TIP3   OH221550   0.205   4.014   4.627
 7204TIP3    H121551   0.293   3.982   4.655
 7204TIP3    H221552   0.216   4.111   4.631
 7205TIP3   OH221553  -0.075   3.713   4.824
 7205TIP3    H121554  -0.040   3.751   4.906
 7205TIP3    H221555  -0.038   3.773   4.756
 7206TIP3   OH221556   1.089   3.343   5.719
 7206TIP3    H121557   1.170   3.378   5.758
 7206TIP3    H221558   1.074   3.261   5.771
 7207TIP3   OH221559   0.969   3.090   4.881
 7207TIP3    H121560   0.951   3.114   4.788
 7207TIP3    H221561   1.006   3.174   4.917
 7208TIP3   OH221562   0.442   4.203   4.546
 7208TIP3    H121563   0.371   4.239   4.601
 7208TIP3    H221564   0.496   4.280   4.530
 7209TIP3   OH221565   0.656   3.274   4.984
 7209TIP3    H121566   0.716   3.348   4.963
 7209TIP3    H221567   0.665   3.269   5.082
 7210TIP3   OH221568   0.925   3.590   5.790
 7210TIP3    H121569   0.948   3.643   5.869
 7210TIP3    H221570   0.978   3.510   5.802
 7211TIP3   OH221571   0.799   2.997   5.085
 7211TIP3    H121572   0.786   3.077   5.140
 7211TIP3    H221573   0.861   3.032   5.017
 7212TIP3   OH221574   0.200   4.292   4.641
 7212TIP3    H121575   0.176   4.363   4.578
 7212TIP3    H221576   0.188   4.336   4.728
 7213TIP3   OH221577   0.311   3.000   4.878
 7213TIP3    H121578   0.312   3.092   4.910
 7213TIP3    H221579   0.407   2.981   4.884
 7214TIP3   OH221580   1.567   3.491   5.770
 7214TIP3    H121581   1.469   3.493   5.780
 7214TIP3    H221582   1.574   3.442   5.687
 7215TIP3   OH221583   1.219   3.687   5.164
 7215TIP3    H121584   1.140   3.630   5.169
 7215TIP3    H221585   1.287   3.634   5.210
 7216TIP3   OH221586  -0.052   3.928   4.659
 7216TIP3    H121587   0.037   3.969   4.654
 7216TIP3    H221588  -0.046   3.873   4.579
 7217TIP3   OH221589  -0.153   3.189   4.768
 7217TIP3    H121590  -0.137   3.285   4.769
 7217TIP3    H221591  -0.172   3.174   4.674
 7218TIP3   OH221592   1.189   4.629   5.110
 7218TIP3    H121593   1.143   4.683   5.043
 7218TIP3    H221594   1.282   4.654   5.090
 7219TIP3   OH221595   0.264   2.908   5.635
 7219TIP3    H121596   0.234   2.871   5.549
 7219TIP3    H221597   0.254   2.829   5.694
 7220TIP3   OH221598   0.432   4.638   6.135
 7220TIP3    H121599   0.527   4.623   6.144
 7220TIP3    H221600   0.410   4.573   6.066
 7221TIP3   OH221601   0.416   4.213   4.254
 7221TIP3    H121602   0.368   4.146   4.309
 7221TIP3    H221603   0.498   4.163   4.235
 7222TIP3   OH221604   0.853   4.247   4.173
 7222TIP3    H121605   0.890   4.183   4.236
 7222TIP3    H221606   0.918   4.245   4.100
 7223TIP3   OH221607   0.061   3.726   4.493
 7223TIP3    H121608   0.118   3.691   4.565
 7223TIP3    H221609   0.126   3.733   4.420
 7224TIP3   OH221610   0.687   4.154   6.066
 7224TIP3    H121611   0.658   4.177   5.975
 7224TIP3    H221612   0.723   4.064   6.055
 7225TIP3   OH221613   1.188   4.167   5.666
 7225TIP3    H121614   1.264   4.218   5.631
 7225TIP3    H221615   1.120   4.238   5.666
 7226TIP3   OH221616   0.207   3.796   6.292
 7226TIP3    H121617   0.271   3.764   6.228
 7226TIP3    H221618   0.262   3.843   6.357
 7227TIP3   OH221619   0.223   3.615   4.697
 7227TIP3    H121620   0.283   3.620   4.772
 7227TIP3    H221621   0.279   3.566   4.634
 7228TIP3   OH221622   0.546   3.702   5.940
 7228TIP3    H121623   0.463   3.754   5.935
 7228TIP3    H221624   0.593   3.732   5.859
 7229TIP3   OH221625   0.374   3.429   4.550
 7229TIP3    H121626   0.358   3.439   4.454
 7229TIP3    H221627   0.472   3.427   4.551
 7230TIP3   OH221628   1.062   4.094   6.069
 7230TIP3    H121629   1.141   4.069   6.019
 7230TIP3    H221630   1.059   4.027   6.139
 7231TIP3   OH221631   1.202   3.759   4.204
 7231TIP3    H121632   1.177   3.711   4.122
 7231TIP3    H221633   1.165   3.848   4.182
 7232TIP3   OH221634   0.670   3.488   6.058
 7232TIP3    H121635   0.666   3.408   6.002
 7232TIP3    H221636   0.623   3.554   6.002
 7233TIP3   OH221637   0.669   3.270   5.868
 7233TIP3    H121638   0.696   3.314   5.784
 7233TIP3    H221639   0.576   3.248   5.849
 7234TIP3   OH221640   0.694   3.810   5.744
 7234TIP3    H121641   0.776   3.818   5.693
 7234TIP3    H221642   0.634   3.872   5.696
 7235TIP3   OH221643   1.276   3.772   6.120
 7235TIP3    H121644   1.325   3.689   6.128
 7235TIP3    H221645   1.344   3.832   6.085
 7236TIP3   OH221646   1.317   4.027   5.856
 7236TIP3    H121647   1.258   4.079   5.796
 7236TIP3    H221648   1.404   4.048   5.816
 7237TIP3   OH221649   0.548   3.607   6.291
 7237TIP3    H121650   0.489   3.528   6.300
 7237TIP3    H221651   0.580   3.595   6.200
 7238TIP3   OH221652   0.801   3.034   5.936
 7238TIP3    H121653   0.752   3.115   5.912
 7238TIP3    H221654   0.732   2.965   5.923
 7239TIP3   OH221655   0.928   3.536   6.150
 7239TIP3    H121656   0.911   3.523   6.245
 7239TIP3    H221657   0.839   3.514   6.115
 7240TIP3   OH221658   1.166   3.487   6.005
 7240TIP3    H121659   1.090   3.489   6.067
 7240TIP3    H221660   1.239   3.457   6.063
 7241TIP3   OH221661   1.397   3.430   6.155
 7241TIP3    H121662   1.408   3.334   6.172
 7241TIP3    H221663   1.392   3.467   6.246
 7242TIP3   OH221664   0.410   3.377   6.341
 7242TIP3    H121665   0.399   3.287   6.304
 7242TIP3    H221666   0.434   3.356   6.433
 7243TIP3   OH221667   0.894   3.042   6.194
 7243TIP3    H121668   0.960   2.971   6.186
 7243TIP3    H221669   0.854   3.039   6.104
 7244TIP3   OH221670   0.961   3.257   6.352
 7244TIP3    H121671   0.940   3.186   6.287
 7244TIP3    H221672   0.884   3.317   6.344
 7245TIP3   OH221673   0.185   4.492   4.449
 7245TIP3    H121674   0.280   4.481   4.430
 7245TIP3    H221675   0.158   4.544   4.372
 7246TIP3   OH221676   1.440   4.722   5.063
 7246TIP3    H121677   1.487   4.771   5.131
 7246TIP3    H221678   1.489   4.747   4.982
 7247TIP3   OH221679   1.472   4.758   5.359
 7247TIP3    H121680   1.427   4.674   5.338
 7247TIP3    H221681   1.541   4.725   5.419
 7248TIP3   OH221682   1.518   4.429   5.922
 7248TIP3    H121683   1.444   4.439   5.985
 7248TIP3    H221684   1.558   4.518   5.926
 7249TIP3   OH221685   1.334   3.941   4.542
 7249TIP3    H121686   1.401   4.006   4.514
 7249TIP3    H221687   1.376   3.904   4.623
 7250TIP3   OH221688   1.463   3.811   4.751
 7250TIP3    H121689   1.389   3.766   4.800
 7250TIP3    H221690   1.509   3.855   4.824
 7251TIP3   OH221691   1.345   4.497   5.372
 7251TIP3    H121692   1.278   4.547   5.423
 7251TIP3    H221693   1.293   4.463   5.297
 7252TIP3   OH221694   1.397   3.718   4.391
 7252TIP3    H121695   1.326   3.720   4.323
 7252TIP3    H221696   1.367   3.793   4.447
 7253TIP3   OH221697   1.278   3.387   4.339
 7253TIP3    H121698   1.215   3.429   4.279
 7253TIP3    H221699   1.252   3.293   4.331
 7254TIP3   OH221700   1.280   3.665   4.890
 7254TIP3    H121701   1.276   3.568   4.880
 7254TIP3    H221702   1.259   3.678   4.985
 7255TIP3   OH221703   1.562   4.092   5.749
 7255TIP3    H121704   1.633   4.025   5.738
 7255TIP3    H221705   1.589   4.162   5.688
 7256TIP3   OH221706   1.747   3.895   5.759
 7256TIP3    H121707   1.672   3.846   5.799
 7256TIP3    H221708   1.819   3.831   5.777
 7257TIP3   OH221709   1.213   3.122   4.323
 7257TIP3    H121710   1.282   3.092   4.385
 7257TIP3    H221711   1.135   3.070   4.349
 7258TIP3   OH221712   1.275   3.387   4.789
 7258TIP3    H121713   1.313   3.298   4.805
 7258TIP3    H221714   1.330   3.416   4.715
 7259TIP3   OH221715   1.431   3.552   5.283
 7259TIP3    H121716   1.515   3.580   5.241
 7259TIP3    H221717   1.444   3.591   5.372
 7260TIP3   OH221718   1.501   3.698   5.514
 7260TIP3    H121719   1.423   3.732   5.563
 7260TIP3    H221720   1.534   3.779   5.471
 7261TIP3   OH221721   0.134   3.341   6.425
 7261TIP3    H121722   0.195   3.378   6.358
 7261TIP3    H221723   0.049   3.379   6.392
 7262TIP3   OH221724   1.953   3.294   6.069
 7262TIP3    H121725   2.011   3.229   6.025
 7262TIP3    H221726   1.921   3.347   5.992
 7263TIP3   OH221727   1.378   3.134   4.824
 7263TIP3    H121728   1.426   3.117   4.907
 7263TIP3    H221729   1.316   3.058   4.822
 7264TIP3   OH221730   0.089   3.119   5.647
 7264TIP3    H121731   0.152   3.043   5.653
 7264TIP3    H221732   0.152   3.192   5.632
 7265TIP3   OH221733   1.821   3.430   5.873
 7265TIP3    H121734   1.734   3.472   5.892
 7265TIP3    H221735   1.790   3.357   5.815
 7266TIP3   OH221736   1.456   3.067   4.458
 7266TIP3    H121737   1.499   2.994   4.408
 7266TIP3    H221738   1.525   3.136   4.456
 7267TIP3   OH221739  -0.118   2.905   5.222
 7267TIP3    H121740  -0.207   2.915   5.259
 7267TIP3    H221741  -0.117   2.972   5.151
 7268TIP3   OH221742   1.033   4.620   4.733
 7268TIP3    H121743   1.056   4.595   4.640
 7268TIP3    H221744   1.122   4.639   4.765
 7269TIP3   OH221745   0.081   2.983   6.044
 7269TIP3    H121746   0.038   2.982   6.131
 7269TIP3    H221747   0.018   3.032   5.991
 7270TIP3   OH221748   0.302   4.472   5.656
 7270TIP3    H121749   0.290   4.543   5.591
 7270TIP3    H221750   0.392   4.445   5.633
 7271TIP3   OH221751   1.719   3.193   5.754
 7271TIP3    H121752   1.629   3.184   5.718
 7271TIP3    H221753   1.753   3.101   5.744
 7272TIP3   OH221754   0.218   4.696   5.510
 7272TIP3    H121755   0.183   4.783   5.535
 7272TIP3    H221756   0.165   4.674   5.432
 7273TIP3   OH221757   0.636   4.704   5.342
 7273TIP3    H121758   0.589   4.724   5.260
 7273TIP3    H221759   0.653   4.792   5.381
 7274TIP3   OH221760   0.903   4.623   5.353
 7274TIP3    H121761   0.812   4.657   5.363
 7274TIP3    H221762   0.955   4.704   5.353
 7275TIP3   OH221763   1.115   4.834   5.301
 7275TIP3    H121764   1.101   4.916   5.249
 7275TIP3    H221765   1.140   4.770   5.231
 7276TIP3   OH221766   0.087   4.364   5.280
 7276TIP3    H121767   0.092   4.273   5.318
 7276TIP3    H221768   0.182   4.387   5.277
 7277TIP3   OH221769   0.366   4.459   5.287
 7277TIP3    H121770   0.386   4.365   5.268
 7277TIP3    H221771   0.418   4.469   5.369
 7278TIP3   OH221772   0.929   3.110   5.378
 7278TIP3    H121773   0.884   3.038   5.426
 7278TIP3    H221774   0.999   3.063   5.329
 7279TIP3   OH221775   1.448   2.992   5.279
 7279TIP3    H121776   1.485   3.042   5.203
 7279TIP3    H221777   1.352   3.008   5.269
 7280TIP3   OH221778   1.545   3.090   5.041
 7280TIP3    H121779   1.617   3.037   5.001
 7280TIP3    H221780   1.578   3.181   5.025
 7281TIP3   OH221781   0.171   2.817   5.389
 7281TIP3    H121782   0.078   2.787   5.386
 7281TIP3    H221783   0.218   2.731   5.385
 7282TIP3   OH221784  -0.013   2.682   5.048
 7282TIP3    H121785   0.004   2.737   4.970
 7282TIP3    H221786  -0.057   2.745   5.109
 7283TIP3   OH221787   0.619   2.849   5.270
 7283TIP3    H121788   0.675   2.897   5.207
 7283TIP3    H221789   0.646   2.889   5.354
 7284TIP3   OH221790   1.164   2.997   5.252
 7284TIP3    H121791   1.162   2.959   5.163
 7284TIP3    H221792   1.152   2.917   5.308
 7285TIP3   OH221793   1.194   2.921   4.816
 7285TIP3    H121794   1.108   2.965   4.829
 7285TIP3    H221795   1.179   2.836   4.861
 7286TIP3   OH221796   0.082   2.845   4.806
 7286TIP3    H121797   0.127   2.780   4.749
 7286TIP3    H221798   0.157   2.898   4.839
 7287TIP3   OH221799   0.588   3.023   4.899
 7287TIP3    H121800   0.650   2.976   4.957
 7287TIP3    H221801   0.611   3.116   4.922
 7288TIP3   OH221802   0.449   4.453   4.392
 7288TIP3    H121803   0.540   4.467   4.359
 7288TIP3    H221804   0.427   4.370   4.344
 7289TIP3   OH221805   1.121   4.552   4.491
 7289TIP3    H121806   1.137   4.456   4.475
 7289TIP3    H221807   1.126   4.588   4.401
 7290TIP3   OH221808   0.380   3.103   6.274
 7290TIP3    H121809   0.343   3.030   6.329
 7290TIP3    H221810   0.473   3.101   6.306
 7291TIP3   OH221811   0.628   3.097   6.402
 7291TIP3    H121812   0.713   3.075   6.359
 7291TIP3    H221813   0.617   3.022   6.464
 7292TIP3   OH221814   1.458   3.158   6.186
 7292TIP3    H121815   1.476   3.127   6.277
 7292TIP3    H221816   1.546   3.153   6.145
 7293TIP3   OH221817   1.394   4.708   5.683
 7293TIP3    H121818   1.318   4.677   5.629
 7293TIP3    H221819   1.371   4.804   5.690
 7294TIP3   OH221820   1.995   3.985   5.172
 7294TIP3    H121821   2.006   3.905   5.227
 7294TIP3    H221822   2.030   4.052   5.234
 7295TIP3   OH221823   1.921   4.396   4.916
 7295TIP3    H121824   1.907   4.309   4.953
 7295TIP3    H221825   2.018   4.399   4.902
 7296TIP3   OH221826   1.638   3.597   4.699
 7296TIP3    H121827   1.580   3.674   4.713
 7296TIP3    H221828   1.573   3.534   4.664
 7297TIP3   OH221829   1.715   3.889   4.877
 7297TIP3    H121830   1.754   3.806   4.912
 7297TIP3    H221831   1.724   3.875   4.782
 7298TIP3   OH221832   2.560   4.851   4.528
 7298TIP3    H121833   2.593   4.776   4.475
 7298TIP3    H221834   2.548   4.809   4.615
 7299TIP3   OH221835   3.476   3.624   4.869
 7299TIP3    H121836   3.485   3.710   4.915
 7299TIP3    H221837   3.508   3.644   4.780
 7300TIP3   OH221838   2.862   3.805   4.912
 7300TIP3    H121839   2.906   3.721   4.933
 7300TIP3    H221840   2.781   3.777   4.868
 7301TIP3   OH221841   2.206   3.473   4.869
 7301TIP3    H121842   2.186   3.541   4.802
 7301TIP3    H221843   2.165   3.394   4.826
 7302TIP3   OH221844   2.902   3.558   4.481
 7302TIP3    H121845   2.963   3.548   4.558
 7302TIP3    H221846   2.963   3.599   4.416
 7303TIP3   OH221847   1.849   3.672   4.975
 7303TIP3    H121848   1.926   3.640   5.026
 7303TIP3    H221849   1.854   3.612   4.897
 7304TIP3   OH221850   3.505   3.833   5.049
 7304TIP3    H121851   3.406   3.843   5.050
 7304TIP3    H221852   3.530   3.878   5.130
 7305TIP3   OH221853   2.204   3.455   5.307
 7305TIP3    H121854   2.141   3.482   5.238
 7305TIP3    H221855   2.152   3.473   5.388
 7306TIP3   OH221856   2.305   4.230   5.088
 7306TIP3    H121857   2.233   4.280   5.132
 7306TIP3    H221858   2.370   4.299   5.077
 7307TIP3   OH221859   3.101   3.554   4.669
 7307TIP3    H121860   3.074   3.523   4.757
 7307TIP3    H221861   3.185   3.600   4.686
 7308TIP3   OH221862   2.076   3.566   5.089
 7308TIP3    H121863   2.138   3.640   5.107
 7308TIP3    H221864   2.124   3.522   5.014
 7309TIP3   OH221865   2.136   4.421   5.196
 7309TIP3    H121866   2.115   4.510   5.163
 7309TIP3    H221867   2.058   4.408   5.256
 7310TIP3   OH221868   1.535   4.111   4.434
 7310TIP3    H121869   1.491   4.141   4.352
 7310TIP3    H221870   1.561   4.198   4.473
 7311TIP3   OH221871   2.981   4.639   4.691
 7311TIP3    H121872   2.890   4.613   4.716
 7311TIP3    H221873   2.964   4.719   4.638
 7312TIP3   OH221874   3.270   3.520   5.039
 7312TIP3    H121875   3.195   3.582   5.035
 7312TIP3    H221876   3.330   3.561   4.974
 7313TIP3   OH221877   2.574   3.174   5.031
 7313TIP3    H121878   2.545   3.082   5.015
 7313TIP3    H221879   2.491   3.212   5.064
 7314TIP3   OH221880   2.664   4.673   4.338
 7314TIP3    H121881   2.713   4.588   4.322
 7314TIP3    H221882   2.731   4.737   4.305
 7315TIP3   OH221883   2.801   4.446   4.258
 7315TIP3    H121884   2.803   4.379   4.187
 7315TIP3    H221885   2.861   4.408   4.323
 7316TIP3   OH221886   3.207   4.535   5.006
 7316TIP3    H121887   3.169   4.468   4.948
 7316TIP3    H221888   3.186   4.618   4.957
 7317TIP3   OH221889   2.491   3.921   4.244
 7317TIP3    H121890   2.418   3.973   4.207
 7317TIP3    H221891   2.551   3.910   4.168
 7318TIP3   OH221892   2.448   3.719   3.986
 7318TIP3    H121893   2.511   3.756   4.048
 7318TIP3    H221894   2.506   3.656   3.938
 7319TIP3   OH221895   2.836   4.032   4.253
 7319TIP3    H121896   2.799   4.072   4.333
 7319TIP3    H221897   2.915   3.988   4.290
 7320TIP3   OH221898   2.174   4.419   4.814
 7320TIP3    H121899   2.151   4.419   4.719
 7320TIP3    H221900   2.269   4.433   4.816
 7321TIP3   OH221901   2.726   4.619   4.790
 7321TIP3    H121902   2.724   4.698   4.846
 7321TIP3    H221903   2.726   4.545   4.854
 7322TIP3   OH221904   2.344   4.542   5.341
 7322TIP3    H121905   2.285   4.604   5.389
 7322TIP3    H221906   2.278   4.489   5.293
 7323TIP3   OH221907   2.693   3.871   4.069
 7323TIP3    H121908   2.746   3.937   4.118
 7323TIP3    H221909   2.716   3.893   3.976
 7324TIP3   OH221910   2.089   4.106   5.426
 7324TIP3    H121911   2.101   4.189   5.475
 7324TIP3    H221912   2.002   4.077   5.461
 7325TIP3   OH221913   2.395   4.599   4.368
 7325TIP3    H121914   2.490   4.617   4.358
 7325TIP3    H221915   2.355   4.652   4.299
 7326TIP3   OH221916   2.140   4.708   5.431
 7326TIP3    H121917   2.105   4.710   5.340
 7326TIP3    H221918   2.059   4.686   5.484
 7327TIP3   OH221919   3.195   3.113   4.122
 7327TIP3    H121920   3.113   3.135   4.173
 7327TIP3    H221921   3.209   3.197   4.074
 7328TIP3   OH221922   1.933   3.861   4.476
 7328TIP3    H121923   1.864   3.901   4.419
 7328TIP3    H221924   1.905   3.770   4.480
 7329TIP3   OH221925   2.996   4.482   3.672
 7329TIP3    H121926   3.005   4.578   3.654
 7329TIP3    H221927   3.089   4.452   3.659
 7330TIP3   OH221928   1.724   4.235   5.377
 7330TIP3    H121929   1.686   4.211   5.292
 7330TIP3    H221930   1.761   4.150   5.409
 7331TIP3   OH221931   1.593   4.414   5.052
 7331TIP3    H121932   1.661   4.440   4.988
 7331TIP3    H221933   1.538   4.493   5.056
 7332TIP3   OH221934   3.436   4.887   5.066
 7332TIP3    H121935   3.436   4.792   5.087
 7332TIP3    H221936   3.353   4.914   5.110
 7333TIP3   OH221937   2.541   4.672   5.199
 7333TIP3    H121938   2.540   4.764   5.233
 7333TIP3    H221939   2.471   4.631   5.254
 7334TIP3   OH221940   2.308   4.799   4.152
 7334TIP3    H121941   2.258   4.780   4.071
 7334TIP3    H221942   2.272   4.885   4.179
 7335TIP3   OH221943   1.743   4.652   4.530
 7335TIP3    H121944   1.787   4.638   4.617
 7335TIP3    H221945   1.653   4.624   4.552
 7336TIP3   OH221946   2.505   4.701   3.790
 7336TIP3    H121947   2.564   4.631   3.754
 7336TIP3    H221948   2.540   4.711   3.881
 7337TIP3   OH221949   2.558   4.748   4.059
 7337TIP3    H121950   2.469   4.760   4.099
 7337TIP3    H221951   2.607   4.710   4.134
 7338TIP3   OH221952   3.312   4.006   5.317
 7338TIP3    H121953   3.243   4.039   5.257
 7338TIP3    H221954   3.292   3.911   5.311
 7339TIP3   OH221955   1.925   4.422   5.366
 7339TIP3    H121956   1.974   4.407   5.449
 7339TIP3    H221957   1.849   4.361   5.376
 7340TIP3   OH221958   2.327   3.247   5.154
 7340TIP3    H121959   2.245   3.211   5.115
 7340TIP3    H221960   2.291   3.325   5.200
 7341TIP3   OH221961   2.855   3.361   5.344
 7341TIP3    H121962   2.922   3.333   5.410
 7341TIP3    H221963   2.771   3.340   5.389
 7342TIP3   OH221964   2.758   3.926   3.814
 7342TIP3    H121965   2.721   3.898   3.729
 7342TIP3    H221966   2.843   3.965   3.785
 7343TIP3   OH221967   2.466   3.296   4.122
 7343TIP3    H121968   2.435   3.291   4.215
 7343TIP3    H221969   2.427   3.213   4.088
 7344TIP3   OH221970   2.235   3.794   5.150
 7344TIP3    H121971   2.195   3.775   5.238
 7344TIP3    H221972   2.270   3.882   5.168
 7345TIP3   OH221973   2.114   3.671   4.693
 7345TIP3    H121974   2.032   3.618   4.703
 7345TIP3    H221975   2.145   3.636   4.606
 7346TIP3   OH221976   2.802   4.015   5.500
 7346TIP3    H121977   2.783   3.939   5.560
 7346TIP3    H221978   2.898   4.021   5.508
 7347TIP3   OH221979   2.073   3.785   5.374
 7347TIP3    H121980   2.105   3.846   5.442
 7347TIP3    H221981   2.056   3.704   5.427
 7348TIP3   OH221982   2.124   3.269   4.083
 7348TIP3    H121983   2.117   3.267   4.181
 7348TIP3    H221984   2.045   3.322   4.061
 7349TIP3   OH221985   1.670   3.313   4.953
 7349TIP3    H121986   1.746   3.340   5.009
 7349TIP3    H221987   1.712   3.269   4.877
 7350TIP3   OH221988   1.636   3.293   4.474
 7350TIP3    H121989   1.683   3.330   4.397
 7350TIP3    H221990   1.575   3.367   4.494
 7351TIP3   OH221991   2.749   4.026   5.083
 7351TIP3    H121992   2.808   4.004   5.009
 7351TIP3    H221993   2.783   3.964   5.149
 7352TIP3   OH221994   2.468   3.476   4.739
 7352TIP3    H121995   2.391   3.463   4.797
 7352TIP3    H221996   2.542   3.468   4.803
 7353TIP3   OH221997   1.897   3.517   4.753
 7353TIP3    H121998   1.804   3.523   4.723
 7353TIP3    H221999   1.922   3.425   4.731
 7354TIP3   OH222000   2.165   3.536   4.450
 7354TIP3    H122001   2.261   3.541   4.429
 7354TIP3    H222002   2.121   3.548   4.363
 7355TIP3   OH222003   2.946   3.539   4.937
 7355TIP3    H122004   2.927   3.555   5.032
 7355TIP3    H222005   2.873   3.480   4.912
 7356TIP3   OH222006   2.013   3.561   4.219
 7356TIP3    H122007   1.941   3.514   4.174
 7356TIP3    H222008   2.064   3.594   4.143
 7357TIP3   OH222009   3.130   5.235   5.165
 7357TIP3    H122010   3.128   5.259   5.070
 7357TIP3    H222011   3.210   5.283   5.195
 7358TIP3   OH222012   2.087   4.343   5.584
 7358TIP3    H122013   2.167   4.374   5.633
 7358TIP3    H222014   2.022   4.342   5.657
 7359TIP3   OH222015   2.078   3.282   4.719
 7359TIP3    H122016   2.047   3.208   4.775
 7359TIP3    H222017   2.138   3.234   4.661
 7360TIP3   OH222018   2.518   3.679   5.160
 7360TIP3    H122019   2.447   3.739   5.134
 7360TIP3    H222020   2.590   3.740   5.185
 7361TIP3   OH222021   2.256   4.089   4.216
 7361TIP3    H122022   2.190   4.018   4.200
 7361TIP3    H222023   2.254   4.095   4.313
 7362TIP3   OH222024   2.715   3.395   4.071
 7362TIP3    H122025   2.621   3.378   4.095
 7362TIP3    H222026   2.731   3.486   4.105
 7363TIP3   OH222027   2.640   4.401   5.222
 7363TIP3    H122028   2.691   4.381   5.301
 7363TIP3    H222029   2.619   4.496   5.232
 7364TIP3   OH222030   2.793   3.632   4.174
 7364TIP3    H122031   2.885   3.644   4.204
 7364TIP3    H222032   2.767   3.721   4.144
 7365TIP3   OH222033   2.406   4.234   4.032
 7365TIP3    H122034   2.365   4.323   4.047
 7365TIP3    H222035   2.359   4.183   4.101
 7366TIP3   OH222036   1.839   4.024   5.515
 7366TIP3    H122037   1.855   4.011   5.610
 7366TIP3    H222038   1.768   3.959   5.498
 7367TIP3   OH222039   2.562   4.144   5.534
 7367TIP3    H122040   2.506   4.083   5.484
 7367TIP3    H222041   2.651   4.111   5.509
 7368TIP3   OH222042   2.821   4.682   5.110
 7368TIP3    H122043   2.726   4.669   5.124
 7368TIP3    H222044   2.847   4.723   5.195
 7369TIP3   OH222045   3.225   3.730   4.023
 7369TIP3    H122046   3.161   3.688   3.960
 7369TIP3    H222047   3.225   3.820   3.985
 7370TIP3   OH222048   3.445   4.606   5.124
 7370TIP3    H122049   3.349   4.594   5.109
 7370TIP3    H222050   3.481   4.575   5.038
 7371TIP3   OH222051   2.934   4.554   3.935
 7371TIP3    H122052   2.904   4.478   3.987
 7371TIP3    H222053   2.948   4.514   3.846
 7372TIP3   OH222054   2.060   4.422   4.555
 7372TIP3    H122055   2.067   4.489   4.485
 7372TIP3    H222056   1.967   4.398   4.548
 7373TIP3   OH222057   1.619   3.717   4.230
 7373TIP3    H122058   1.664   3.801   4.253
 7373TIP3    H222059   1.542   3.720   4.291
 7374TIP3   OH222060   2.328   4.751   4.990
 7374TIP3    H122061   2.369   4.826   4.942
 7374TIP3    H222062   2.403   4.720   5.043
 7375TIP3   OH222063   1.975   4.648   4.376
 7375TIP3    H122064   1.890   4.653   4.424
 7375TIP3    H222065   2.005   4.742   4.380
 7376TIP3   OH222066   2.740   4.399   4.962
 7376TIP3    H122067   2.706   4.386   5.053
 7376TIP3    H222068   2.781   4.313   4.945
 7377TIP3   OH222069   2.689   4.286   3.838
 7377TIP3    H122070   2.738   4.263   3.919
 7377TIP3    H222071   2.599   4.257   3.863
 7378TIP3   OH222072   2.963   4.924   5.005
 7378TIP3    H122073   2.886   4.862   5.004
 7378TIP3    H222074   2.941   4.985   4.931
 7379TIP3   OH222075   3.027   4.757   3.655
 7379TIP3    H122076   3.066   4.831   3.605
 7379TIP3    H222077   2.947   4.802   3.689
 7380TIP3   OH222078   2.042   3.538   5.521
 7380TIP3    H122079   1.945   3.538   5.532
 7380TIP3    H222080   2.070   3.476   5.591
 7381TIP3   OH222081   2.851   4.235   4.064
 7381TIP3    H122082   2.838   4.158   4.123
 7381TIP3    H222083   2.946   4.222   4.041
 7382TIP3   OH222084   1.779   4.631   5.154
 7382TIP3    H122085   1.800   4.542   5.186
 7382TIP3    H222086   1.799   4.685   5.230
 7383TIP3   OH222087   2.052   4.264   3.835
 7383TIP3    H122088   2.067   4.171   3.808
 7383TIP3    H222089   2.031   4.253   3.930
 7384TIP3   OH222090   1.997   4.269   4.106
 7384TIP3    H122091   2.076   4.242   4.155
 7384TIP3    H222092   2.001   4.367   4.115
 7385TIP3   OH222093   1.732   3.963   4.312
 7385TIP3    H122094   1.666   4.007   4.369
 7385TIP3    H222095   1.743   4.031   4.243
 7386TIP3   OH222096   2.893   3.597   5.205
 7386TIP3    H122097   2.951   3.642   5.268
 7386TIP3    H222098   2.871   3.515   5.254
 7387TIP3   OH222099   2.773   3.350   4.361
 7387TIP3    H122100   2.758   3.379   4.270
 7387TIP3    H222101   2.813   3.431   4.402
 7388TIP3   OH222102   2.266   4.467   4.058
 7388TIP3    H122103   2.180   4.491   4.095
 7388TIP3    H222104   2.279   4.540   3.996
 7389TIP3   OH222105   2.451   3.530   4.471
 7389TIP3    H122106   2.526   3.588   4.458
 7389TIP3    H222107   2.452   3.520   4.569
 7390TIP3   OH222108   2.711   3.834   5.296
 7390TIP3    H122109   2.746   3.895   5.362
 7390TIP3    H222110   2.783   3.768   5.288
 7391TIP3   OH222111   2.605   3.249   4.561
 7391TIP3    H122112   2.592   3.315   4.631
 7391TIP3    H222113   2.665   3.295   4.498
 7392TIP3   OH222114   2.010   4.542   4.125
 7392TIP3    H122115   1.978   4.612   4.064
 7392TIP3    H222116   1.993   4.582   4.213
 7393TIP3   OH222117   2.110   3.258   4.357
 7393TIP3    H122118   2.104   3.341   4.407
 7393TIP3    H222119   2.204   3.236   4.372
 7394TIP3   OH222120   1.726   4.168   4.116
 7394TIP3    H122121   1.793   4.237   4.127
 7394TIP3    H222122   1.771   4.112   4.049
 7395TIP3   OH222123   1.670   3.447   4.247
 7395TIP3    H122124   1.669   3.545   4.246
 7395TIP3    H222125   1.581   3.427   4.215
 7396TIP3   OH222126   2.981   4.904   4.595
 7396TIP3    H122127   2.939   4.950   4.519
 7396TIP3    H222128   3.076   4.922   4.574
 7397TIP3   OH222129   2.055   3.173   5.133
 7397TIP3    H122130   2.028   3.140   5.044
 7397TIP3    H222131   2.048   3.091   5.187
 7398TIP3   OH222132   1.581   4.370   4.507
 7398TIP3    H122133   1.525   4.417   4.570
 7398TIP3    H222134   1.562   4.420   4.425
 7399TIP3   OH222135   1.754   4.931   5.574
 7399TIP3    H122136   1.840   4.928   5.621
 7399TIP3    H222137   1.729   4.837   5.575
 7400TIP3   OH222138   2.235   4.890   5.620
 7400TIP3    H122139   2.329   4.870   5.626
 7400TIP3    H222140   2.208   4.829   5.548
 7401TIP3   OH222141   2.216   4.466   3.747
 7401TIP3    H122142   2.159   4.395   3.786
 7401TIP3    H222143   2.292   4.413   3.717
 7402TIP3   OH222144   2.873   4.799   5.355
 7402TIP3    H122145   2.865   4.728   5.423
 7402TIP3    H222146   2.951   4.849   5.386
 7403TIP3   OH222147   2.652   4.506   3.661
 7403TIP3    H122148   2.694   4.441   3.720
 7403TIP3    H222149   2.709   4.503   3.582
 7404TIP3   OH222150   1.887   4.335   5.776
 7404TIP3    H122151   1.900   4.239   5.785
 7404TIP3    H222152   1.799   4.339   5.733
 7405TIP3   OH222153   1.862   3.984   3.969
 7405TIP3    H122154   1.915   3.948   4.042
 7405TIP3    H222155   1.930   3.988   3.898
 7406TIP3   OH222156   2.491   4.420   5.550
 7406TIP3    H122157   2.454   4.439   5.461
 7406TIP3    H222158   2.523   4.328   5.540
 7407TIP3   OH222159   2.372   4.181   3.769
 7407TIP3    H122160   2.374   4.196   3.866
 7407TIP3    H222161   2.373   4.083   3.767
 7408TIP3   OH222162   2.986   4.439   5.169
 7408TIP3    H122163   3.062   4.481   5.128
 7408TIP3    H222164   2.912   4.488   5.129
 7409TIP3   OH222165   2.007   4.068   5.757
 7409TIP3    H122166   2.081   4.008   5.739
 7409TIP3    H222167   2.032   4.103   5.845
 7410TIP3   OH222168   2.075   3.886   4.194
 7410TIP3    H122169   2.042   3.842   4.274
 7410TIP3    H222170   2.108   3.810   4.142
 7411TIP3   OH222171   2.335   3.950   5.410
 7411TIP3    H122172   2.263   4.016   5.411
 7411TIP3    H222173   2.395   3.985   5.340
 7412TIP3   OH222174   2.170   3.685   4.030
 7412TIP3    H122175   2.145   3.689   3.935
 7412TIP3    H222176   2.268   3.685   4.023
 7413TIP3   OH222177   2.861   4.356   5.551
 7413TIP3    H122178   2.932   4.323   5.494
 7413TIP3    H222179   2.853   4.286   5.617
 7414TIP3   OH222180   2.992   4.013   3.696
 7414TIP3    H122181   2.972   3.967   3.612
 7414TIP3    H222182   2.958   4.103   3.673
 7415TIP3   OH222183   2.462   3.742   5.546
 7415TIP3    H122184   2.466   3.660   5.493
 7415TIP3    H222185   2.422   3.805   5.483
 7416TIP3   OH222186   2.462   3.520   5.371
 7416TIP3    H122187   2.493   3.567   5.290
 7416TIP3    H222188   2.371   3.497   5.344
 7417TIP3   OH222189   2.491   4.049   5.216
 7417TIP3    H122190   2.581   4.041   5.179
 7417TIP3    H222191   2.454   4.121   5.162
 7418TIP3   OH222192   3.076   4.030   5.612
 7418TIP3    H122193   3.118   3.944   5.600
 7418TIP3    H222194   3.134   4.089   5.562
 7419TIP3   OH222195   3.113   4.289   5.362
 7419TIP3    H122196   3.051   4.322   5.293
 7419TIP3    H222197   3.197   4.298   5.312
 7420TIP3   OH222198   2.341   3.849   5.776
 7420TIP3    H122199   2.273   3.781   5.792
 7420TIP3    H222200   2.375   3.822   5.689
 7421TIP3   OH222201   2.598   3.287   5.425
 7421TIP3    H122202   2.548   3.369   5.403
 7421TIP3    H222203   2.530   3.219   5.409
 7422TIP3   OH222204   2.724   3.792   5.638
 7422TIP3    H122205   2.703   3.779   5.732
 7422TIP3    H222206   2.637   3.769   5.599
 7423TIP3   OH222207   2.958   3.737   5.481
 7423TIP3    H122208   2.885   3.741   5.546
 7423TIP3    H222209   3.034   3.711   5.536
 7424TIP3   OH222210   3.209   3.691   5.645
 7424TIP3    H122211   3.210   3.594   5.659
 7424TIP3    H222212   3.193   3.726   5.735
 7425TIP3   OH222213   2.180   3.631   5.831
 7425TIP3    H122214   2.183   3.540   5.796
 7425TIP3    H222215   2.216   3.617   5.921
 7426TIP3   OH222216   2.690   3.298   5.682
 7426TIP3    H122217   2.756   3.226   5.672
 7426TIP3    H222218   2.649   3.296   5.593
 7427TIP3   OH222219   2.757   3.514   5.839
 7427TIP3    H122220   2.736   3.443   5.774
 7427TIP3    H222221   2.679   3.573   5.831
 7428TIP3   OH222222   1.979   4.748   3.938
 7428TIP3    H122223   2.074   4.738   3.919
 7428TIP3    H222224   1.951   4.796   3.858
 7429TIP3   OH222225   1.456   4.127   4.150
 7429TIP3    H122226   1.552   4.147   4.139
 7429TIP3    H222227   1.452   4.037   4.111
 7430TIP3   OH222228   3.236   4.993   4.555
 7430TIP3    H122229   3.264   5.023   4.643
 7430TIP3    H222230   3.304   5.030   4.497
 7431TIP3   OH222231   3.267   5.011   4.837
 7431TIP3    H122232   3.220   4.925   4.834
 7431TIP3    H222233   3.342   4.986   4.893
 7432TIP3   OH222234   3.312   4.685   5.413
 7432TIP3    H122235   3.238   4.695   5.476
 7432TIP3    H222236   3.352   4.775   5.416
 7433TIP3   OH222237   3.122   4.198   4.029
 7433TIP3    H122238   3.193   4.260   4.002
 7433TIP3    H222239   3.161   4.154   4.107
 7434TIP3   OH222240   3.223   4.041   4.239
 7434TIP3    H122241   3.188   3.998   4.319
 7434TIP3    H222242   3.307   4.072   4.275
 7435TIP3   OH222243   3.144   4.764   4.866
 7435TIP3    H122244   3.072   4.808   4.917
 7435TIP3    H222245   3.092   4.719   4.796
 7436TIP3   OH222246   3.192   3.975   3.879
 7436TIP3    H122247   3.122   3.974   3.809
 7436TIP3    H222248   3.161   4.051   3.931
 7437TIP3   OH222249   3.062   3.646   3.824
 7437TIP3    H122250   3.013   3.678   3.748
 7437TIP3    H222251   3.040   3.551   3.821
 7438TIP3   OH222252   1.714   3.982   5.144
 7438TIP3    H122253   1.691   3.967   5.050
 7438TIP3    H222254   1.811   3.988   5.139
 7439TIP3   OH222255   3.358   4.348   5.240
 7439TIP3    H122256   3.429   4.280   5.228
 7439TIP3    H222257   3.383   4.416   5.176
 7440TIP3   OH222258   3.538   4.146   5.258
 7440TIP3    H122259   3.460   4.093   5.287
 7440TIP3    H222260   3.610   4.082   5.274
 7441TIP3   OH222261   3.009   3.379   3.813
 7441TIP3    H122262   3.081   3.350   3.872
 7441TIP3    H222263   2.934   3.324   3.840
 7442TIP3   OH222264   3.061   3.636   4.263
 7442TIP3    H122265   3.102   3.549   4.281
 7442TIP3    H222266   3.126   3.673   4.200
 7443TIP3   OH222267   1.913   3.684   5.805
 7443TIP3    H122268   2.011   3.676   5.805
 7443TIP3    H222269   1.889   3.597   5.841
 7444TIP3   OH222270   3.749   3.553   5.552
 7444TIP3    H122271   3.808   3.484   5.513
 7444TIP3    H222272   3.722   3.603   5.473
 7445TIP3   OH222273   3.176   3.389   4.309
 7445TIP3    H122274   3.220   3.374   4.395
 7445TIP3    H222275   3.111   3.315   4.309
 7446TIP3   OH222276   1.870   3.376   5.137
 7446TIP3    H122277   1.927   3.297   5.144
 7446TIP3    H222278   1.937   3.446   5.126
 7447TIP3   OH222279   1.676   3.649   5.202
 7447TIP3    H122280   1.723   3.638   5.117
 7447TIP3    H222281   1.709   3.734   5.231
 7448TIP3   OH222282   3.612   3.691   5.360
 7448TIP3    H122283   3.541   3.725   5.417
 7448TIP3    H222284   3.567   3.622   5.308
 7449TIP3   OH222285   3.252   3.323   3.944
 7449TIP3    H122286   3.295   3.253   3.891
 7449TIP3    H222287   3.319   3.394   3.943
 7450TIP3   OH222288   1.657   3.153   4.705
 7450TIP3    H122289   1.563   3.149   4.731
 7450TIP3    H222290   1.653   3.211   4.626
 7451TIP3   OH222291   2.821   4.855   4.212
 7451TIP3    H122292   2.872   4.846   4.129
 7451TIP3    H222293   2.872   4.922   4.260
 7452TIP3   OH222294   1.882   3.237   5.523
 7452TIP3    H122295   1.828   3.229   5.603
 7452TIP3    H222296   1.817   3.270   5.459
 7453TIP3   OH222297   1.919   4.659   5.595
 7453TIP3    H122298   1.825   4.636   5.580
 7453TIP3    H222299   1.928   4.640   5.690
 7454TIP3   OH222300   2.104   4.691   5.145
 7454TIP3    H122301   2.047   4.761   5.106
 7454TIP3    H222302   2.187   4.712   5.097
 7455TIP3   OH222303   2.541   4.938   5.281
 7455TIP3    H122304   2.583   4.937   5.369
 7455TIP3    H222305   2.607   4.989   5.229
 7456TIP3   OH222306   2.720   5.091   5.141
 7456TIP3    H122307   2.790   5.038   5.099
 7456TIP3    H222308   2.774   5.147   5.201
 7457TIP3   OH222309   3.511   3.453   5.244
 7457TIP3    H122310   3.425   3.451   5.199
 7457TIP3    H222311   3.542   3.361   5.230
 7458TIP3   OH222312   1.782   4.960   5.169
 7458TIP3    H122313   1.692   4.985   5.139
 7458TIP3    H222314   1.776   4.986   5.262
 7459TIP3   OH222315   2.014   4.928   5.025
 7459TIP3    H122316   1.928   4.940   5.072
 7459TIP3    H222317   1.989   4.955   4.935
 7460TIP3   OH222318   2.436   4.956   4.824
 7460TIP3    H122319   2.365   4.975   4.759
 7460TIP3    H222320   2.448   5.043   4.866
 7461TIP3   OH222321   2.706   4.896   4.875
 7461TIP3    H122322   2.612   4.912   4.855
 7461TIP3    H222323   2.749   4.971   4.831
 7462TIP3   OH222324   2.913   5.088   4.789
 7462TIP3    H122325   2.898   5.172   4.740
 7462TIP3    H222326   2.938   5.026   4.717
 7463TIP3   OH222327   1.699   4.763   4.927
 7463TIP3    H122328   1.729   4.724   5.012
 7463TIP3    H222329   1.747   4.706   4.863
 7464TIP3   OH222330   1.874   4.619   4.766
 7464TIP3    H122331   1.889   4.538   4.821
 7464TIP3    H222332   1.962   4.660   4.768
 7465TIP3   OH222333   2.142   4.725   4.774
 7465TIP3    H122334   2.174   4.637   4.749
 7465TIP3    H222335   2.189   4.739   4.858
 7466TIP3   OH222336   2.717   3.363   4.861
 7466TIP3    H122337   2.672   3.296   4.916
 7466TIP3    H222338   2.788   3.311   4.819
 7467TIP3   OH222339   3.246   3.238   4.761
 7467TIP3    H122340   3.281   3.294   4.688
 7467TIP3    H222341   3.151   3.261   4.760
 7468TIP3   OH222342   3.340   3.343   4.527
 7468TIP3    H122343   3.412   3.290   4.487
 7468TIP3    H222344   3.375   3.433   4.509
 7469TIP3   OH222345   1.965   3.086   4.892
 7469TIP3    H122346   1.888   3.026   4.886
 7469TIP3    H222347   2.038   3.029   4.858
 7470TIP3   OH222348   1.745   2.946   4.518
 7470TIP3    H122349   1.784   3.004   4.451
 7470TIP3    H222350   1.727   3.008   4.591
 7471TIP3   OH222351   2.967   3.253   4.738
 7471TIP3    H122352   2.950   3.218   4.649
 7471TIP3    H222353   2.951   3.174   4.794
 7472TIP3   OH222354   2.990   3.177   4.302
 7472TIP3    H122355   2.905   3.223   4.318
 7472TIP3    H222356   2.974   3.092   4.347
 7473TIP3   OH222357   1.484   4.511   4.296
 7473TIP3    H122358   1.397   4.483   4.261
 7473TIP3    H222359   1.463   4.600   4.326
 7474TIP3   OH222360   1.876   3.107   4.282
 7474TIP3    H122361   1.925   3.041   4.229
 7474TIP3    H222362   1.949   3.159   4.321
 7475TIP3   OH222363   2.387   3.277   4.387
 7475TIP3    H122364   2.446   3.230   4.449
 7475TIP3    H222365   2.409   3.370   4.413
 7476TIP3   OH222366   2.246   4.701   3.884
 7476TIP3    H122367   2.334   4.724   3.848
 7476TIP3    H222368   2.224   4.626   3.825
 7477TIP3   OH222369   2.966   4.822   3.978
 7477TIP3    H122370   2.958   4.725   3.967
 7477TIP3    H222371   2.920   4.854   3.898
 7478TIP3   OH222372   2.177   3.357   5.768
 7478TIP3    H122373   2.142   3.285   5.823
 7478TIP3    H222374   2.271   3.356   5.795
 7479TIP3   OH222375   2.428   3.353   5.887
 7479TIP3    H122376   2.511   3.328   5.843
 7479TIP3    H222377   2.416   3.280   5.951
 7480TIP3   OH222378   1.551   4.543   3.944
 7480TIP3    H122379   1.546   4.553   4.040
 7480TIP3    H222380   1.638   4.500   3.932
 7481TIP3   OH222381   3.253   3.415   5.673
 7481TIP3    H122382   3.271   3.384   5.764
 7481TIP3    H222383   3.342   3.409   5.632
 7482TIP3   OH222384   3.190   4.966   5.166
 7482TIP3    H122385   3.111   4.935   5.116
 7482TIP3    H222386   3.170   5.062   5.172
 7483TIP3   OH222387   4.702   4.654   3.985
 7483TIP3    H122388   4.683   4.573   4.033
 7483TIP3    H222389   4.720   4.720   4.054
 7484TIP3   OH222390   3.730   4.642   4.407
 7484TIP3    H122391   3.729   4.547   4.425
 7484TIP3    H222392   3.826   4.659   4.408
 7485TIP3   OH222393   3.422   3.853   4.169
 7485TIP3    H122394   3.351   3.916   4.184
 7485TIP3    H222395   3.371   3.776   4.139
 7486TIP3   OH222396   4.352   5.102   4.010
 7486TIP3    H122397   4.397   5.029   3.963
 7486TIP3    H222398   4.341   5.065   4.098
 7487TIP3   OH222399   5.262   3.887   4.352
 7487TIP3    H122400   5.290   3.967   4.402
 7487TIP3    H222401   5.297   3.908   4.264
 7488TIP3   OH222402   4.675   4.070   4.404
 7488TIP3    H122403   4.698   3.976   4.395
 7488TIP3    H222404   4.625   4.090   4.324
 7489TIP3   OH222405   5.343   4.081   4.536
 7489TIP3    H122406   5.260   4.130   4.514
 7489TIP3    H222407   5.372   4.130   4.614
 7490TIP3   OH222408   3.987   3.718   4.793
 7490TIP3    H122409   3.908   3.674   4.759
 7490TIP3    H222410   3.951   3.753   4.877
 7491TIP3   OH222411   4.373   4.581   3.778
 7491TIP3    H122412   4.308   4.524   3.736
 7491TIP3    H222413   4.315   4.653   3.811
 7492TIP3   OH222414   4.903   3.812   4.152
 7492TIP3    H122415   4.864   3.775   4.233
 7492TIP3    H222416   4.990   3.843   4.181
 7493TIP3   OH222417   3.937   4.694   4.700
 7493TIP3    H122418   3.917   4.775   4.651
 7493TIP3    H222419   3.855   4.682   4.751
 7494TIP3   OH222420   3.326   4.369   3.926
 7494TIP3    H122421   3.289   4.394   3.839
 7494TIP3    H222422   3.359   4.456   3.958
 7495TIP3   OH222423   4.773   4.875   4.164
 7495TIP3    H122424   4.684   4.873   4.206
 7495TIP3    H222425   4.767   4.960   4.115
 7496TIP3   OH222426   5.063   3.776   4.522
 7496TIP3    H122427   4.976   3.812   4.497
 7496TIP3    H222428   5.122   3.817   4.455
 7497TIP3   OH222429   4.362   3.426   4.511
 7497TIP3    H122430   4.344   3.331   4.522
 7497TIP3    H222431   4.283   3.463   4.556
 7498TIP3   OH222432   4.474   4.926   3.833
 7498TIP3    H122433   4.526   4.846   3.813
 7498TIP3    H222434   4.533   4.994   3.793
 7499TIP3   OH222435   4.614   4.702   3.731
 7499TIP3    H122436   4.530   4.653   3.743
 7499TIP3    H222437   4.660   4.682   3.816
 7500TIP3   OH222438   4.997   4.800   4.507
 7500TIP3    H122439   4.998   4.727   4.442
 7500TIP3    H222440   4.978   4.877   4.451
 7501TIP3   OH222441   4.285   4.174   3.751
 7501TIP3    H122442   4.209   4.234   3.739
 7501TIP3    H222443   4.332   4.181   3.667
 7502TIP3   OH222444   4.245   3.978   3.472
 7502TIP3    H122445   4.302   4.016   3.540
 7502TIP3    H222446   4.306   3.917   3.427
 7503TIP3   OH222447   5.192   4.437   4.396
 7503TIP3    H122448   5.119   4.497   4.371
 7503TIP3    H222449   5.235   4.416   4.312
 7504TIP3   OH222450   4.891   4.314   4.658
 7504TIP3    H122451   4.879   4.398   4.707
 7504TIP3    H222452   4.801   4.307   4.617
 7505TIP3   OH222453   3.996   4.688   4.315
 7505TIP3    H122454   3.999   4.631   4.238
 7505TIP3    H222455   4.052   4.639   4.380
 7506TIP3   OH222456   4.535   4.875   4.287
 7506TIP3    H122457   4.515   4.957   4.336
 7506TIP3    H222458   4.522   4.806   4.355
 7507TIP3   OH222459   4.152   4.799   4.837
 7507TIP3    H122460   4.079   4.856   4.869
 7507TIP3    H222461   4.102   4.738   4.779
 7508TIP3   OH222462   4.496   4.131   3.561
 7508TIP3    H122463   4.538   4.213   3.591
 7508TIP3    H222464   4.510   4.141   3.464
 7509TIP3   OH222465   3.904   4.336   4.955
 7509TIP3    H122466   3.906   4.430   4.982
 7509TIP3    H222467   3.813   4.330   4.921
 7510TIP3   OH222468   4.221   4.808   3.836
 7510TIP3    H122469   4.300   4.863   3.850
 7510TIP3    H222470   4.159   4.870   3.796
 7511TIP3   OH222471   3.933   4.967   4.915
 7511TIP3    H122472   3.901   4.966   4.823
 7511TIP3    H222473   3.853   4.945   4.966
 7512TIP3   OH222474   4.987   3.367   3.608
 7512TIP3    H122475   4.907   3.388   3.661
 7512TIP3    H222476   5.006   3.456   3.571
 7513TIP3   OH222477   3.738   4.098   3.919
 7513TIP3    H122478   3.660   4.144   3.883
 7513TIP3    H222479   3.700   4.021   3.962
 7514TIP3   OH222480   4.792   4.737   3.156
 7514TIP3    H122481   4.800   4.834   3.143
 7514TIP3    H222482   4.885   4.709   3.146
 7515TIP3   OH222483   3.548   4.501   4.900
 7515TIP3    H122484   3.508   4.477   4.816
 7515TIP3    H222485   3.577   4.413   4.934
 7516TIP3   OH222486   3.378   4.710   4.469
 7516TIP3    H122487   3.473   4.698   4.481
 7516TIP3    H222488   3.356   4.770   4.541
 7517TIP3   OH222489   5.233   5.142   4.552
 7517TIP3    H122490   5.233   5.046   4.570
 7517TIP3    H222491   5.150   5.168   4.598
 7518TIP3   OH222492   4.330   4.943   4.662
 7518TIP3    H122493   4.324   5.026   4.712
 7518TIP3    H222494   4.284   4.880   4.721
 7519TIP3   OH222495   4.102   5.056   3.638
 7519TIP3    H122496   4.055   5.038   3.555
 7519TIP3    H222497   4.069   5.144   3.663
 7520TIP3   OH222498   3.539   4.905   4.025
 7520TIP3    H122499   3.588   4.896   4.110
 7520TIP3    H222500   3.484   4.825   4.028
 7521TIP3   OH222501   4.301   4.958   3.277
 7521TIP3    H122502   4.360   4.888   3.241
 7521TIP3    H222503   4.336   4.968   3.368
 7522TIP3   OH222504   4.353   5.006   3.547
 7522TIP3    H122505   4.264   5.015   3.588
 7522TIP3    H222506   4.403   4.966   3.619
 7523TIP3   OH222507   5.119   4.269   4.829
 7523TIP3    H122508   5.043   4.283   4.770
 7523TIP3    H222509   5.135   4.173   4.817
 7524TIP3   OH222510   3.719   4.706   4.860
 7524TIP3    H122511   3.781   4.687   4.933
 7524TIP3    H222512   3.652   4.636   4.876
 7525TIP3   OH222513   4.122   3.502   4.632
 7525TIP3    H122514   4.032   3.473   4.608
 7525TIP3    H222515   4.104   3.595   4.653
 7526TIP3   OH222516   4.655   3.619   4.831
 7526TIP3    H122517   4.723   3.589   4.894
 7526TIP3    H222518   4.571   3.596   4.877
 7527TIP3   OH222519   4.890   4.042   4.747
 7527TIP3    H122520   4.842   4.045   4.832
 7527TIP3    H222521   4.872   4.130   4.709
 7528TIP3   OH222522   4.550   4.171   3.301
 7528TIP3    H122523   4.517   4.151   3.211
 7528TIP3    H222524   4.631   4.222   3.281
 7529TIP3   OH222525   4.263   3.550   3.607
 7529TIP3    H122526   4.230   3.548   3.699
 7529TIP3    H222527   4.220   3.468   3.573
 7530TIP3   OH222528   4.612   4.284   5.011
 7530TIP3    H122529   4.585   4.200   5.053
 7530TIP3    H222530   4.710   4.278   5.023
 7531TIP3   OH222531   3.902   4.024   4.864
 7531TIP3    H122532   3.880   4.110   4.901
 7531TIP3    H222533   3.871   3.961   4.930
 7532TIP3   OH222534   3.921   3.526   3.572
 7532TIP3    H122535   3.912   3.523   3.670
 7532TIP3    H222536   3.843   3.580   3.549
 7533TIP3   OH222537   3.466   3.564   4.444
 7533TIP3    H122538   3.534   3.605   4.500
 7533TIP3    H222539   3.510   3.550   4.359
 7534TIP3   OH222540   3.431   3.547   3.959
 7534TIP3    H122541   3.481   3.586   3.885
 7534TIP3    H222542   3.370   3.621   3.979
 7535TIP3   OH222543   4.641   4.278   4.571
 7535TIP3    H122544   4.649   4.205   4.505
 7535TIP3    H222545   4.571   4.242   4.629
 7536TIP3   OH222546   4.273   3.707   4.217
 7536TIP3    H122547   4.187   3.705   4.261
 7536TIP3    H222548   4.334   3.732   4.289
 7537TIP3   OH222549   3.971   3.753   3.909
 7537TIP3    H122550   4.051   3.807   3.912
 7537TIP3    H222551   3.913   3.800   3.846
 7538TIP3   OH222552   4.748   3.797   4.427
 7538TIP3    H122553   4.720   3.819   4.519
 7538TIP3    H222554   4.675   3.738   4.400
 7539TIP3   OH222555   3.799   3.820   3.703
 7539TIP3    H122556   3.731   3.773   3.652
 7539TIP3    H222557   3.856   3.853   3.630
 7540TIP3   OH222558   4.926   5.491   4.652
 7540TIP3    H122559   4.924   5.517   4.558
 7540TIP3    H222560   5.006   5.538   4.683
 7541TIP3   OH222561   3.876   4.601   5.067
 7541TIP3    H122562   3.955   4.641   5.109
 7541TIP3    H222563   3.814   4.601   5.142
 7542TIP3   OH222564   3.906   3.540   4.218
 7542TIP3    H122565   3.847   3.474   4.258
 7542TIP3    H222566   3.912   3.512   4.126
 7543TIP3   OH222567   4.349   3.938   4.683
 7543TIP3    H122568   4.306   4.009   4.635
 7543TIP3    H222569   4.434   3.981   4.702
 7544TIP3   OH222570   4.061   4.342   3.711
 7544TIP3    H122571   3.990   4.275   3.700
 7544TIP3    H222572   4.042   4.374   3.803
 7545TIP3   OH222573   4.969   4.597   4.319
 7545TIP3    H122574   4.927   4.647   4.247
 7545TIP3    H222575   4.893   4.551   4.358
 7546TIP3   OH222576   4.515   3.645   3.570
 7546TIP3    H122577   4.418   3.634   3.583
 7546TIP3    H222578   4.533   3.739   3.594
 7547TIP3   OH222579   4.596   3.888   3.660
 7547TIP3    H122580   4.676   3.910   3.710
 7547TIP3    H222581   4.565   3.976   3.629
 7548TIP3   OH222582   4.199   4.488   3.526
 7548TIP3    H122583   4.156   4.576   3.536
 7548TIP3    H222584   4.147   4.435   3.590
 7549TIP3   OH222585   3.622   4.269   5.011
 7549TIP3    H122586   3.661   4.276   5.101
 7549TIP3    H222587   3.575   4.185   5.019
 7550TIP3   OH222588   4.355   4.398   5.043
 7550TIP3    H122589   4.289   4.344   4.997
 7550TIP3    H222590   4.438   4.363   5.005
 7551TIP3   OH222591   4.617   4.930   4.603
 7551TIP3    H122592   4.521   4.916   4.612
 7551TIP3    H222593   4.637   4.977   4.687
 7552TIP3   OH222594   5.056   3.981   3.477
 7552TIP3    H122595   4.975   3.948   3.432
 7552TIP3    H222596   5.045   4.077   3.462
 7553TIP3   OH222597   5.247   4.855   4.596
 7553TIP3    H122598   5.149   4.848   4.591
 7553TIP3    H222599   5.271   4.823   4.507
 7554TIP3   OH222600   4.730   4.814   3.423
 7554TIP3    H122601   4.698   4.749   3.487
 7554TIP3    H222602   4.740   4.763   3.341
 7555TIP3   OH222603   3.847   4.660   4.003
 7555TIP3    H122604   3.854   4.745   3.955
 7555TIP3    H222605   3.752   4.656   4.021
 7556TIP3   OH222606   3.415   3.972   3.716
 7556TIP3    H122607   3.461   4.055   3.738
 7556TIP3    H222608   3.339   3.976   3.779
 7557TIP3   OH222609   4.000   4.432   3.958
 7557TIP3    H122610   3.950   4.515   3.978
 7557TIP3    H222611   3.978   4.375   4.033
 7558TIP3   OH222612   4.120   5.013   4.480
 7558TIP3    H122613   4.168   5.083   4.432
 7558TIP3    H222614   4.193   4.972   4.531
 7559TIP3   OH222615   3.769   4.910   3.862
 7559TIP3    H122616   3.685   4.918   3.911
 7559TIP3    H222617   3.802   5.003   3.867
 7560TIP3   OH222618   4.524   4.648   4.463
 7560TIP3    H122619   4.447   4.629   4.521
 7560TIP3    H222620   4.565   4.561   4.462
 7561TIP3   OH222621   4.484   4.540   3.323
 7561TIP3    H122622   4.537   4.506   3.398
 7561TIP3    H222623   4.395   4.516   3.352
 7562TIP3   OH222624   4.759   5.178   4.489
 7562TIP3    H122625   4.680   5.120   4.487
 7562TIP3    H222626   4.739   5.241   4.417
 7563TIP3   OH222627   4.824   5.013   3.142
 7563TIP3    H122628   4.861   5.087   3.091
 7563TIP3    H222629   4.743   5.058   3.177
 7564TIP3   OH222630   3.839   3.785   5.021
 7564TIP3    H122631   3.743   3.784   5.026
 7564TIP3    H222632   3.864   3.720   5.088
 7565TIP3   OH222633   4.647   4.446   3.531
 7565TIP3    H122634   4.636   4.465   3.625
 7565TIP3    H222635   4.745   4.454   3.521
 7566TIP3   OH222636   3.562   4.873   4.642
 7566TIP3    H122637   3.624   4.807   4.677
 7566TIP3    H222638   3.588   4.950   4.693
 7567TIP3   OH222639   3.849   4.520   3.323
 7567TIP3    H122640   3.863   4.427   3.297
 7567TIP3    H222641   3.829   4.510   3.418
 7568TIP3   OH222642   3.793   4.525   3.595
 7568TIP3    H122643   3.866   4.496   3.652
 7568TIP3    H222644   3.798   4.623   3.604
 7569TIP3   OH222645   3.521   4.218   3.797
 7569TIP3    H122646   3.458   4.266   3.855
 7569TIP3    H222647   3.540   4.287   3.731
 7570TIP3   OH222648   4.680   3.857   4.691
 7570TIP3    H122649   4.763   3.895   4.724
 7570TIP3    H222650   4.669   3.777   4.745
 7571TIP3   OH222651   4.577   3.620   3.851
 7571TIP3    H122652   4.546   3.623   3.759
 7571TIP3    H222653   4.615   3.709   3.860
 7572TIP3   OH222654   4.062   4.722   3.543
 7572TIP3    H122655   3.975   4.746   3.580
 7572TIP3    H222656   4.077   4.798   3.485
 7573TIP3   OH222657   4.259   3.786   3.954
 7573TIP3    H122658   4.311   3.867   3.945
 7573TIP3    H222659   4.258   3.773   4.051
 7574TIP3   OH222660   4.532   4.119   4.775
 7574TIP3    H122661   4.556   4.178   4.848
 7574TIP3    H222662   4.597   4.047   4.784
 7575TIP3   OH222663   4.396   3.511   4.055
 7575TIP3    H122664   4.372   3.587   4.113
 7575TIP3    H222665   4.458   3.555   3.993
 7576TIP3   OH222666   3.806   4.798   3.612
 7576TIP3    H122667   3.776   4.868   3.550
 7576TIP3    H222668   3.790   4.841   3.699
 7577TIP3   OH222669   3.906   3.499   3.847
 7577TIP3    H122670   3.908   3.593   3.877
 7577TIP3    H222671   4.002   3.481   3.857
 7578TIP3   OH222672   5.158   4.002   4.756
 7578TIP3    H122673   5.060   3.998   4.755
 7578TIP3    H222674   5.178   3.985   4.662
 7579TIP3   OH222675   3.523   4.427   3.602
 7579TIP3    H122676   3.593   4.493   3.612
 7579TIP3    H222677   3.567   4.368   3.536
 7580TIP3   OH222678   3.466   3.701   3.733
 7580TIP3    H122679   3.470   3.799   3.732
 7580TIP3    H222680   3.377   3.684   3.701
 7581TIP3   OH222681   4.781   5.151   4.081
 7581TIP3    H122682   4.736   5.198   4.008
 7581TIP3    H222683   4.874   5.176   4.062
 7582TIP3   OH222684   3.854   3.431   4.611
 7582TIP3    H122685   3.826   3.397   4.523
 7582TIP3    H222686   3.843   3.351   4.667
 7583TIP3   OH222687   3.389   4.636   3.989
 7583TIP3    H122688   3.326   4.672   4.053
 7583TIP3    H222689   3.360   4.681   3.906
 7584TIP3   OH222690   3.551   5.187   5.063
 7584TIP3    H122691   3.638   5.186   5.109
 7584TIP3    H222692   3.531   5.091   5.061
 7585TIP3   OH222693   4.029   5.141   5.111
 7585TIP3    H122694   4.125   5.130   5.107
 7585TIP3    H222695   4.002   5.084   5.036
 7586TIP3   OH222696   4.012   4.723   3.233
 7586TIP3    H122697   3.956   4.652   3.272
 7586TIP3    H222698   4.088   4.670   3.203
 7587TIP3   OH222699   4.665   5.060   4.847
 7587TIP3    H122700   4.664   4.986   4.912
 7587TIP3    H222701   4.746   5.109   4.871
 7588TIP3   OH222702   4.448   4.763   3.147
 7588TIP3    H122703   4.490   4.699   3.207
 7588TIP3    H222704   4.506   4.761   3.068
 7589TIP3   OH222705   3.683   4.592   5.267
 7589TIP3    H122706   3.697   4.495   5.269
 7589TIP3    H222707   3.592   4.598   5.230
 7590TIP3   OH222708   3.659   4.239   3.459
 7590TIP3    H122709   3.715   4.207   3.532
 7590TIP3    H222710   3.726   4.244   3.388
 7591TIP3   OH222711   4.289   4.676   5.040
 7591TIP3    H122712   4.254   4.702   4.951
 7591TIP3    H222713   4.317   4.583   5.023
 7592TIP3   OH222714   4.170   4.438   3.260
 7592TIP3    H122715   4.171   4.452   3.357
 7592TIP3    H222716   4.168   4.340   3.256
 7593TIP3   OH222717   4.784   4.686   4.643
 7593TIP3    H122718   4.856   4.741   4.607
 7593TIP3    H222719   4.705   4.734   4.612
 7594TIP3   OH222720   3.790   4.329   5.246
 7594TIP3    H122721   3.866   4.282   5.209
 7594TIP3    H222722   3.824   4.357   5.333
 7595TIP3   OH222723   3.865   4.149   3.676
 7595TIP3    H122724   3.832   4.117   3.764
 7595TIP3    H222725   3.898   4.066   3.636
 7596TIP3   OH222726   4.154   4.233   4.905
 7596TIP3    H122727   4.063   4.264   4.930
 7596TIP3    H222728   4.156   4.263   4.813
 7597TIP3   OH222729   3.966   3.936   3.518
 7597TIP3    H122730   3.940   3.946   3.424
 7597TIP3    H222731   4.063   3.943   3.511
 7598TIP3   OH222732   4.667   4.581   5.072
 7598TIP3    H122733   4.719   4.624   5.002
 7598TIP3    H222734   4.663   4.491   5.036
 7599TIP3   OH222735   4.786   4.268   3.183
 7599TIP3    H122736   4.765   4.224   3.098
 7599TIP3    H222737   4.754   4.359   3.162
 7600TIP3   OH222738   4.259   4.003   5.029
 7600TIP3    H122739   4.253   3.919   4.980
 7600TIP3    H222740   4.220   4.067   4.967
 7601TIP3   OH222741   4.251   3.769   4.868
 7601TIP3    H122742   4.292   3.821   4.795
 7601TIP3    H222743   4.160   3.756   4.834
 7602TIP3   OH222744   4.873   4.287   5.090
 7602TIP3    H122745   4.926   4.206   5.094
 7602TIP3    H222746   4.937   4.352   5.058
 7603TIP3   OH222747   4.911   4.545   4.834
 7603TIP3    H122748   4.854   4.597   4.772
 7603TIP3    H222749   4.999   4.562   4.794
 7604TIP3   OH222750   4.146   4.107   5.260
 7604TIP3    H122751   4.074   4.044   5.277
 7604TIP3    H222752   4.174   4.081   5.170
 7605TIP3   OH222753   4.396   3.539   4.910
 7605TIP3    H122754   4.343   3.621   4.895
 7605TIP3    H222755   4.328   3.470   4.897
 7606TIP3   OH222756   4.517   4.053   5.124
 7606TIP3    H122757   4.495   4.028   5.216
 7606TIP3    H222758   4.430   4.033   5.082
 7607TIP3   OH222759   4.758   4.008   4.980
 7607TIP3    H122760   4.683   4.002   5.043
 7607TIP3    H222761   4.833   3.975   5.034
 7608TIP3   OH222762   4.982   3.941   5.130
 7608TIP3    H122763   4.999   3.846   5.145
 7608TIP3    H222764   4.984   3.978   5.221
 7609TIP3   OH222765   3.979   3.890   5.319
 7609TIP3    H122766   3.980   3.801   5.280
 7609TIP3    H222767   4.015   3.872   5.408
 7610TIP3   OH222768   4.487   3.556   5.168
 7610TIP3    H122769   4.554   3.486   5.162
 7610TIP3    H222770   4.448   3.551   5.078
 7611TIP3   OH222771   4.555   3.772   5.324
 7611TIP3    H122772   4.533   3.700   5.261
 7611TIP3    H222773   4.476   3.829   5.317
 7612TIP3   OH222774   3.775   5.001   3.424
 7612TIP3    H122775   3.870   4.993   3.406
 7612TIP3    H222776   3.747   5.052   3.346
 7613TIP3   OH222777   3.255   4.381   3.643
 7613TIP3    H122778   3.349   4.404   3.626
 7613TIP3    H222779   3.249   4.293   3.600
 7614TIP3   OH222780   3.170   4.994   4.056
 7614TIP3    H122781   3.103   4.932   4.018
 7614TIP3    H222782   3.214   4.935   4.121
 7615TIP3   OH222783   3.305   4.843   4.240
 7615TIP3    H122784   3.303   4.773   4.309
 7615TIP3    H222785   3.357   4.909   4.290
 7616TIP3   OH222786   5.033   5.255   4.046
 7616TIP3    H122787   5.056   5.293   4.133
 7616TIP3    H222788   5.093   5.301   3.986
 7617TIP3   OH222789   5.061   5.266   4.327
 7617TIP3    H122790   5.018   5.179   4.321
 7617TIP3    H222791   5.136   5.243   4.384
 7618TIP3   OH222792   5.108   4.942   4.895
 7618TIP3    H122793   5.036   4.952   4.961
 7618TIP3    H222794   5.151   5.031   4.899
 7619TIP3   OH222795   4.931   4.451   3.529
 7619TIP3    H122796   4.995   4.515   3.494
 7619TIP3    H222797   4.962   4.438   3.620
 7620TIP3   OH222798   4.935   5.016   4.348
 7620TIP3    H122799   4.866   5.061   4.400
 7620TIP3    H222800   4.882   4.972   4.278
 7621TIP3   OH222801   4.990   4.234   3.363
 7621TIP3    H122802   4.917   4.237   3.297
 7621TIP3    H222803   4.962   4.306   3.422
 7622TIP3   OH222804   4.855   3.899   3.312
 7622TIP3    H122805   4.805   3.942   3.242
 7622TIP3    H222806   4.829   3.805   3.300
 7623TIP3   OH222807   5.155   4.605   4.722
 7623TIP3    H122808   5.225   4.537   4.714
 7623TIP3    H222809   5.185   4.672   4.660
 7624TIP3   OH222810   5.336   4.408   4.748
 7624TIP3    H122811   5.261   4.355   4.782
 7624TIP3    H222812   5.409   4.343   4.756
 7625TIP3   OH222813   4.806   3.626   3.292
 7625TIP3    H122814   4.872   3.610   3.363
 7625TIP3    H222815   4.726   3.582   3.325
 7626TIP3   OH222816   5.102   4.205   4.506
 7626TIP3    H122817   5.019   4.236   4.546
 7626TIP3    H222818   5.135   4.289   4.466
 7627TIP3   OH222819   3.711   3.941   5.290
 7627TIP3    H122820   3.809   3.931   5.289
 7627TIP3    H222821   3.684   3.852   5.320
 7628TIP3   OH222822   5.543   3.805   5.044
 7628TIP3    H122823   5.603   3.741   5.001
 7628TIP3    H222824   5.513   3.858   4.967
 7629TIP3   OH222825   4.998   3.615   3.779
 7629TIP3    H122826   5.024   3.626   3.872
 7629TIP3    H222827   4.915   3.564   3.788
 7630TIP3   OH222828   3.667   3.639   4.628
 7630TIP3    H122829   3.731   3.565   4.622
 7630TIP3    H222830   3.715   3.713   4.588
 7631TIP3   OH222831   5.412   3.942   4.849
 7631TIP3    H122832   5.324   3.985   4.862
 7631TIP3    H222833   5.385   3.870   4.789
 7632TIP3   OH222834   5.049   3.581   3.432
 7632TIP3    H122835   5.094   3.514   3.377
 7632TIP3    H222836   5.112   3.655   3.433
 7633TIP3   OH222837   3.454   3.398   4.184
 7633TIP3    H122838   3.363   3.401   4.218
 7633TIP3    H222839   3.451   3.462   4.110
 7634TIP3   OH222840   4.615   5.112   3.698
 7634TIP3    H122841   4.667   5.103   3.615
 7634TIP3    H222842   4.667   5.179   3.746
 7635TIP3   OH222843   3.675   3.490   5.007
 7635TIP3    H122844   3.623   3.487   5.088
 7635TIP3    H222845   3.609   3.528   4.945
 7636TIP3   OH222846   3.716   4.920   5.087
 7636TIP3    H122847   3.626   4.891   5.063
 7636TIP3    H222848   3.718   4.900   5.181
 7637TIP3   OH222849   3.892   4.958   4.630
 7637TIP3    H122850   3.851   5.037   4.588
 7637TIP3    H222851   3.980   4.963   4.586
 7638TIP3   OH222852   4.335   5.202   4.773
 7638TIP3    H122853   4.381   5.200   4.860
 7638TIP3    H222854   4.402   5.248   4.718
 7639TIP3   OH222855   4.516   5.347   4.627
 7639TIP3    H122856   4.586   5.294   4.586
 7639TIP3    H222857   4.569   5.404   4.687
 7640TIP3   OH222858   5.314   3.706   4.727
 7640TIP3    H122859   5.223   3.702   4.692
 7640TIP3    H222860   5.344   3.613   4.715
 7641TIP3   OH222861   3.568   5.205   4.653
 7641TIP3    H122862   3.479   5.240   4.632
 7641TIP3    H222863   3.582   5.245   4.740
 7642TIP3   OH222864   3.807   5.190   4.513
 7642TIP3    H122865   3.719   5.200   4.555
 7642TIP3    H222866   3.787   5.219   4.421
 7643TIP3   OH222867   4.235   5.214   4.307
 7643TIP3    H122868   4.163   5.232   4.245
 7643TIP3    H222869   4.246   5.301   4.352
 7644TIP3   OH222870   4.503   5.152   4.358
 7644TIP3    H122871   4.408   5.169   4.342
 7644TIP3    H222872   4.545   5.230   4.318
 7645TIP3   OH222873   4.709   5.343   4.275
 7645TIP3    H122874   4.695   5.428   4.227
 7645TIP3    H222875   4.735   5.283   4.202
 7646TIP3   OH222876   3.484   5.001   4.398
 7646TIP3    H122877   3.508   4.972   4.488
 7646TIP3    H222878   3.555   4.955   4.347
 7647TIP3   OH222879   3.679   4.870   4.257
 7647TIP3    H122880   3.695   4.786   4.306
 7647TIP3    H222881   3.770   4.907   4.253
 7648TIP3   OH222882   3.946   4.964   4.262
 7648TIP3    H122883   3.974   4.870   4.255
 7648TIP3    H222884   3.994   4.987   4.344
 7649TIP3   OH222885   4.528   3.621   4.357
 7649TIP3    H122886   4.477   3.552   4.402
 7649TIP3    H222887   4.594   3.570   4.307
 7650TIP3   OH222888   5.040   3.493   4.246
 7650TIP3    H122889   5.078   3.550   4.175
 7650TIP3    H222890   4.946   3.519   4.245
 7651TIP3   OH222891   5.143   3.602   4.018
 7651TIP3    H122892   5.214   3.554   3.972
 7651TIP3    H222893   5.174   3.695   4.003
 7652TIP3   OH222894   3.765   3.330   4.369
 7652TIP3    H122895   3.673   3.297   4.368
 7652TIP3    H222896   3.814   3.245   4.360
 7653TIP3   OH222897   3.554   3.200   4.010
 7653TIP3    H122898   3.582   3.261   3.938
 7653TIP3    H222899   3.524   3.264   4.078
 7654TIP3   OH222900   4.222   3.351   4.242
 7654TIP3    H122901   4.270   3.410   4.183
 7654TIP3    H222902   4.220   3.402   4.324
 7655TIP3   OH222903   4.759   3.508   4.225
 7655TIP3    H122904   4.750   3.470   4.137
 7655TIP3    H222905   4.745   3.429   4.283
 7656TIP3   OH222906   4.784   3.429   3.788
 7656TIP3    H122907   4.703   3.480   3.806
 7656TIP3    H222908   4.766   3.346   3.836
 7657TIP3   OH222909   3.270   4.774   3.789
 7657TIP3    H122910   3.185   4.741   3.756
 7657TIP3    H222911   3.261   4.868   3.768
 7658TIP3   OH222912   3.670   3.361   3.772
 7658TIP3    H122913   3.720   3.299   3.715
 7658TIP3    H222914   3.743   3.414   3.810
 7659TIP3   OH222915   4.186   3.530   3.870
 7659TIP3    H122916   4.248   3.496   3.937
 7659TIP3    H222917   4.189   3.626   3.892
 7660TIP3   OH222918   4.042   4.958   3.372
 7660TIP3    H122919   4.130   4.981   3.336
 7660TIP3    H222920   4.020   4.883   3.312
 7661TIP3   OH222921   4.762   5.081   3.465
 7661TIP3    H122922   4.755   4.983   3.454
 7661TIP3    H222923   4.716   5.112   3.385
 7662TIP3   OH222924   3.973   3.613   5.257
 7662TIP3    H122925   3.939   3.540   5.312
 7662TIP3    H222926   4.067   3.613   5.282
 7663TIP3   OH222927   4.225   3.611   5.374
 7663TIP3    H122928   4.308   3.583   5.331
 7663TIP3    H222929   4.212   3.539   5.439
 7664TIP3   OH222930   3.346   4.795   3.427
 7664TIP3    H122931   3.349   4.818   3.521
 7664TIP3    H222932   3.434   4.753   3.412
 7665TIP3   OH222933   5.051   3.672   5.159
 7665TIP3    H122934   5.069   3.640   5.250
 7665TIP3    H222935   5.139   3.667   5.118
 7666TIP3   OH222936   4.986   5.222   4.652
 7666TIP3    H122937   4.907   5.192   4.602
 7666TIP3    H222938   4.968   5.318   4.657
 7667TIP3   OH222939   5.535   4.517   4.202
 7667TIP3    H122940   5.561   4.436   4.251
 7667TIP3    H222941   5.602   4.518   4.133
 7668TIP3   OH222942   6.498   4.886   3.467
 7668TIP3    H122943   6.430   4.820   3.492
 7668TIP3    H222944   6.511   4.936   3.549
 7669TIP3   OH222945   5.516   4.921   3.904
 7669TIP3    H122946   5.513   4.826   3.918
 7669TIP3    H222947   5.609   4.932   3.872
 7670TIP3   OH222948   6.154   5.363   3.501
 7670TIP3    H122949   6.186   5.289   3.446
 7670TIP3    H222950   6.137   5.318   3.585
 7671TIP3   OH222951   7.071   4.140   3.847
 7671TIP3    H122952   7.097   4.226   3.887
 7671TIP3    H222953   7.080   4.160   3.752
 7672TIP3   OH222954   6.472   4.331   3.861
 7672TIP3    H122955   6.501   4.240   3.881
 7672TIP3    H222956   6.389   4.316   3.813
 7673TIP3   OH222957   5.771   3.985   3.812
 7673TIP3    H122958   5.699   4.045   3.788
 7673TIP3    H222959   5.725   3.901   3.798
 7674TIP3   OH222960   6.507   4.036   3.462
 7674TIP3    H122961   6.573   4.041   3.534
 7674TIP3    H222962   6.526   4.118   3.415
 7675TIP3   OH222963   7.141   4.353   4.014
 7675TIP3    H122964   7.059   4.398   3.987
 7675TIP3    H222965   7.137   4.367   4.110
 7676TIP3   OH222966   5.798   3.959   4.289
 7676TIP3    H122967   5.756   4.009   4.216
 7676TIP3    H222968   5.741   3.985   4.364
 7677TIP3   OH222969   5.907   4.747   4.136
 7677TIP3    H122970   5.826   4.796   4.161
 7677TIP3    H222971   5.942   4.803   4.067
 7678TIP3   OH222972   6.708   4.075   3.646
 7678TIP3    H122973   6.673   4.043   3.731
 7678TIP3    H222974   6.753   4.158   3.673
 7679TIP3   OH222975   5.698   4.089   4.072
 7679TIP3    H122976   5.749   4.173   4.086
 7679TIP3    H222977   5.750   4.053   3.998
 7680TIP3   OH222978   5.723   4.944   4.171
 7680TIP3    H122979   5.700   5.033   4.137
 7680TIP3    H222980   5.645   4.927   4.228
 7681TIP3   OH222981   5.125   4.624   3.415
 7681TIP3    H122982   5.088   4.647   3.328
 7681TIP3    H222983   5.156   4.712   3.446
 7682TIP3   OH222984   6.568   5.147   3.659
 7682TIP3    H122985   6.476   5.132   3.692
 7682TIP3    H222986   6.555   5.229   3.607
 7683TIP3   OH222987   6.859   4.043   4.013
 7683TIP3    H122988   6.769   4.066   3.982
 7683TIP3    H222989   6.914   4.074   3.939
 7684TIP3   OH222990   6.155   3.681   3.992
 7684TIP3    H122991   6.136   3.588   4.015
 7684TIP3    H222992   6.080   3.725   4.037
 7685TIP3   OH222993   6.259   5.185   3.314
 7685TIP3    H122994   6.309   5.101   3.300
 7685TIP3    H222995   6.325   5.249   3.279
 7686TIP3   OH222996   6.404   4.969   3.228
 7686TIP3    H122997   6.375   4.884   3.192
 7686TIP3    H222998   6.451   4.940   3.310
 7687TIP3   OH222999   6.797   5.052   3.990
 7687TIP3    H123000   6.780   4.974   3.933
 7687TIP3    H223001   6.775   5.126   3.929
 7688TIP3   OH223002   6.056   4.413   3.200
 7688TIP3    H123003   5.998   4.486   3.229
 7688TIP3    H223004   6.135   4.461   3.171
 7689TIP3   OH223005   6.032   4.234   2.959
 7689TIP3    H123006   6.070   4.279   3.038
 7689TIP3    H223007   6.107   4.182   2.927
 7690TIP3   OH223008   6.990   4.695   3.839
 7690TIP3    H123009   6.904   4.743   3.843
 7690TIP3    H223010   7.017   4.718   3.747
 7691TIP3   OH223011   6.406   4.552   3.251
 7691TIP3    H123012   6.361   4.586   3.333
 7691TIP3    H223013   6.489   4.520   3.290
 7692TIP3   OH223014   6.677   4.571   4.133
 7692TIP3    H123015   6.664   4.656   4.178
 7692TIP3    H223016   6.588   4.563   4.089
 7693TIP3   OH223017   5.743   4.966   3.765
 7693TIP3    H123018   5.726   4.931   3.675
 7693TIP3    H223019   5.834   4.939   3.782
 7694TIP3   OH223020   6.320   5.137   3.769
 7694TIP3    H123021   6.316   5.217   3.824
 7694TIP3    H223022   6.330   5.065   3.836
 7695TIP3   OH223023   5.936   5.054   4.315
 7695TIP3    H123024   5.877   5.116   4.362
 7695TIP3    H223025   5.870   5.001   4.266
 7696TIP3   OH223026   6.305   4.383   3.052
 7696TIP3    H123027   6.340   4.455   3.107
 7696TIP3    H223028   6.315   4.418   2.961
 7697TIP3   OH223029   5.708   4.615   4.432
 7697TIP3    H123030   5.694   4.702   4.474
 7697TIP3    H223031   5.617   4.592   4.404
 7698TIP3   OH223032   5.987   5.105   3.346
 7698TIP3    H123033   6.083   5.115   3.336
 7698TIP3    H223034   5.952   5.163   3.277
 7699TIP3   OH223035   5.732   5.221   4.403
 7699TIP3    H123036   5.695   5.225   4.313
 7699TIP3    H223037   5.653   5.200   4.457
 7700TIP3   OH223038   6.785   3.627   3.094
 7700TIP3    H123039   6.705   3.648   3.148
 7700TIP3    H223040   6.799   3.713   3.050
 7701TIP3   OH223041   6.585   4.989   2.648
 7701TIP3    H123042   6.591   5.085   2.626
 7701TIP3    H223043   6.678   4.961   2.635
 7702TIP3   OH223044   5.312   4.753   4.353
 7702TIP3    H123045   5.292   4.716   4.266
 7702TIP3    H223046   5.359   4.678   4.396
 7703TIP3   OH223047   5.136   5.000   3.973
 7703TIP3    H123048   5.230   4.998   3.994
 7703TIP3    H223049   5.106   5.075   4.027
 7704TIP3   OH223050   7.031   5.401   4.039
 7704TIP3    H123051   7.029   5.304   4.050
 7704TIP3    H223052   6.947   5.425   4.084
 7705TIP3   OH223053   6.129   5.184   4.171
 7705TIP3    H123054   6.132   5.276   4.204
 7705TIP3    H223055   6.060   5.145   4.228
 7706TIP3   OH223056   5.899   5.313   3.125
 7706TIP3    H123057   5.851   5.295   3.043
 7706TIP3    H223058   5.865   5.400   3.151
 7707TIP3   OH223059   5.333   5.161   3.509
 7707TIP3    H123060   5.383   5.154   3.594
 7707TIP3    H223061   5.275   5.084   3.515
 7708TIP3   OH223062   6.097   5.217   2.765
 7708TIP3    H123063   6.154   5.145   2.730
 7708TIP3    H223064   6.131   5.226   2.856
 7709TIP3   OH223065   6.150   5.262   3.034
 7709TIP3    H123066   6.061   5.273   3.075
 7709TIP3    H223067   6.199   5.220   3.107
 7710TIP3   OH223068   6.918   4.529   4.312
 7710TIP3    H123069   6.835   4.547   4.265
 7710TIP3    H223070   6.929   4.433   4.295
 7711TIP3   OH223071   5.513   4.940   4.339
 7711TIP3    H123072   5.566   4.924   4.421
 7711TIP3    H223073   5.440   4.876   4.351
 7712TIP3   OH223074   5.919   3.756   4.116
 7712TIP3    H123075   5.823   3.737   4.105
 7712TIP3    H223076   5.914   3.850   4.141
 7713TIP3   OH223077   6.449   3.873   4.319
 7713TIP3    H123078   6.514   3.844   4.385
 7713TIP3    H223079   6.363   3.858   4.364
 7714TIP3   OH223080   6.697   4.311   4.246
 7714TIP3    H123081   6.637   4.304   4.323
 7714TIP3    H223082   6.661   4.388   4.199
 7715TIP3   OH223083   6.339   4.432   2.783
 7715TIP3    H123084   6.324   4.395   2.695
 7715TIP3    H223085   6.420   4.484   2.768
 7716TIP3   OH223086   6.057   3.808   3.095
 7716TIP3    H123087   6.031   3.807   3.189
 7716TIP3    H223088   6.020   3.723   3.066
 7717TIP3   OH223089   6.203   4.221   3.365
 7717TIP3    H123090   6.156   4.306   3.370
 7717TIP3    H223091   6.271   4.240   3.299
 7718TIP3   OH223092   6.398   4.532   4.483
 7718TIP3    H123093   6.373   4.456   4.539
 7718TIP3    H223094   6.494   4.535   4.497
 7719TIP3   OH223095   5.629   4.314   4.374
 7719TIP3    H123096   5.709   4.363   4.397
 7719TIP3    H223097   5.650   4.224   4.405
 7720TIP3   OH223098   5.709   3.778   3.061
 7720TIP3    H123099   5.716   3.800   3.155
 7720TIP3    H223100   5.638   3.838   3.032
 7721TIP3   OH223101   5.262   3.830   3.942
 7721TIP3    H123102   5.343   3.865   3.985
 7721TIP3    H223103   5.293   3.800   3.855
 7722TIP3   OH223104   5.244   3.793   3.434
 7722TIP3    H123105   5.278   3.846   3.359
 7722TIP3    H223106   5.179   3.859   3.468
 7723TIP3   OH223107   6.423   4.535   4.043
 7723TIP3    H123108   6.432   4.468   3.973
 7723TIP3    H223109   6.383   4.480   4.115
 7724TIP3   OH223110   6.055   3.951   3.731
 7724TIP3    H123111   5.969   3.967   3.775
 7724TIP3    H223112   6.115   3.986   3.799
 7725TIP3   OH223113   5.494   3.983   3.729
 7725TIP3    H123114   5.399   3.985   3.712
 7725TIP3    H223115   5.524   3.903   3.681
 7726TIP3   OH223116   5.762   4.009   3.405
 7726TIP3    H123117   5.852   4.048   3.411
 7726TIP3    H223118   5.719   4.059   3.333
 7727TIP3   OH223119   6.550   4.057   3.910
 7727TIP3    H123120   6.523   4.072   4.003
 7727TIP3    H223121   6.477   3.998   3.881
 7728TIP3   OH223122   5.600   4.066   3.183
 7728TIP3    H123123   5.532   4.029   3.125
 7728TIP3    H223124   5.658   4.110   3.117
 7729TIP3   OH223125   6.723   5.748   4.139
 7729TIP3    H123126   6.719   5.771   4.045
 7729TIP3    H223127   6.800   5.799   4.170
 7730TIP3   OH223128   5.674   4.865   4.559
 7730TIP3    H123129   5.756   4.892   4.607
 7730TIP3    H223130   5.611   4.862   4.634
 7731TIP3   OH223131   5.649   3.763   3.656
 7731TIP3    H123132   5.631   3.702   3.731
 7731TIP3    H223133   5.746   3.762   3.649
 7732TIP3   OH223134   5.850   4.608   3.194
 7732TIP3    H123135   5.785   4.537   3.182
 7732TIP3    H223136   5.830   4.636   3.287
 7733TIP3   OH223137   6.753   4.833   3.828
 7733TIP3    H123138   6.770   4.884   3.746
 7733TIP3    H223139   6.667   4.789   3.808
 7734TIP3   OH223140   6.302   3.921   3.028
 7734TIP3    H123141   6.212   3.901   3.062
 7734TIP3    H223142   6.327   4.004   3.074
 7735TIP3   OH223143   6.260   4.926   4.189
 7735TIP3    H123144   6.262   4.882   4.275
 7735TIP3    H223145   6.212   5.009   4.208
 7736TIP3   OH223146   6.397   4.145   3.144
 7736TIP3    H123147   6.487   4.163   3.178
 7736TIP3    H223148   6.369   4.234   3.110
 7737TIP3   OH223149   5.996   4.746   3.002
 7737TIP3    H123150   5.955   4.834   3.019
 7737TIP3    H223151   5.956   4.695   3.076
 7738TIP3   OH223152   5.424   4.563   4.504
 7738TIP3    H123153   5.465   4.543   4.590
 7738TIP3    H223154   5.366   4.486   4.491
 7739TIP3   OH223155   6.150   4.656   4.511
 7739TIP3    H123156   6.092   4.609   4.448
 7739TIP3    H223157   6.237   4.623   4.480
 7740TIP3   OH223158   6.415   5.213   4.078
 7740TIP3    H123159   6.325   5.178   4.094
 7740TIP3    H223160   6.439   5.244   4.168
 7741TIP3   OH223161   6.826   4.250   2.998
 7741TIP3    H123162   6.764   4.206   2.936
 7741TIP3    H223163   6.820   4.341   2.961
 7742TIP3   OH223164   7.046   5.113   4.078
 7742TIP3    H123165   6.948   5.105   4.071
 7742TIP3    H223166   7.071   5.079   3.989
 7743TIP3   OH223167   6.526   5.069   2.910
 7743TIP3    H123168   6.497   4.999   2.970
 7743TIP3    H223169   6.540   5.023   2.825
 7744TIP3   OH223170   6.524   4.691   3.752
 7744TIP3    H123171   6.430   4.668   3.740
 7744TIP3    H223172   6.564   4.623   3.694
 7745TIP3   OH223173   5.646   4.926   3.506
 7745TIP3    H123174   5.658   5.002   3.446
 7745TIP3    H223175   5.551   4.913   3.500
 7746TIP3   OH223176   5.214   4.222   3.204
 7746TIP3    H123177   5.261   4.306   3.225
 7746TIP3    H223178   5.137   4.229   3.265
 7747TIP3   OH223179   5.767   4.678   3.440
 7747TIP3    H123180   5.736   4.766   3.469
 7747TIP3    H223181   5.800   4.639   3.522
 7748TIP3   OH223182   5.919   5.264   3.966
 7748TIP3    H123183   5.961   5.337   3.916
 7748TIP3    H223184   5.995   5.232   4.018
 7749TIP3   OH223185   5.565   5.165   3.349
 7749TIP3    H123186   5.480   5.174   3.397
 7749TIP3    H223187   5.598   5.257   3.353
 7750TIP3   OH223188   6.371   4.924   3.942
 7750TIP3    H123189   6.326   4.911   4.028
 7750TIP3    H223190   6.405   4.836   3.923
 7751TIP3   OH223191   6.280   4.785   2.813
 7751TIP3    H123192   6.334   4.763   2.892
 7751TIP3    H223193   6.191   4.772   2.848
 7752TIP3   OH223194   6.558   5.438   3.980
 7752TIP3    H123195   6.484   5.373   3.986
 7752TIP3    H223196   6.530   5.494   3.905
 7753TIP3   OH223197   6.618   5.267   2.630
 7753TIP3    H123198   6.650   5.336   2.570
 7753TIP3    H223199   6.539   5.313   2.665
 7754TIP3   OH223200   5.640   4.044   4.499
 7754TIP3    H123201   5.544   4.052   4.510
 7754TIP3    H223202   5.664   3.984   4.571
 7755TIP3   OH223203   6.440   4.721   3.028
 7755TIP3    H123204   6.427   4.668   3.109
 7755TIP3    H223205   6.538   4.719   3.019
 7756TIP3   OH223206   5.356   5.131   4.126
 7756TIP3    H123207   5.414   5.061   4.162
 7756TIP3    H223208   5.378   5.205   4.184
 7757TIP3   OH223209   5.645   4.777   2.810
 7757TIP3    H123210   5.661   4.684   2.785
 7757TIP3    H223211   5.628   4.768   2.906
 7758TIP3   OH223212   5.592   4.781   3.082
 7758TIP3    H123213   5.669   4.752   3.134
 7758TIP3    H223214   5.596   4.879   3.092
 7759TIP3   OH223215   5.315   4.466   3.278
 7759TIP3    H123216   5.257   4.515   3.340
 7759TIP3    H223217   5.342   4.538   3.218
 7760TIP3   OH223218   6.488   4.101   4.170
 7760TIP3    H123219   6.552   4.148   4.225
 7760TIP3    H223220   6.464   4.025   4.226
 7761TIP3   OH223221   6.361   3.851   3.335
 7761TIP3    H123222   6.341   3.898   3.253
 7761TIP3    H223223   6.408   3.922   3.385
 7762TIP3   OH223224   5.858   4.981   3.026
 7762TIP3    H123225   5.772   5.002   3.068
 7762TIP3    H223226   5.872   5.060   2.973
 7763TIP3   OH223227   6.037   4.031   3.453
 7763TIP3    H123228   6.099   4.102   3.422
 7763TIP3    H223229   6.051   4.034   3.549
 7764TIP3   OH223230   6.345   4.379   4.247
 7764TIP3    H123231   6.340   4.424   4.333
 7764TIP3    H223232   6.346   4.285   4.270
 7765TIP3   OH223233   6.186   3.765   3.546
 7765TIP3    H123234   6.168   3.840   3.607
 7765TIP3    H223235   6.248   3.807   3.482
 7766TIP3   OH223236   5.600   5.054   3.099
 7766TIP3    H123237   5.571   5.124   3.037
 7766TIP3    H223238   5.585   5.096   3.186
 7767TIP3   OH223239   5.714   3.755   3.341
 7767TIP3    H123240   5.709   3.848   3.375
 7767TIP3    H223241   5.813   3.747   3.347
 7768TIP3   OH223242   6.959   4.259   4.229
 7768TIP3    H123243   6.861   4.264   4.245
 7768TIP3    H223244   6.958   4.211   4.145
 7769TIP3   OH223245   6.608   4.455   3.614
 7769TIP3    H123246   6.519   4.433   3.646
 7769TIP3    H223247   6.665   4.401   3.672
 7770TIP3   OH223248   5.319   4.686   3.087
 7770TIP3    H123249   5.390   4.752   3.099
 7770TIP3    H223250   5.364   4.628   3.022
 7771TIP3   OH223251   5.259   3.950   3.209
 7771TIP3    H123252   5.277   4.046   3.216
 7771TIP3    H223253   5.163   3.952   3.199
 7772TIP3   OH223254   6.574   5.417   3.570
 7772TIP3    H123255   6.530   5.464   3.495
 7772TIP3    H223256   6.668   5.433   3.548
 7773TIP3   OH223257   5.648   3.683   4.098
 7773TIP3    H123258   5.619   3.648   4.012
 7773TIP3    H223259   5.640   3.605   4.156
 7774TIP3   OH223260   5.185   4.891   3.477
 7774TIP3    H123261   5.123   4.927   3.542
 7774TIP3    H223262   5.156   4.936   3.395
 7775TIP3   OH223263   5.349   5.444   4.548
 7775TIP3    H123264   5.434   5.446   4.597
 7775TIP3    H223265   5.330   5.349   4.548
 7776TIP3   OH223266   5.826   5.403   4.594
 7776TIP3    H123267   5.921   5.386   4.600
 7776TIP3    H223268   5.801   5.342   4.522
 7777TIP3   OH223269   5.806   4.980   2.718
 7777TIP3    H123270   5.749   4.911   2.760
 7777TIP3    H223271   5.884   4.926   2.697
 7778TIP3   OH223272   6.465   5.313   4.330
 7778TIP3    H123273   6.458   5.242   4.398
 7778TIP3    H223274   6.543   5.363   4.362
 7779TIP3   OH223275   6.238   5.019   2.643
 7779TIP3    H123276   6.298   4.962   2.694
 7779TIP3    H223277   6.282   5.021   2.555
 7780TIP3   OH223278   5.477   4.845   4.752
 7780TIP3    H123279   5.494   4.748   4.755
 7780TIP3    H223280   5.390   4.848   4.707
 7781TIP3   OH223281   5.456   4.496   2.945
 7781TIP3    H123282   5.511   4.467   3.020
 7781TIP3    H223283   5.525   4.502   2.875
 7782TIP3   OH223284   6.084   4.931   4.522
 7782TIP3    H123285   6.040   4.947   4.436
 7782TIP3    H223286   6.111   4.837   4.515
 7783TIP3   OH223287   5.961   4.691   2.740
 7783TIP3    H123288   5.966   4.709   2.837
 7783TIP3    H223289   5.956   4.594   2.741
 7784TIP3   OH223290   6.585   4.945   4.144
 7784TIP3    H123291   6.652   4.994   4.092
 7784TIP3    H223292   6.503   4.978   4.103
 7785TIP3   OH223293   5.594   4.582   4.735
 7785TIP3    H123294   5.672   4.537   4.699
 7785TIP3    H223295   5.626   4.613   4.822
 7786TIP3   OH223296   5.657   4.403   3.152
 7786TIP3    H123297   5.630   4.361   3.234
 7786TIP3    H223298   5.701   4.329   3.105
 7787TIP3   OH223299   5.921   4.453   4.399
 7787TIP3    H123300   5.852   4.523   4.404
 7787TIP3    H223301   5.961   4.471   4.311
 7788TIP3   OH223302   5.763   4.191   3.004
 7788TIP3    H123303   5.739   4.201   2.910
 7788TIP3    H223304   5.860   4.199   2.999
 7789TIP3   OH223305   6.454   4.871   4.532
 7789TIP3    H123306   6.519   4.833   4.471
 7789TIP3    H223307   6.440   4.798   4.595
 7790TIP3   OH223308   6.581   4.519   2.664
 7790TIP3    H123309   6.564   4.481   2.576
 7790TIP3    H223310   6.550   4.611   2.647
 7791TIP3   OH223311   6.061   4.251   4.510
 7791TIP3    H123312   6.058   4.178   4.445
 7791TIP3    H223313   6.012   4.321   4.461
 7792TIP3   OH223314   6.054   4.046   4.295
 7792TIP3    H123315   6.056   4.081   4.203
 7792TIP3    H223316   5.960   4.019   4.299
 7793TIP3   OH223317   6.107   4.590   4.232
 7793TIP3    H123318   6.156   4.555   4.157
 7793TIP3    H223319   6.036   4.643   4.189
 7794TIP3   OH223320   6.666   4.543   4.583
 7794TIP3    H123321   6.713   4.458   4.583
 7794TIP3    H223322   6.729   4.602   4.538
 7795TIP3   OH223323   6.709   4.796   4.326
 7795TIP3    H123324   6.651   4.851   4.269
 7795TIP3    H223325   6.795   4.815   4.283
 7796TIP3   OH223326   5.937   4.360   4.754
 7796TIP3    H123327   5.866   4.294   4.765
 7796TIP3    H223328   5.964   4.345   4.661
 7797TIP3   OH223329   6.185   3.813   4.392
 7797TIP3    H123330   6.139   3.892   4.358
 7797TIP3    H223331   6.116   3.744   4.381
 7798TIP3   OH223332   6.315   4.304   4.608
 7798TIP3    H123333   6.295   4.290   4.702
 7798TIP3    H223334   6.227   4.281   4.570
 7799TIP3   OH223335   6.555   4.258   4.469
 7799TIP3    H123336   6.475   4.260   4.526
 7799TIP3    H223337   6.623   4.222   4.529
 7800TIP3   OH223338   6.803   4.203   4.617
 7800TIP3    H123339   6.805   4.106   4.632
 7800TIP3    H223340   6.786   4.238   4.708
 7801TIP3   OH223341   5.769   4.144   4.806
 7801TIP3    H123342   5.777   4.055   4.767
 7801TIP3    H223343   5.807   4.130   4.895
 7802TIP3   OH223344   6.283   3.817   4.650
 7802TIP3    H123345   6.346   3.742   4.645
 7802TIP3    H223346   6.241   3.812   4.562
 7803TIP3   OH223347   6.352   4.030   4.807
 7803TIP3    H123348   6.329   3.958   4.744
 7803TIP3    H223349   6.272   4.088   4.802
 7804TIP3   OH223350   5.571   5.258   2.911
 7804TIP3    H123351   5.666   5.250   2.892
 7804TIP3    H223352   5.543   5.309   2.833
 7805TIP3   OH223353   5.052   4.638   3.130
 7805TIP3    H123354   5.146   4.661   3.115
 7805TIP3    H223355   5.047   4.550   3.088
 7806TIP3   OH223356   4.966   5.251   3.541
 7806TIP3    H123357   4.899   5.190   3.503
 7806TIP3    H223358   5.010   5.192   3.605
 7807TIP3   OH223359   5.102   5.102   3.723
 7807TIP3    H123360   5.085   5.040   3.797
 7807TIP3    H223361   5.155   5.168   3.771
 7808TIP3   OH223362   6.829   5.503   3.527
 7808TIP3    H123363   6.856   5.532   3.616
 7808TIP3    H223364   6.897   5.543   3.471
 7809TIP3   OH223365   6.859   5.523   3.809
 7809TIP3    H123366   6.809   5.438   3.805
 7809TIP3    H223367   6.931   5.495   3.868
 7810TIP3   OH223368   6.907   5.197   4.386
 7810TIP3    H123369   6.832   5.206   4.448
 7810TIP3    H223370   6.945   5.287   4.388
 7811TIP3   OH223371   6.721   4.708   3.002
 7811TIP3    H123372   6.786   4.775   2.973
 7811TIP3    H223373   6.765   4.672   3.082
 7812TIP3   OH223374   6.850   4.577   3.206
 7812TIP3    H123375   6.780   4.536   3.262
 7812TIP3    H223376   6.909   4.617   3.272
 7813TIP3   OH223377   6.909   4.976   3.643
 7813TIP3    H123378   6.955   4.907   3.592
 7813TIP3    H223379   6.891   5.044   3.575
 7814TIP3   OH223380   6.734   5.275   3.834
 7814TIP3    H123381   6.661   5.315   3.887
 7814TIP3    H223382   6.683   5.227   3.765
 7815TIP3   OH223383   6.784   4.486   2.850
 7815TIP3    H123384   6.712   4.491   2.783
 7815TIP3    H223385   6.759   4.561   2.907
 7816TIP3   OH223386   6.665   4.154   2.800
 7816TIP3    H123387   6.611   4.202   2.736
 7816TIP3    H223388   6.636   4.061   2.786
 7817TIP3   OH223389   6.658   4.440   3.346
 7817TIP3    H123390   6.662   4.343   3.338
 7817TIP3    H223391   6.644   4.451   3.443
 7818TIP3   OH223392   6.952   4.862   4.213
 7818TIP3    H123393   7.023   4.796   4.198
 7818TIP3    H223394   6.968   4.927   4.142
 7819TIP3   OH223395   7.136   4.664   4.220
 7819TIP3    H123396   7.059   4.617   4.259
 7819TIP3    H223397   7.207   4.600   4.241
 7820TIP3   OH223398   6.606   3.881   2.772
 7820TIP3    H123399   6.676   3.866   2.839
 7820TIP3    H223400   6.528   3.839   2.813
 7821TIP3   OH223401   6.661   4.161   3.242
 7821TIP3    H123402   6.694   4.071   3.265
 7821TIP3    H223403   6.725   4.186   3.173
 7822TIP3   OH223404   6.821   4.316   3.746
 7822TIP3    H123405   6.904   4.346   3.704
 7822TIP3    H223406   6.829   4.359   3.833
 7823TIP3   OH223407   6.891   4.471   3.972
 7823TIP3    H123408   6.813   4.502   4.022
 7823TIP3    H223409   6.920   4.553   3.928
 7824TIP3   OH223410   5.501   4.192   4.770
 7824TIP3    H123411   5.599   4.190   4.772
 7824TIP3    H223412   5.480   4.107   4.813
 7825TIP3   OH223413   7.345   4.071   4.533
 7825TIP3    H123414   7.401   4.002   4.491
 7825TIP3    H223415   7.310   4.117   4.453
 7826TIP3   OH223416   6.772   3.902   3.278
 7826TIP3    H123417   6.814   3.891   3.366
 7826TIP3    H223418   6.705   3.831   3.281
 7827TIP3   OH223419   5.475   3.907   4.103
 7827TIP3    H123420   5.536   3.831   4.116
 7827TIP3    H223421   5.540   3.980   4.092
 7828TIP3   OH223422   5.291   4.185   4.174
 7828TIP3    H123423   5.305   4.142   4.089
 7828TIP3    H223424   5.376   4.230   4.186
 7829TIP3   OH223425   7.209   4.199   4.334
 7829TIP3    H123426   7.121   4.240   4.348
 7829TIP3    H223427   7.181   4.126   4.275
 7830TIP3   OH223428   6.844   3.841   2.913
 7830TIP3    H123429   6.892   3.767   2.872
 7830TIP3    H223430   6.912   3.911   2.918
 7831TIP3   OH223431   5.255   3.687   3.694
 7831TIP3    H123432   5.162   3.663   3.714
 7831TIP3    H223433   5.247   3.724   3.604
 7832TIP3   OH223434   6.413   5.370   3.185
 7832TIP3    H123435   6.462   5.356   3.102
 7832TIP3    H223436   6.470   5.435   3.230
 7833TIP3   OH223437   5.470   3.742   4.489
 7833TIP3    H123438   5.421   3.742   4.573
 7833TIP3    H223439   5.405   3.785   4.430
 7834TIP3   OH223440   5.512   5.174   4.568
 7834TIP3    H123441   5.419   5.148   4.552
 7834TIP3    H223442   5.523   5.157   4.662
 7835TIP3   OH223443   5.690   5.211   4.116
 7835TIP3    H123444   5.644   5.288   4.077
 7835TIP3    H223445   5.777   5.223   4.072
 7836TIP3   OH223446   6.133   5.450   4.254
 7836TIP3    H123447   6.175   5.450   4.342
 7836TIP3    H223448   6.199   5.501   4.202
 7837TIP3   OH223449   6.312   5.604   4.114
 7837TIP3    H123450   6.380   5.549   4.073
 7837TIP3    H223451   6.366   5.659   4.175
 7838TIP3   OH223452   7.110   3.962   4.214
 7838TIP3    H123453   7.019   3.956   4.178
 7838TIP3    H223454   7.140   3.869   4.203
 7839TIP3   OH223455   5.366   5.461   4.142
 7839TIP3    H123456   5.276   5.494   4.120
 7839TIP3    H223457   5.380   5.507   4.227
 7840TIP3   OH223458   5.603   5.443   3.999
 7840TIP3    H123459   5.515   5.455   4.043
 7840TIP3    H223460   5.583   5.475   3.909
 7841TIP3   OH223461   6.027   5.468   3.798
 7841TIP3    H123462   5.958   5.487   3.732
 7841TIP3    H223463   6.039   5.556   3.840
 7842TIP3   OH223464   6.298   5.412   3.847
 7842TIP3    H123465   6.203   5.424   3.828
 7842TIP3    H223466   6.338   5.488   3.803
 7843TIP3   OH223467   6.509   5.604   3.763
 7843TIP3    H123468   6.491   5.686   3.712
 7843TIP3    H223469   6.532   5.540   3.692
 7844TIP3   OH223470   5.279   5.261   3.885
 7844TIP3    H123471   5.304   5.233   3.975
 7844TIP3    H223472   5.349   5.216   3.833
 7845TIP3   OH223473   5.470   5.134   3.741
 7845TIP3    H123474   5.485   5.054   3.797
 7845TIP3    H223475   5.561   5.172   3.738
 7846TIP3   OH223476   5.736   5.241   3.743
 7846TIP3    H123477   5.752   5.145   3.728
 7846TIP3    H223478   5.785   5.253   3.827
 7847TIP3   OH223479   6.332   3.881   3.845
 7847TIP3    H123480   6.272   3.817   3.888
 7847TIP3    H223481   6.394   3.824   3.797
 7848TIP3   OH223482   6.839   3.753   3.733
 7848TIP3    H123483   6.873   3.811   3.661
 7848TIP3    H223484   6.743   3.776   3.733
 7849TIP3   OH223485   6.933   3.858   3.498
 7849TIP3    H123486   7.008   3.809   3.460
 7849TIP3    H223487   6.964   3.950   3.486
 7850TIP3   OH223488   5.569   3.584   3.849
 7850TIP3    H123489   5.475   3.556   3.851
 7850TIP3    H223490   5.614   3.497   3.849
 7851TIP3   OH223491   6.001   3.622   3.732
 7851TIP3    H123492   6.058   3.673   3.672
 7851TIP3    H223493   6.026   3.660   3.817
 7852TIP3   OH223494   6.561   3.764   3.714
 7852TIP3    H123495   6.545   3.734   3.624
 7852TIP3    H223496   6.543   3.682   3.766
 7853TIP3   OH223497   6.582   3.691   3.274
 7853TIP3    H123498   6.499   3.740   3.292
 7853TIP3    H223499   6.564   3.607   3.322
 7854TIP3   OH223500   5.067   5.030   3.278
 7854TIP3    H123501   4.982   4.997   3.244
 7854TIP3    H223502   5.057   5.125   3.255
 7855TIP3   OH223503   5.982   3.783   3.359
 7855TIP3    H123504   6.048   3.749   3.422
 7855TIP3    H223505   5.988   3.879   3.385
 7856TIP3   OH223506   5.838   5.215   2.859
 7856TIP3    H123507   5.926   5.238   2.823
 7856TIP3    H223508   5.816   5.140   2.798
 7857TIP3   OH223509   6.558   5.336   2.953
 7857TIP3    H123510   6.551   5.238   2.941
 7857TIP3    H223511   6.512   5.367   2.872
 7858TIP3   OH223512   5.769   3.864   4.740
 7858TIP3    H123513   5.736   3.794   4.798
 7858TIP3    H223514   5.864   3.866   4.767
 7859TIP3   OH223515   6.020   3.865   4.860
 7859TIP3    H123516   6.104   3.840   4.817
 7859TIP3    H223517   6.009   3.791   4.924
 7860TIP3   OH223518   5.141   5.051   2.914
 7860TIP3    H123519   5.143   5.076   3.007
 7860TIP3    H223520   5.230   5.010   2.901
 7861TIP3   OH223521   6.845   3.929   4.647
 7861TIP3    H123522   6.862   3.896   4.738
 7861TIP3    H223523   6.933   3.919   4.606
 7862TIP3   OH223524   6.784   5.478   4.139
 7862TIP3    H123525   6.706   5.447   4.089
 7862TIP3    H223526   6.762   5.573   4.145
 7863TIP3   OH223527   8.049   4.855   2.903
 7863TIP3    H123528   8.019   4.946   2.883
 7863TIP3    H223529   7.971   4.804   2.877
 7864TIP3   OH223530   8.047   4.852   3.286
 7864TIP3    H123531   8.076   4.833   3.378
 7864TIP3    H223532   8.007   4.767   3.262
 7865TIP3   OH223533   7.349   4.746   3.650
 7865TIP3    H123534   7.378   4.677   3.712
 7865TIP3    H223535   7.429   4.800   3.642
 7866TIP3   OH223536   8.291   5.151   2.968
 7866TIP3    H123537   8.275   5.086   3.037
 7866TIP3    H223538   8.322   5.228   3.019
 7867TIP3   OH223539   7.322   5.158   3.376
 7867TIP3    H123540   7.312   5.061   3.377
 7867TIP3    H223541   7.419   5.166   3.368
 7868TIP3   OH223542   7.029   4.360   3.158
 7868TIP3    H123543   6.980   4.443   3.178
 7868TIP3    H223544   6.957   4.306   3.122
 7869TIP3   OH223545   7.087   4.648   3.336
 7869TIP3    H123546   7.136   4.569   3.370
 7869TIP3    H223547   7.144   4.677   3.263
 7870TIP3   OH223548   7.945   5.617   2.984
 7870TIP3    H123549   7.988   5.545   2.934
 7870TIP3    H223550   7.933   5.577   3.071
 7871TIP3   OH223551   7.847   5.077   3.335
 7871TIP3    H123552   7.887   5.000   3.292
 7871TIP3    H223553   7.930   5.124   3.360
 7872TIP3   OH223554   8.253   4.599   3.363
 7872TIP3    H123555   8.265   4.505   3.392
 7872TIP3    H223556   8.210   4.584   3.277
 7873TIP3   OH223557   7.596   4.238   3.333
 7873TIP3    H123558   7.581   4.310   3.269
 7873TIP3    H223559   7.548   4.165   3.288
 7874TIP3   OH223560   8.290   4.329   2.964
 7874TIP3    H123561   8.342   4.270   3.019
 7874TIP3    H223562   8.357   4.355   2.899
 7875TIP3   OH223563   7.232   4.440   3.439
 7875TIP3    H123564   7.314   4.420   3.487
 7875TIP3    H223565   7.246   4.384   3.359
 7876TIP3   OH223566   7.673   4.637   3.233
 7876TIP3    H123567   7.767   4.612   3.246
 7876TIP3    H223568   7.635   4.553   3.201
 7877TIP3   OH223569   7.594   4.223   3.768
 7877TIP3    H123570   7.535   4.259   3.699
 7877TIP3    H223571   7.541   4.241   3.848
 7878TIP3   OH223572   7.948   5.080   2.765
 7878TIP3    H123573   7.896   5.056   2.687
 7878TIP3    H223574   7.898   5.158   2.797
 7879TIP3   OH223575   7.702   4.998   3.559
 7879TIP3    H123576   7.641   5.065   3.596
 7879TIP3    H223577   7.744   5.046   3.485
 7880TIP3   OH223578   7.466   4.337   3.552
 7880TIP3    H123579   7.529   4.409   3.574
 7880TIP3    H223580   7.514   4.296   3.475
 7881TIP3   OH223581   7.531   5.193   3.660
 7881TIP3    H123582   7.505   5.279   3.621
 7881TIP3    H223583   7.451   5.176   3.714
 7882TIP3   OH223584   6.923   4.879   2.898
 7882TIP3    H123585   6.884   4.899   2.811
 7882TIP3    H223586   6.952   4.967   2.929
 7883TIP3   OH223587   8.364   5.397   3.133
 7883TIP3    H123588   8.276   5.385   3.176
 7883TIP3    H223589   8.351   5.483   3.090
 7884TIP3   OH223590   7.941   3.932   3.482
 7884TIP3    H123591   7.923   3.838   3.501
 7884TIP3    H223592   7.863   3.974   3.527
 7885TIP3   OH223593   8.065   5.441   2.808
 7885TIP3    H123594   8.115   5.359   2.786
 7885TIP3    H223595   8.125   5.508   2.767
 7886TIP3   OH223596   8.202   5.216   2.713
 7886TIP3    H123597   8.129   5.153   2.711
 7886TIP3    H223598   8.248   5.191   2.796
 7887TIP3   OH223599   8.583   5.303   3.482
 7887TIP3    H123600   8.587   5.227   3.419
 7887TIP3    H223601   8.581   5.380   3.423
 7888TIP3   OH223602   7.879   4.703   2.736
 7888TIP3    H123603   7.797   4.754   2.719
 7888TIP3    H223604   7.921   4.704   2.649
 7889TIP3   OH223605   7.837   4.489   2.449
 7889TIP3    H123606   7.903   4.541   2.499
 7889TIP3    H223607   7.896   4.428   2.401
 7890TIP3   OH223608   8.222   4.782   2.708
 7890TIP3    H123609   8.167   4.812   2.784
 7890TIP3    H223610   8.297   4.739   2.756
 7891TIP3   OH223611   8.447   4.802   3.620
 7891TIP3    H123612   8.480   4.886   3.655
 7891TIP3    H223613   8.360   4.827   3.585
 7892TIP3   OH223614   7.462   4.782   3.124
 7892TIP3    H123615   7.421   4.724   3.056
 7892TIP3    H223616   7.537   4.728   3.154
 7893TIP3   OH223617   7.591   5.196   3.272
 7893TIP3    H123618   7.569   5.157   3.186
 7893TIP3    H223619   7.680   5.159   3.289
 7894TIP3   OH223620   7.598   4.754   3.480
 7894TIP3    H123621   7.630   4.731   3.390
 7894TIP3    H223622   7.641   4.841   3.496
 7895TIP3   OH223623   8.125   5.392   3.256
 7895TIP3    H123624   8.109   5.472   3.309
 7895TIP3    H223625   8.107   5.320   3.320
 7896TIP3   OH223626   7.734   5.312   3.805
 7896TIP3    H123627   7.672   5.374   3.849
 7896TIP3    H223628   7.671   5.258   3.753
 7897TIP3   OH223629   8.068   4.637   2.532
 7897TIP3    H123630   8.124   4.701   2.583
 7897TIP3    H223631   8.094   4.659   2.439
 7898TIP3   OH223632   7.489   4.863   3.909
 7898TIP3    H123633   7.493   4.953   3.948
 7898TIP3    H223634   7.394   4.844   3.918
 7899TIP3   OH223635   7.814   5.320   2.810
 7899TIP3    H123636   7.894   5.376   2.821
 7899TIP3    H223637   7.752   5.381   2.768
 7900TIP3   OH223638   7.528   5.481   3.892
 7900TIP3    H123639   7.495   5.481   3.800
 7900TIP3    H223640   7.448   5.456   3.943
 7901TIP3   OH223641   7.329   4.627   2.924
 7901TIP3    H123642   7.259   4.672   2.871
 7901TIP3    H223643   7.287   4.543   2.944
 7902TIP3   OH223644   8.376   5.256   2.129
 7902TIP3    H123645   8.371   5.353   2.121
 7902TIP3    H223646   8.467   5.237   2.105
 7903TIP3   OH223647   7.109   5.011   3.836
 7903TIP3    H123648   7.038   4.994   3.770
 7903TIP3    H223649   7.142   4.921   3.854
 7904TIP3   OH223650   6.961   5.208   3.461
 7904TIP3    H123651   7.058   5.199   3.459
 7904TIP3    H223652   6.949   5.282   3.522
 7905TIP3   OH223653   7.931   5.441   3.662
 7905TIP3    H123654   7.930   5.532   3.697
 7905TIP3    H223655   7.859   5.400   3.715
 7906TIP3   OH223656   7.695   5.568   2.613
 7906TIP3    H123657   7.648   5.550   2.529
 7906TIP3    H223658   7.661   5.656   2.638
 7907TIP3   OH223659   7.132   5.417   2.996
 7907TIP3    H123660   7.177   5.408   3.083
 7907TIP3    H223661   7.079   5.336   2.994
 7908TIP3   OH223662   7.894   5.473   2.251
 7908TIP3    H123663   7.952   5.404   2.214
 7908TIP3    H223664   7.930   5.482   2.342
 7909TIP3   OH223665   7.945   5.519   2.521
 7909TIP3    H123666   7.857   5.528   2.562
 7909TIP3    H223667   7.996   5.480   2.593
 7910TIP3   OH223668   7.312   5.194   3.823
 7910TIP3    H123669   7.360   5.175   3.906
 7910TIP3    H223670   7.237   5.130   3.829
 7911TIP3   OH223671   7.711   4.016   3.611
 7911TIP3    H123672   7.622   3.986   3.583
 7911TIP3    H223673   7.685   4.099   3.657
 7912TIP3   OH223674   8.214   4.152   3.789
 7912TIP3    H123675   8.279   4.109   3.848
 7912TIP3    H223676   8.129   4.128   3.833
 7913TIP3   OH223677   8.518   4.555   3.731
 7913TIP3    H123678   8.456   4.562   3.807
 7913TIP3    H223679   8.498   4.638   3.683
 7914TIP3   OH223680   8.141   4.686   2.275
 7914TIP3    H123681   8.117   4.662   2.184
 7914TIP3    H223682   8.207   4.755   2.260
 7915TIP3   OH223683   7.860   4.067   2.582
 7915TIP3    H123684   7.828   4.063   2.674
 7915TIP3    H223685   7.823   3.984   2.547
 7916TIP3   OH223686   7.644   4.533   3.629
 7916TIP3    H123687   7.591   4.553   3.709
 7916TIP3    H223688   7.629   4.614   3.575
 7917TIP3   OH223689   7.527   4.419   3.142
 7917TIP3    H123690   7.435   4.392   3.161
 7917TIP3    H223691   7.540   4.377   3.055
 7918TIP3   OH223692   8.018   4.506   2.870
 7918TIP3    H123693   7.964   4.576   2.828
 7918TIP3    H223694   8.074   4.477   2.797
 7919TIP3   OH223695   8.191   4.784   3.959
 7919TIP3    H123696   8.170   4.709   4.020
 7919TIP3    H223697   8.287   4.790   3.969
 7920TIP3   OH223698   8.163   4.538   3.108
 7920TIP3    H123699   8.103   4.553   3.032
 7920TIP3    H223700   8.203   4.454   3.077
 7921TIP3   OH223701   7.464   4.561   3.835
 7921TIP3    H123702   7.482   4.627   3.904
 7921TIP3    H223703   7.450   4.480   3.888
 7922TIP3   OH223704   7.510   4.037   2.546
 7922TIP3    H123705   7.504   4.036   2.644
 7922TIP3    H223706   7.435   4.095   2.524
 7923TIP3   OH223707   7.059   4.080   3.414
 7923TIP3    H123708   7.130   4.115   3.472
 7923TIP3    H223709   7.107   4.050   3.335
 7924TIP3   OH223710   7.024   4.062   2.934
 7924TIP3    H123711   7.072   4.101   2.858
 7924TIP3    H223712   6.965   4.137   2.956
 7925TIP3   OH223713   8.162   4.788   3.533
 7925TIP3    H123714   8.205   4.722   3.474
 7925TIP3    H223715   8.142   4.730   3.610
 7926TIP3   OH223716   7.847   4.262   3.201
 7926TIP3    H123717   7.775   4.246   3.265
 7926TIP3    H223718   7.924   4.220   3.246
 7927TIP3   OH223719   7.290   4.297   3.210
 7927TIP3    H123720   7.195   4.306   3.183
 7927TIP3    H223721   7.311   4.205   3.187
 7928TIP3   OH223722   7.554   4.289   2.902
 7928TIP3    H123723   7.649   4.306   2.884
 7928TIP3    H223724   7.510   4.313   2.818
 7929TIP3   OH223725   8.269   4.333   3.400
 7929TIP3    H123726   8.257   4.337   3.496
 7929TIP3    H223727   8.349   4.277   3.392
 7930TIP3   OH223728   7.403   4.324   2.677
 7930TIP3    H123729   7.330   4.283   2.628
 7930TIP3    H223730   7.454   4.363   2.603
 7931TIP3   OH223731   8.506   6.014   3.626
 7931TIP3    H123732   8.502   6.018   3.527
 7931TIP3    H223733   8.584   6.068   3.643
 7932TIP3   OH223734   7.474   5.115   4.045
 7932TIP3    H123735   7.552   5.146   4.093
 7932TIP3    H223736   7.408   5.113   4.117
 7933TIP3   OH223737   7.940   4.572   3.304
 7933TIP3    H123738   8.003   4.524   3.248
 7933TIP3    H223739   7.944   4.521   3.387
 7934TIP3   OH223740   7.457   4.055   3.181
 7934TIP3    H123741   7.422   3.977   3.229
 7934TIP3    H223742   7.512   4.014   3.113
 7935TIP3   OH223743   7.913   4.464   3.596
 7935TIP3    H123744   7.823   4.501   3.605
 7935TIP3    H223745   7.970   4.529   3.642
 7936TIP3   OH223746   7.652   4.855   2.686
 7936TIP3    H123747   7.579   4.791   2.673
 7936TIP3    H223748   7.631   4.889   2.776
 7937TIP3   OH223749   8.551   5.091   3.301
 7937TIP3    H123750   8.564   5.106   3.207
 7937TIP3    H223751   8.463   5.049   3.301
 7938TIP3   OH223752   8.111   4.167   2.537
 7938TIP3    H123753   8.016   4.146   2.554
 7938TIP3    H223754   8.118   4.261   2.563
 7939TIP3   OH223755   8.046   5.175   3.681
 7939TIP3    H123756   8.076   5.155   3.770
 7939TIP3    H223757   8.010   5.265   3.689
 7940TIP3   OH223758   8.201   4.421   2.635
 7940TIP3    H123759   8.286   4.464   2.650
 7940TIP3    H223760   8.151   4.492   2.590
 7941TIP3   OH223761   7.346   4.882   3.360
 7941TIP3    H123762   7.383   4.851   3.275
 7941TIP3    H223763   7.383   4.817   3.422
 7942TIP3   OH223764   7.796   5.005   2.508
 7942TIP3    H123765   7.748   5.091   2.510
 7942TIP3    H223766   7.740   4.951   2.567
 7943TIP3   OH223767   7.225   4.792   3.973
 7943TIP3    H123768   7.232   4.776   4.069
 7943TIP3    H223769   7.151   4.734   3.948
 7944TIP3   OH223770   7.948   4.912   3.999
 7944TIP3    H123771   7.887   4.857   3.948
 7944TIP3    H223772   8.035   4.877   3.969
 7945TIP3   OH223773   8.209   5.436   3.579
 7945TIP3    H123774   8.112   5.433   3.592
 7945TIP3    H223775   8.236   5.488   3.657
 7946TIP3   OH223776   8.309   5.333   2.395
 7946TIP3    H123777   8.305   5.279   2.475
 7946TIP3    H223778   8.332   5.270   2.325
 7947TIP3   OH223779   8.310   4.956   3.236
 7947TIP3    H123780   8.215   4.934   3.246
 7947TIP3    H223781   8.344   4.870   3.204
 7948TIP3   OH223782   7.445   5.183   2.986
 7948TIP3    H123783   7.441   5.264   2.932
 7948TIP3    H223784   7.351   5.165   2.998
 7949TIP3   OH223785   7.009   4.486   2.689
 7949TIP3    H123786   7.053   4.571   2.709
 7949TIP3    H223787   6.932   4.491   2.750
 7950TIP3   OH223788   7.581   4.948   2.929
 7950TIP3    H123789   7.545   5.037   2.948
 7950TIP3    H223790   7.544   4.897   3.004
 7951TIP3   OH223791   7.714   5.526   3.454
 7951TIP3    H123792   7.755   5.599   3.402
 7951TIP3    H223793   7.792   5.489   3.500
 7952TIP3   OH223794   7.364   5.421   2.838
 7952TIP3    H123795   7.278   5.430   2.884
 7952TIP3    H223796   7.396   5.513   2.841
 7953TIP3   OH223797   8.100   5.160   3.414
 7953TIP3    H123798   8.089   5.158   3.511
 7953TIP3    H223799   8.182   5.108   3.404
 7954TIP3   OH223800   8.060   5.054   2.308
 7954TIP3    H123801   8.117   5.026   2.383
 7954TIP3    H223802   7.972   5.031   2.343
 7955TIP3   OH223803   8.351   5.693   3.463
 7955TIP3    H123804   8.273   5.635   3.457
 7955TIP3    H223805   8.333   5.757   3.391
 7956TIP3   OH223806   7.430   4.306   3.983
 7956TIP3    H123807   7.333   4.310   3.990
 7956TIP3    H223808   7.452   4.239   4.049
 7957TIP3   OH223809   8.235   4.974   2.509
 7957TIP3    H123810   8.222   4.908   2.580
 7957TIP3    H223811   8.302   5.031   2.548
 7958TIP3   OH223812   7.153   5.387   3.612
 7958TIP3    H123813   7.204   5.313   3.646
 7958TIP3    H223814   7.178   5.457   3.673
 7959TIP3   OH223815   7.443   5.033   2.295
 7959TIP3    H123816   7.455   4.939   2.269
 7959TIP3    H223817   7.423   5.024   2.391
 7960TIP3   OH223818   7.390   5.039   2.566
 7960TIP3    H123819   7.458   5.013   2.630
 7960TIP3    H223820   7.391   5.137   2.574
 7961TIP3   OH223821   7.121   4.731   2.772
 7961TIP3    H123822   7.054   4.775   2.830
 7961TIP3    H223823   7.131   4.801   2.704
 7962TIP3   OH223824   8.270   4.394   3.675
 7962TIP3    H123825   8.362   4.410   3.700
 7962TIP3    H223826   8.249   4.309   3.719
 7963TIP3   OH223827   8.130   4.135   2.836
 7963TIP3    H123828   8.136   4.145   2.740
 7963TIP3    H223829   8.179   4.212   2.870
 7964TIP3   OH223830   7.655   5.236   2.517
 7964TIP3    H123831   7.567   5.259   2.553
 7964TIP3    H223832   7.670   5.311   2.457
 7965TIP3   OH223833   7.835   4.302   2.931
 7965TIP3    H123834   7.903   4.371   2.917
 7965TIP3    H223835   7.841   4.290   3.028
 7966TIP3   OH223836   8.108   4.616   3.737
 7966TIP3    H123837   8.139   4.661   3.817
 7966TIP3    H223838   8.168   4.538   3.732
 7967TIP3   OH223839   7.979   4.013   3.029
 7967TIP3    H123840   8.009   4.062   3.109
 7967TIP3    H223841   8.033   4.058   2.960
 7968TIP3   OH223842   7.399   5.310   2.586
 7968TIP3    H123843   7.369   5.380   2.523
 7968TIP3    H223844   7.382   5.353   2.672
 7969TIP3   OH223845   7.498   4.025   2.822
 7969TIP3    H123846   7.495   4.115   2.861
 7969TIP3    H223847   7.594   4.008   2.831
 7970TIP3   OH223848   8.399   4.698   3.143
 7970TIP3    H123849   8.314   4.660   3.115
 7970TIP3    H223850   8.413   4.648   3.226
 7971TIP3   OH223851   7.116   4.939   2.580
 7971TIP3    H123852   7.179   5.012   2.586
 7971TIP3    H223853   7.161   4.884   2.512
 7972TIP3   OH223854   7.057   4.216   2.707
 7972TIP3    H123855   7.064   4.313   2.705
 7972TIP3    H223856   6.965   4.204   2.682
 7973TIP3   OH223857   8.379   5.672   3.055
 7973TIP3    H123858   8.335   5.719   2.980
 7973TIP3    H223859   8.471   5.682   3.031
 7974TIP3   OH223860   7.448   3.936   3.583
 7974TIP3    H123861   7.416   3.902   3.496
 7974TIP3    H223862   7.437   3.858   3.641
 7975TIP3   OH223863   6.985   5.157   2.962
 7975TIP3    H123864   6.919   5.184   3.026
 7975TIP3    H223865   6.950   5.198   2.879
 7976TIP3   OH223866   7.143   5.699   4.034
 7976TIP3    H123867   7.229   5.696   4.081
 7976TIP3    H223868   7.118   5.605   4.034
 7977TIP3   OH223869   7.631   5.660   4.081
 7977TIP3    H123870   7.723   5.629   4.081
 7977TIP3    H223871   7.595   5.603   4.009
 7978TIP3   OH223872   7.605   5.237   2.207
 7978TIP3    H123873   7.549   5.165   2.245
 7978TIP3    H223874   7.680   5.185   2.173
 7979TIP3   OH223875   8.252   5.572   3.818
 7979TIP3    H123876   8.249   5.499   3.884
 7979TIP3    H223877   8.334   5.618   3.843
 7980TIP3   OH223878   8.035   5.279   2.116
 7980TIP3    H123879   8.079   5.217   2.178
 7980TIP3    H223880   8.091   5.274   2.036
 7981TIP3   OH223881   7.273   5.103   4.237
 7981TIP3    H123882   7.288   5.007   4.238
 7981TIP3    H223883   7.186   5.108   4.192
 7982TIP3   OH223884   7.255   4.754   2.434
 7982TIP3    H123885   7.312   4.726   2.507
 7982TIP3    H223886   7.321   4.759   2.361
 7983TIP3   OH223887   7.879   5.189   4.010
 7983TIP3    H123888   7.838   5.208   3.923
 7983TIP3    H223889   7.909   5.096   3.999
 7984TIP3   OH223890   7.762   4.952   2.238
 7984TIP3    H123891   7.762   4.964   2.335
 7984TIP3    H223892   7.762   4.854   2.232
 7985TIP3   OH223893   8.374   5.196   3.620
 7985TIP3    H123894   8.453   5.237   3.577
 7985TIP3    H223895   8.307   5.265   3.602
 7986TIP3   OH223896   7.391   4.846   4.223
 7986TIP3    H123897   7.462   4.791   4.190
 7986TIP3    H223898   7.424   4.872   4.311
 7987TIP3   OH223899   7.458   4.659   2.652
 7987TIP3    H123900   7.428   4.621   2.736
 7987TIP3    H223901   7.493   4.581   2.604
 7988TIP3   OH223902   7.731   4.726   3.885
 7988TIP3    H123903   7.650   4.781   3.882
 7988TIP3    H223904   7.780   4.758   3.806
 7989TIP3   OH223905   7.559   4.451   2.491
 7989TIP3    H123906   7.533   4.460   2.397
 7989TIP3    H223907   7.657   4.456   2.484
 7990TIP3   OH223908   8.248   5.126   4.015
 7990TIP3    H123909   8.320   5.097   3.957
 7990TIP3    H223910   8.241   5.052   4.078
 7991TIP3   OH223911   7.851   4.512   4.007
 7991TIP3    H123912   7.851   4.433   3.949
 7991TIP3    H223913   7.808   4.579   3.949
 7992TIP3   OH223914   7.852   4.299   3.817
 7992TIP3    H123915   7.881   4.341   3.733
 7992TIP3    H223916   7.759   4.276   3.796
 7993TIP3   OH223917   7.880   4.834   3.690
 7993TIP3    H123918   7.964   4.840   3.643
 7993TIP3    H223919   7.824   4.899   3.641
 7994TIP3   OH223920   8.469   4.802   4.076
 7994TIP3    H123921   8.506   4.716   4.055
 7994TIP3    H223922   8.529   4.862   4.030
 7995TIP3   OH223923   8.510   5.052   3.809
 7995TIP3    H123924   8.459   5.107   3.744
 7995TIP3    H223925   8.592   5.037   3.757
 7996TIP3   OH223926   7.728   4.619   4.242
 7996TIP3    H123927   7.663   4.546   4.250
 7996TIP3    H223928   7.762   4.604   4.151
 7997TIP3   OH223929   7.975   4.060   3.886
 7997TIP3    H123930   7.924   4.141   3.863
 7997TIP3    H223931   7.908   3.990   3.873
 7998TIP3   OH223932   8.111   4.562   4.096
 7998TIP3    H123933   8.093   4.547   4.190
 7998TIP3    H223934   8.022   4.539   4.060
 7999TIP3   OH223935   8.357   4.530   3.956
 7999TIP3    H123936   8.274   4.522   4.007
 7999TIP3    H223937   8.419   4.479   4.012
 8000TIP3   OH223938   8.547   4.418   4.117
 8000TIP3    H123939   8.608   4.346   4.134
 8000TIP3    H223940   8.564   4.478   4.192
 8001TIP3   OH223941   7.570   4.400   4.295
 8001TIP3    H123942   7.570   4.310   4.254
 8001TIP3    H223943   7.611   4.379   4.381
 8002TIP3   OH223944   8.078   4.072   4.140
 8002TIP3    H123945   8.135   3.993   4.138
 8002TIP3    H223946   8.038   4.067   4.051
 8003TIP3   OH223947   8.148   4.286   4.297
 8003TIP3    H123948   8.126   4.215   4.233
 8003TIP3    H223949   8.070   4.345   4.289
 8004TIP3   OH223950   7.367   5.512   2.399
 8004TIP3    H123951   7.463   5.507   2.378
 8004TIP3    H223952   7.337   5.563   2.321
 8005TIP3   OH223953   6.847   4.888   2.629
 8005TIP3    H123954   6.936   4.919   2.600
 8005TIP3    H223955   6.837   4.809   2.573
 8006TIP3   OH223956   6.762   5.508   3.029
 8006TIP3    H123957   6.696   5.446   2.990
 8006TIP3    H223958   6.806   5.449   3.093
 8007TIP3   OH223959   6.897   5.356   3.215
 8007TIP3    H123960   6.884   5.284   3.280
 8007TIP3    H223961   6.948   5.419   3.269
 8008TIP3   OH223962   8.694   5.755   3.290
 8008TIP3    H123963   8.641   5.672   3.281
 8008TIP3    H223964   8.678   5.775   3.383
 8009TIP3   OH223965   8.665   5.482   3.871
 8009TIP3    H123966   8.600   5.479   3.943
 8009TIP3    H223967   8.708   5.568   3.884
 8010TIP3   OH223968   8.532   5.529   3.316
 8010TIP3    H123969   8.465   5.567   3.375
 8010TIP3    H223970   8.478   5.478   3.252
 8011TIP3   OH223971   8.443   4.654   2.828
 8011TIP3    H123972   8.527   4.604   2.839
 8011TIP3    H223973   8.448   4.707   2.910
 8012TIP3   OH223974   7.083   4.762   3.588
 8012TIP3    H123975   7.079   4.731   3.495
 8012TIP3    H223976   7.180   4.765   3.602
 8013TIP3   OH223977   7.303   4.455   4.276
 8013TIP3    H123978   7.400   4.442   4.266
 8013TIP3    H223979   7.276   4.364   4.300
 8014TIP3   OH223980   7.263   4.144   3.587
 8014TIP3    H123981   7.325   4.070   3.598
 8014TIP3    H223982   7.325   4.220   3.582
 8015TIP3   OH223983   7.067   4.417   3.667
 8015TIP3    H123984   7.114   4.414   3.581
 8015TIP3    H223985   7.087   4.506   3.697
 8016TIP3   OH223986   7.047   3.913   3.159
 8016TIP3    H123987   6.957   3.915   3.196
 8016TIP3    H223988   7.041   3.978   3.086
 8017TIP3   OH223989   8.209   5.625   2.674
 8017TIP3    H123990   8.255   5.613   2.588
 8017TIP3    H223991   8.262   5.694   2.716
 8018TIP3   OH223992   7.272   4.005   3.982
 8018TIP3    H123993   7.217   3.996   4.061
 8018TIP3    H223994   7.206   4.043   3.919
 8019TIP3   OH223995   7.309   5.430   4.058
 8019TIP3    H123996   7.217   5.405   4.037
 8019TIP3    H223997   7.313   5.409   4.153
 8020TIP3   OH223998   7.490   5.465   3.606
 8020TIP3    H123999   7.439   5.539   3.566
 8020TIP3    H224000   7.574   5.479   3.560
 8021TIP3   OH224001   7.935   5.707   3.752
 8021TIP3    H124002   7.980   5.712   3.839
 8021TIP3    H224003   7.998   5.755   3.695
 8022TIP3   OH224004   8.108   5.858   3.604
 8022TIP3    H124005   8.177   5.810   3.556
 8022TIP3    H224006   8.162   5.916   3.661
 8023TIP3   OH224007   7.163   5.722   3.627
 8023TIP3    H124008   7.073   5.754   3.603
 8023TIP3    H224009   7.171   5.757   3.716
 8024TIP3   OH224010   7.400   5.699   3.487
 8024TIP3    H124011   7.313   5.711   3.530
 8024TIP3    H224012   7.381   5.730   3.396
 8025TIP3   OH224013   7.824   5.726   3.284
 8025TIP3    H124014   7.755   5.744   3.218
 8025TIP3    H224015   7.837   5.814   3.324
 8026TIP3   OH224016   8.092   5.662   3.338
 8026TIP3    H124017   7.999   5.683   3.315
 8026TIP3    H224018   8.140   5.736   3.296
 8027TIP3   OH224019   8.280   5.848   3.247
 8027TIP3    H124020   8.279   5.937   3.206
 8027TIP3    H224021   8.315   5.793   3.173
 8028TIP3   OH224022   7.075   5.515   3.373
 8028TIP3    H124023   7.102   5.485   3.462
 8028TIP3    H224024   7.145   5.470   3.320
 8029TIP3   OH224025   7.268   5.385   3.231
 8029TIP3    H124026   7.283   5.301   3.281
 8029TIP3    H224027   7.359   5.420   3.226
 8030TIP3   OH224028   7.536   5.478   3.234
 8030TIP3    H124029   7.566   5.386   3.222
 8030TIP3    H224030   7.582   5.500   3.317
 8031TIP3   OH224031   8.062   4.104   3.277
 8031TIP3    H124032   8.049   4.051   3.358
 8031TIP3    H224033   8.160   4.098   3.266
 8032TIP3   OH224034   7.359   3.843   3.334
 8032TIP3    H124035   7.267   3.809   3.339
 8032TIP3    H224036   7.408   3.758   3.332
 8033TIP3   OH224037   7.135   3.715   2.980
 8033TIP3    H124038   7.172   3.774   2.912
 8033TIP3    H224039   7.111   3.779   3.051
 8034TIP3   OH224040   7.802   3.876   3.217
 8034TIP3    H124041   7.857   3.923   3.151
 8034TIP3    H224042   7.833   3.916   3.300
 8035TIP3   OH224043   8.313   4.006   3.198
 8035TIP3    H124044   8.346   3.983   3.111
 8035TIP3    H224045   8.313   3.919   3.243
 8036TIP3   OH224046   6.862   5.288   2.761
 8036TIP3    H124047   6.777   5.252   2.729
 8036TIP3    H224048   6.852   5.381   2.734
 8037TIP3   OH224049   7.264   3.876   2.744
 8037TIP3    H124050   7.314   3.813   2.689
 8037TIP3    H224051   7.337   3.930   2.782
 8038TIP3   OH224052   7.775   4.050   2.845
 8038TIP3    H124053   7.837   4.006   2.906
 8038TIP3    H224054   7.794   4.143   2.869
 8039TIP3   OH224055   7.635   5.470   2.347
 8039TIP3    H124056   7.723   5.495   2.310
 8039TIP3    H224057   7.613   5.397   2.286
 8040TIP3   OH224058   8.343   5.598   2.440
 8040TIP3    H124059   8.340   5.500   2.428
 8040TIP3    H224060   8.313   5.627   2.352
 8041TIP3   OH224061   7.564   4.127   4.233
 8041TIP3    H124062   7.530   4.053   4.285
 8041TIP3    H224063   7.659   4.125   4.259
 8042TIP3   OH224064   7.814   4.128   4.352
 8042TIP3    H124065   7.897   4.101   4.309
 8042TIP3    H224066   7.803   4.056   4.418
 8043TIP3   OH224067   6.941   5.311   2.402
 8043TIP3    H124068   6.939   5.333   2.496
 8043TIP3    H224069   7.030   5.269   2.391
 8044TIP3   OH224070   8.568   5.746   3.635
 8044TIP3    H124071   8.498   5.707   3.580
 8044TIP3    H224072   8.547   5.841   3.631
 8045TIP3   OH224073   0.502   5.635   4.596
 8045TIP3    H124074   0.485   5.725   4.625
 8045TIP3    H224075   0.423   5.611   4.544
 8046TIP3   OH224076   0.516   5.625   4.967
 8046TIP3    H124077   0.543   5.600   5.057
 8046TIP3    H224078   0.471   5.544   4.937
 8047TIP3   OH224079   0.700   5.920   4.710
 8047TIP3    H124080   0.738   5.864   4.779
 8047TIP3    H224081   0.762   5.994   4.705
 8048TIP3   OH224082   0.449   6.415   4.650
 8048TIP3    H124083   0.500   6.333   4.637
 8048TIP3    H224084   0.385   6.388   4.718
 8049TIP3   OH224085   0.328   5.834   5.036
 8049TIP3    H124086   0.365   5.760   4.986
 8049TIP3    H224087   0.409   5.888   5.049
 8050TIP3   OH224088   1.312   5.186   5.019
 8050TIP3    H124089   1.345   5.268   5.060
 8050TIP3    H224090   1.347   5.195   4.928
 8051TIP3   OH224091   0.709   5.368   5.058
 8051TIP3    H124092   0.754   5.283   5.077
 8051TIP3    H224093   0.680   5.352   4.967
 8052TIP3   OH224094   0.746   5.121   4.643
 8052TIP3    H124095   0.816   5.101   4.710
 8052TIP3    H224096   0.802   5.152   4.570
 8053TIP3   OH224097   1.390   5.395   5.188
 8053TIP3    H124098   1.304   5.439   5.170
 8053TIP3    H224099   1.397   5.410   5.284
 8054TIP3   OH224100   0.357   5.893   4.459
 8054TIP3    H124101   0.387   5.822   4.402
 8054TIP3    H224102   0.440   5.942   4.473
 8055TIP3   OH224103   0.955   5.117   4.817
 8055TIP3    H124104   0.951   5.064   4.898
 8055TIP3    H224105   1.010   5.192   4.844
 8056TIP3   OH224106   0.817   6.190   4.834
 8056TIP3    H124107   0.725   6.174   4.862
 8056TIP3    H224108   0.807   6.274   4.785
 8057TIP3   OH224109   1.106   5.096   5.189
 8057TIP3    H124110   1.019   5.117   5.150
 8057TIP3    H224111   1.168   5.122   5.118
 8058TIP3   OH224112   0.408   4.716   5.156
 8058TIP3    H124113   0.406   4.619   5.174
 8058TIP3    H224114   0.361   4.749   5.233
 8059TIP3   OH224115   0.527   6.189   4.474
 8059TIP3    H124116   0.593   6.118   4.458
 8059TIP3    H224117   0.581   6.265   4.441
 8060TIP3   OH224118   1.040   6.096   5.170
 8060TIP3    H124119   1.029   6.020   5.109
 8060TIP3    H224120   1.023   6.172   5.109
 8061TIP3   OH224121   0.324   5.525   4.420
 8061TIP3    H124122   0.252   5.462   4.443
 8061TIP3    H224123   0.361   5.488   4.338
 8062TIP3   OH224124   0.306   5.282   4.138
 8062TIP3    H124125   0.379   5.332   4.181
 8062TIP3    H224126   0.357   5.214   4.090
 8063TIP3   OH224127   1.236   5.738   5.016
 8063TIP3    H124128   1.152   5.789   5.019
 8063TIP3    H224129   1.266   5.758   4.924
 8064TIP3   OH224130   0.680   5.564   4.401
 8064TIP3    H124131   0.628   5.593   4.480
 8064TIP3    H224132   0.766   5.545   4.444
 8065TIP3   OH224133   0.916   5.613   5.313
 8065TIP3    H124134   0.913   5.696   5.363
 8065TIP3    H224135   0.831   5.618   5.264
 8066TIP3   OH224136   0.565   6.183   4.936
 8066TIP3    H124137   0.555   6.263   4.989
 8066TIP3    H224138   0.557   6.111   5.002
 8067TIP3   OH224139   0.517   5.432   4.226
 8067TIP3    H124140   0.574   5.491   4.281
 8067TIP3    H224141   0.546   5.457   4.135
 8068TIP3   OH224142   1.031   4.674   4.257
 8068TIP3    H124143   0.958   4.688   4.320
 8068TIP3    H224144   1.043   4.763   4.218
 8069TIP3   OH224145   0.847   6.039   3.796
 8069TIP3    H124146   0.820   6.132   3.811
 8069TIP3    H224147   0.937   6.054   3.767
 8070TIP3   OH224148   1.277   6.444   5.215
 8070TIP3    H124149   1.277   6.347   5.228
 8070TIP3    H224150   1.194   6.468   5.261
 8071TIP3   OH224151   0.347   6.262   3.939
 8071TIP3    H124152   0.409   6.192   3.910
 8071TIP3    H224153   0.366   6.268   4.035
 8072TIP3   OH224154   0.395   6.309   4.216
 8072TIP3    H124155   0.334   6.311   4.292
 8072TIP3    H224156   0.476   6.278   4.260
 8073TIP3   OH224157   1.165   5.573   5.491
 8073TIP3    H124158   1.087   5.582   5.435
 8073TIP3    H224159   1.186   5.478   5.478
 8074TIP3   OH224160   0.704   4.923   5.498
 8074TIP3    H124161   0.766   4.885   5.563
 8074TIP3    H224162   0.617   4.901   5.538
 8075TIP3   OH224163   0.932   5.347   5.410
 8075TIP3    H124164   0.887   5.345   5.497
 8075TIP3    H224165   0.913   5.436   5.377
 8076TIP3   OH224166   0.590   5.472   3.968
 8076TIP3    H124167   0.564   5.449   3.876
 8076TIP3    H224168   0.665   5.532   3.953
 8077TIP3   OH224169   0.292   4.866   4.242
 8077TIP3    H124170   0.281   4.866   4.340
 8077TIP3    H224171   0.271   4.772   4.225
 8078TIP3   OH224172   0.475   5.300   4.562
 8078TIP3    H124173   0.426   5.375   4.524
 8078TIP3    H224174   0.525   5.266   4.485
 8079TIP3   OH224175   0.669   5.562   5.640
 8079TIP3    H124176   0.643   5.488   5.700
 8079TIP3    H224177   0.764   5.569   5.662
 8080TIP3   OH224178   0.626   5.319   4.799
 8080TIP3    H124179   0.566   5.347   4.726
 8080TIP3    H224180   0.662   5.239   4.756
 8081TIP3   OH224181   0.632   5.565   5.224
 8081TIP3    H124182   0.669   5.498   5.162
 8081TIP3    H224183   0.607   5.506   5.298
 8082TIP3   OH224184   0.323   5.032   4.882
 8082TIP3    H124185   0.232   5.037   4.915
 8082TIP3    H224186   0.376   5.024   4.963
 8083TIP3   OH224187   0.797   5.108   5.100
 8083TIP3    H124188   0.759   5.116   5.190
 8083TIP3    H224189   0.737   5.041   5.061
 8084TIP3   OH224190   0.973   6.790   5.315
 8084TIP3    H124191   0.969   6.814   5.221
 8084TIP3    H224192   1.049   6.842   5.347
 8085TIP3   OH224193   0.402   5.351   4.990
 8085TIP3    H124194   0.469   5.312   4.931
 8085TIP3    H224195   0.418   5.305   5.074
 8086TIP3   OH224196   0.393   5.237   5.280
 8086TIP3    H124197   0.327   5.310   5.273
 8086TIP3    H224198   0.465   5.283   5.326
 8087TIP3   OH224199   1.002   5.881   5.004
 8087TIP3    H124200   1.027   5.931   4.923
 8087TIP3    H224201   0.918   5.837   4.976
 8088TIP3   OH224202   0.553   4.962   4.228
 8088TIP3    H124203   0.458   4.944   4.243
 8088TIP3    H224204   0.566   5.051   4.266
 8089TIP3   OH224205   0.492   5.964   5.369
 8089TIP3    H124206   0.526   5.959   5.459
 8089TIP3    H224207   0.441   6.047   5.370
 8090TIP3   OH224208   0.630   5.203   4.342
 8090TIP3    H124209   0.726   5.205   4.363
 8090TIP3    H224210   0.617   5.285   4.292
 8091TIP3   OH224211   0.243   5.786   4.187
 8091TIP3    H124212   0.206   5.869   4.217
 8091TIP3    H224213   0.209   5.723   4.252
 8092TIP3   OH224214   0.452   5.691   5.739
 8092TIP3    H124215   0.399   5.618   5.704
 8092TIP3    H224216   0.540   5.667   5.702
 8093TIP3   OH224217   0.666   6.218   5.262
 8093TIP3    H124218   0.570   6.223   5.274
 8093TIP3    H224219   0.698   6.271   5.339
 8094TIP3   OH224220   1.069   5.286   4.175
 8094TIP3    H124221   1.005   5.248   4.111
 8094TIP3    H224222   1.079   5.375   4.138
 8095TIP3   OH224223   1.291   6.154   5.256
 8095TIP3    H124224   1.194   6.147   5.248
 8095TIP3    H224225   1.318   6.123   5.166
 8096TIP3   OH224226   0.760   6.135   4.052
 8096TIP3    H124227   0.749   6.097   4.142
 8096TIP3    H224228   0.774   6.055   4.000
 8097TIP3   OH224229   0.773   5.742   4.919
 8097TIP3    H124230   0.679   5.716   4.930
 8097TIP3    H224231   0.807   5.662   4.874
 8098TIP3   OH224232   0.567   5.948   5.103
 8098TIP3    H124233   0.556   5.953   5.201
 8098TIP3    H224234   0.651   5.901   5.094
 8099TIP3   OH224235   0.533   5.839   3.979
 8099TIP3    H124236   0.586   5.803   4.054
 8099TIP3    H224237   0.443   5.815   4.008
 8100TIP3   OH224238   0.805   6.478   5.152
 8100TIP3    H124239   0.725   6.421   5.146
 8100TIP3    H224240   0.786   6.544   5.082
 8101TIP3   OH224241   0.868   6.318   3.804
 8101TIP3    H124242   0.911   6.397   3.767
 8101TIP3    H224243   0.786   6.360   3.838
 8102TIP3   OH224244   0.681   5.736   4.184
 8102TIP3    H124245   0.689   5.677   4.262
 8102TIP3    H224246   0.701   5.822   4.228
 8103TIP3   OH224247   0.718   5.164   5.363
 8103TIP3    H124248   0.807   5.197   5.384
 8103TIP3    H224249   0.714   5.080   5.414
 8104TIP3   OH224250   0.608   4.907   4.523
 8104TIP3    H124251   0.593   4.931   4.431
 8104TIP3    H224252   0.647   4.988   4.561
 8105TIP3   OH224253   0.285   5.105   4.621
 8105TIP3    H124254   0.359   5.167   4.610
 8105TIP3    H224255   0.290   5.086   4.717
 8106TIP3   OH224256   0.573   5.399   5.428
 8106TIP3    H124257   0.604   5.450   5.505
 8106TIP3    H224258   0.629   5.319   5.432
 8107TIP3   OH224259   0.442   4.814   4.733
 8107TIP3    H124260   0.430   4.897   4.783
 8107TIP3    H224261   0.498   4.846   4.658
 8108TIP3   OH224262   1.202   5.309   5.405
 8108TIP3    H124263   1.104   5.306   5.412
 8108TIP3    H224264   1.213   5.249   5.330
 8109TIP3   OH224265   0.854   5.501   4.797
 8109TIP3    H124266   0.778   5.441   4.809
 8109TIP3    H224267   0.926   5.454   4.844
 8110TIP3   OH224268   0.824   6.457   4.749
 8110TIP3    H124269   0.783   6.504   4.673
 8110TIP3    H224270   0.919   6.474   4.728
 8111TIP3   OH224271   0.729   6.348   5.491
 8111TIP3    H124272   0.706   6.295   5.571
 8111TIP3    H224273   0.792   6.412   5.528
 8112TIP3   OH224274   0.495   6.065   3.814
 8112TIP3    H124275   0.531   5.998   3.875
 8112TIP3    H224276   0.553   6.056   3.736
 8113TIP3   OH224277   0.223   5.741   3.919
 8113TIP3    H124278   0.222   5.757   4.016
 8113TIP3    H224279   0.220   5.643   3.917
 8114TIP3   OH224280   0.823   5.988   5.307
 8114TIP3    H124281   0.901   6.027   5.263
 8114TIP3    H224282   0.757   6.058   5.290
 8115TIP3   OH224283   0.044   5.251   4.230
 8115TIP3    H124284   0.024   5.252   4.134
 8115TIP3    H224285   0.141   5.254   4.227
 8116TIP3   OH224286   0.693   5.915   5.712
 8116TIP3    H124287   0.763   5.884   5.652
 8116TIP3    H224288   0.695   5.846   5.781
 8117TIP3   OH224289   0.839   5.575   3.844
 8117TIP3    H124290   0.816   5.523   3.764
 8117TIP3    H224291   0.793   5.659   3.821
 8118TIP3   OH224292   0.269   5.038   5.431
 8118TIP3    H124293   0.324   5.100   5.377
 8118TIP3    H224294   0.225   5.101   5.491
 8119TIP3   OH224295   0.386   5.681   5.326
 8119TIP3    H124296   0.479   5.659   5.303
 8119TIP3    H224297   0.376   5.765   5.277
 8120TIP3   OH224298   0.922   5.584   5.755
 8120TIP3    H124299   0.966   5.499   5.771
 8120TIP3    H224300   0.993   5.635   5.714
 8121TIP3   OH224301   0.953   5.844   5.497
 8121TIP3    H124302   0.898   5.898   5.435
 8121TIP3    H224303   1.042   5.862   5.458
 8122TIP3   OH224304   0.446   4.851   5.562
 8122TIP3    H124305   0.383   4.918   5.529
 8122TIP3    H224306   0.393   4.770   5.549
 8123TIP3   OH224307   0.564   5.360   5.796
 8123TIP3    H124308   0.601   5.350   5.886
 8123TIP3    H224309   0.485   5.305   5.802
 8124TIP3   OH224310   0.813   5.304   5.650
 8124TIP3    H124311   0.739   5.290   5.711
 8124TIP3    H224312   0.888   5.266   5.700
 8125TIP3   OH224313   1.034   5.231   5.800
 8125TIP3    H124314   1.051   5.139   5.825
 8125TIP3    H224315   1.030   5.276   5.888
 8126TIP3   OH224316   0.545   4.865   5.822
 8126TIP3    H124317   0.611   4.794   5.832
 8126TIP3    H224318   0.508   4.848   5.734
 8127TIP3   OH224319   0.612   5.079   5.974
 8127TIP3    H124320   0.597   4.999   5.919
 8127TIP3    H224321   0.522   5.117   5.979
 8128TIP3   OH224322   1.078   6.547   4.706
 8128TIP3    H124323   1.106   6.579   4.794
 8128TIP3    H224324   1.143   6.588   4.647
 8129TIP3   OH224325   1.108   6.569   4.989
 8129TIP3    H124326   1.061   6.483   4.982
 8129TIP3    H224327   1.182   6.541   5.045
 8130TIP3   OH224328   1.156   6.245   5.558
 8130TIP3    H124329   1.083   6.254   5.622
 8130TIP3    H224330   1.197   6.333   5.562
 8131TIP3   OH224331   1.031   5.787   4.144
 8131TIP3    H124332   0.980   5.859   4.186
 8131TIP3    H224333   1.053   5.736   4.226
 8132TIP3   OH224334   1.090   5.625   4.372
 8132TIP3    H124335   1.023   5.585   4.433
 8132TIP3    H224336   1.154   5.663   4.436
 8133TIP3   OH224337   1.151   6.016   4.815
 8133TIP3    H124338   1.205   5.950   4.768
 8133TIP3    H224339   1.145   6.089   4.750
 8134TIP3   OH224340   0.984   6.319   5.012
 8134TIP3    H124341   0.913   6.362   5.062
 8134TIP3    H224342   0.934   6.271   4.942
 8135TIP3   OH224343   1.056   5.540   4.001
 8135TIP3    H124344   0.974   5.524   3.951
 8135TIP3    H224345   1.022   5.580   4.083
 8136TIP3   OH224346   0.903   5.210   3.973
 8136TIP3    H124347   0.851   5.231   3.894
 8136TIP3    H224348   0.885   5.114   3.979
 8137TIP3   OH224349   0.911   5.480   4.529
 8137TIP3    H124350   0.918   5.384   4.526
 8137TIP3    H224351   0.896   5.497   4.625
 8138TIP3   OH224352   1.199   5.906   5.388
 8138TIP3    H124353   1.270   5.839   5.378
 8138TIP3    H224354   1.224   5.972   5.322
 8139TIP3   OH224355   1.383   5.709   5.402
 8139TIP3    H124356   1.308   5.657   5.439
 8139TIP3    H224357   1.456   5.645   5.417
 8140TIP3   OH224358   0.846   4.945   3.972
 8140TIP3    H124359   0.927   4.913   4.017
 8140TIP3    H224360   0.780   4.878   3.995
 8141TIP3   OH224361   0.906   5.192   4.422
 8141TIP3    H124362   0.946   5.104   4.441
 8141TIP3    H224363   0.967   5.224   4.354
 8142TIP3   OH224364   1.065   5.372   4.918
 8142TIP3    H124365   1.151   5.396   4.877
 8142TIP3    H224366   1.082   5.405   5.008
 8143TIP3   OH224367   1.138   5.516   5.150
 8143TIP3    H124368   1.060   5.551   5.197
 8143TIP3    H224369   1.172   5.596   5.104
 8144TIP3   OH224370   1.597   5.116   5.705
 8144TIP3    H124371   1.652   5.046   5.665
 8144TIP3    H224372   1.565   5.164   5.626
 8145TIP3   OH224373   1.019   4.944   4.464
 8145TIP3    H124374   1.079   4.912   4.533
 8145TIP3    H224375   0.955   4.869   4.460
 8146TIP3   OH224376   1.457   5.244   5.506
 8146TIP3    H124377   1.368   5.281   5.522
 8146TIP3    H224378   1.432   5.167   5.450
 8147TIP3   OH224379   1.092   4.887   4.084
 8147TIP3    H124380   1.135   4.807   4.047
 8147TIP3    H224381   1.167   4.949   4.091
 8148TIP3   OH224382   0.654   6.401   4.360
 8148TIP3    H124383   0.713   6.395   4.282
 8148TIP3    H224384   0.698   6.470   4.412
 8149TIP3   OH224385   0.555   6.637   5.302
 8149TIP3    H124386   0.619   6.579   5.258
 8149TIP3    H224387   0.616   6.696   5.353
 8150TIP3   OH224388   1.357   5.007   5.386
 8150TIP3    H124389   1.265   4.987   5.360
 8150TIP3    H224390   1.396   4.917   5.381
 8151TIP3   OH224391   0.542   6.458   5.031
 8151TIP3    H124392   0.453   6.488   5.055
 8151TIP3    H224393   0.575   6.536   4.983
 8152TIP3   OH224394   0.762   6.649   4.940
 8152TIP3    H124395   0.742   6.730   4.888
 8152TIP3    H224396   0.782   6.584   4.869
 8153TIP3   OH224397   0.569   4.922   5.016
 8153TIP3    H124398   0.523   4.844   5.051
 8153TIP3    H224399   0.638   4.881   4.960
 8154TIP3   OH224400   1.087   4.822   4.938
 8154TIP3    H124401   1.142   4.845   4.862
 8154TIP3    H224402   0.998   4.816   4.899
 8155TIP3   OH224403   0.269   4.662   4.914
 8155TIP3    H124404   0.316   4.709   4.843
 8155TIP3    H224405   0.320   4.690   4.992
 8156TIP3   OH224406   0.794   4.808   4.885
 8156TIP3    H124407   0.806   4.762   4.801
 8156TIP3    H224408   0.785   4.732   4.947
 8157TIP3   OH224409   0.833   4.735   4.452
 8157TIP3    H124410   0.745   4.773   4.470
 8157TIP3    H224411   0.825   4.649   4.498
 8158TIP3   OH224412   0.269   4.850   4.509
 8158TIP3    H124413   0.280   4.795   4.587
 8158TIP3    H224414   0.258   4.939   4.549
 8159TIP3   OH224415   0.806   6.389   4.128
 8159TIP3    H124416   0.797   6.293   4.109
 8159TIP3    H224417   0.761   6.426   4.049
 8160TIP3   OH224418   1.030   6.522   5.318
 8160TIP3    H124419   0.953   6.491   5.267
 8160TIP3    H224420   1.011   6.618   5.321
 8161TIP3   OH224421   2.300   5.897   4.080
 8161TIP3    H124422   2.269   5.988   4.059
 8161TIP3    H224423   2.223   5.846   4.049
 8162TIP3   OH224424   2.296   5.897   4.467
 8162TIP3    H124425   2.332   5.870   4.553
 8162TIP3    H224426   2.257   5.814   4.435
 8163TIP3   OH224427   1.595   5.790   4.830
 8163TIP3    H124428   1.625   5.720   4.891
 8163TIP3    H224429   1.676   5.843   4.822
 8164TIP3   OH224430   2.542   6.200   4.146
 8164TIP3    H124431   2.527   6.129   4.210
 8164TIP3    H224432   2.573   6.273   4.201
 8165TIP3   OH224433   1.569   6.201   4.551
 8165TIP3    H124434   1.560   6.104   4.552
 8165TIP3    H224435   1.666   6.210   4.547
 8166TIP3   OH224436   1.281   5.416   4.322
 8166TIP3    H124437   1.227   5.492   4.348
 8166TIP3    H224438   1.217   5.343   4.328
 8167TIP3   OH224439   1.331   5.687   4.508
 8167TIP3    H124440   1.378   5.611   4.547
 8167TIP3    H224441   1.398   5.722   4.448
 8168TIP3   OH224442   2.193   6.662   4.163
 8168TIP3    H124443   2.236   6.590   4.111
 8168TIP3    H224444   2.184   6.619   4.249
 8169TIP3   OH224445   2.096   6.123   4.511
 8169TIP3    H124446   2.136   6.045   4.469
 8169TIP3    H224447   2.179   6.169   4.535
 8170TIP3   OH224448   3.110   5.442   4.508
 8170TIP3    H124449   3.140   5.525   4.551
 8170TIP3    H224450   3.134   5.458   4.416
 8171TIP3   OH224451   2.510   5.624   4.541
 8171TIP3    H124452   2.551   5.538   4.563
 8171TIP3    H224453   2.477   5.606   4.451
 8172TIP3   OH224454   1.850   5.284   4.506
 8172TIP3    H124455   1.827   5.356   4.444
 8172TIP3    H224456   1.802   5.209   4.464
 8173TIP3   OH224457   2.542   5.375   4.128
 8173TIP3    H124458   2.613   5.359   4.195
 8173TIP3    H224459   2.596   5.409   4.055
 8174TIP3   OH224460   1.480   5.484   4.615
 8174TIP3    H124461   1.563   5.463   4.663
 8174TIP3    H224462   1.491   5.425   4.538
 8175TIP3   OH224463   1.921   5.682   4.412
 8175TIP3    H124464   2.015   5.657   4.424
 8175TIP3    H224465   1.882   5.598   4.379
 8176TIP3   OH224466   3.185   5.651   4.678
 8176TIP3    H124467   3.100   5.696   4.659
 8176TIP3    H224468   3.197   5.674   4.771
 8177TIP3   OH224469   1.845   5.267   4.942
 8177TIP3    H124470   1.782   5.299   4.875
 8177TIP3    H224471   1.792   5.281   5.024
 8178TIP3   OH224472   2.186   6.116   3.951
 8178TIP3    H124473   2.148   6.101   3.864
 8178TIP3    H224474   2.142   6.200   3.977
 8179TIP3   OH224475   1.951   6.043   4.735
 8179TIP3    H124476   1.889   6.110   4.773
 8179TIP3    H224477   1.993   6.092   4.662
 8180TIP3   OH224478   2.749   5.379   4.304
 8180TIP3    H124479   2.737   5.331   4.387
 8180TIP3    H224480   2.802   5.456   4.332
 8181TIP3   OH224481   1.714   5.380   4.725
 8181TIP3    H124482   1.777   5.450   4.750
 8181TIP3    H224483   1.763   5.338   4.651
 8182TIP3   OH224484   1.779   6.238   4.835
 8182TIP3    H124485   1.752   6.324   4.798
 8182TIP3    H224486   1.700   6.220   4.891
 8183TIP3   OH224487   2.611   6.443   4.312
 8183TIP3    H124488   2.521   6.434   4.351
 8183TIP3    H224489   2.602   6.529   4.266
 8184TIP3   OH224490   2.904   5.343   4.675
 8184TIP3    H124491   2.816   5.370   4.643
 8184TIP3    H224492   2.963   5.375   4.604
 8185TIP3   OH224493   2.197   4.987   4.659
 8185TIP3    H124494   2.181   4.892   4.677
 8185TIP3    H224495   2.119   5.025   4.704
 8186TIP3   OH224496   2.310   6.488   3.983
 8186TIP3    H124497   2.360   6.405   3.964
 8186TIP3    H224498   2.373   6.553   3.943
 8187TIP3   OH224499   2.454   6.273   3.895
 8187TIP3    H124500   2.423   6.192   3.853
 8187TIP3    H224501   2.491   6.238   3.979
 8188TIP3   OH224502   2.838   6.355   4.655
 8188TIP3    H124503   2.826   6.277   4.596
 8188TIP3    H224504   2.821   6.429   4.593
 8189TIP3   OH224505   2.129   5.748   3.913
 8189TIP3    H124506   2.050   5.801   3.890
 8189TIP3    H224507   2.177   5.745   3.828
 8190TIP3   OH224508   2.087   5.535   3.626
 8190TIP3    H124509   2.154   5.585   3.676
 8190TIP3    H224510   2.145   5.471   3.579
 8191TIP3   OH224511   3.033   5.994   4.501
 8191TIP3    H124512   2.949   6.044   4.505
 8191TIP3    H224513   3.062   6.016   4.411
 8192TIP3   OH224514   2.477   5.831   3.883
 8192TIP3    H124515   2.423   5.854   3.962
 8192TIP3    H224516   2.561   5.805   3.926
 8193TIP3   OH224517   2.711   5.869   4.798
 8193TIP3    H124518   2.707   5.952   4.849
 8193TIP3    H224519   2.625   5.872   4.753
 8194TIP3   OH224520   1.714   5.829   4.304
 8194TIP3    H124521   1.673   5.768   4.239
 8194TIP3    H224522   1.790   5.776   4.336
 8195TIP3   OH224523   1.840   6.241   4.449
 8195TIP3    H124524   1.819   6.201   4.363
 8195TIP3    H224525   1.929   6.205   4.467
 8196TIP3   OH224526   1.843   5.800   4.656
 8196TIP3    H124527   1.878   5.774   4.568
 8196TIP3    H224528   1.888   5.885   4.674
 8197TIP3   OH224529   2.369   6.438   4.433
 8197TIP3    H124530   2.358   6.516   4.489
 8197TIP3    H224531   2.355   6.363   4.495
 8198TIP3   OH224532   1.984   6.357   4.979
 8198TIP3    H124533   1.923   6.418   5.025
 8198TIP3    H224534   1.919   6.303   4.929
 8199TIP3   OH224535   2.315   5.690   3.710
 8199TIP3    H124536   2.375   5.749   3.761
 8199TIP3    H224537   2.342   5.712   3.617
 8200TIP3   OH224538   1.738   5.913   5.082
 8200TIP3    H124539   1.742   6.000   5.126
 8200TIP3    H224540   1.644   5.891   5.093
 8201TIP3   OH224541   2.061   6.367   3.986
 8201TIP3    H124542   2.143   6.418   3.996
 8201TIP3    H224543   2.001   6.431   3.945
 8202TIP3   OH224544   1.777   6.523   5.067
 8202TIP3    H124545   1.742   6.524   4.976
 8202TIP3    H224546   1.697   6.502   5.120
 8203TIP3   OH224547   2.833   4.928   3.759
 8203TIP3    H124548   2.751   4.950   3.809
 8203TIP3    H224549   2.847   5.012   3.709
 8204TIP3   OH224550   1.581   5.672   4.114
 8204TIP3    H124551   1.521   5.716   4.052
 8204TIP3    H224552   1.543   5.584   4.125
 8205TIP3   OH224553   2.633   6.295   3.309
 8205TIP3    H124554   2.641   6.392   3.292
 8205TIP3    H224555   2.725   6.266   3.296
 8206TIP3   OH224556   1.356   6.056   5.013
 8206TIP3    H124557   1.289   6.034   4.945
 8206TIP3    H224558   1.393   5.968   5.036
 8207TIP3   OH224559   1.211   6.247   4.646
 8207TIP3    H124560   1.307   6.242   4.636
 8207TIP3    H224561   1.201   6.326   4.701
 8208TIP3   OH224562   3.063   6.704   4.691
 8208TIP3    H124563   3.082   6.611   4.711
 8208TIP3    H224564   2.984   6.721   4.746
 8209TIP3   OH224565   2.180   6.485   4.836
 8209TIP3    H124566   2.177   6.577   4.869
 8209TIP3    H224567   2.108   6.444   4.890
 8210TIP3   OH224568   1.943   6.613   3.789
 8210TIP3    H124569   1.897   6.595   3.705
 8210TIP3    H224570   1.909   6.701   3.813
 8211TIP3   OH224571   1.384   6.468   4.174
 8211TIP3    H124572   1.427   6.457   4.261
 8211TIP3    H224573   1.336   6.382   4.167
 8212TIP3   OH224574   2.142   6.515   3.427
 8212TIP3    H124575   2.201   6.445   3.391
 8212TIP3    H224576   2.178   6.525   3.518
 8213TIP3   OH224577   2.194   6.564   3.697
 8213TIP3    H124578   2.106   6.573   3.740
 8213TIP3    H224579   2.245   6.524   3.769
 8214TIP3   OH224580   2.964   5.830   4.975
 8214TIP3    H124581   2.881   5.839   4.926
 8214TIP3    H224582   2.981   5.734   4.967
 8215TIP3   OH224583   1.560   6.239   5.000
 8215TIP3    H124584   1.610   6.221   5.083
 8215TIP3    H224585   1.486   6.175   5.007
 8216TIP3   OH224586   1.957   5.060   4.784
 8216TIP3    H124587   1.869   5.027   4.757
 8216TIP3    H224588   1.929   5.139   4.835
 8217TIP3   OH224589   2.495   5.176   4.981
 8217TIP3    H124590   2.564   5.147   5.044
 8217TIP3    H224591   2.411   5.155   5.028
 8218TIP3   OH224592   2.733   5.606   4.900
 8218TIP3    H124593   2.682   5.602   4.984
 8218TIP3    H224594   2.707   5.693   4.864
 8219TIP3   OH224595   2.392   5.734   3.454
 8219TIP3    H124596   2.359   5.709   3.366
 8219TIP3    H224597   2.476   5.778   3.431
 8220TIP3   OH224598   2.104   5.110   3.757
 8220TIP3    H124599   2.072   5.106   3.849
 8220TIP3    H224600   2.066   5.027   3.723
 8221TIP3   OH224601   1.892   5.577   4.805
 8221TIP3    H124602   1.841   5.596   4.886
 8221TIP3    H224603   1.875   5.658   4.752
 8222TIP3   OH224604   1.775   5.465   4.317
 8222TIP3    H124605   1.684   5.434   4.338
 8222TIP3    H224606   1.787   5.422   4.229
 8223TIP3   OH224607   2.267   5.548   4.048
 8223TIP3    H124608   2.215   5.619   4.004
 8223TIP3    H224609   2.322   5.515   3.974
 8224TIP3   OH224610   2.441   5.826   5.133
 8224TIP3    H124611   2.419   5.753   5.195
 8224TIP3    H224612   2.536   5.839   5.154
 8225TIP3   OH224613   2.424   5.576   4.284
 8225TIP3    H124614   2.361   5.603   4.214
 8225TIP3    H224615   2.459   5.495   4.241
 8226TIP3   OH224616   1.710   5.604   5.013
 8226TIP3    H124617   1.742   5.664   5.082
 8226TIP3    H224618   1.699   5.521   5.062
 8227TIP3   OH224619   1.761   5.083   3.722
 8227TIP3    H124620   1.754   5.081   3.820
 8227TIP3    H224621   1.680   5.132   3.699
 8228TIP3   OH224622   1.322   5.161   4.557
 8228TIP3    H124623   1.374   5.165   4.640
 8228TIP3    H224624   1.337   5.070   4.529
 8229TIP3   OH224625   1.275   5.104   4.108
 8229TIP3    H124626   1.333   5.140   4.038
 8229TIP3    H224627   1.219   5.181   4.131
 8230TIP3   OH224628   2.434   5.822   4.706
 8230TIP3    H124629   2.467   5.751   4.647
 8230TIP3    H224630   2.404   5.768   4.783
 8231TIP3   OH224631   2.105   5.288   4.379
 8231TIP3    H124632   2.024   5.284   4.433
 8231TIP3    H224633   2.174   5.278   4.447
 8232TIP3   OH224634   1.541   5.341   4.386
 8232TIP3    H124635   1.446   5.344   4.361
 8232TIP3    H224636   1.563   5.247   4.374
 8233TIP3   OH224637   1.804   5.339   4.075
 8233TIP3    H124638   1.900   5.350   4.057
 8233TIP3    H224639   1.762   5.360   3.989
 8234TIP3   OH224640   2.595   5.362   4.582
 8234TIP3    H124641   2.562   5.374   4.674
 8234TIP3    H224642   2.528   5.300   4.547
 8235TIP3   OH224643   1.641   5.379   3.850
 8235TIP3    H124644   1.576   5.327   3.799
 8235TIP3    H224645   1.697   5.413   3.778
 8236TIP3   OH224646   2.766   7.049   4.799
 8236TIP3    H124647   2.760   7.071   4.704
 8236TIP3    H224648   2.817   7.124   4.834
 8237TIP3   OH224649   1.722   6.161   5.222
 8237TIP3    H124650   1.802   6.190   5.270
 8237TIP3    H224651   1.658   6.158   5.296
 8238TIP3   OH224652   2.185   5.616   4.479
 8238TIP3    H124653   2.257   5.572   4.430
 8238TIP3    H224654   2.189   5.571   4.565
 8239TIP3   OH224655   1.710   5.107   4.351
 8239TIP3    H124656   1.671   5.035   4.406
 8239TIP3    H224657   1.763   5.054   4.289
 8240TIP3   OH224658   2.163   5.515   4.761
 8240TIP3    H124659   2.072   5.546   4.780
 8240TIP3    H224660   2.219   5.573   4.815
 8241TIP3   OH224661   1.897   5.899   3.859
 8241TIP3    H124662   1.823   5.835   3.850
 8241TIP3    H224663   1.879   5.934   3.950
 8242TIP3   OH224664   2.798   6.138   4.490
 8242TIP3    H124665   2.822   6.187   4.409
 8242TIP3    H224666   2.714   6.094   4.464
 8243TIP3   OH224667   2.356   5.212   3.725
 8243TIP3    H124668   2.260   5.194   3.735
 8243TIP3    H224669   2.364   5.306   3.751
 8244TIP3   OH224670   2.301   6.221   4.858
 8244TIP3    H124671   2.325   6.196   4.948
 8244TIP3    H224672   2.259   6.308   4.868
 8245TIP3   OH224673   2.425   5.461   3.829
 8245TIP3    H124674   2.522   5.466   3.845
 8245TIP3    H224675   2.408   5.541   3.776
 8246TIP3   OH224676   1.591   5.923   4.536
 8246TIP3    H124677   1.632   5.894   4.452
 8246TIP3    H224678   1.634   5.864   4.600
 8247TIP3   OH224679   2.044   6.049   3.683
 8247TIP3    H124680   1.996   6.135   3.688
 8247TIP3    H224681   1.990   5.994   3.744
 8248TIP3   OH224682   1.473   5.844   5.151
 8248TIP3    H124683   1.492   5.828   5.246
 8248TIP3    H224684   1.405   5.776   5.133
 8249TIP3   OH224685   2.199   5.959   5.170
 8249TIP3    H124686   2.138   5.898   5.125
 8249TIP3    H224687   2.286   5.923   5.142
 8250TIP3   OH224688   2.458   6.484   4.753
 8250TIP3    H124689   2.362   6.478   4.767
 8250TIP3    H224690   2.485   6.533   4.833
 8251TIP3   OH224691   2.867   5.553   3.664
 8251TIP3    H124692   2.805   5.508   3.602
 8251TIP3    H224693   2.864   5.642   3.623
 8252TIP3   OH224694   3.090   6.409   4.743
 8252TIP3    H124695   2.992   6.405   4.735
 8252TIP3    H224696   3.115   6.380   4.653
 8253TIP3   OH224697   2.568   6.370   3.572
 8253TIP3    H124698   2.544   6.298   3.632
 8253TIP3    H224699   2.583   6.324   3.487
 8254TIP3   OH224700   2.565   6.000   4.407
 8254TIP3    H124701   2.471   5.974   4.420
 8254TIP3    H224702   2.599   5.919   4.363
 8255TIP3   OH224703   1.692   6.227   4.162
 8255TIP3    H124704   1.691   6.308   4.107
 8255TIP3    H224705   1.598   6.212   4.176
 8256TIP3   OH224706   1.825   5.991   4.103
 8256TIP3    H124707   1.792   6.080   4.123
 8256TIP3    H224708   1.795   5.941   4.181
 8257TIP3   OH224709   1.963   6.570   4.631
 8257TIP3    H124710   2.005   6.642   4.581
 8257TIP3    H224711   2.039   6.533   4.679
 8258TIP3   OH224712   1.611   6.467   4.013
 8258TIP3    H124713   1.526   6.475   4.062
 8258TIP3    H224714   1.643   6.560   4.016
 8259TIP3   OH224715   2.349   6.206   4.590
 8259TIP3    H124716   2.339   6.203   4.688
 8259TIP3    H224717   2.427   6.149   4.578
 8260TIP3   OH224718   2.326   6.099   3.475
 8260TIP3    H124719   2.381   6.074   3.553
 8260TIP3    H224720   2.239   6.071   3.505
 8261TIP3   OH224721   2.598   6.738   4.643
 8261TIP3    H124722   2.520   6.679   4.637
 8261TIP3    H224723   2.581   6.800   4.568
 8262TIP3   OH224724   2.664   6.571   3.292
 8262TIP3    H124725   2.703   6.643   3.240
 8262TIP3    H224726   2.584   6.617   3.325
 8263TIP3   OH224727   1.682   5.350   5.157
 8263TIP3    H124728   1.585   5.349   5.167
 8263TIP3    H224729   1.710   5.288   5.226
 8264TIP3   OH224730   2.487   6.033   3.691
 8264TIP3    H124731   2.476   5.965   3.761
 8264TIP3    H224732   2.584   6.029   3.677
 8265TIP3   OH224733   1.401   6.432   4.790
 8265TIP3    H124734   1.453   6.357   4.823
 8265TIP3    H224735   1.429   6.502   4.850
 8266TIP3   OH224736   1.689   6.079   3.474
 8266TIP3    H124737   1.704   5.986   3.447
 8266TIP3    H224738   1.669   6.068   3.569
 8267TIP3   OH224739   1.634   6.081   3.745
 8267TIP3    H124740   1.708   6.056   3.803
 8267TIP3    H224741   1.635   6.179   3.753
 8268TIP3   OH224742   2.521   5.413   4.842
 8268TIP3    H124743   2.603   5.450   4.881
 8268TIP3    H224744   2.508   5.332   4.896
 8269TIP3   OH224745   2.403   5.163   4.008
 8269TIP3    H124746   2.390   5.186   3.914
 8269TIP3    H224747   2.442   5.245   4.044
 8270TIP3   OH224748   1.901   6.279   3.693
 8270TIP3    H124749   1.814   6.304   3.730
 8270TIP3    H224750   1.918   6.353   3.634
 8271TIP3   OH224751   2.086   5.346   4.109
 8271TIP3    H124752   2.152   5.417   4.093
 8271TIP3    H224753   2.093   5.336   4.207
 8272TIP3   OH224754   2.361   5.662   4.914
 8272TIP3    H124755   2.384   5.713   4.995
 8272TIP3    H224756   2.413   5.581   4.925
 8273TIP3   OH224757   2.234   5.068   4.210
 8273TIP3    H124758   2.230   5.144   4.270
 8273TIP3    H224759   2.295   5.102   4.141
 8274TIP3   OH224760   1.645   6.355   3.762
 8274TIP3    H124761   1.616   6.426   3.700
 8274TIP3    H224762   1.630   6.397   3.849
 8275TIP3   OH224763   1.747   5.071   3.997
 8275TIP3    H124764   1.745   5.157   4.043
 8275TIP3    H224765   1.842   5.050   4.007
 8276TIP3   OH224766   2.999   5.563   4.896
 8276TIP3    H124767   2.901   5.563   4.904
 8276TIP3    H224768   3.009   5.515   4.813
 8277TIP3   OH224769   2.650   5.757   4.285
 8277TIP3    H124770   2.574   5.697   4.297
 8277TIP3    H224771   2.722   5.710   4.333
 8278TIP3   OH224772   1.340   5.978   3.748
 8278TIP3    H124773   1.404   6.047   3.772
 8278TIP3    H224774   1.397   5.920   3.694
 8279TIP3   OH224775   1.302   5.269   3.868
 8279TIP3    H124776   1.287   5.350   3.917
 8279TIP3    H224777   1.217   5.224   3.865
 8280TIP3   OH224778   2.618   6.715   4.233
 8280TIP3    H124779   2.576   6.762   4.158
 8280TIP3    H224780   2.713   6.734   4.213
 8281TIP3   OH224781   1.691   4.984   4.759
 8281TIP3    H124782   1.658   4.943   4.677
 8281TIP3    H224783   1.680   4.909   4.822
 8282TIP3   OH224784   1.251   6.229   4.146
 8282TIP3    H124785   1.175   6.224   4.207
 8282TIP3    H224786   1.206   6.246   4.060
 8283TIP3   OH224787   1.392   6.744   5.213
 8283TIP3    H124788   1.479   6.743   5.259
 8283TIP3    H224789   1.372   6.649   5.211
 8284TIP3   OH224790   1.871   6.705   5.257
 8284TIP3    H124791   1.965   6.684   5.264
 8284TIP3    H224792   1.845   6.644   5.184
 8285TIP3   OH224793   1.853   6.281   3.384
 8285TIP3    H124794   1.798   6.209   3.422
 8285TIP3    H224795   1.929   6.230   3.351
 8286TIP3   OH224796   2.510   6.613   4.991
 8286TIP3    H124797   2.502   6.542   5.059
 8286TIP3    H224798   2.588   6.663   5.023
 8287TIP3   OH224799   2.288   6.320   3.297
 8287TIP3    H124800   2.333   6.257   3.357
 8287TIP3    H224801   2.345   6.318   3.218
 8288TIP3   OH224802   1.521   6.148   5.414
 8288TIP3    H124803   1.538   6.052   5.418
 8288TIP3    H224804   1.434   6.150   5.367
 8289TIP3   OH224805   1.497   5.793   3.611
 8289TIP3    H124806   1.557   5.769   3.684
 8289TIP3    H224807   1.563   5.800   3.538
 8290TIP3   OH224808   2.128   6.234   5.187
 8290TIP3    H124809   2.087   6.251   5.100
 8290TIP3    H224810   2.159   6.142   5.179
 8291TIP3   OH224811   2.009   5.996   3.414
 8291TIP3    H124812   2.013   6.009   3.511
 8291TIP3    H224813   2.011   5.898   3.409
 8292TIP3   OH224814   2.622   6.244   4.794
 8292TIP3    H124815   2.697   6.288   4.750
 8292TIP3    H224816   2.551   6.308   4.778
 8293TIP3   OH224817   1.641   5.885   5.395
 8293TIP3    H124818   1.715   5.829   5.370
 8293TIP3    H224819   1.669   5.916   5.484
 8294TIP3   OH224820   1.699   5.700   3.828
 8294TIP3    H124821   1.691   5.655   3.913
 8294TIP3    H224822   1.739   5.631   3.772
 8295TIP3   OH224823   1.975   5.768   5.058
 8295TIP3    H124824   1.897   5.827   5.057
 8295TIP3    H224825   2.027   5.801   4.981
 8296TIP3   OH224826   1.809   5.500   3.670
 8296TIP3    H124827   1.784   5.503   3.575
 8296TIP3    H224828   1.907   5.501   3.663
 8297TIP3   OH224829   2.494   6.170   5.190
 8297TIP3    H124830   2.572   6.138   5.142
 8297TIP3    H224831   2.488   6.104   5.262
 8298TIP3   OH224832   2.626   5.826   3.335
 8298TIP3    H124833   2.608   5.781   3.250
 8298TIP3    H224834   2.594   5.916   3.312
 8299TIP3   OH224835   2.099   5.556   5.183
 8299TIP3    H124836   2.100   5.476   5.126
 8299TIP3    H224837   2.055   5.622   5.124
 8300TIP3   OH224838   2.103   5.344   4.991
 8300TIP3    H124839   2.130   5.381   4.905
 8300TIP3    H224840   2.010   5.319   4.972
 8301TIP3   OH224841   2.126   5.877   4.865
 8301TIP3    H124842   2.211   5.884   4.819
 8301TIP3    H224843   2.071   5.942   4.817
 8302TIP3   OH224844   2.709   5.843   5.243
 8302TIP3    H124845   2.754   5.758   5.259
 8302TIP3    H224846   2.780   5.897   5.207
 8303TIP3   OH224847   2.751   6.098   4.982
 8303TIP3    H124848   2.694   6.152   4.922
 8303TIP3    H224849   2.839   6.117   4.942
 8304TIP3   OH224850   1.976   5.665   5.414
 8304TIP3    H124851   1.910   5.595   5.429
 8304TIP3    H224852   2.011   5.640   5.327
 8305TIP3   OH224853   2.233   5.104   5.058
 8305TIP3    H124854   2.183   5.186   5.036
 8305TIP3    H224855   2.164   5.036   5.047
 8306TIP3   OH224856   2.359   5.609   5.274
 8306TIP3    H124857   2.347   5.593   5.370
 8306TIP3    H224858   2.270   5.584   5.242
 8307TIP3   OH224859   2.599   5.560   5.129
 8307TIP3    H124860   2.524   5.559   5.192
 8307TIP3    H224861   2.673   5.528   5.185
 8308TIP3   OH224862   2.828   5.500   5.277
 8308TIP3    H124863   2.841   5.404   5.295
 8308TIP3    H224864   2.824   5.537   5.368
 8309TIP3   OH224865   1.817   5.446   5.469
 8309TIP3    H124866   1.819   5.354   5.435
 8309TIP3    H224867   1.856   5.432   5.558
 8310TIP3   OH224868   2.328   5.116   5.316
 8310TIP3    H124869   2.395   5.044   5.310
 8310TIP3    H224870   2.287   5.109   5.227
 8311TIP3   OH224871   2.396   5.331   5.473
 8311TIP3    H124872   2.374   5.258   5.410
 8311TIP3    H224873   2.316   5.387   5.467
 8312TIP3   OH224874   1.616   6.559   3.574
 8312TIP3    H124875   1.711   6.550   3.556
 8312TIP3    H224876   1.589   6.610   3.496
 8313TIP3   OH224877   1.013   6.553   4.203
 8313TIP3    H124878   0.943   6.493   4.170
 8313TIP3    H224879   1.056   6.496   4.271
 8314TIP3   OH224880   1.140   6.406   4.396
 8314TIP3    H124881   1.128   6.331   4.456
 8314TIP3    H224882   1.196   6.464   4.451
 8315TIP3   OH224883   2.873   6.806   4.194
 8315TIP3    H124884   2.906   6.837   4.280
 8315TIP3    H224885   2.938   6.841   4.132
 8316TIP3   OH224886   2.907   6.822   4.479
 8316TIP3    H124887   2.858   6.737   4.470
 8316TIP3    H224888   2.978   6.792   4.539
 8317TIP3   OH224889   2.947   6.500   5.047
 8317TIP3    H124890   2.874   6.507   5.112
 8317TIP3    H224891   2.985   6.590   5.051
 8318TIP3   OH224892   2.764   6.013   3.666
 8318TIP3    H124893   2.832   6.077   3.635
 8318TIP3    H224894   2.809   5.975   3.745
 8319TIP3   OH224895   2.892   5.881   3.870
 8319TIP3    H124896   2.826   5.839   3.929
 8319TIP3    H224897   2.958   5.917   3.933
 8320TIP3   OH224898   2.949   6.274   4.302
 8320TIP3    H124899   3.001   6.206   4.256
 8320TIP3    H224900   2.943   6.346   4.236
 8321TIP3   OH224901   2.776   6.574   4.495
 8321TIP3    H124902   2.704   6.614   4.546
 8321TIP3    H224903   2.727   6.526   4.424
 8322TIP3   OH224904   2.830   5.789   3.516
 8322TIP3    H124905   2.758   5.791   3.448
 8322TIP3    H224906   2.802   5.865   3.571
 8323TIP3   OH224907   2.699   5.462   3.471
 8323TIP3    H124908   2.658   5.497   3.391
 8323TIP3    H224909   2.676   5.367   3.463
 8324TIP3   OH224910   2.705   5.738   4.015
 8324TIP3    H124911   2.714   5.642   4.008
 8324TIP3    H224912   2.691   5.751   4.112
 8325TIP3   OH224913   1.331   5.811   4.763
 8325TIP3    H124914   1.329   5.778   4.671
 8325TIP3    H224915   1.428   5.812   4.780
 8326TIP3   OH224916   2.996   6.162   4.874
 8326TIP3    H124917   3.067   6.095   4.864
 8326TIP3    H224918   3.022   6.229   4.808
 8327TIP3   OH224919   3.181   5.966   4.887
 8327TIP3    H124920   3.106   5.916   4.925
 8327TIP3    H224921   3.253   5.902   4.902
 8328TIP3   OH224922   2.645   5.196   3.454
 8328TIP3    H124923   2.719   5.164   3.509
 8328TIP3    H224924   2.572   5.136   3.478
 8329TIP3   OH224925   2.702   5.454   3.908
 8329TIP3    H124926   2.743   5.365   3.924
 8329TIP3    H224927   2.761   5.487   3.838
 8330TIP3   OH224928   2.863   5.626   4.405
 8330TIP3    H124929   2.949   5.651   4.364
 8330TIP3    H224930   2.877   5.663   4.494
 8331TIP3   OH224931   2.934   5.772   4.636
 8331TIP3    H124932   2.856   5.805   4.685
 8331TIP3    H224933   2.966   5.853   4.592
 8332TIP3   OH224934   1.551   5.500   5.447
 8332TIP3    H124935   1.649   5.491   5.444
 8332TIP3    H224936   1.527   5.411   5.479
 8333TIP3   OH224937   3.384   5.364   5.192
 8333TIP3    H124938   3.444   5.298   5.151
 8333TIP3    H224939   3.355   5.417   5.115
 8334TIP3   OH224940   2.810   5.205   3.948
 8334TIP3    H124941   2.859   5.188   4.031
 8334TIP3    H224942   2.750   5.128   3.947
 8335TIP3   OH224943   1.502   5.190   4.781
 8335TIP3    H124944   1.559   5.110   4.782
 8335TIP3    H224945   1.570   5.258   4.764
 8336TIP3   OH224946   1.309   5.466   4.837
 8336TIP3    H124947   1.360   5.452   4.755
 8336TIP3    H224948   1.349   5.546   4.872
 8337TIP3   OH224949   3.254   5.501   4.995
 8337TIP3    H124950   3.168   5.542   5.016
 8337TIP3    H224951   3.224   5.427   4.939
 8338TIP3   OH224952   2.890   5.137   3.581
 8338TIP3    H124953   2.930   5.066   3.528
 8338TIP3    H224954   2.958   5.207   3.578
 8339TIP3   OH224955   1.293   4.955   4.334
 8339TIP3    H124956   1.202   4.959   4.367
 8339TIP3    H224957   1.293   5.020   4.262
 8340TIP3   OH224958   2.456   6.673   3.848
 8340TIP3    H124959   2.506   6.658   3.765
 8340TIP3    H224960   2.513   6.736   3.894
 8341TIP3   OH224961   1.521   5.055   5.160
 8341TIP3    H124962   1.466   5.041   5.238
 8341TIP3    H224963   1.454   5.083   5.094
 8342TIP3   OH224964   1.556   6.478   5.232
 8342TIP3    H124965   1.464   6.450   5.215
 8342TIP3    H224966   1.568   6.454   5.324
 8343TIP3   OH224967   1.736   6.509   4.781
 8343TIP3    H124968   1.688   6.585   4.741
 8343TIP3    H224969   1.822   6.522   4.736
 8344TIP3   OH224970   2.178   6.752   4.918
 8344TIP3    H124971   2.221   6.750   5.007
 8344TIP3    H224972   2.244   6.802   4.867
 8345TIP3   OH224973   2.357   6.905   4.778
 8345TIP3    H124974   2.426   6.852   4.735
 8345TIP3    H224975   2.410   6.960   4.839
 8346TIP3   OH224976   3.154   5.263   4.877
 8346TIP3    H124977   3.063   5.252   4.844
 8346TIP3    H224978   3.188   5.171   4.867
 8347TIP3   OH224979   1.412   6.766   4.803
 8347TIP3    H124980   1.321   6.798   4.781
 8347TIP3    H224981   1.422   6.803   4.892
 8348TIP3   OH224982   1.649   6.744   4.663
 8348TIP3    H124983   1.561   6.756   4.707
 8348TIP3    H224984   1.629   6.774   4.572
 8349TIP3   OH224985   2.074   6.770   4.461
 8349TIP3    H124986   2.004   6.789   4.395
 8349TIP3    H224987   2.085   6.858   4.502
 8350TIP3   OH224988   2.343   6.711   4.514
 8350TIP3    H124989   2.249   6.727   4.493
 8350TIP3    H224990   2.386   6.784   4.468
 8351TIP3   OH224991   2.551   6.902   4.426
 8351TIP3    H124992   2.536   6.985   4.377
 8351TIP3    H224993   2.577   6.840   4.353
 8352TIP3   OH224994   1.324   6.558   4.550
 8352TIP3    H124995   1.351   6.530   4.640
 8352TIP3    H224996   1.395   6.514   4.498
 8353TIP3   OH224997   1.518   6.430   4.409
 8353TIP3    H124998   1.533   6.345   4.457
 8353TIP3    H224999   1.610   6.465   4.404
 8354TIP3   OH225000   1.786   6.523   4.411
 8354TIP3    H125001   1.815   6.430   4.400
 8354TIP3    H225002   1.832   6.544   4.494
 8355TIP3   OH225003   2.356   5.178   4.494
 8355TIP3    H125004   2.314   5.108   4.549
 8355TIP3    H225005   2.431   5.131   4.454
 8356TIP3   OH225006   2.879   5.061   4.399
 8356TIP3    H125007   2.915   5.113   4.323
 8356TIP3    H225008   2.784   5.080   4.393
 8357TIP3   OH225009   2.976   5.160   4.163
 8357TIP3    H125010   3.050   5.108   4.126
 8357TIP3    H225011   3.010   5.251   4.149
 8358TIP3   OH225012   1.628   4.899   4.495
 8358TIP3    H125013   1.543   4.865   4.532
 8358TIP3    H225014   1.677   4.815   4.492
 8359TIP3   OH225015   1.370   4.762   4.147
 8359TIP3    H125016   1.419   4.821   4.087
 8359TIP3    H225017   1.359   4.818   4.226
 8360TIP3   OH225018   2.051   4.920   4.390
 8360TIP3    H125019   2.113   4.969   4.333
 8360TIP3    H225020   2.070   4.957   4.477
 8361TIP3   OH225021   2.595   5.069   4.376
 8361TIP3    H125022   2.595   5.027   4.289
 8361TIP3    H225023   2.585   4.990   4.435
 8362TIP3   OH225024   2.628   4.991   3.940
 8362TIP3    H125025   2.541   5.033   3.955
 8362TIP3    H225026   2.614   4.905   3.985
 8363TIP3   OH225027   1.109   6.319   3.934
 8363TIP3    H125028   1.019   6.299   3.902
 8363TIP3    H225029   1.105   6.416   3.936
 8364TIP3   OH225030   1.515   4.926   3.917
 8364TIP3    H125031   1.560   4.856   3.866
 8364TIP3    H225032   1.591   4.974   3.956
 8365TIP3   OH225033   2.024   5.094   4.021
 8365TIP3    H125034   2.081   5.045   4.083
 8365TIP3    H225035   2.047   5.186   4.048
 8366TIP3   OH225036   1.883   6.516   3.523
 8366TIP3    H125037   1.972   6.538   3.487
 8366TIP3    H225038   1.861   6.441   3.462
 8367TIP3   OH225039   2.601   6.636   3.616
 8367TIP3    H125040   2.594   6.539   3.604
 8367TIP3    H225041   2.557   6.668   3.535
 8368TIP3   OH225042   1.813   5.174   5.409
 8368TIP3    H125043   1.779   5.100   5.461
 8368TIP3    H225044   1.908   5.171   5.434
 8369TIP3   OH225045   2.065   5.168   5.524
 8369TIP3    H125046   2.149   5.139   5.485
 8369TIP3    H225047   2.051   5.097   5.591
 8370TIP3   OH225048   1.186   6.351   3.578
 8370TIP3    H125049   1.190   6.371   3.672
 8370TIP3    H225050   1.274   6.310   3.562
 8371TIP3   OH225051   2.891   5.229   5.310
 8371TIP3    H125052   2.908   5.198   5.401
 8371TIP3    H225053   2.980   5.223   5.269
 8372TIP3   OH225054   2.822   6.778   4.810
 8372TIP3    H125055   2.747   6.746   4.755
 8372TIP3    H225056   2.803   6.874   4.809
 8373TIP3   OH225057   4.095   6.151   3.568
 8373TIP3    H125058   4.065   6.243   3.548
 8373TIP3    H225059   4.018   6.102   3.534
 8374TIP3   OH225060   4.092   6.154   3.953
 8374TIP3    H125061   4.127   6.127   4.040
 8374TIP3    H225062   4.053   6.072   3.920
 8375TIP3   OH225063   3.391   6.047   4.318
 8375TIP3    H125064   3.421   5.978   4.380
 8375TIP3    H225065   3.474   6.095   4.302
 8376TIP3   OH225066   4.337   6.455   3.633
 8376TIP3    H125067   4.326   6.387   3.701
 8376TIP3    H225068   4.372   6.530   3.684
 8377TIP3   OH225069   3.367   6.459   4.042
 8377TIP3    H125070   3.358   6.361   4.042
 8377TIP3    H225071   3.464   6.466   4.028
 8378TIP3   OH225072   3.071   5.659   3.822
 8378TIP3    H125073   3.023   5.742   3.838
 8378TIP3    H225074   3.000   5.606   3.781
 8379TIP3   OH225075   3.129   5.947   3.999
 8379TIP3    H125076   3.178   5.869   4.033
 8379TIP3    H225077   3.190   5.979   3.931
 8380TIP3   OH225078   3.989   6.916   3.651
 8380TIP3    H125079   4.030   6.847   3.595
 8380TIP3    H225080   3.987   6.872   3.737
 8381TIP3   OH225081   3.891   6.380   4.000
 8381TIP3    H125082   3.932   6.303   3.956
 8381TIP3    H225083   3.974   6.426   4.023
 8382TIP3   OH225084   4.907   5.698   3.996
 8382TIP3    H125085   4.936   5.781   4.040
 8382TIP3    H225086   4.929   5.718   3.903
 8383TIP3   OH225087   4.304   5.880   4.029
 8383TIP3    H125088   4.347   5.795   4.050
 8383TIP3    H225089   4.273   5.862   3.938
 8384TIP3   OH225090   3.644   5.540   3.995
 8384TIP3    H125091   3.625   5.612   3.931
 8384TIP3    H225092   3.596   5.466   3.951
 8385TIP3   OH225093   4.339   5.631   3.616
 8385TIP3    H125094   4.410   5.616   3.682
 8385TIP3    H225095   4.392   5.666   3.542
 8386TIP3   OH225096   3.277   5.741   4.102
 8386TIP3    H125097   3.360   5.721   4.150
 8386TIP3    H225098   3.291   5.685   4.022
 8387TIP3   OH225099   3.716   5.938   3.900
 8387TIP3    H125100   3.810   5.915   3.910
 8387TIP3    H225101   3.678   5.855   3.866
 8388TIP3   OH225102   4.980   5.906   4.166
 8388TIP3    H125103   4.896   5.953   4.148
 8388TIP3    H225104   4.999   5.937   4.256
 8389TIP3   OH225105   3.640   5.523   4.429
 8389TIP3    H125106   3.580   5.559   4.362
 8389TIP3    H225107   3.587   5.540   4.510
 8390TIP3   OH225108   3.978   6.369   3.440
 8390TIP3    H125109   3.945   6.359   3.350
 8390TIP3    H225110   3.937   6.454   3.466
 8391TIP3   OH225111   3.746   6.299   4.222
 8391TIP3    H125112   3.686   6.367   4.259
 8391TIP3    H225113   3.790   6.347   4.149
 8392TIP3   OH225114   4.546   5.635   3.792
 8392TIP3    H125115   4.532   5.590   3.876
 8392TIP3    H225116   4.598   5.713   3.818
 8393TIP3   OH225117   3.511   5.638   4.213
 8393TIP3    H125118   3.573   5.710   4.237
 8393TIP3    H225119   3.560   5.597   4.138
 8394TIP3   OH225120   3.574   6.495   4.325
 8394TIP3    H125121   3.548   6.577   4.280
 8394TIP3    H225122   3.495   6.478   4.380
 8395TIP3   OH225123   2.966   6.183   3.558
 8395TIP3    H125124   2.927   6.210   3.472
 8395TIP3    H225125   2.999   6.268   3.593
 8396TIP3   OH225126   4.405   6.699   3.799
 8396TIP3    H125127   4.314   6.692   3.835
 8396TIP3    H225128   4.400   6.785   3.752
 8397TIP3   OH225129   4.700   5.597   4.160
 8397TIP3    H125130   4.613   5.627   4.130
 8397TIP3    H225131   4.760   5.631   4.091
 8398TIP3   OH225132   3.993   5.239   4.143
 8398TIP3    H125133   3.981   5.144   4.164
 8398TIP3    H225134   3.916   5.277   4.191
 8399TIP3   OH225135   4.104   6.746   3.467
 8399TIP3    H125136   4.154   6.663   3.448
 8399TIP3    H225137   4.167   6.811   3.429
 8400TIP3   OH225138   4.246   6.529   3.383
 8400TIP3    H125139   4.223   6.447   3.336
 8400TIP3    H225140   4.284   6.494   3.467
 8401TIP3   OH225141   4.630   6.609   4.143
 8401TIP3    H125142   4.620   6.532   4.082
 8401TIP3    H225143   4.613   6.684   4.081
 8402TIP3   OH225144   3.925   6.004   3.400
 8402TIP3    H125145   3.846   6.058   3.379
 8402TIP3    H225146   3.972   6.003   3.315
 8403TIP3   OH225147   3.883   5.790   3.114
 8403TIP3    H125148   3.950   5.842   3.163
 8403TIP3    H225149   3.942   5.728   3.066
 8404TIP3   OH225150   4.828   6.248   3.988
 8404TIP3    H125151   4.745   6.300   3.992
 8404TIP3    H225152   4.859   6.273   3.898
 8405TIP3   OH225153   4.273   6.086   3.370
 8405TIP3    H125154   4.219   6.111   3.449
 8405TIP3    H225155   4.357   6.062   3.414
 8406TIP3   OH225156   4.507   6.124   4.286
 8406TIP3    H125157   4.506   6.207   4.337
 8406TIP3    H225158   4.422   6.131   4.239
 8407TIP3   OH225159   3.505   6.084   3.790
 8407TIP3    H125160   3.464   6.026   3.722
 8407TIP3    H225161   3.581   6.031   3.819
 8408TIP3   OH225162   3.632   6.493   3.938
 8408TIP3    H125163   3.614   6.459   3.849
 8408TIP3    H225164   3.722   6.458   3.955
 8409TIP3   OH225165   3.636   6.057   4.144
 8409TIP3    H125166   3.671   6.031   4.056
 8409TIP3    H225167   3.684   6.141   4.161
 8410TIP3   OH225168   4.161   6.696   3.918
 8410TIP3    H125169   4.154   6.774   3.975
 8410TIP3    H225170   4.150   6.622   3.981
 8411TIP3   OH225171   3.781   6.615   4.464
 8411TIP3    H125172   3.720   6.673   4.513
 8411TIP3    H225173   3.718   6.559   4.414
 8412TIP3   OH225174   4.112   5.946   3.197
 8412TIP3    H125175   4.171   6.006   3.248
 8412TIP3    H225176   4.138   5.967   3.104
 8413TIP3   OH225177   3.535   6.170   4.570
 8413TIP3    H125178   3.537   6.256   4.615
 8413TIP3    H225179   3.440   6.147   4.579
 8414TIP3   OH225180   3.856   6.626   3.476
 8414TIP3    H125181   3.940   6.674   3.482
 8414TIP3    H225182   3.799   6.689   3.431
 8415TIP3   OH225183   3.557   6.776   4.542
 8415TIP3    H125184   3.554   6.790   4.445
 8415TIP3    H225185   3.485   6.712   4.552
 8416TIP3   OH225186   4.629   5.185   3.246
 8416TIP3    H125187   4.547   5.206   3.296
 8416TIP3    H225188   4.643   5.268   3.196
 8417TIP3   OH225189   3.371   5.928   3.594
 8417TIP3    H125190   3.304   5.971   3.537
 8417TIP3    H225191   3.334   5.840   3.604
 8418TIP3   OH225192   4.429   6.553   2.794
 8418TIP3    H125193   4.437   6.650   2.780
 8418TIP3    H225194   4.523   6.525   2.782
 8419TIP3   OH225195   3.157   6.316   4.497
 8419TIP3    H125196   3.089   6.293   4.431
 8419TIP3    H225197   3.193   6.229   4.523
 8420TIP3   OH225198   3.006   6.504   4.131
 8420TIP3    H125199   3.102   6.495   4.119
 8420TIP3    H225200   3.000   6.582   4.188
 8421TIP3   OH225201   4.872   6.955   4.191
 8421TIP3    H125202   4.870   6.858   4.201
 8421TIP3    H225203   4.785   6.979   4.231
 8422TIP3   OH225204   3.978   6.744   4.322
 8422TIP3    H125205   3.974   6.836   4.355
 8422TIP3    H225206   3.907   6.701   4.376
 8423TIP3   OH225207   3.737   6.867   3.277
 8423TIP3    H125208   3.695   6.850   3.191
 8423TIP3    H225209   3.706   6.956   3.299
 8424TIP3   OH225210   3.175   6.719   3.661
 8424TIP3    H125211   3.223   6.709   3.746
 8424TIP3    H225212   3.124   6.635   3.659
 8425TIP3   OH225213   3.938   6.771   2.914
 8425TIP3    H125214   3.997   6.701   2.877
 8425TIP3    H225215   3.975   6.782   3.004
 8426TIP3   OH225216   3.990   6.821   3.184
 8426TIP3    H125217   3.903   6.828   3.229
 8426TIP3    H225218   4.044   6.783   3.255
 8427TIP3   OH225219   4.760   6.085   4.464
 8427TIP3    H125220   4.678   6.095   4.414
 8427TIP3    H225221   4.776   5.989   4.456
 8428TIP3   OH225222   3.359   6.505   4.498
 8428TIP3    H125223   3.409   6.473   4.576
 8428TIP3    H225224   3.283   6.442   4.496
 8429TIP3   OH225225   3.755   5.318   4.273
 8429TIP3    H125226   3.666   5.288   4.245
 8429TIP3    H225227   3.730   5.399   4.321
 8430TIP3   OH225228   4.292   5.432   4.468
 8430TIP3    H125229   4.361   5.404   4.531
 8430TIP3    H225230   4.208   5.412   4.515
 8431TIP3   OH225231   4.526   5.861   4.384
 8431TIP3    H125232   4.478   5.858   4.470
 8431TIP3    H225233   4.505   5.949   4.350
 8432TIP3   OH225234   4.189   5.988   2.941
 8432TIP3    H125235   4.155   5.965   2.853
 8432TIP3    H225236   4.270   6.036   2.918
 8433TIP3   OH225237   3.901   5.366   3.245
 8433TIP3    H125238   3.867   5.362   3.336
 8433TIP3    H225239   3.862   5.283   3.210
 8434TIP3   OH225240   3.688   5.834   4.291
 8434TIP3    H125241   3.639   5.855   4.373
 8434TIP3    H225242   3.672   5.915   4.238
 8435TIP3   OH225243   3.572   5.720   3.805
 8435TIP3    H125244   3.479   5.693   3.823
 8435TIP3    H225245   3.585   5.679   3.717
 8436TIP3   OH225246   4.062   5.804   3.534
 8436TIP3    H125247   4.011   5.876   3.490
 8436TIP3    H225248   4.118   5.772   3.460
 8437TIP3   OH225249   4.237   6.082   4.618
 8437TIP3    H125250   4.216   6.009   4.681
 8437TIP3    H225251   4.331   6.097   4.641
 8438TIP3   OH225252   4.218   5.832   3.772
 8438TIP3    H125253   4.158   5.862   3.701
 8438TIP3    H225254   4.253   5.752   3.727
 8439TIP3   OH225255   3.506   5.862   4.500
 8439TIP3    H125256   3.543   5.921   4.567
 8439TIP3    H225257   3.495   5.779   4.551
 8440TIP3   OH225258   3.557   5.340   3.210
 8440TIP3    H125259   3.548   5.338   3.307
 8440TIP3    H225260   3.479   5.393   3.185
 8441TIP3   OH225261   3.101   5.383   4.081
 8441TIP3    H125262   3.176   5.416   4.135
 8441TIP3    H225263   3.143   5.352   4.000
 8442TIP3   OH225264   3.068   5.364   3.600
 8442TIP3    H125265   3.114   5.401   3.522
 8442TIP3    H225266   3.008   5.438   3.620
 8443TIP3   OH225267   4.226   6.078   4.194
 8443TIP3    H125268   4.261   6.007   4.135
 8443TIP3    H225269   4.199   6.024   4.271
 8444TIP3   OH225270   3.901   5.542   3.866
 8444TIP3    H125271   3.821   5.540   3.921
 8444TIP3    H225272   3.972   5.536   3.933
 8445TIP3   OH225273   3.334   5.598   3.874
 8445TIP3    H125274   3.239   5.604   3.846
 8445TIP3    H225275   3.358   5.506   3.851
 8446TIP3   OH225276   3.600   5.593   3.564
 8446TIP3    H125277   3.695   5.608   3.543
 8446TIP3    H225278   3.554   5.615   3.480
 8447TIP3   OH225279   4.391   5.618   4.069
 8447TIP3    H125280   4.359   5.630   4.161
 8447TIP3    H225281   4.324   5.557   4.034
 8448TIP3   OH225282   3.447   5.628   3.340
 8448TIP3    H125283   3.376   5.583   3.291
 8448TIP3    H225284   3.499   5.666   3.266
 8449TIP3   OH225285   4.564   7.302   4.289
 8449TIP3    H125286   4.561   7.326   4.194
 8449TIP3    H225287   4.645   7.350   4.317
 8450TIP3   OH225288   3.518   6.422   4.712
 8450TIP3    H125289   3.599   6.442   4.761
 8450TIP3    H225290   3.454   6.411   4.786
 8451TIP3   OH225291   3.981   5.870   3.963
 8451TIP3    H125292   4.055   5.832   3.913
 8451TIP3    H225293   3.990   5.826   4.050
 8452TIP3   OH225294   3.502   5.357   3.845
 8452TIP3    H125295   3.468   5.279   3.893
 8452TIP3    H225296   3.553   5.316   3.774
 8453TIP3   OH225297   3.959   5.768   4.253
 8453TIP3    H125298   3.869   5.804   4.268
 8453TIP3    H225299   4.016   5.829   4.304
 8454TIP3   OH225300   3.694   6.157   3.347
 8454TIP3    H125301   3.622   6.092   3.337
 8454TIP3    H225302   3.675   6.191   3.438
 8455TIP3   OH225303   4.593   6.392   3.979
 8455TIP3    H125304   4.621   6.441   3.899
 8455TIP3    H225305   4.509   6.351   3.950
 8456TIP3   OH225306   4.153   5.468   3.213
 8456TIP3    H125307   4.056   5.451   3.222
 8456TIP3    H225308   4.162   5.562   3.237
 8457TIP3   OH225309   4.089   6.471   4.347
 8457TIP3    H125310   4.129   6.455   4.433
 8457TIP3    H225311   4.060   6.564   4.354
 8458TIP3   OH225312   4.222   5.717   3.316
 8458TIP3    H125313   4.318   5.724   3.331
 8458TIP3    H225314   4.203   5.798   3.264
 8459TIP3   OH225315   3.388   6.181   4.023
 8459TIP3    H125316   3.425   6.153   3.937
 8459TIP3    H225317   3.433   6.121   4.084
 8460TIP3   OH225318   3.841   6.306   3.170
 8460TIP3    H125319   3.793   6.392   3.175
 8460TIP3    H225320   3.787   6.251   3.232
 8461TIP3   OH225321   3.268   6.103   4.638
 8461TIP3    H125322   3.286   6.085   4.732
 8461TIP3    H225323   3.201   6.035   4.618
 8462TIP3   OH225324   3.997   6.215   4.657
 8462TIP3    H125325   3.938   6.156   4.608
 8462TIP3    H225326   4.085   6.181   4.630
 8463TIP3   OH225327   4.253   6.732   4.244
 8463TIP3    H125328   4.157   6.735   4.254
 8463TIP3    H225329   4.282   6.786   4.321
 8464TIP3   OH225330   4.664   5.810   3.151
 8464TIP3    H125331   4.602   5.765   3.088
 8464TIP3    H225332   4.660   5.899   3.111
 8465TIP3   OH225333   4.878   6.668   4.229
 8465TIP3    H125334   4.781   6.657   4.215
 8465TIP3    H225335   4.910   6.638   4.142
 8466TIP3   OH225336   4.351   6.625   3.054
 8466TIP3    H125337   4.345   6.553   3.118
 8466TIP3    H225338   4.376   6.581   2.971
 8467TIP3   OH225339   4.360   6.256   3.895
 8467TIP3    H125340   4.266   6.231   3.907
 8467TIP3    H225341   4.394   6.176   3.850
 8468TIP3   OH225342   3.491   6.486   3.654
 8468TIP3    H125343   3.492   6.565   3.597
 8468TIP3    H225344   3.397   6.465   3.656
 8469TIP3   OH225345   3.054   5.787   3.354
 8469TIP3    H125346   3.099   5.871   3.375
 8469TIP3    H225347   2.977   5.792   3.415
 8470TIP3   OH225348   3.622   6.248   3.592
 8470TIP3    H125349   3.591   6.338   3.612
 8470TIP3    H225350   3.588   6.197   3.668
 8471TIP3   OH225351   3.760   6.827   4.117
 8471TIP3    H125352   3.802   6.899   4.066
 8471TIP3    H225353   3.838   6.789   4.162
 8472TIP3   OH225354   3.407   6.724   3.501
 8472TIP3    H125355   3.322   6.733   3.548
 8472TIP3    H225356   3.440   6.816   3.504
 8473TIP3   OH225357   4.145   6.462   4.077
 8473TIP3    H125358   4.135   6.457   4.175
 8473TIP3    H225359   4.224   6.410   4.063
 8474TIP3   OH225360   4.123   6.352   2.962
 8474TIP3    H125361   4.176   6.329   3.041
 8474TIP3    H225362   4.034   6.327   2.992
 8475TIP3   OH225363   4.395   6.996   4.129
 8475TIP3    H125364   4.315   6.941   4.119
 8475TIP3    H225365   4.382   7.061   4.056
 8476TIP3   OH225366   4.455   6.831   2.780
 8476TIP3    H125367   4.503   6.907   2.742
 8476TIP3    H225368   4.373   6.878   2.806
 8477TIP3   OH225369   3.479   5.606   4.644
 8477TIP3    H125370   3.382   5.607   4.656
 8477TIP3    H225371   3.507   5.548   4.716
 8478TIP3   OH225372   4.283   6.289   3.180
 8478TIP3    H125373   4.273   6.221   3.249
 8478TIP3    H225374   4.380   6.285   3.165
 8479TIP3   OH225375   3.194   6.689   4.273
 8479TIP3    H125376   3.247   6.613   4.303
 8479TIP3    H225377   3.222   6.757   4.335
 8480TIP3   OH225378   3.485   6.335   2.961
 8480TIP3    H125379   3.500   6.243   2.932
 8480TIP3    H225380   3.465   6.323   3.056
 8481TIP3   OH225381   3.430   6.339   3.235
 8481TIP3    H125382   3.507   6.313   3.286
 8481TIP3    H225383   3.435   6.438   3.240
 8482TIP3   OH225384   3.165   6.031   3.436
 8482TIP3    H125385   3.099   6.077   3.492
 8482TIP3    H225386   3.181   6.100   3.368
 8483TIP3   OH225387   4.317   5.669   4.328
 8483TIP3    H125388   4.398   5.709   4.366
 8483TIP3    H225389   4.305   5.589   4.383
 8484TIP3   OH225390   4.199   5.418   3.495
 8484TIP3    H125391   4.185   5.441   3.401
 8484TIP3    H225392   4.238   5.501   3.530
 8485TIP3   OH225393   3.698   6.535   3.181
 8485TIP3    H125394   3.611   6.563   3.216
 8485TIP3    H225395   3.716   6.607   3.120
 8486TIP3   OH225396   3.883   5.602   3.595
 8486TIP3    H125397   3.948   5.673   3.578
 8486TIP3    H225398   3.890   5.593   3.693
 8487TIP3   OH225399   4.156   5.917   4.402
 8487TIP3    H125400   4.181   5.969   4.481
 8487TIP3    H225401   4.210   5.837   4.413
 8488TIP3   OH225402   4.029   5.324   3.695
 8488TIP3    H125403   4.025   5.400   3.756
 8488TIP3    H225404   4.091   5.359   3.627
 8489TIP3   OH225405   3.442   6.612   3.249
 8489TIP3    H125406   3.413   6.682   3.186
 8489TIP3    H225407   3.427   6.656   3.335
 8490TIP3   OH225408   3.542   5.327   3.486
 8490TIP3    H125409   3.540   5.417   3.524
 8490TIP3    H225410   3.638   5.308   3.494
 8491TIP3   OH225411   4.794   5.819   4.384
 8491TIP3    H125412   4.696   5.817   4.390
 8491TIP3    H225413   4.807   5.778   4.298
 8492TIP3   OH225414   4.446   6.013   3.772
 8492TIP3    H125415   4.371   5.953   3.784
 8492TIP3    H225416   4.518   5.966   3.820
 8493TIP3   OH225417   3.160   6.240   3.240
 8493TIP3    H125418   3.230   6.307   3.249
 8493TIP3    H225419   3.203   6.182   3.173
 8494TIP3   OH225420   3.102   5.517   3.376
 8494TIP3    H125421   3.104   5.615   3.372
 8494TIP3    H225422   3.022   5.497   3.326
 8495TIP3   OH225423   4.417   6.972   3.721
 8495TIP3    H125424   4.374   7.019   3.647
 8495TIP3    H225425   4.511   6.991   3.700
 8496TIP3   OH225426   3.490   5.239   4.247
 8496TIP3    H125427   3.460   5.203   4.160
 8496TIP3    H225428   3.481   5.160   4.305
 8497TIP3   OH225429   3.030   6.458   3.626
 8497TIP3    H125430   2.961   6.487   3.687
 8497TIP3    H225431   3.000   6.499   3.542
 8498TIP3   OH225432   3.628   6.949   4.762
 8498TIP3    H125433   3.724   6.961   4.771
 8498TIP3    H225434   3.626   6.901   4.676
 8499TIP3   OH225435   3.650   6.538   2.872
 8499TIP3    H125436   3.595   6.465   2.909
 8499TIP3    H225437   3.726   6.488   2.836
 8500TIP3   OH225438   4.304   6.869   4.479
 8500TIP3    H125439   4.295   6.798   4.547
 8500TIP3    H225440   4.379   6.922   4.513
 8501TIP3   OH225441   4.085   6.577   2.783
 8501TIP3    H125442   4.133   6.519   2.845
 8501TIP3    H225443   4.143   6.577   2.705
 8502TIP3   OH225444   3.314   6.409   4.904
 8502TIP3    H125445   3.332   6.313   4.914
 8502TIP3    H225446   3.229   6.407   4.854
 8503TIP3   OH225447   3.294   6.053   3.095
 8503TIP3    H125448   3.352   6.022   3.168
 8503TIP3    H225449   3.360   6.058   3.023
 8504TIP3   OH225450   3.917   6.487   4.677
 8504TIP3    H125451   3.887   6.506   4.587
 8504TIP3    H225452   3.954   6.397   4.669
 8505TIP3   OH225453   3.805   6.253   2.902
 8505TIP3    H125454   3.809   6.265   2.998
 8505TIP3    H225455   3.806   6.155   2.896
 8506TIP3   OH225456   4.415   6.502   4.281
 8506TIP3    H125457   4.493   6.540   4.235
 8506TIP3    H225458   4.349   6.571   4.263
 8507TIP3   OH225459   3.439   6.146   4.880
 8507TIP3    H125460   3.510   6.085   4.857
 8507TIP3    H225461   3.466   6.173   4.970
 8508TIP3   OH225462   3.500   5.959   3.314
 8508TIP3    H125463   3.476   5.917   3.397
 8508TIP3    H225464   3.539   5.885   3.263
 8509TIP3   OH225465   3.769   6.021   4.542
 8509TIP3    H125466   3.694   6.083   4.542
 8509TIP3    H225467   3.823   6.056   4.466
 8510TIP3   OH225468   3.605   5.754   3.155
 8510TIP3    H125469   3.579   5.760   3.061
 8510TIP3    H225470   3.703   5.757   3.148
 8511TIP3   OH225471   4.288   6.425   4.676
 8511TIP3    H125472   4.370   6.399   4.632
 8511TIP3    H225473   4.285   6.361   4.750
 8512TIP3   OH225474   4.424   6.082   2.822
 8512TIP3    H125475   4.403   6.038   2.736
 8512TIP3    H225476   4.392   6.173   2.800
 8513TIP3   OH225477   3.894   5.812   4.670
 8513TIP3    H125478   3.896   5.733   4.613
 8513TIP3    H225479   3.851   5.878   4.611
 8514TIP3   OH225480   3.898   5.600   4.478
 8514TIP3    H125481   3.927   5.640   4.394
 8514TIP3    H225482   3.805   5.576   4.459
 8515TIP3   OH225483   3.922   6.132   4.351
 8515TIP3    H125484   4.008   6.141   4.309
 8515TIP3    H225485   3.868   6.199   4.304
 8516TIP3   OH225486   4.504   6.099   4.729
 8516TIP3    H125487   4.553   6.017   4.745
 8516TIP3    H225488   4.574   6.158   4.697
 8517TIP3   OH225489   4.547   6.353   4.464
 8517TIP3    H125490   4.490   6.408   4.406
 8517TIP3    H225491   4.635   6.374   4.426
 8518TIP3   OH225492   3.772   5.922   4.901
 8518TIP3    H125493   3.705   5.852   4.916
 8518TIP3    H225494   3.807   5.896   4.814
 8519TIP3   OH225495   4.031   5.362   4.545
 8519TIP3    H125496   3.980   5.443   4.523
 8519TIP3    H225497   3.962   5.293   4.534
 8520TIP3   OH225498   4.156   5.865   4.761
 8520TIP3    H125499   4.145   5.851   4.857
 8520TIP3    H225500   4.066   5.840   4.731
 8521TIP3   OH225501   4.394   5.815   4.615
 8521TIP3    H125502   4.320   5.816   4.679
 8521TIP3    H225503   4.469   5.785   4.670
 8522TIP3   OH225504   4.620   5.755   4.764
 8522TIP3    H125505   4.635   5.660   4.782
 8522TIP3    H225506   4.618   5.794   4.855
 8523TIP3   OH225507   3.613   5.701   4.955
 8523TIP3    H125508   3.617   5.610   4.921
 8523TIP3    H225509   3.651   5.689   5.045
 8524TIP3   OH225510   4.119   5.372   4.806
 8524TIP3    H125511   4.189   5.303   4.800
 8524TIP3    H225512   4.082   5.366   4.715
 8525TIP3   OH225513   4.190   5.585   4.963
 8525TIP3    H125514   4.168   5.514   4.899
 8525TIP3    H225515   4.112   5.644   4.956
 8526TIP3   OH225516   3.412   6.815   3.062
 8526TIP3    H125517   3.508   6.808   3.043
 8526TIP3    H225518   3.385   6.865   2.983
 8527TIP3   OH225519   2.891   6.197   3.278
 8527TIP3    H125520   2.986   6.218   3.262
 8527TIP3    H225521   2.885   6.108   3.236
 8528TIP3   OH225522   2.805   6.809   3.693
 8528TIP3    H125523   2.740   6.747   3.654
 8528TIP3    H225524   2.850   6.750   3.757
 8529TIP3   OH225525   2.940   6.658   3.879
 8529TIP3    H125526   2.930   6.585   3.943
 8529TIP3    H225527   2.994   6.719   3.932
 8530TIP3   OH225528   4.670   7.060   3.672
 8530TIP3    H125529   4.711   7.103   3.748
 8530TIP3    H225530   4.738   7.074   3.604
 8531TIP3   OH225531   4.695   7.084   3.969
 8531TIP3    H125532   4.654   6.996   3.954
 8531TIP3    H225533   4.781   7.057   4.004
 8532TIP3   OH225534   4.760   6.767   4.543
 8532TIP3    H125535   4.686   6.771   4.607
 8532TIP3    H225536   4.743   6.843   4.486
 8533TIP3   OH225537   4.560   6.269   3.152
 8533TIP3    H125538   4.625   6.334   3.121
 8533TIP3    H225539   4.606   6.232   3.231
 8534TIP3   OH225540   4.689   6.136   3.355
 8534TIP3    H125541   4.623   6.096   3.416
 8534TIP3    H225542   4.754   6.174   3.418
 8535TIP3   OH225543   4.742   6.523   3.793
 8535TIP3    H125544   4.794   6.460   3.740
 8535TIP3    H225545   4.752   6.606   3.740
 8536TIP3   OH225546   4.573   6.828   3.984
 8536TIP3    H125547   4.500   6.873   4.030
 8536TIP3    H225548   4.527   6.782   3.911
 8537TIP3   OH225549   4.626   6.045   3.002
 8537TIP3    H125550   4.554   6.048   2.935
 8537TIP3    H225551   4.599   6.121   3.058
 8538TIP3   OH225552   4.498   5.717   2.956
 8538TIP3    H125553   4.453   5.756   2.881
 8538TIP3    H225554   4.473   5.622   2.946
 8539TIP3   OH225555   4.501   5.995   3.503
 8539TIP3    H125556   4.510   5.899   3.497
 8539TIP3    H225557   4.487   6.009   3.599
 8540TIP3   OH225558   3.127   6.068   4.250
 8540TIP3    H125559   3.125   6.035   4.158
 8540TIP3    H225560   3.224   6.070   4.267
 8541TIP3   OH225561   4.792   6.420   4.359
 8541TIP3    H125562   4.863   6.353   4.351
 8541TIP3    H225563   4.820   6.488   4.295
 8542TIP3   OH225564   4.974   6.222   4.371
 8542TIP3    H125565   4.901   6.171   4.412
 8542TIP3    H225566   5.048   6.160   4.388
 8543TIP3   OH225567   4.441   5.450   2.939
 8543TIP3    H125568   4.514   5.421   2.997
 8543TIP3    H225569   4.367   5.393   2.964
 8544TIP3   OH225570   4.498   5.710   3.396
 8544TIP3    H125571   4.540   5.622   3.410
 8544TIP3    H225572   4.557   5.744   3.326
 8545TIP3   OH225573   4.659   5.882   3.892
 8545TIP3    H125574   4.745   5.907   3.851
 8545TIP3    H225575   4.673   5.920   3.981
 8546TIP3   OH225576   4.729   6.028   4.122
 8546TIP3    H125577   4.653   6.062   4.172
 8546TIP3    H225578   4.762   6.109   4.078
 8547TIP3   OH225579   3.347   5.755   4.927
 8547TIP3    H125580   3.445   5.747   4.929
 8547TIP3    H225581   3.323   5.668   4.964
 8548TIP3   OH225582   5.176   5.616   4.678
 8548TIP3    H125583   5.239   5.554   4.636
 8548TIP3    H225584   5.150   5.673   4.603
 8549TIP3   OH225585   4.608   5.461   3.434
 8549TIP3    H125586   4.656   5.444   3.518
 8549TIP3    H225587   4.547   5.384   3.433
 8550TIP3   OH225588   3.306   5.447   4.256
 8550TIP3    H125589   3.367   5.371   4.265
 8550TIP3    H225590   3.370   5.521   4.247
 8551TIP3   OH225591   3.108   5.720   4.326
 8551TIP3    H125592   3.158   5.714   4.242
 8551TIP3    H225593   3.141   5.803   4.361
 8552TIP3   OH225594   5.051   5.758   4.483
 8552TIP3    H125595   4.966   5.801   4.507
 8552TIP3    H225596   5.018   5.686   4.427
 8553TIP3   OH225597   4.686   5.393   3.069
 8553TIP3    H125598   4.727   5.323   3.014
 8553TIP3    H225599   4.753   5.465   3.065
 8554TIP3   OH225600   3.094   5.222   3.828
 8554TIP3    H125601   3.001   5.218   3.856
 8554TIP3    H225602   3.090   5.281   3.750
 8555TIP3   OH225603   4.251   6.931   3.336
 8555TIP3    H125604   4.298   6.914   3.251
 8555TIP3    H225605   4.314   6.989   3.381
 8556TIP3   OH225606   3.314   5.306   4.644
 8556TIP3    H125607   3.262   5.298   4.726
 8556TIP3    H225608   3.247   5.341   4.582
 8557TIP3   OH225609   3.537   6.770   4.267
 8557TIP3    H125610   3.488   6.844   4.225
 8557TIP3    H225611   3.622   6.780   4.219
 8558TIP3   OH225612   3.970   7.012   4.405
 8558TIP3    H125613   4.015   7.008   4.492
 8558TIP3    H225614   4.038   7.060   4.353
 8559TIP3   OH225615   4.153   7.161   4.266
 8559TIP3    H125616   4.222   7.112   4.219
 8559TIP3    H225617   4.207   7.217   4.325
 8560TIP3   OH225618   4.950   5.521   4.363
 8560TIP3    H125619   4.859   5.512   4.330
 8560TIP3    H225620   4.983   5.429   4.355
 8561TIP3   OH225621   3.207   7.023   4.289
 8561TIP3    H125622   3.117   7.052   4.263
 8561TIP3    H225623   3.217   7.071   4.372
 8562TIP3   OH225624   3.444   6.999   4.149
 8562TIP3    H125625   3.356   7.011   4.191
 8562TIP3    H225626   3.427   7.030   4.058
 8563TIP3   OH225627   3.868   7.025   3.950
 8563TIP3    H125628   3.803   7.045   3.880
 8563TIP3    H225629   3.882   7.114   3.989
 8564TIP3   OH225630   4.140   6.966   4.003
 8564TIP3    H125631   4.047   6.984   3.980
 8564TIP3    H225632   4.187   7.036   3.955
 8565TIP3   OH225633   4.341   7.156   3.912
 8565TIP3    H125634   4.330   7.241   3.864
 8565TIP3    H225635   4.373   7.097   3.840
 8566TIP3   OH225636   3.117   6.813   4.035
 8566TIP3    H125637   3.145   6.785   4.125
 8566TIP3    H225638   3.190   6.771   3.983
 8567TIP3   OH225639   3.313   6.686   3.896
 8567TIP3    H125640   3.330   6.602   3.944
 8567TIP3    H225641   3.404   6.722   3.889
 8568TIP3   OH225642   3.580   6.780   3.899
 8568TIP3    H125643   3.611   6.689   3.882
 8568TIP3    H225644   3.629   6.800   3.980
 8569TIP3   OH225645   4.152   5.434   3.981
 8569TIP3    H125646   4.111   5.364   4.034
 8569TIP3    H225647   4.228   5.389   3.940
 8570TIP3   OH225648   4.676   5.313   3.888
 8570TIP3    H125649   4.713   5.367   3.814
 8570TIP3    H225650   4.581   5.335   3.883
 8571TIP3   OH225651   4.772   5.415   3.652
 8571TIP3    H125652   4.846   5.364   3.613
 8571TIP3    H225653   4.805   5.506   3.638
 8572TIP3   OH225654   3.403   5.144   3.998
 8572TIP3    H125655   3.311   5.111   4.002
 8572TIP3    H225656   3.452   5.059   3.995
 8573TIP3   OH225657   3.190   5.016   3.648
 8573TIP3    H125658   3.221   5.072   3.575
 8573TIP3    H225659   3.163   5.082   3.715
 8574TIP3   OH225660   3.848   5.178   3.881
 8574TIP3    H125661   3.905   5.226   3.819
 8574TIP3    H225662   3.877   5.214   3.967
 8575TIP3   OH225663   4.391   5.325   3.864
 8575TIP3    H125664   4.393   5.286   3.776
 8575TIP3    H225665   4.380   5.245   3.921
 8576TIP3   OH225666   4.424   5.248   3.427
 8576TIP3    H125667   4.338   5.291   3.441
 8576TIP3    H225668   4.409   5.162   3.472
 8577TIP3   OH225669   2.906   6.588   3.426
 8577TIP3    H125670   2.821   6.555   3.393
 8577TIP3    H225671   2.897   6.682   3.402
 8578TIP3   OH225672   3.309   5.174   3.410
 8578TIP3    H125673   3.357   5.111   3.353
 8578TIP3    H225674   3.382   5.227   3.445
 8579TIP3   OH225675   3.819   5.351   3.509
 8579TIP3    H125676   3.879   5.304   3.569
 8579TIP3    H225677   3.840   5.443   3.534
 8580TIP3   OH225678   3.680   6.772   3.010
 8580TIP3    H125679   3.768   6.795   2.974
 8580TIP3    H225680   3.658   6.698   2.950
 8581TIP3   OH225681   4.386   6.891   3.101
 8581TIP3    H125682   4.380   6.793   3.087
 8581TIP3    H225683   4.349   6.923   3.016
 8582TIP3   OH225684   3.611   5.427   4.891
 8582TIP3    H125685   3.576   5.355   4.947
 8582TIP3    H225686   3.705   5.426   4.918
 8583TIP3   OH225687   3.861   5.424   5.009
 8583TIP3    H125688   3.945   5.399   4.967
 8583TIP3    H225689   3.849   5.352   5.075
 8584TIP3   OH225690   2.983   6.609   3.064
 8584TIP3    H125691   2.989   6.632   3.157
 8584TIP3    H225692   3.071   6.566   3.047
 8585TIP3   OH225693   4.687   5.485   4.796
 8585TIP3    H125694   4.705   5.454   4.888
 8585TIP3    H225695   4.776   5.481   4.756
 8586TIP3   OH225696   4.619   7.029   4.302
 8586TIP3    H125697   4.545   7.003   4.243
 8586TIP3    H225698   4.608   7.126   4.300
 8587TIP3   OH225699   5.893   6.411   3.053
 8587TIP3    H125700   5.861   6.501   3.031
 8587TIP3    H225701   5.817   6.359   3.022
 8588TIP3   OH225702   5.897   6.407   3.436
 8588TIP3    H125703   5.923   6.380   3.525
 8588TIP3    H225704   5.849   6.329   3.404
 8589TIP3   OH225705   5.190   6.302   3.801
 8589TIP3    H125706   5.221   6.235   3.864
 8589TIP3    H225707   5.265   6.363   3.800
 8590TIP3   OH225708   6.147   6.704   3.122
 8590TIP3    H125709   6.109   6.647   3.190
 8590TIP3    H225710   6.164   6.786   3.171
 8591TIP3   OH225711   5.163   6.709   3.532
 8591TIP3    H125712   5.157   6.611   3.533
 8591TIP3    H225713   5.258   6.723   3.519
 8592TIP3   OH225714   4.868   5.915   3.309
 8592TIP3    H125715   4.822   5.998   3.327
 8592TIP3    H225716   4.796   5.864   3.267
 8593TIP3   OH225717   4.924   6.204   3.485
 8593TIP3    H125718   4.975   6.127   3.519
 8593TIP3    H225719   4.986   6.243   3.422
 8594TIP3   OH225720   5.786   7.175   3.135
 8594TIP3    H125721   5.830   7.103   3.086
 8594TIP3    H225722   5.769   7.134   3.220
 8595TIP3   OH225723   5.688   6.636   3.485
 8595TIP3    H125724   5.726   6.562   3.435
 8595TIP3    H225725   5.771   6.680   3.511
 8596TIP3   OH225726   6.706   5.954   3.479
 8596TIP3    H125727   6.736   6.038   3.520
 8596TIP3    H225728   6.744   5.960   3.389
 8597TIP3   OH225729   6.109   6.137   3.513
 8597TIP3    H125730   6.145   6.049   3.534
 8597TIP3    H225731   6.072   6.122   3.424
 8598TIP3   OH225732   5.442   5.796   3.480
 8598TIP3    H125733   5.420   5.868   3.418
 8598TIP3    H225734   5.393   5.722   3.438
 8599TIP3   OH225735   6.133   5.889   3.101
 8599TIP3    H125736   6.205   5.872   3.167
 8599TIP3    H225737   6.187   5.922   3.027
 8600TIP3   OH225738   5.073   5.998   3.589
 8600TIP3    H125739   5.155   5.979   3.637
 8600TIP3    H225740   5.087   5.942   3.509
 8601TIP3   OH225741   5.514   6.195   3.382
 8601TIP3    H125742   5.607   6.170   3.396
 8601TIP3    H225743   5.474   6.111   3.350
 8602TIP3   OH225744   6.775   6.170   3.644
 8602TIP3    H125745   6.687   6.211   3.631
 8602TIP3    H225746   6.784   6.178   3.741
 8603TIP3   OH225747   5.436   5.779   3.917
 8603TIP3    H125748   5.376   5.816   3.849
 8603TIP3    H225749   5.383   5.796   3.998
 8604TIP3   OH225750   5.782   6.631   2.924
 8604TIP3    H125751   5.739   6.614   2.839
 8604TIP3    H225752   5.738   6.714   2.951
 8605TIP3   OH225753   5.542   6.556   3.710
 8605TIP3    H125754   5.480   6.622   3.748
 8605TIP3    H225755   5.582   6.606   3.636
 8606TIP3   OH225756   6.341   5.889   3.276
 8606TIP3    H125757   6.326   5.837   3.356
 8606TIP3    H225758   6.399   5.960   3.307
 8607TIP3   OH225759   5.308   5.894   3.700
 8607TIP3    H125760   5.369   5.967   3.724
 8607TIP3    H225761   5.357   5.854   3.625
 8608TIP3   OH225762   5.371   6.749   3.810
 8608TIP3    H125763   5.344   6.834   3.769
 8608TIP3    H225764   5.292   6.734   3.866
 8609TIP3   OH225765   4.757   6.440   3.041
 8609TIP3    H125766   4.720   6.466   2.954
 8609TIP3    H225767   4.778   6.526   3.081
 8610TIP3   OH225768   6.208   6.956   3.283
 8610TIP3    H125769   6.119   6.947   3.324
 8610TIP3    H225770   6.198   7.042   3.237
 8611TIP3   OH225771   6.495   5.864   3.652
 8611TIP3    H125772   6.405   5.879   3.618
 8611TIP3    H225773   6.551   5.890   3.576
 8612TIP3   OH225774   5.789   5.499   3.630
 8612TIP3    H125775   5.776   5.404   3.650
 8612TIP3    H225776   5.713   5.537   3.678
 8613TIP3   OH225777   5.907   7.000   2.960
 8613TIP3    H125778   5.956   6.918   2.937
 8613TIP3    H225779   5.968   7.066   2.920
 8614TIP3   OH225780   6.049   6.784   2.871
 8614TIP3    H125781   6.008   6.707   2.829
 8614TIP3    H225782   6.088   6.744   2.952
 8615TIP3   OH225783   6.430   6.866   3.614
 8615TIP3    H125784   6.412   6.808   3.539
 8615TIP3    H225785   6.409   6.953   3.574
 8616TIP3   OH225786   5.723   6.261   2.888
 8616TIP3    H125787   5.642   6.313   2.870
 8616TIP3    H225788   5.765   6.260   2.801
 8617TIP3   OH225789   5.680   6.047   2.600
 8617TIP3    H125790   5.746   6.099   2.649
 8617TIP3    H225791   5.739   5.984   2.553
 8618TIP3   OH225792   6.070   6.343   2.856
 8618TIP3    H125793   6.014   6.368   2.933
 8618TIP3    H225794   6.154   6.321   2.901
 8619TIP3   OH225795   6.300   6.385   3.771
 8619TIP3    H125796   6.296   6.466   3.825
 8619TIP3    H225797   6.211   6.388   3.728
 8620TIP3   OH225798   5.301   6.340   3.274
 8620TIP3    H125799   5.260   6.283   3.206
 8620TIP3    H225800   5.378   6.286   3.303
 8621TIP3   OH225801   5.431   6.754   3.421
 8621TIP3    H125802   5.408   6.717   3.335
 8621TIP3    H225803   5.520   6.716   3.437
 8622TIP3   OH225804   5.441   6.311   3.630
 8622TIP3    H125805   5.471   6.291   3.539
 8622TIP3    H225806   5.481   6.399   3.647
 8623TIP3   OH225807   5.970   6.949   3.407
 8623TIP3    H125808   5.949   7.031   3.457
 8623TIP3    H225809   5.947   6.878   3.471
 8624TIP3   OH225810   5.576   6.868   3.953
 8624TIP3    H125811   5.516   6.930   3.999
 8624TIP3    H225812   5.511   6.816   3.902
 8625TIP3   OH225813   5.909   6.200   2.683
 8625TIP3    H125814   5.967   6.262   2.733
 8625TIP3    H225815   5.935   6.222   2.590
 8626TIP3   OH225816   5.331   6.423   4.056
 8626TIP3    H125817   5.336   6.511   4.099
 8626TIP3    H225818   5.236   6.404   4.069
 8627TIP3   OH225819   5.656   6.877   2.960
 8627TIP3    H125820   5.734   6.935   2.972
 8627TIP3    H225821   5.592   6.937   2.919
 8628TIP3   OH225822   5.372   7.037   4.039
 8628TIP3    H125823   5.339   7.038   3.947
 8628TIP3    H225824   5.291   7.017   4.090
 8629TIP3   OH225825   6.425   5.442   2.734
 8629TIP3    H125826   6.343   5.463   2.783
 8629TIP3    H225827   6.439   5.524   2.682
 8630TIP3   OH225828   5.169   6.184   3.076
 8630TIP3    H125829   5.101   6.231   3.023
 8630TIP3    H225830   5.126   6.099   3.091
 8631TIP3   OH225831   6.225   6.810   2.280
 8631TIP3    H125832   6.233   6.907   2.266
 8631TIP3    H225833   6.318   6.781   2.269
 8632TIP3   OH225834   4.949   6.568   3.989
 8632TIP3    H125835   4.886   6.550   3.917
 8632TIP3    H225836   4.986   6.480   4.008
 8633TIP3   OH225837   4.811   6.746   3.652
 8633TIP3    H125838   4.877   6.750   3.581
 8633TIP3    H225839   4.782   6.838   3.658
 8634TIP3   OH225840   6.668   7.214   3.679
 8634TIP3    H125841   6.665   7.118   3.695
 8634TIP3    H225842   6.584   7.242   3.722
 8635TIP3   OH225843   5.774   6.995   3.812
 8635TIP3    H125844   5.771   7.088   3.843
 8635TIP3    H225845   5.701   6.956   3.864
 8636TIP3   OH225846   5.537   7.127   2.762
 8636TIP3    H125847   5.488   7.108   2.680
 8636TIP3    H225848   5.502   7.214   2.788
 8637TIP3   OH225849   5.734   7.032   2.399
 8637TIP3    H125850   5.791   6.962   2.361
 8637TIP3    H225851   5.770   7.039   2.490
 8638TIP3   OH225852   5.787   7.076   2.670
 8638TIP3    H125853   5.698   7.086   2.711
 8638TIP3    H225854   5.837   7.037   2.744
 8639TIP3   OH225855   6.555   6.342   3.949
 8639TIP3    H125856   6.464   6.351   3.917
 8639TIP3    H225857   6.569   6.246   3.941
 8640TIP3   OH225858   5.156   6.749   3.978
 8640TIP3    H125859   5.205   6.729   4.060
 8640TIP3    H225860   5.080   6.689   3.983
 8641TIP3   OH225861   5.553   5.575   3.761
 8641TIP3    H125862   5.464   5.544   3.732
 8641TIP3    H225863   5.526   5.656   3.809
 8642TIP3   OH225864   6.086   5.689   3.955
 8642TIP3    H125865   6.155   5.661   4.018
 8642TIP3    H225866   6.003   5.668   4.002
 8643TIP3   OH225867   6.330   6.128   3.880
 8643TIP3    H125868   6.277   6.115   3.962
 8643TIP3    H225869   6.291   6.209   3.842
 8644TIP3   OH225870   5.985   6.244   2.428
 8644TIP3    H125871   5.951   6.222   2.339
 8644TIP3    H225872   6.067   6.293   2.404
 8645TIP3   OH225873   5.698   5.621   2.731
 8645TIP3    H125874   5.664   5.619   2.823
 8645TIP3    H225875   5.658   5.540   2.696
 8646TIP3   OH225876   5.486   6.089   3.779
 8646TIP3    H125877   5.435   6.110   3.860
 8646TIP3    H225878   5.470   6.171   3.726
 8647TIP3   OH225879   5.369   5.976   3.292
 8647TIP3    H125880   5.276   5.951   3.310
 8647TIP3    H225881   5.380   5.935   3.203
 8648TIP3   OH225882   5.860   6.063   3.023
 8648TIP3    H125883   5.807   6.133   2.978
 8648TIP3    H225884   5.914   6.029   2.948
 8649TIP3   OH225885   6.034   6.337   4.103
 8649TIP3    H125886   6.010   6.266   4.167
 8649TIP3    H225887   6.126   6.353   4.129
 8650TIP3   OH225888   6.020   6.094   3.254
 8650TIP3    H125889   5.954   6.119   3.187
 8650TIP3    H225890   6.052   6.012   3.212
 8651TIP3   OH225891   5.306   6.118   3.987
 8651TIP3    H125892   5.329   6.183   4.055
 8651TIP3    H225893   5.293   6.036   4.039
 8652TIP3   OH225894   5.353   5.596   2.697
 8652TIP3    H125895   5.343   5.595   2.794
 8652TIP3    H225896   5.276   5.651   2.671
 8653TIP3   OH225897   4.897   5.638   3.569
 8653TIP3    H125898   4.971   5.672   3.623
 8653TIP3    H225899   4.940   5.610   3.486
 8654TIP3   OH225900   4.865   5.621   3.086
 8654TIP3    H125901   4.910   5.659   3.008
 8654TIP3    H225902   4.804   5.695   3.107
 8655TIP3   OH225903   6.034   6.334   3.682
 8655TIP3    H125904   6.065   6.262   3.622
 8655TIP3    H225905   6.000   6.281   3.757
 8656TIP3   OH225906   5.699   5.799   3.353
 8656TIP3    H125907   5.616   5.797   3.404
 8656TIP3    H225908   5.766   5.792   3.424
 8657TIP3   OH225909   5.130   5.855   3.361
 8657TIP3    H125910   5.036   5.863   3.333
 8657TIP3    H225911   5.152   5.763   3.337
 8658TIP3   OH225912   5.397   5.849   3.051
 8658TIP3    H125913   5.490   5.865   3.027
 8658TIP3    H225914   5.348   5.871   2.968
 8659TIP3   OH225915   6.190   5.873   3.555
 8659TIP3    H125916   6.158   5.885   3.648
 8659TIP3    H225917   6.122   5.812   3.521
 8660TIP3   OH225918   5.244   5.882   2.828
 8660TIP3    H125919   5.172   5.839   2.780
 8660TIP3    H225920   5.295   5.920   2.754
 8661TIP3   OH225921   6.360   7.562   3.775
 8661TIP3    H125922   6.357   7.585   3.680
 8661TIP3    H225923   6.440   7.610   3.804
 8662TIP3   OH225924   5.319   6.671   4.196
 8662TIP3    H125925   5.396   6.703   4.247
 8662TIP3    H225926   5.251   6.668   4.267
 8663TIP3   OH225927   5.778   6.128   3.454
 8663TIP3    H125928   5.847   6.081   3.406
 8663TIP3    H225929   5.780   6.084   3.542
 8664TIP3   OH225930   5.300   5.613   3.332
 8664TIP3    H125931   5.264   5.536   3.380
 8664TIP3    H225932   5.347   5.571   3.259
 8665TIP3   OH225933   5.755   6.028   3.736
 8665TIP3    H125934   5.664   6.060   3.753
 8665TIP3    H225935   5.810   6.088   3.789
 8666TIP3   OH225936   5.494   6.411   2.838
 8666TIP3    H125937   5.420   6.348   2.825
 8666TIP3    H225938   5.473   6.447   2.927
 8667TIP3   OH225939   5.949   5.724   2.701
 8667TIP3    H125940   5.853   5.706   2.709
 8667TIP3    H225941   5.956   5.819   2.724
 8668TIP3   OH225942   5.897   6.735   3.833
 8668TIP3    H125943   5.913   6.712   3.925
 8668TIP3    H225944   5.853   6.822   3.839
 8669TIP3   OH225945   6.018   5.974   2.804
 8669TIP3    H125946   6.114   5.982   2.816
 8669TIP3    H225947   5.997   6.054   2.751
 8670TIP3   OH225948   5.184   6.430   3.511
 8670TIP3    H125949   5.223   6.404   3.425
 8670TIP3    H225950   5.228   6.370   3.572
 8671TIP3   OH225951   5.637   6.563   2.659
 8671TIP3    H125952   5.589   6.649   2.662
 8671TIP3    H225953   5.582   6.509   2.719
 8672TIP3   OH225954   5.068   6.354   4.124
 8672TIP3    H125955   5.087   6.342   4.219
 8672TIP3    H225956   4.997   6.289   4.110
 8673TIP3   OH225957   5.792   6.473   4.143
 8673TIP3    H125958   5.729   6.412   4.100
 8673TIP3    H225959   5.878   6.436   4.113
 8674TIP3   OH225960   6.053   6.989   3.730
 8674TIP3    H125961   5.957   6.988   3.742
 8674TIP3    H225962   6.080   7.043   3.808
 8675TIP3   OH225963   6.460   6.067   2.638
 8675TIP3    H125964   6.399   6.022   2.575
 8675TIP3    H225965   6.456   6.156   2.596
 8676TIP3   OH225966   6.677   6.918   3.721
 8676TIP3    H125967   6.580   6.915   3.710
 8676TIP3    H225968   6.705   6.892   3.630
 8677TIP3   OH225969   6.161   6.882   2.545
 8677TIP3    H125970   6.134   6.810   2.604
 8677TIP3    H225971   6.175   6.837   2.460
 8678TIP3   OH225972   6.158   6.502   3.377
 8678TIP3    H125973   6.064   6.486   3.399
 8678TIP3    H225974   6.181   6.418   3.334
 8679TIP3   OH225975   5.282   6.739   3.137
 8679TIP3    H125976   5.280   6.820   3.082
 8679TIP3    H225977   5.188   6.730   3.158
 8680TIP3   OH225978   4.851   6.044   2.842
 8680TIP3    H125979   4.894   6.129   2.862
 8680TIP3    H225980   4.773   6.049   2.902
 8681TIP3   OH225981   5.421   6.506   3.080
 8681TIP3    H125982   5.384   6.595   3.097
 8681TIP3    H225983   5.383   6.455   3.155
 8682TIP3   OH225984   5.556   7.084   3.608
 8682TIP3    H125985   5.596   7.155   3.555
 8682TIP3    H225986   5.634   7.049   3.655
 8683TIP3   OH225987   5.200   6.975   2.994
 8683TIP3    H125988   5.115   6.981   3.041
 8683TIP3    H225989   5.229   7.069   2.995
 8684TIP3   OH225990   5.941   6.716   3.565
 8684TIP3    H125991   5.930   6.718   3.663
 8684TIP3    H225992   6.023   6.666   3.556
 8685TIP3   OH225993   5.919   6.610   2.447
 8685TIP3    H125994   5.970   6.585   2.527
 8685TIP3    H225995   5.829   6.585   2.475
 8686TIP3   OH225996   6.191   7.251   3.612
 8686TIP3    H125997   6.109   7.197   3.605
 8686TIP3    H225998   6.175   7.316   3.540
 8687TIP3   OH225999   6.257   7.087   2.267
 8687TIP3    H126000   6.303   7.163   2.226
 8687TIP3    H226001   6.176   7.133   2.296
 8688TIP3   OH226002   5.276   5.860   4.131
 8688TIP3    H126003   5.179   5.865   4.145
 8688TIP3    H226004   5.304   5.806   4.206
 8689TIP3   OH226005   6.078   6.545   2.663
 8689TIP3    H126006   6.069   6.478   2.734
 8689TIP3    H226007   6.175   6.542   2.649
 8690TIP3   OH226008   4.993   6.963   3.774
 8690TIP3    H126009   5.023   6.871   3.777
 8690TIP3    H226010   5.052   7.006   3.837
 8691TIP3   OH226011   5.284   6.590   2.445
 8691TIP3    H126012   5.296   6.497   2.420
 8691TIP3    H226013   5.265   6.582   2.541
 8692TIP3   OH226014   5.231   6.596   2.715
 8692TIP3    H126015   5.297   6.571   2.782
 8692TIP3    H226016   5.230   6.694   2.724
 8693TIP3   OH226017   4.961   6.290   2.924
 8693TIP3    H126018   4.894   6.335   2.980
 8693TIP3    H226019   4.973   6.357   2.854
 8694TIP3   OH226020   6.119   5.923   3.815
 8694TIP3    H126021   6.193   5.959   3.865
 8694TIP3    H226022   6.098   5.842   3.866
 8695TIP3   OH226023   5.995   5.674   2.981
 8695TIP3    H126024   5.980   5.696   2.887
 8695TIP3    H226025   6.032   5.758   3.016
 8696TIP3   OH226026   5.496   6.794   2.667
 8696TIP3    H126027   5.408   6.817   2.703
 8696TIP3    H226028   5.510   6.870   2.609
 8697TIP3   OH226029   5.683   5.857   3.082
 8697TIP3    H126030   5.746   5.930   3.066
 8697TIP3    H226031   5.687   5.850   3.180
 8698TIP3   OH226032   5.953   6.175   3.888
 8698TIP3    H126033   5.972   6.230   3.966
 8698TIP3    H226034   6.003   6.094   3.907
 8699TIP3   OH226035   5.825   5.581   3.184
 8699TIP3    H126036   5.815   5.660   3.240
 8699TIP3    H226037   5.886   5.616   3.115
 8700TIP3   OH226038   5.240   6.868   2.737
 8700TIP3    H126039   5.208   6.937   2.675
 8700TIP3    H226040   5.219   6.909   2.824
 8701TIP3   OH226041   5.338   5.583   2.973
 8701TIP3    H126042   5.335   5.673   3.010
 8701TIP3    H226043   5.434   5.565   2.981
 8702TIP3   OH226044   6.592   6.071   3.857
 8702TIP3    H126045   6.495   6.079   3.874
 8702TIP3    H226046   6.589   6.003   3.788
 8703TIP3   OH226047   6.249   6.265   3.256
 8703TIP3    H126048   6.166   6.213   3.264
 8703TIP3    H226049   6.311   6.209   3.308
 8704TIP3   OH226050   4.953   6.493   2.729
 8704TIP3    H126051   5.008   6.572   2.740
 8704TIP3    H226052   5.005   6.445   2.662
 8705TIP3   OH226053   4.899   5.774   2.861
 8705TIP3    H126054   4.901   5.872   2.859
 8705TIP3    H226055   4.816   5.755   2.816
 8706TIP3   OH226056   6.212   7.225   3.207
 8706TIP3    H126057   6.168   7.273   3.133
 8706TIP3    H226058   6.306   7.246   3.186
 8707TIP3   OH226059   5.288   5.496   3.732
 8707TIP3    H126060   5.257   5.461   3.646
 8707TIP3    H226061   5.278   5.418   3.791
 8708TIP3   OH226062   4.986   7.257   4.187
 8708TIP3    H126063   5.073   7.258   4.233
 8708TIP3    H226064   4.969   7.161   4.182
 8709TIP3   OH226065   5.462   7.218   4.232
 8709TIP3    H126066   5.557   7.200   4.238
 8709TIP3    H226067   5.437   7.158   4.159
 8710TIP3   OH226068   5.445   6.794   2.357
 8710TIP3    H126069   5.389   6.723   2.395
 8710TIP3    H226070   5.521   6.742   2.326
 8711TIP3   OH226071   6.106   7.125   3.963
 8711TIP3    H126072   6.096   7.056   4.033
 8711TIP3    H226073   6.182   7.177   3.997
 8712TIP3   OH226074   5.881   6.834   2.272
 8712TIP3    H126075   5.925   6.771   2.332
 8712TIP3    H226076   5.939   6.833   2.194
 8713TIP3   OH226077   5.115   6.655   4.375
 8713TIP3    H126078   5.125   6.559   4.389
 8713TIP3    H226079   5.024   6.662   4.341
 8714TIP3   OH226080   5.093   6.310   2.580
 8714TIP3    H126081   5.149   6.281   2.654
 8714TIP3    H226082   5.160   6.315   2.508
 8715TIP3   OH226083   5.721   6.749   4.161
 8715TIP3    H126084   5.677   6.767   4.075
 8715TIP3    H226085   5.750   6.656   4.151
 8716TIP3   OH226086   5.606   6.511   2.388
 8716TIP3    H126087   5.605   6.523   2.485
 8716TIP3    H226088   5.603   6.413   2.382
 8717TIP3   OH226089   6.217   6.753   3.764
 8717TIP3    H126090   6.287   6.805   3.720
 8717TIP3    H226091   6.142   6.815   3.756
 8718TIP3   OH226092   5.233   6.391   4.369
 8718TIP3    H126093   5.312   6.339   4.347
 8718TIP3    H226094   5.258   6.427   4.456
 8719TIP3   OH226095   5.299   6.217   2.802
 8719TIP3    H126096   5.270   6.177   2.885
 8719TIP3    H226097   5.335   6.140   2.753
 8720TIP3   OH226098   5.570   6.281   4.031
 8720TIP3    H126099   5.490   6.339   4.032
 8720TIP3    H226100   5.619   6.316   3.953
 8721TIP3   OH226101   5.400   6.009   2.642
 8721TIP3    H126102   5.374   6.017   2.548
 8721TIP3    H226103   5.498   6.014   2.634
 8722TIP3   OH226104   6.084   6.682   4.165
 8722TIP3    H126105   6.166   6.654   4.122
 8722TIP3    H226106   6.077   6.618   4.238
 8723TIP3   OH226107   6.221   6.338   2.308
 8723TIP3    H126108   6.200   6.294   2.223
 8723TIP3    H226109   6.189   6.429   2.287
 8724TIP3   OH226110   5.694   6.070   4.154
 8724TIP3    H126111   5.691   5.990   4.097
 8724TIP3    H226112   5.648   6.136   4.098
 8725TIP3   OH226113   5.695   5.855   3.962
 8725TIP3    H126114   5.721   5.896   3.877
 8725TIP3    H226115   5.601   5.832   3.945
 8726TIP3   OH226116   5.719   6.390   3.836
 8726TIP3    H126117   5.802   6.405   3.790
 8726TIP3    H226118   5.660   6.455   3.792
 8727TIP3   OH226119   6.299   6.355   4.215
 8727TIP3    H126120   6.348   6.275   4.238
 8727TIP3    H226121   6.370   6.415   4.188
 8728TIP3   OH226122   6.346   6.608   3.951
 8728TIP3    H126123   6.286   6.663   3.894
 8728TIP3    H226124   6.433   6.630   3.910
 8729TIP3   OH226125   5.571   6.177   4.387
 8729TIP3    H126126   5.502   6.110   4.404
 8729TIP3    H226127   5.604   6.150   4.299
 8730TIP3   OH226128   5.826   5.617   4.032
 8730TIP3    H126129   5.776   5.699   4.009
 8730TIP3    H226130   5.756   5.549   4.021
 8731TIP3   OH226131   5.953   6.121   4.246
 8731TIP3    H126132   5.939   6.107   4.342
 8731TIP3    H226133   5.863   6.097   4.215
 8732TIP3   OH226134   6.190   6.065   4.100
 8732TIP3    H126135   6.115   6.071   4.162
 8732TIP3    H226136   6.263   6.037   4.158
 8733TIP3   OH226137   6.426   6.013   4.249
 8733TIP3    H126138   6.435   5.917   4.268
 8733TIP3    H226139   6.416   6.052   4.338
 8734TIP3   OH226140   5.408   5.958   4.441
 8734TIP3    H126141   5.414   5.866   4.410
 8734TIP3    H226142   5.445   5.949   4.531
 8735TIP3   OH226143   5.920   5.628   4.290
 8735TIP3    H126144   5.987   5.557   4.284
 8735TIP3    H226145   5.880   5.622   4.201
 8736TIP3   OH226146   5.988   5.844   4.447
 8736TIP3    H126147   5.965   5.772   4.384
 8736TIP3    H226148   5.909   5.902   4.442
 8737TIP3   OH226149   5.209   7.071   2.548
 8737TIP3    H126150   5.304   7.065   2.528
 8737TIP3    H226151   5.179   7.122   2.470
 8738TIP3   OH226152   4.685   6.450   2.764
 8738TIP3    H126153   4.780   6.475   2.750
 8738TIP3    H226154   4.682   6.362   2.720
 8739TIP3   OH226155   4.582   7.065   3.193
 8739TIP3    H126156   4.520   7.000   3.154
 8739TIP3    H226157   4.662   7.009   3.203
 8740TIP3   OH226158   6.467   7.312   3.166
 8740TIP3    H126159   6.495   7.353   3.249
 8740TIP3    H226160   6.526   7.353   3.101
 8741TIP3   OH226161   6.492   7.340   3.450
 8741TIP3    H126162   6.450   7.252   3.443
 8741TIP3    H226163   6.572   7.316   3.500
 8742TIP3   OH226164   6.541   7.011   4.020
 8742TIP3    H126165   6.468   7.022   4.085
 8742TIP3    H226166   6.582   7.100   4.024
 8743TIP3   OH226167   6.356   6.528   2.637
 8743TIP3    H126168   6.421   6.593   2.605
 8743TIP3    H226169   6.402   6.490   2.714
 8744TIP3   OH226170   6.484   6.393   2.838
 8744TIP3    H126171   6.420   6.349   2.897
 8744TIP3    H226172   6.553   6.426   2.899
 8745TIP3   OH226173   6.532   6.753   3.274
 8745TIP3    H126174   6.606   6.753   3.210
 8745TIP3    H226175   6.493   6.839   3.252
 8746TIP3   OH226176   6.366   7.089   3.472
 8746TIP3    H126177   6.297   7.137   3.521
 8746TIP3    H226178   6.315   7.047   3.400
 8747TIP3   OH226179   6.422   6.302   2.490
 8747TIP3    H126180   6.351   6.303   2.421
 8747TIP3    H226181   6.394   6.379   2.543
 8748TIP3   OH226182   6.294   5.974   2.445
 8748TIP3    H126183   6.250   6.013   2.368
 8748TIP3    H226184   6.270   5.879   2.435
 8749TIP3   OH226185   6.303   6.249   2.988
 8749TIP3    H126186   6.305   6.153   2.972
 8749TIP3    H226187   6.282   6.254   3.084
 8750TIP3   OH226188   4.925   6.318   3.739
 8750TIP3    H126189   4.921   6.290   3.645
 8750TIP3    H226190   5.022   6.322   3.753
 8751TIP3   OH226191   6.590   6.675   3.841
 8751TIP3    H126192   6.663   6.610   3.834
 8751TIP3    H226193   6.621   6.749   3.787
 8752TIP3   OH226194   6.768   6.471   3.850
 8752TIP3    H126195   6.695   6.426   3.897
 8752TIP3    H226196   6.843   6.412   3.873
 8753TIP3   OH226197   6.236   5.709   2.429
 8753TIP3    H126198   6.309   5.676   2.485
 8753TIP3    H226199   6.163   5.649   2.450
 8754TIP3   OH226200   6.298   5.971   2.884
 8754TIP3    H126201   6.336   5.882   2.900
 8754TIP3    H226202   6.354   6.000   2.809
 8755TIP3   OH226203   6.462   6.143   3.382
 8755TIP3    H126204   6.546   6.174   3.343
 8755TIP3    H226205   6.471   6.180   3.472
 8756TIP3   OH226206   6.519   6.303   3.612
 8756TIP3    H126207   6.435   6.298   3.662
 8756TIP3    H226208   6.546   6.392   3.636
 8757TIP3   OH226209   5.142   6.010   4.408
 8757TIP3    H126210   5.240   6.005   4.414
 8757TIP3    H226211   5.119   5.924   4.449
 8758TIP3   OH226212   6.982   5.880   4.166
 8758TIP3    H126213   7.038   5.812   4.123
 8758TIP3    H226214   6.949   5.931   4.089
 8759TIP3   OH226215   6.401   5.719   2.922
 8759TIP3    H126216   6.450   5.700   3.006
 8759TIP3    H226217   6.341   5.642   2.920
 8760TIP3   OH226218   5.103   5.703   3.741
 8760TIP3    H126219   5.166   5.628   3.750
 8760TIP3    H226220   5.165   5.778   3.734
 8761TIP3   OH226221   4.905   5.976   3.814
 8761TIP3    H126222   4.955   5.973   3.729
 8761TIP3    H226223   4.929   6.063   3.847
 8762TIP3   OH226224   6.847   6.013   3.971
 8762TIP3    H126225   6.764   6.056   3.999
 8762TIP3    H226226   6.811   5.942   3.914
 8763TIP3   OH226227   6.484   5.649   2.557
 8763TIP3    H126228   6.521   5.578   2.500
 8763TIP3    H226229   6.550   5.720   2.548
 8764TIP3   OH226230   4.890   5.477   3.313
 8764TIP3    H126231   4.797   5.475   3.343
 8764TIP3    H226232   4.885   5.537   3.236
 8765TIP3   OH226233   6.051   7.184   2.823
 8765TIP3    H126234   6.098   7.170   2.738
 8765TIP3    H226235   6.103   7.255   2.863
 8766TIP3   OH226236   5.109   5.556   4.128
 8766TIP3    H126237   5.060   5.556   4.212
 8766TIP3    H226238   5.044   5.597   4.068
 8767TIP3   OH226239   5.151   6.992   4.202
 8767TIP3    H126240   5.059   6.963   4.189
 8767TIP3    H226241   5.172   6.952   4.288
 8768TIP3   OH226242   5.329   7.022   3.757
 8768TIP3    H126243   5.276   7.093   3.714
 8768TIP3    H226244   5.414   7.038   3.711
 8769TIP3   OH226245   5.771   7.263   3.891
 8769TIP3    H126246   5.812   7.263   3.980
 8769TIP3    H226247   5.836   7.316   3.840
 8770TIP3   OH226248   5.951   7.418   3.754
 8770TIP3    H126249   6.020   7.368   3.709
 8770TIP3    H226250   6.004   7.475   3.813
 8771TIP3   OH226251   6.745   5.775   3.850
 8771TIP3    H126252   6.653   5.760   3.820
 8771TIP3    H226253   6.781   5.683   3.842
 8772TIP3   OH226254   5.012   7.289   3.778
 8772TIP3    H126255   4.921   7.311   3.748
 8772TIP3    H226256   5.008   7.319   3.869
 8773TIP3   OH226257   5.245   7.258   3.636
 8773TIP3    H126258   5.159   7.270   3.682
 8773TIP3    H226259   5.220   7.281   3.545
 8774TIP3   OH226260   5.667   7.283   3.434
 8774TIP3    H126261   5.595   7.298   3.370
 8774TIP3    H226262   5.676   7.372   3.474
 8775TIP3   OH226263   5.935   7.222   3.486
 8775TIP3    H126264   5.841   7.239   3.467
 8775TIP3    H226265   5.978   7.296   3.440
 8776TIP3   OH226266   6.142   7.415   3.398
 8776TIP3    H126267   6.127   7.500   3.351
 8776TIP3    H226268   6.168   7.356   3.324
 8777TIP3   OH226269   4.907   7.086   3.537
 8777TIP3    H126270   4.947   7.054   3.621
 8777TIP3    H226271   4.966   7.039   3.473
 8778TIP3   OH226272   5.120   6.971   3.414
 8778TIP3    H126273   5.120   6.875   3.429
 8778TIP3    H226274   5.210   6.988   3.380
 8779TIP3   OH226275   5.397   7.040   3.374
 8779TIP3    H126276   5.419   6.946   3.368
 8779TIP3    H226277   5.427   7.059   3.465
 8780TIP3   OH226278   5.953   5.693   3.473
 8780TIP3    H126279   5.908   5.623   3.524
 8780TIP3    H226280   6.023   5.643   3.428
 8781TIP3   OH226281   6.473   5.580   3.377
 8781TIP3    H126282   6.508   5.628   3.298
 8781TIP3    H226283   6.377   5.590   3.367
 8782TIP3   OH226284   6.568   5.673   3.138
 8782TIP3    H126285   6.641   5.620   3.099
 8782TIP3    H226286   6.603   5.764   3.124
 8783TIP3   OH226287   5.199   5.401   3.485
 8783TIP3    H126288   5.107   5.368   3.488
 8783TIP3    H226289   5.248   5.316   3.481
 8784TIP3   OH226290   4.987   5.272   3.135
 8784TIP3    H126291   5.016   5.329   3.062
 8784TIP3    H226292   4.959   5.337   3.202
 8785TIP3   OH226293   5.644   5.433   3.367
 8785TIP3    H126294   5.703   5.481   3.306
 8785TIP3    H226295   5.669   5.470   3.453
 8786TIP3   OH226296   6.192   5.581   3.348
 8786TIP3    H126297   6.189   5.538   3.261
 8786TIP3    H226298   6.181   5.503   3.408
 8787TIP3   OH226299   6.220   5.505   2.914
 8787TIP3    H126300   6.133   5.547   2.928
 8787TIP3    H226301   6.206   5.419   2.959
 8788TIP3   OH226302   4.725   6.825   2.864
 8788TIP3    H126303   4.628   6.822   2.867
 8788TIP3    H226304   4.749   6.851   2.955
 8789TIP3   OH226305   5.105   5.430   2.897
 8789TIP3    H126306   5.153   5.367   2.839
 8789TIP3    H226307   5.178   5.484   2.933
 8790TIP3   OH226308   5.615   5.607   2.995
 8790TIP3    H126309   5.674   5.560   3.056
 8790TIP3    H226310   5.637   5.700   3.021
 8791TIP3   OH226311   5.476   7.028   2.497
 8791TIP3    H126312   5.563   7.053   2.459
 8791TIP3    H226313   5.453   6.954   2.436
 8792TIP3   OH226314   6.190   7.149   2.588
 8792TIP3    H126315   6.182   7.052   2.574
 8792TIP3    H226316   6.148   7.183   2.506
 8793TIP3   OH226317   5.408   5.681   4.375
 8793TIP3    H126318   5.372   5.612   4.434
 8793TIP3    H226319   5.502   5.681   4.404
 8794TIP3   OH226320   5.657   5.678   4.495
 8794TIP3    H126321   5.743   5.652   4.458
 8794TIP3    H226322   5.643   5.609   4.563
 8795TIP3   OH226323   4.778   6.867   2.559
 8795TIP3    H126324   4.768   6.869   2.656
 8795TIP3    H226325   4.867   6.828   2.547
 8796TIP3   OH226326   6.482   5.741   4.283
 8796TIP3    H126327   6.499   5.711   4.375
 8796TIP3    H226328   6.572   5.734   4.244
 8797TIP3   OH226329   6.419   7.292   3.776
 8797TIP3    H126330   6.340   7.263   3.725
 8797TIP3    H226331   6.401   7.388   3.781
 8798TIP3   OH226332   7.685   6.662   2.543
 8798TIP3    H126333   7.652   6.753   2.526
 8798TIP3    H226334   7.609   6.611   2.510
 8799TIP3   OH226335   7.687   6.657   2.918
 8799TIP3    H126336   7.720   6.646   3.009
 8799TIP3    H226337   7.639   6.574   2.902
 8800TIP3   OH226338   6.980   6.563   3.304
 8800TIP3    H126339   7.020   6.495   3.361
 8800TIP3    H226340   7.058   6.610   3.271
 8801TIP3   OH226341   7.927   6.964   2.634
 8801TIP3    H126342   7.911   6.887   2.690
 8801TIP3    H226343   7.884   7.032   2.690
 8802TIP3   OH226344   6.958   6.967   3.015
 8802TIP3    H126345   6.952   6.869   3.017
 8802TIP3    H226346   7.054   6.979   3.001
 8803TIP3   OH226347   6.662   6.170   2.799
 8803TIP3    H126348   6.614   6.255   2.807
 8803TIP3    H226349   6.593   6.117   2.753
 8804TIP3   OH226350   6.719   6.456   2.966
 8804TIP3    H126351   6.773   6.380   2.996
 8804TIP3    H226352   6.778   6.499   2.903
 8805TIP3   OH226353   7.605   7.408   2.635
 8805TIP3    H126354   7.646   7.326   2.606
 8805TIP3    H226355   7.560   7.382   2.717
 8806TIP3   OH226356   7.493   6.901   2.974
 8806TIP3    H126357   7.540   6.829   2.929
 8806TIP3    H226358   7.565   6.968   2.972
 8807TIP3   OH226359   8.490   6.217   2.973
 8807TIP3    H126360   8.520   6.294   3.021
 8807TIP3    H226361   8.513   6.239   2.882
 8808TIP3   OH226362   7.899   6.390   3.002
 8808TIP3    H126363   7.938   6.303   3.020
 8808TIP3    H226364   7.864   6.377   2.911
 8809TIP3   OH226365   7.238   6.052   2.968
 8809TIP3    H126366   7.217   6.124   2.906
 8809TIP3    H226367   7.190   5.978   2.924
 8810TIP3   OH226368   7.933   6.145   2.596
 8810TIP3    H126369   8.008   6.126   2.656
 8810TIP3    H226370   7.981   6.180   2.518
 8811TIP3   OH226371   6.867   6.252   3.077
 8811TIP3    H126372   6.951   6.233   3.123
 8811TIP3    H226373   6.880   6.197   2.997
 8812TIP3   OH226374   7.307   6.450   2.876
 8812TIP3    H126375   7.401   6.427   2.884
 8812TIP3    H226376   7.269   6.368   2.838
 8813TIP3   OH226377   7.233   6.036   3.403
 8813TIP3    H126378   7.173   6.073   3.335
 8813TIP3    H226379   7.180   6.054   3.483
 8814TIP3   OH226380   7.565   6.882   2.410
 8814TIP3    H126381   7.519   6.870   2.326
 8814TIP3    H226382   7.528   6.967   2.439
 8815TIP3   OH226383   7.338   6.810   3.194
 8815TIP3    H126384   7.281   6.881   3.230
 8815TIP3    H226385   7.388   6.858   3.125
 8816TIP3   OH226386   8.149   6.142   2.769
 8816TIP3    H126387   8.114   6.102   2.850
 8816TIP3    H226388   8.188   6.226   2.802
 8817TIP3   OH226389   7.103   6.150   3.186
 8817TIP3    H126390   7.165   6.223   3.209
 8817TIP3    H226391   7.153   6.110   3.111
 8818TIP3   OH226392   7.168   7.008   3.296
 8818TIP3    H126393   7.146   7.094   3.254
 8818TIP3    H226394   7.088   6.995   3.350
 8819TIP3   OH226395   6.558   6.695   2.532
 8819TIP3    H126396   6.520   6.723   2.447
 8819TIP3    H226397   6.588   6.781   2.568
 8820TIP3   OH226398   8.293   6.104   3.138
 8820TIP3    H126399   8.205   6.136   3.111
 8820TIP3    H226400   8.350   6.140   3.066
 8821TIP3   OH226401   7.587   5.754   3.119
 8821TIP3    H126402   7.571   5.658   3.135
 8821TIP3    H226403   7.509   5.792   3.165
 8822TIP3   OH226404   7.819   7.015   2.372
 8822TIP3    H126405   7.750   6.950   2.354
 8822TIP3    H226406   7.851   6.989   2.461
 8823TIP3   OH226407   7.517   6.515   2.375
 8823TIP3    H126408   7.437   6.570   2.357
 8823TIP3    H226409   7.560   6.514   2.288
 8824TIP3   OH226410   7.476   6.300   2.087
 8824TIP3    H126411   7.542   6.355   2.134
 8824TIP3    H226412   7.537   6.240   2.039
 8825TIP3   OH226413   8.445   6.746   3.001
 8825TIP3    H126414   8.360   6.793   3.016
 8825TIP3    H226415   8.460   6.772   2.909
 8826TIP3   OH226416   7.862   6.579   2.355
 8826TIP3    H126417   7.808   6.606   2.433
 8826TIP3    H226418   7.949   6.563   2.397
 8827TIP3   OH226419   8.098   6.639   3.257
 8827TIP3    H126420   8.093   6.724   3.303
 8827TIP3    H226421   8.008   6.637   3.217
 8828TIP3   OH226422   7.094   6.597   2.764
 8828TIP3    H126423   7.055   6.540   2.695
 8828TIP3    H226424   7.172   6.545   2.792
 8829TIP3   OH226425   7.221   6.996   2.916
 8829TIP3    H126426   7.209   6.973   2.822
 8829TIP3    H226427   7.313   6.969   2.933
 8830TIP3   OH226428   7.220   6.573   3.116
 8830TIP3    H126429   7.259   6.547   3.030
 8830TIP3    H226430   7.270   6.656   3.136
 8831TIP3   OH226431   7.369   7.124   3.450
 8831TIP3    H126432   7.305   7.187   3.489
 8831TIP3    H226433   7.309   7.072   3.393
 8832TIP3   OH226434   7.701   6.454   2.170
 8832TIP3    H126435   7.762   6.510   2.223
 8832TIP3    H226436   7.732   6.475   2.078
 8833TIP3   OH226437   7.131   6.677   3.549
 8833TIP3    H126438   7.134   6.766   3.589
 8833TIP3    H226439   7.036   6.666   3.536
 8834TIP3   OH226440   7.447   7.149   2.439
 8834TIP3    H126441   7.477   7.231   2.480
 8834TIP3    H226442   7.384   7.185   2.374
 8835TIP3   OH226443   7.164   7.295   3.527
 8835TIP3    H126444   7.132   7.298   3.434
 8835TIP3    H226445   7.083   7.271   3.577
 8836TIP3   OH226446   8.214   5.700   2.215
 8836TIP3    H126447   8.135   5.709   2.273
 8836TIP3    H226448   8.235   5.791   2.195
 8837TIP3   OH226449   6.962   6.440   2.568
 8837TIP3    H126450   6.899   6.489   2.511
 8837TIP3    H226451   6.921   6.353   2.572
 8838TIP3   OH226452   6.744   6.821   3.478
 8838TIP3    H126453   6.685   6.799   3.404
 8838TIP3    H226454   6.782   6.734   3.503
 8839TIP3   OH226455   6.604   7.006   3.123
 8839TIP3    H126456   6.697   7.014   3.098
 8839TIP3    H226457   6.588   7.092   3.164
 8840TIP3   OH226458   7.556   7.259   3.296
 8840TIP3    H126459   7.555   7.351   3.329
 8840TIP3    H226460   7.494   7.214   3.357
 8841TIP3   OH226461   7.300   7.361   2.263
 8841TIP3    H126462   7.296   7.354   2.166
 8841TIP3    H226463   7.343   7.446   2.275
 8842TIP3   OH226464   6.766   7.226   2.633
 8842TIP3    H126465   6.819   7.223   2.715
 8842TIP3    H226466   6.705   7.152   2.647
 8843TIP3   OH226467   8.360   6.606   3.448
 8843TIP3    H126468   8.294   6.626   3.381
 8843TIP3    H226469   8.389   6.517   3.420
 8844TIP3   OH226470   6.950   7.007   3.460
 8844TIP3    H126471   7.000   6.993   3.543
 8844TIP3    H226472   6.874   6.946   3.471
 8845TIP3   OH226473   7.348   5.829   3.247
 8845TIP3    H126474   7.259   5.800   3.219
 8845TIP3    H226475   7.323   5.911   3.294
 8846TIP3   OH226476   7.883   5.946   3.442
 8846TIP3    H126477   7.951   5.916   3.506
 8846TIP3    H226478   7.799   5.926   3.488
 8847TIP3   OH226479   8.116   6.372   3.355
 8847TIP3    H126480   8.069   6.372   3.441
 8847TIP3    H226481   8.100   6.462   3.322
 8848TIP3   OH226482   7.788   6.497   1.917
 8848TIP3    H126483   7.744   6.475   1.833
 8848TIP3    H226484   7.835   6.578   1.892
 8849TIP3   OH226485   7.494   5.877   2.218
 8849TIP3    H126486   7.458   5.874   2.309
 8849TIP3    H226487   7.453   5.795   2.182
 8850TIP3   OH226488   7.279   6.349   3.262
 8850TIP3    H126489   7.234   6.371   3.346
 8850TIP3    H226490   7.263   6.430   3.209
 8851TIP3   OH226491   7.165   6.231   2.779
 8851TIP3    H126492   7.072   6.208   2.795
 8851TIP3    H226493   7.177   6.192   2.690
 8852TIP3   OH226494   7.655   6.317   2.508
 8852TIP3    H126495   7.602   6.388   2.465
 8852TIP3    H226496   7.710   6.286   2.433
 8853TIP3   OH226497   7.831   6.594   3.591
 8853TIP3    H126498   7.809   6.523   3.655
 8853TIP3    H226499   7.925   6.608   3.610
 8854TIP3   OH226500   7.809   6.346   2.746
 8854TIP3    H126501   7.748   6.378   2.676
 8854TIP3    H226502   7.842   6.266   2.699
 8855TIP3   OH226503   7.099   6.376   3.475
 8855TIP3    H126504   7.136   6.439   3.539
 8855TIP3    H226505   7.092   6.295   3.528
 8856TIP3   OH226506   7.150   5.853   2.184
 8856TIP3    H126507   7.138   5.852   2.281
 8856TIP3    H226508   7.073   5.906   2.157
 8857TIP3   OH226509   6.693   5.899   3.059
 8857TIP3    H126510   6.773   5.928   3.106
 8857TIP3    H226511   6.725   5.867   2.974
 8858TIP3   OH226512   6.662   5.877   2.575
 8858TIP3    H126513   6.706   5.914   2.495
 8858TIP3    H226514   6.600   5.951   2.593
 8859TIP3   OH226515   7.831   6.587   3.173
 8859TIP3    H126516   7.859   6.517   3.109
 8859TIP3    H226517   7.792   6.532   3.244
 8860TIP3   OH226518   7.495   6.049   2.840
 8860TIP3    H126519   7.411   6.050   2.891
 8860TIP3    H226520   7.561   6.057   2.911
 8861TIP3   OH226521   6.924   6.110   2.850
 8861TIP3    H126522   6.830   6.117   2.821
 8861TIP3    H226523   6.949   6.019   2.824
 8862TIP3   OH226524   7.194   6.106   2.537
 8862TIP3    H126525   7.287   6.123   2.513
 8862TIP3    H226526   7.145   6.128   2.454
 8863TIP3   OH226527   7.982   6.127   3.036
 8863TIP3    H126528   7.953   6.142   3.129
 8863TIP3    H226529   7.911   6.067   3.006
 8864TIP3   OH226530   7.040   6.139   2.315
 8864TIP3    H126531   6.970   6.094   2.265
 8864TIP3    H226532   7.092   6.177   2.241
 8865TIP3   OH226533   7.110   6.926   3.682
 8865TIP3    H126534   7.191   6.959   3.726
 8865TIP3    H226535   7.046   6.932   3.756
 8866TIP3   OH226536   7.573   6.380   2.936
 8866TIP3    H126537   7.649   6.347   2.886
 8866TIP3    H226538   7.585   6.338   3.023
 8867TIP3   OH226539   7.096   5.870   2.818
 8867TIP3    H126540   7.061   5.792   2.865
 8867TIP3    H226541   7.138   5.831   2.741
 8868TIP3   OH226542   7.551   6.279   3.232
 8868TIP3    H126543   7.462   6.318   3.241
 8868TIP3    H226544   7.608   6.342   3.279
 8869TIP3   OH226545   7.291   6.669   2.323
 8869TIP3    H126546   7.216   6.607   2.309
 8869TIP3    H226547   7.269   6.704   2.413
 8870TIP3   OH226548   8.192   6.860   2.936
 8870TIP3    H126549   8.132   6.899   2.869
 8870TIP3    H226550   8.124   6.800   2.972
 8871TIP3   OH226551   7.747   5.977   2.193
 8871TIP3    H126552   7.649   5.962   2.195
 8871TIP3    H226553   7.754   6.073   2.209
 8872TIP3   OH226554   7.663   6.963   3.362
 8872TIP3    H126555   7.710   6.999   3.437
 8872TIP3    H226556   7.656   7.039   3.302
 8873TIP3   OH226557   7.812   6.230   2.291
 8873TIP3    H126558   7.909   6.240   2.301
 8873TIP3    H226559   7.789   6.307   2.234
 8874TIP3   OH226560   6.974   6.679   3.000
 8874TIP3    H126561   7.008   6.664   2.909
 8874TIP3    H226562   7.041   6.633   3.052
 8875TIP3   OH226563   7.431   6.822   2.142
 8875TIP3    H126564   7.383   6.909   2.144
 8875TIP3    H226565   7.377   6.768   2.204
 8876TIP3   OH226566   6.856   6.609   3.621
 8876TIP3    H126567   6.905   6.632   3.702
 8876TIP3    H226568   6.819   6.524   3.649
 8877TIP3   OH226569   7.588   6.723   3.635
 8877TIP3    H126570   7.529   6.675   3.575
 8877TIP3    H226571   7.675   6.695   3.602
 8878TIP3   OH226572   7.838   7.218   3.242
 8878TIP3    H126573   7.756   7.218   3.190
 8878TIP3    H226574   7.818   7.282   3.313
 8879TIP3   OH226575   7.955   6.750   2.866
 8879TIP3    H126576   7.860   6.759   2.887
 8879TIP3    H226577   7.958   6.667   2.815
 8880TIP3   OH226578   7.085   6.997   2.625
 8880TIP3    H126579   7.086   7.079   2.570
 8880TIP3    H226580   6.990   6.983   2.631
 8881TIP3   OH226581   6.647   6.301   2.329
 8881TIP3    H126582   6.691   6.386   2.347
 8881TIP3    H226583   6.569   6.306   2.388
 8882TIP3   OH226584   7.214   6.760   2.566
 8882TIP3    H126585   7.183   6.851   2.582
 8882TIP3    H226586   7.178   6.713   2.643
 8883TIP3   OH226587   7.349   7.327   3.097
 8883TIP3    H126588   7.386   7.397   3.038
 8883TIP3    H226589   7.431   7.294   3.137
 8884TIP3   OH226590   7.005   7.223   2.481
 8884TIP3    H126591   6.917   7.242   2.518
 8884TIP3    H226592   7.045   7.313   2.487
 8885TIP3   OH226593   7.656   6.821   1.942
 8885TIP3    H126594   7.701   6.854   2.020
 8885TIP3    H226595   7.564   6.818   1.972
 8886TIP3   OH226596   7.073   6.120   3.619
 8886TIP3    H126597   6.977   6.124   3.632
 8886TIP3    H226598   7.100   6.059   3.690
 8887TIP3   OH226599   7.883   6.780   2.166
 8887TIP3    H126600   7.847   6.725   2.238
 8887TIP3    H226601   7.966   6.735   2.149
 8888TIP3   OH226602   6.789   7.204   3.252
 8888TIP3    H126603   6.848   7.134   3.284
 8888TIP3    H226604   6.822   7.281   3.301
 8889TIP3   OH226605   7.076   6.847   1.933
 8889TIP3    H126606   7.097   6.755   1.908
 8889TIP3    H226607   7.056   6.838   2.028
 8890TIP3   OH226608   7.025   6.851   2.207
 8890TIP3    H126609   7.100   6.833   2.265
 8890TIP3    H226610   7.022   6.949   2.210
 8891TIP3   OH226611   6.759   6.546   2.410
 8891TIP3    H126612   6.692   6.593   2.465
 8891TIP3    H226613   6.773   6.614   2.341
 8892TIP3   OH226614   7.913   6.180   3.296
 8892TIP3    H126615   7.992   6.224   3.333
 8892TIP3    H226616   7.902   6.102   3.354
 8893TIP3   OH226617   7.792   5.931   2.469
 8893TIP3    H126618   7.775   5.951   2.375
 8893TIP3    H226619   7.828   6.015   2.502
 8894TIP3   OH226620   7.291   7.053   2.155
 8894TIP3    H126621   7.203   7.078   2.188
 8894TIP3    H226622   7.309   7.131   2.099
 8895TIP3   OH226623   7.479   6.113   2.569
 8895TIP3    H126624   7.542   6.186   2.550
 8895TIP3    H226625   7.484   6.107   2.666
 8896TIP3   OH226626   7.745   6.427   3.378
 8896TIP3    H126627   7.769   6.486   3.453
 8896TIP3    H226628   7.804   6.352   3.390
 8897TIP3   OH226629   7.621   5.838   2.671
 8897TIP3    H126630   7.606   5.918   2.725
 8897TIP3    H226631   7.683   5.873   2.603
 8898TIP3   OH226632   7.031   7.119   2.224
 8898TIP3    H126633   7.010   7.190   2.158
 8898TIP3    H226634   7.023   7.169   2.308
 8899TIP3   OH226635   7.134   5.840   2.462
 8899TIP3    H126636   7.132   5.931   2.496
 8899TIP3    H226637   7.230   5.822   2.468
 8900TIP3   OH226638   8.388   6.350   3.344
 8900TIP3    H126639   8.290   6.346   3.353
 8900TIP3    H226640   8.401   6.294   3.267
 8901TIP3   OH226641   8.037   6.512   2.736
 8901TIP3    H126642   7.956   6.460   2.751
 8901TIP3    H226643   8.102   6.468   2.794
 8902TIP3   OH226644   6.751   6.753   2.215
 8902TIP3    H126645   6.815   6.826   2.223
 8902TIP3    H226646   6.798   6.699   2.147
 8903TIP3   OH226647   6.693   6.030   2.351
 8903TIP3    H126648   6.696   6.128   2.347
 8903TIP3    H226649   6.615   6.010   2.298
 8904TIP3   OH226650   7.080   5.753   3.220
 8904TIP3    H126651   7.051   5.718   3.133
 8904TIP3    H226652   7.072   5.674   3.278
 8905TIP3   OH226653   6.617   6.957   2.602
 8905TIP3    H126654   6.547   6.997   2.656
 8905TIP3    H226655   6.600   7.003   2.517
 8906TIP3   OH226656   6.780   7.515   3.676
 8906TIP3    H126657   6.867   7.516   3.722
 8906TIP3    H226658   6.762   7.420   3.672
 8907TIP3   OH226659   7.258   7.470   3.723
 8907TIP3    H126660   7.354   7.458   3.723
 8907TIP3    H226661   7.232   7.413   3.648
 8908TIP3   OH226662   7.241   7.051   1.841
 8908TIP3    H126663   7.185   6.981   1.881
 8908TIP3    H226664   7.313   6.997   1.803
 8909TIP3   OH226665   7.877   7.386   3.467
 8909TIP3    H126666   7.878   7.311   3.530
 8909TIP3    H226667   7.968   7.418   3.469
 8910TIP3   OH226668   6.909   6.921   3.875
 8910TIP3    H126669   6.924   6.825   3.883
 8910TIP3    H226670   6.821   6.924   3.832
 8911TIP3   OH226671   6.887   6.565   2.068
 8911TIP3    H126672   6.946   6.539   2.141
 8911TIP3    H226673   6.952   6.572   1.995
 8912TIP3   OH226674   7.517   7.003   3.648
 8912TIP3    H126675   7.480   7.027   3.560
 8912TIP3    H226676   7.549   6.911   3.632
 8913TIP3   OH226677   7.374   6.757   1.879
 8913TIP3    H126678   7.376   6.771   1.975
 8913TIP3    H226679   7.389   6.660   1.873
 8914TIP3   OH226680   8.013   6.998   3.250
 8914TIP3    H126681   8.047   7.065   3.191
 8914TIP3    H226682   7.919   7.022   3.247
 8915TIP3   OH226683   7.024   6.654   3.851
 8915TIP3    H126684   7.102   6.605   3.825
 8915TIP3    H226685   7.051   6.686   3.940
 8916TIP3   OH226686   7.094   6.473   2.287
 8916TIP3    H126687   7.068   6.430   2.370
 8916TIP3    H226688   7.131   6.398   2.236
 8917TIP3   OH226689   7.362   6.529   3.511
 8917TIP3    H126690   7.288   6.594   3.517
 8917TIP3    H226691   7.415   6.566   3.437
 8918TIP3   OH226692   7.197   6.266   2.130
 8918TIP3    H126693   7.171   6.273   2.036
 8918TIP3    H226694   7.295   6.270   2.121
 8919TIP3   OH226695   7.888   6.936   3.653
 8919TIP3    H126696   7.955   6.903   3.592
 8919TIP3    H226697   7.882   6.865   3.719
 8920TIP3   OH226698   7.490   6.326   3.640
 8920TIP3    H126699   7.490   6.247   3.583
 8920TIP3    H226700   7.446   6.393   3.583
 8921TIP3   OH226701   7.491   6.111   3.453
 8921TIP3    H126702   7.519   6.154   3.370
 8921TIP3    H226703   7.398   6.088   3.432
 8922TIP3   OH226704   7.516   6.646   3.324
 8922TIP3    H126705   7.603   6.672   3.292
 8922TIP3    H226706   7.459   6.714   3.281
 8923TIP3   OH226707   8.106   6.612   3.708
 8923TIP3    H126708   8.156   6.529   3.697
 8923TIP3    H226709   8.168   6.676   3.669
 8924TIP3   OH226710   8.115   6.869   3.463
 8924TIP3    H126711   8.066   6.920   3.395
 8924TIP3    H226712   8.204   6.871   3.420
 8925TIP3   OH226713   7.371   6.431   3.877
 8925TIP3    H126714   7.300   6.365   3.890
 8925TIP3    H226715   7.400   6.410   3.786
 8926TIP3   OH226716   7.622   5.875   3.523
 8926TIP3    H126717   7.573   5.956   3.497
 8926TIP3    H226718   7.554   5.806   3.509
 8927TIP3   OH226719   7.748   6.375   3.736
 8927TIP3    H126720   7.723   6.365   3.830
 8927TIP3    H226721   7.661   6.354   3.695
 8928TIP3   OH226722   7.987   6.331   3.590
 8928TIP3    H126723   7.911   6.331   3.652
 8928TIP3    H226724   8.061   6.301   3.647
 8929TIP3   OH226725   8.214   6.272   3.740
 8929TIP3    H126726   8.229   6.176   3.755
 8929TIP3    H226727   8.218   6.309   3.830
 8930TIP3   OH226728   7.205   6.215   3.928
 8930TIP3    H126729   7.207   6.123   3.895
 8930TIP3    H226730   7.240   6.203   4.018
 8931TIP3   OH226731   7.717   5.883   3.780
 8931TIP3    H126732   7.783   5.811   3.772
 8931TIP3    H226733   7.677   5.880   3.690
 8932TIP3   OH226734   7.783   6.099   3.933
 8932TIP3    H126735   7.761   6.028   3.869
 8932TIP3    H226736   7.705   6.157   3.926
 8933TIP3   OH226737   7.010   7.309   2.032
 8933TIP3    H126738   7.106   7.327   2.030
 8933TIP3    H226739   6.983   7.364   1.955
 8934TIP3   OH226740   6.483   6.708   2.253
 8934TIP3    H126741   6.578   6.732   2.237
 8934TIP3    H226742   6.478   6.621   2.210
 8935TIP3   OH226743   6.394   7.317   2.665
 8935TIP3    H126744   6.329   7.255   2.626
 8935TIP3    H226745   6.442   7.259   2.728
 8936TIP3   OH226746   6.536   7.168   2.847
 8936TIP3    H126747   6.521   7.100   2.914
 8936TIP3    H226748   6.589   7.233   2.898
 8937TIP3   OH226749   8.073   6.236   1.943
 8937TIP3    H126750   8.047   6.276   1.859
 8937TIP3    H226751   8.053   6.142   1.927
 8938TIP3   OH226752   8.102   6.504   2.472
 8938TIP3    H126753   8.101   6.407   2.461
 8938TIP3    H226754   8.084   6.514   2.568
 8939TIP3   OH226755   6.726   6.564   3.215
 8939TIP3    H126756   6.742   6.542   3.121
 8939TIP3    H226757   6.820   6.573   3.246
 8940TIP3   OH226758   8.343   6.900   3.320
 8940TIP3    H126759   8.434   6.871   3.340
 8940TIP3    H226760   8.360   6.968   3.252
 8941TIP3   OH226761   8.026   5.965   1.930
 8941TIP3    H126762   8.079   5.914   1.992
 8941TIP3    H226763   7.944   5.913   1.922
 8942TIP3   OH226764   8.090   6.226   2.379
 8942TIP3    H126765   8.126   6.135   2.393
 8942TIP3    H226766   8.136   6.251   2.297
 8943TIP3   OH226767   8.253   6.388   2.859
 8943TIP3    H126768   8.330   6.431   2.821
 8943TIP3    H226769   8.256   6.425   2.951
 8944TIP3   OH226770   8.296   6.526   3.087
 8944TIP3    H126771   8.227   6.565   3.145
 8944TIP3    H226772   8.359   6.600   3.077
 8945TIP3   OH226773   6.939   6.267   3.899
 8945TIP3    H126774   7.037   6.260   3.901
 8945TIP3    H226775   6.915   6.180   3.937
 8946TIP3   OH226776   8.181   5.974   2.421
 8946TIP3    H126777   8.241   5.946   2.494
 8946TIP3    H226778   8.123   5.895   2.414
 8947TIP3   OH226779   6.898   5.964   3.244
 8947TIP3    H126780   6.957   5.886   3.246
 8947TIP3    H226781   6.963   6.034   3.225
 8948TIP3   OH226782   6.683   6.287   3.291
 8948TIP3    H126783   6.722   6.244   3.212
 8948TIP3    H226784   6.759   6.339   3.319
 8949TIP3   OH226785   6.685   5.746   2.810
 8949TIP3    H126786   6.591   5.733   2.829
 8949TIP3    H226787   6.682   5.799   2.727
 8950TIP3   OH226788   6.907   5.820   3.619
 8950TIP3    H126789   6.855   5.809   3.700
 8950TIP3    H226790   6.838   5.852   3.558
 8951TIP3   OH226791   6.946   7.240   3.692
 8951TIP3    H126792   6.852   7.219   3.677
 8951TIP3    H226793   6.953   7.231   3.788
 8952TIP3   OH226794   7.125   7.279   3.243
 8952TIP3    H126795   7.078   7.354   3.200
 8952TIP3    H226796   7.212   7.290   3.198
 8953TIP3   OH226797   7.579   7.532   3.376
 8953TIP3    H126798   7.613   7.532   3.468
 8953TIP3    H226799   7.654   7.571   3.328
 8954TIP3   OH226800   8.523   6.009   3.356
 8954TIP3    H126801   8.454   6.043   3.298
 8954TIP3    H226802   8.577   5.955   3.295
 8955TIP3   OH226803   6.796   7.527   3.270
 8955TIP3    H126804   6.709   7.563   3.241
 8955TIP3    H226805   6.809   7.577   3.351
 8956TIP3   OH226806   7.029   7.506   3.122
 8956TIP3    H126807   6.941   7.520   3.165
 8956TIP3    H226808   7.012   7.539   3.032
 8957TIP3   OH226809   7.446   7.513   2.927
 8957TIP3    H126810   7.405   7.559   2.852
 8957TIP3    H226811   7.473   7.588   2.983
 8958TIP3   OH226812   6.707   7.323   3.008
 8958TIP3    H126813   6.737   7.300   3.099
 8958TIP3    H226814   6.782   7.284   2.956
 8959TIP3   OH226815   6.905   7.199   2.868
 8959TIP3    H126816   6.925   7.115   2.916
 8959TIP3    H226817   6.994   7.239   2.862
 8960TIP3   OH226818   7.167   7.291   2.876
 8960TIP3    H126819   7.205   7.204   2.859
 8960TIP3    H226820   7.219   7.317   2.955
 8961TIP3   OH226821   7.754   5.951   2.965
 8961TIP3    H126822   7.705   5.881   3.012
 8961TIP3    H226823   7.819   5.900   2.914
 8962TIP3   OH226824   8.275   5.830   2.860
 8962TIP3    H126825   8.307   5.882   2.784
 8962TIP3    H226826   8.179   5.846   2.857
 8963TIP3   OH226827   8.376   5.923   2.618
 8963TIP3    H126828   8.448   5.868   2.581
 8963TIP3    H226829   8.411   6.012   2.612
 8964TIP3   OH226830   6.995   5.657   2.973
 8964TIP3    H126831   6.903   5.625   2.975
 8964TIP3    H226832   7.043   5.572   2.968
 8965TIP3   OH226833   6.790   5.529   2.623
 8965TIP3    H126834   6.816   5.585   2.547
 8965TIP3    H226835   6.759   5.595   2.687
 8966TIP3   OH226836   7.443   5.687   2.854
 8966TIP3    H126837   7.498   5.737   2.792
 8966TIP3    H226838   7.463   5.730   2.938
 8967TIP3   OH226839   7.994   5.837   2.835
 8967TIP3    H126840   7.984   5.799   2.747
 8967TIP3    H226841   7.977   5.758   2.892
 8968TIP3   OH226842   8.012   5.758   2.400
 8968TIP3    H126843   7.926   5.802   2.414
 8968TIP3    H226844   7.997   5.673   2.445
 8969TIP3   OH226845   6.498   7.101   2.405
 8969TIP3    H126846   6.413   7.071   2.369
 8969TIP3    H226847   6.493   7.196   2.385
 8970TIP3   OH226848   6.900   5.686   2.386
 8970TIP3    H126849   6.947   5.624   2.326
 8970TIP3    H226850   6.975   5.740   2.420
 8971TIP3   OH226851   7.411   5.863   2.483
 8971TIP3    H126852   7.472   5.816   2.543
 8971TIP3    H226853   7.433   5.956   2.507
 8972TIP3   OH226854   7.295   7.291   1.988
 8972TIP3    H126855   7.357   7.353   1.942
 8972TIP3    H226856   7.278   7.226   1.917
 8973TIP3   OH226857   7.204   5.941   3.866
 8973TIP3    H126858   7.168   5.869   3.921
 8973TIP3    H226859   7.298   5.940   3.894
 8974TIP3   OH226860   7.456   5.939   3.985
 8974TIP3    H126861   7.535   5.905   3.939
 8974TIP3    H226862   7.439   5.867   4.050
 8975TIP3   OH226863   6.571   7.117   2.039
 8975TIP3    H126864   6.582   7.153   2.128
 8975TIP3    H226865   6.659   7.077   2.022
 8976TIP3   OH226866   8.277   6.002   3.776
 8976TIP3    H126867   8.302   5.964   3.861
 8976TIP3    H226868   8.362   5.999   3.727
 8977TIP3   OH226869   0.952   6.999   4.659
 8977TIP3    H126870   0.980   7.082   4.702
 8977TIP3    H226871   0.976   7.017   4.566
 8978TIP3   OH226872   0.381   6.894   4.270
 8978TIP3    H126873   0.443   6.910   4.345
 8978TIP3    H226874   0.419   6.954   4.204
 8979TIP3   OH226875   1.019   7.208   4.834
 8979TIP3    H126876   0.936   7.257   4.818
 8979TIP3    H226877   1.046   7.244   4.920
 8980TIP3   OH226878   0.579   6.948   4.456
 8980TIP3    H126879   0.601   6.865   4.501
 8980TIP3    H226880   0.647   7.011   4.486
 8981TIP3   OH226881   0.749   6.909   4.827
 8981TIP3    H126882   0.669   6.947   4.790
 8981TIP3    H226883   0.816   6.932   4.759
 8982TIP3   OH226884   0.670   7.927   4.809
 8982TIP3    H126885   0.652   7.840   4.768
 8982TIP3    H226886   0.705   7.979   4.734
 8983TIP3   OH226887   0.876   7.549   4.651
 8983TIP3    H126888   0.793   7.602   4.659
 8983TIP3    H226889   0.905   7.573   4.561
 8984TIP3   OH226890   0.677   6.489   3.904
 8984TIP3    H126891   0.596   6.503   3.958
 8984TIP3    H226892   0.684   6.575   3.859
 8985TIP3   OH226893   0.819   7.389   5.131
 8985TIP3    H126894   0.745   7.413   5.075
 8985TIP3    H226895   0.821   7.292   5.120
 8986TIP3   OH226896   0.645   7.700   4.649
 8986TIP3    H126897   0.678   7.748   4.570
 8986TIP3    H226898   0.557   7.673   4.622
 8987TIP3   OH226899   0.713   7.108   3.809
 8987TIP3    H126900   0.646   7.066   3.750
 8987TIP3    H226901   0.708   7.199   3.772
 8988TIP3   OH226902   0.922   7.956   4.902
 8988TIP3    H126903   0.825   7.961   4.886
 8988TIP3    H226904   0.953   7.936   4.811
 8989TIP3   OH226905   0.819   7.124   5.051
 8989TIP3    H126906   0.737   7.077   5.071
 8989TIP3    H226907   0.841   7.088   4.964
 8990TIP3   OH226908   0.484   7.297   4.434
 8990TIP3    H126909   0.426   7.222   4.444
 8990TIP3    H226910   0.566   7.264   4.476
 8991TIP3   OH226911   0.485   7.382   3.473
 8991TIP3    H126912   0.433   7.338   3.402
 8991TIP3    H226913   0.465   7.475   3.458
 8992TIP3   OH226914   0.745   7.043   5.474
 8992TIP3    H126915   0.741   6.945   5.467
 8992TIP3    H226916   0.648   7.063   5.473
 8993TIP3   OH226917   0.611   7.559   3.814
 8993TIP3    H126918   0.684   7.621   3.791
 8993TIP3    H226919   0.646   7.520   3.897
 8994TIP3   OH226920   0.739   7.438   4.020
 8994TIP3    H126921   0.675   7.389   4.078
 8994TIP3    H226922   0.803   7.472   4.085
 8995TIP3   OH226923   0.776   7.826   4.450
 8995TIP3    H126924   0.838   7.765   4.405
 8995TIP3    H226925   0.779   7.905   4.396
 8996TIP3   OH226926   0.673   7.341   3.664
 8996TIP3    H126927   0.602   7.346   3.595
 8996TIP3    H226928   0.645   7.416   3.720
 8997TIP3   OH226929   0.538   7.013   3.621
 8997TIP3    H126930   0.499   7.065   3.550
 8997TIP3    H226931   0.522   6.921   3.592
 8998TIP3   OH226932   0.573   7.288   4.171
 8998TIP3    H126933   0.552   7.196   4.149
 8998TIP3    H226934   0.538   7.296   4.262
 8999TIP3   OH226935   0.831   7.715   5.026
 8999TIP3    H126936   0.904   7.651   5.017
 8999TIP3    H226937   0.855   7.784   4.963
 9000TIP3   OH226938   1.027   7.526   5.031
 9000TIP3    H126939   0.954   7.479   5.078
 9000TIP3    H226940   1.099   7.462   5.047
 9001TIP3   OH226941   0.504   6.740   3.580
 9001TIP3    H126942   0.577   6.728   3.645
 9001TIP3    H226943   0.432   6.689   3.624
 9002TIP3   OH226944   0.552   7.017   4.078
 9002TIP3    H126945   0.589   6.927   4.089
 9002TIP3    H226946   0.591   7.044   3.994
 9003TIP3   OH226947   0.706   7.189   4.560
 9003TIP3    H126948   0.791   7.212   4.516
 9003TIP3    H226949   0.723   7.229   4.648
 9004TIP3   OH226950   0.765   7.334   4.790
 9004TIP3    H126951   0.680   7.365   4.826
 9004TIP3    H226952   0.801   7.415   4.747
 9005TIP3   OH226953   1.226   6.923   5.341
 9005TIP3    H126954   1.285   6.856   5.300
 9005TIP3    H226955   1.197   6.974   5.263
 9006TIP3   OH226956   0.662   6.758   4.091
 9006TIP3    H126957   0.704   6.747   4.179
 9006TIP3    H226958   0.596   6.686   4.095
 9007TIP3   OH226959   1.092   7.060   5.146
 9007TIP3    H126960   1.010   7.101   5.179
 9007TIP3    H226961   1.056   6.988   5.090
 9008TIP3   OH226962   0.735   6.702   3.724
 9008TIP3    H126963   0.789   6.627   3.695
 9008TIP3    H226964   0.802   6.773   3.731
 9009TIP3   OH226965   0.993   6.819   5.029
 9009TIP3    H126966   0.903   6.802   4.996
 9009TIP3    H226967   1.033   6.729   5.020
 9010TIP3   OH226968   0.740   6.617   4.551
 9010TIP3    H126969   0.775   6.664   4.472
 9010TIP3    H226970   0.644   6.636   4.544
 9011TIP3   OH226971   0.819   6.720   4.315
 9011TIP3    H126972   0.891   6.666   4.276
 9011TIP3    H226973   0.854   6.810   4.297
 9012TIP3   OH226974   0.478   6.654   4.523
 9012TIP3    H126975   0.414   6.653   4.451
 9012TIP3    H226976   0.460   6.568   4.568
 9013TIP3   OH226977   0.478   6.542   4.086
 9013TIP3    H126978   0.388   6.572   4.071
 9013TIP3    H226979   0.461   6.460   4.138
 9014TIP3   OH226980   0.734   6.771   5.458
 9014TIP3    H126981   0.750   6.745   5.552
 9014TIP3    H226982   0.824   6.765   5.420
 9015TIP3   OH226983   1.938   7.695   3.727
 9015TIP3    H126984   1.901   7.782   3.699
 9015TIP3    H226985   1.867   7.638   3.693
 9016TIP3   OH226986   1.937   7.710   4.101
 9016TIP3    H126987   1.970   7.684   4.189
 9016TIP3    H226988   1.896   7.628   4.070
 9017TIP3   OH226989   1.231   7.605   4.467
 9017TIP3    H126990   1.263   7.536   4.529
 9017TIP3    H226991   1.310   7.661   4.460
 9018TIP3   OH226992   2.154   8.011   3.790
 9018TIP3    H126993   2.152   7.937   3.853
 9018TIP3    H226994   2.210   8.075   3.836
 9019TIP3   OH226995   1.264   7.959   4.269
 9019TIP3    H126996   1.236   7.870   4.238
 9019TIP3    H226997   1.347   7.971   4.217
 9020TIP3   OH226998   0.915   7.218   3.972
 9020TIP3    H126999   0.867   7.301   3.989
 9020TIP3    H227000   0.841   7.164   3.938
 9021TIP3   OH227001   0.968   7.506   4.155
 9021TIP3    H127002   1.017   7.427   4.185
 9021TIP3    H227003   1.034   7.549   4.098
 9022TIP3   OH227004   1.750   7.928   4.141
 9022TIP3    H127005   1.796   7.849   4.108
 9022TIP3    H227006   1.828   7.980   4.169
 9023TIP3   OH227007   2.748   7.256   4.145
 9023TIP3    H127008   2.778   7.339   4.186
 9023TIP3    H227009   2.773   7.270   4.052
 9024TIP3   OH227010   2.146   7.438   4.179
 9024TIP3    H127011   2.189   7.353   4.200
 9024TIP3    H227012   2.114   7.421   4.088
 9025TIP3   OH227013   1.485   7.097   4.144
 9025TIP3    H127014   1.465   7.170   4.081
 9025TIP3    H227015   1.437   7.024   4.101
 9026TIP3   OH227016   2.179   7.190   3.765
 9026TIP3    H127017   2.250   7.174   3.832
 9026TIP3    H227018   2.233   7.223   3.691
 9027TIP3   OH227019   1.118   7.298   4.253
 9027TIP3    H127020   1.200   7.278   4.301
 9027TIP3    H227021   1.130   7.243   4.173
 9028TIP3   OH227022   1.557   7.496   4.048
 9028TIP3    H127023   1.651   7.472   4.060
 9028TIP3    H227024   1.518   7.412   4.016
 9029TIP3   OH227025   2.822   7.464   4.317
 9029TIP3    H127026   2.738   7.510   4.297
 9029TIP3    H227027   2.842   7.500   4.405
 9030TIP3   OH227028   1.481   7.081   4.580
 9030TIP3    H127029   1.421   7.117   4.512
 9030TIP3    H227030   1.429   7.097   4.661
 9031TIP3   OH227031   1.818   7.897   3.586
 9031TIP3    H127032   1.771   7.893   3.502
 9031TIP3    H227033   1.839   7.992   3.595
 9032TIP3   OH227034   1.585   7.861   4.373
 9032TIP3    H127035   1.519   7.925   4.406
 9032TIP3    H227036   1.618   7.908   4.294
 9033TIP3   OH227037   2.385   7.194   3.941
 9033TIP3    H127038   2.378   7.144   4.023
 9033TIP3    H227039   2.440   7.270   3.968
 9034TIP3   OH227040   1.353   7.195   4.363
 9034TIP3    H127041   1.415   7.268   4.387
 9034TIP3    H227042   1.402   7.155   4.288
 9035TIP3   OH227043   1.412   8.074   4.480
 9035TIP3    H127044   1.368   8.065   4.393
 9035TIP3    H227045   1.334   8.069   4.538
 9036TIP3   OH227046   0.818   7.712   3.718
 9036TIP3    H127047   0.774   7.717   3.631
 9036TIP3    H227048   0.827   7.807   3.735
 9037TIP3   OH227049   2.541   7.157   4.312
 9037TIP3    H127050   2.453   7.183   4.279
 9037TIP3    H227051   2.601   7.189   4.241
 9038TIP3   OH227052   1.834   6.797   4.294
 9038TIP3    H127053   1.821   6.703   4.313
 9038TIP3    H227054   1.757   6.836   4.341
 9039TIP3   OH227055   2.179   8.028   3.508
 9039TIP3    H127056   2.155   7.946   3.462
 9039TIP3    H227057   2.192   7.999   3.600
 9040TIP3   OH227058   2.467   8.167   4.294
 9040TIP3    H127059   2.456   8.088   4.237
 9040TIP3    H227060   2.496   8.235   4.230
 9041TIP3   OH227061   1.769   7.557   3.555
 9041TIP3    H127062   1.688   7.608   3.537
 9041TIP3    H227063   1.812   7.555   3.468
 9042TIP3   OH227064   1.725   7.347   3.265
 9042TIP3    H127065   1.792   7.399   3.313
 9042TIP3    H227066   1.783   7.284   3.217
 9043TIP3   OH227067   2.671   7.805   4.138
 9043TIP3    H127068   2.588   7.856   4.144
 9043TIP3    H227069   2.701   7.830   4.048
 9044TIP3   OH227070   2.115   7.637   3.526
 9044TIP3    H127071   2.061   7.658   3.605
 9044TIP3    H227072   2.200   7.611   3.569
 9045TIP3   OH227073   2.348   7.683   4.436
 9045TIP3    H127074   2.347   7.767   4.485
 9045TIP3    H227075   2.261   7.687   4.391
 9046TIP3   OH227076   1.352   7.642   3.930
 9046TIP3    H127077   1.310   7.582   3.865
 9046TIP3    H227078   1.427   7.588   3.963
 9047TIP3   OH227079   1.486   8.010   4.133
 9047TIP3    H127080   1.447   8.006   4.044
 9047TIP3    H227081   1.583   8.003   4.116
 9048TIP3   OH227082   1.479   7.617   4.291
 9048TIP3    H127083   1.513   7.592   4.203
 9048TIP3    H227084   1.523   7.702   4.308
 9049TIP3   OH227085   1.662   8.075   4.614
 9049TIP3    H127086   1.625   8.161   4.638
 9049TIP3    H227087   1.588   8.041   4.560
 9050TIP3   OH227088   1.950   7.503   3.349
 9050TIP3    H127089   2.011   7.561   3.399
 9050TIP3    H227090   1.979   7.520   3.256
 9051TIP3   OH227091   1.376   7.726   4.717
 9051TIP3    H127092   1.381   7.813   4.761
 9051TIP3    H227093   1.282   7.704   4.733
 9052TIP3   OH227094   2.470   6.743   3.396
 9052TIP3    H127095   2.389   6.765   3.446
 9052TIP3    H227096   2.484   6.826   3.345
 9053TIP3   OH227097   1.215   7.484   3.742
 9053TIP3    H127098   1.148   7.527   3.684
 9053TIP3    H227099   1.173   7.400   3.761
 9054TIP3   OH227100   1.007   7.870   4.658
 9054TIP3    H127101   0.942   7.851   4.588
 9054TIP3    H227102   1.042   7.782   4.680
 9055TIP3   OH227103   2.601   7.642   4.615
 9055TIP3    H127104   2.519   7.654   4.564
 9055TIP3    H227105   2.616   7.546   4.604
 9056TIP3   OH227106   1.198   8.072   4.654
 9056TIP3    H127107   1.253   8.033   4.725
 9056TIP3    H227108   1.126   8.005   4.647
 9057TIP3   OH227109   1.597   6.875   4.424
 9057TIP3    H127110   1.508   6.844   4.396
 9057TIP3    H227111   1.570   6.956   4.472
 9058TIP3   OH227112   2.132   6.991   4.618
 9058TIP3    H127113   2.201   6.961   4.681
 9058TIP3    H227114   2.049   6.970   4.665
 9059TIP3   OH227115   2.370   7.420   4.537
 9059TIP3    H127116   2.319   7.417   4.621
 9059TIP3    H227117   2.346   7.507   4.501
 9060TIP3   OH227118   2.032   7.534   3.094
 9060TIP3    H127119   1.998   7.513   3.005
 9060TIP3    H227120   2.101   7.600   3.072
 9061TIP3   OH227121   1.741   6.925   3.394
 9061TIP3    H127122   1.708   6.920   3.486
 9061TIP3    H227123   1.703   6.841   3.360
 9062TIP3   OH227124   1.529   7.394   4.440
 9062TIP3    H127125   1.479   7.413   4.522
 9062TIP3    H227126   1.511   7.475   4.388
 9063TIP3   OH227127   1.412   7.278   3.955
 9063TIP3    H127128   1.320   7.251   3.974
 9063TIP3    H227129   1.424   7.237   3.867
 9064TIP3   OH227130   1.906   7.360   3.686
 9064TIP3    H127131   1.853   7.429   3.640
 9064TIP3    H227132   1.961   7.327   3.612
 9065TIP3   OH227133   2.081   7.638   4.767
 9065TIP3    H127134   2.058   7.566   4.831
 9065TIP3    H227135   2.175   7.652   4.791
 9066TIP3   OH227136   2.061   7.390   3.921
 9066TIP3    H127137   1.999   7.417   3.851
 9066TIP3    H227138   2.096   7.310   3.878
 9067TIP3   OH227139   1.349   7.419   4.650
 9067TIP3    H127140   1.376   7.482   4.718
 9067TIP3    H227141   1.338   7.337   4.701
 9068TIP3   OH227142   1.396   6.897   3.360
 9068TIP3    H127143   1.389   6.896   3.457
 9068TIP3    H227144   1.320   6.953   3.336
 9069TIP3   OH227145   0.946   6.939   4.231
 9069TIP3    H127146   1.019   6.973   4.286
 9069TIP3    H227147   0.989   6.911   4.150
 9070TIP3   OH227148   0.911   6.921   3.748
 9070TIP3    H127149   0.958   6.960   3.672
 9070TIP3    H227150   0.850   6.995   3.770
 9071TIP3   OH227151   2.071   7.637   4.343
 9071TIP3    H127152   2.104   7.565   4.285
 9071TIP3    H227153   2.041   7.583   4.420
 9072TIP3   OH227154   1.743   7.101   4.017
 9072TIP3    H127155   1.661   7.098   4.071
 9072TIP3    H227156   1.812   7.093   4.084
 9073TIP3   OH227157   1.175   7.157   4.024
 9073TIP3    H127158   1.081   7.165   3.996
 9073TIP3    H227159   1.196   7.065   4.001
 9074TIP3   OH227160   1.441   7.150   3.715
 9074TIP3    H127161   1.535   7.165   3.694
 9074TIP3    H227162   1.395   7.172   3.631
 9075TIP3   OH227163   2.233   7.176   4.221
 9075TIP3    H127164   2.198   7.188   4.312
 9075TIP3    H227165   2.167   7.115   4.184
 9076TIP3   OH227166   1.288   7.185   3.491
 9076TIP3    H127167   1.216   7.141   3.442
 9076TIP3    H227168   1.340   7.222   3.417
 9077TIP3   OH227169   1.363   7.974   4.857
 9077TIP3    H127170   1.442   8.001   4.909
 9077TIP3    H227171   1.299   7.961   4.929
 9078TIP3   OH227172   1.823   7.430   4.115
 9078TIP3    H127173   1.894   7.388   4.065
 9078TIP3    H227174   1.828   7.385   4.201
 9079TIP3   OH227175   1.344   6.914   3.996
 9079TIP3    H127176   1.308   6.837   4.044
 9079TIP3    H227177   1.395   6.871   3.926
 9080TIP3   OH227178   1.799   7.327   4.402
 9080TIP3    H127179   1.709   7.362   4.417
 9080TIP3    H227180   1.856   7.388   4.453
 9081TIP3   OH227181   1.538   7.701   3.507
 9081TIP3    H127182   1.461   7.642   3.493
 9081TIP3    H227183   1.514   7.745   3.591
 9082TIP3   OH227184   2.436   7.947   4.130
 9082TIP3    H127185   2.464   7.996   4.048
 9082TIP3    H227186   2.352   7.906   4.102
 9083TIP3   OH227187   1.994   7.025   3.366
 9083TIP3    H127188   1.897   7.008   3.372
 9083TIP3    H227189   2.002   7.120   3.388
 9084TIP3   OH227190   1.947   8.056   4.496
 9084TIP3    H127191   1.976   8.001   4.569
 9084TIP3    H227192   1.863   8.091   4.531
 9085TIP3   OH227193   2.063   7.275   3.467
 9085TIP3    H127194   2.160   7.280   3.481
 9085TIP3    H227195   2.046   7.354   3.413
 9086TIP3   OH227196   1.217   7.704   4.165
 9086TIP3    H127197   1.264   7.689   4.081
 9086TIP3    H227198   1.269   7.652   4.228
 9087TIP3   OH227199   1.647   7.885   3.338
 9087TIP3    H127200   1.607   7.955   3.394
 9087TIP3    H227201   1.612   7.806   3.386
 9088TIP3   OH227202   1.114   7.650   4.789
 9088TIP3    H127203   1.127   7.635   4.885
 9088TIP3    H227204   1.043   7.587   4.770
 9089TIP3   OH227205   1.840   7.763   4.812
 9089TIP3    H127206   1.776   7.711   4.761
 9089TIP3    H227207   1.925   7.728   4.780
 9090TIP3   OH227208   2.502   7.368   3.302
 9090TIP3    H127209   2.441   7.323   3.239
 9090TIP3    H227210   2.501   7.456   3.259
 9091TIP3   OH227211   2.724   8.206   4.384
 9091TIP3    H127212   2.627   8.218   4.374
 9091TIP3    H227213   2.749   8.190   4.291
 9092TIP3   OH227214   2.200   7.818   4.034
 9092TIP3    H127215   2.109   7.791   4.055
 9092TIP3    H227216   2.235   7.735   3.996
 9093TIP3   OH227217   0.896   7.344   3.505
 9093TIP3    H127218   0.941   7.429   3.525
 9093TIP3    H227219   0.818   7.349   3.565
 9094TIP3   OH227220   1.464   7.822   3.746
 9094TIP3    H127221   1.419   7.899   3.783
 9094TIP3    H227222   1.441   7.755   3.813
 9095TIP3   OH227223   1.991   8.019   4.224
 9095TIP3    H127224   1.980   8.029   4.321
 9095TIP3    H227225   2.074   7.972   4.218
 9096TIP3   OH227226   1.997   7.852   3.083
 9096TIP3    H127227   2.028   7.838   3.175
 9096TIP3    H227228   1.913   7.900   3.096
 9097TIP3   OH227229   1.320   7.163   4.795
 9097TIP3    H127230   1.224   7.162   4.808
 9097TIP3    H227231   1.350   7.105   4.867
 9098TIP3   OH227232   2.120   7.824   3.330
 9098TIP3    H127233   2.115   7.752   3.396
 9098TIP3    H227234   2.217   7.825   3.310
 9099TIP3   OH227235   1.318   7.845   3.155
 9099TIP3    H127236   1.352   7.756   3.132
 9099TIP3    H227237   1.336   7.851   3.249
 9100TIP3   OH227238   1.016   7.586   3.581
 9100TIP3    H127239   0.951   7.623   3.644
 9100TIP3    H227240   1.020   7.659   3.517
 9101TIP3   OH227241   2.158   7.229   4.481
 9101TIP3    H127242   2.240   7.264   4.518
 9101TIP3    H227243   2.145   7.147   4.533
 9102TIP3   OH227244   2.038   6.977   3.646
 9102TIP3    H127245   2.026   6.998   3.551
 9102TIP3    H227246   2.078   7.059   3.680
 9103TIP3   OH227247   1.724   7.160   3.746
 9103TIP3    H127248   1.790   7.230   3.729
 9103TIP3    H227249   1.731   7.150   3.844
 9104TIP3   OH227250   1.997   7.476   4.551
 9104TIP3    H127251   2.021   7.527   4.631
 9104TIP3    H227252   2.050   7.395   4.561
 9105TIP3   OH227253   1.869   6.882   3.846
 9105TIP3    H127254   1.866   6.958   3.906
 9105TIP3    H227255   1.931   6.916   3.777
 9106TIP3   OH227256   1.383   6.884   3.636
 9106TIP3    H127257   1.380   6.974   3.675
 9106TIP3    H227258   1.478   6.866   3.644
 9107TIP3   OH227259   2.637   7.375   4.535
 9107TIP3    H127260   2.539   7.374   4.542
 9107TIP3    H227261   2.648   7.336   4.447
 9108TIP3   OH227262   2.287   7.572   3.924
 9108TIP3    H127263   2.212   7.511   3.934
 9108TIP3    H227264   2.359   7.524   3.971
 9109TIP3   OH227265   1.006   7.802   3.397
 9109TIP3    H127266   1.031   7.895   3.386
 9109TIP3    H227267   1.060   7.757   3.330
 9110TIP3   OH227268   0.945   7.075   3.523
 9110TIP3    H127269   0.949   7.173   3.523
 9110TIP3    H227270   0.855   7.061   3.492
 9111TIP3   OH227271   1.332   6.795   4.397
 9111TIP3    H127272   1.301   6.760   4.310
 9111TIP3    H227273   1.322   6.717   4.455
 9112TIP3   OH227274   1.159   7.942   5.036
 9112TIP3    H127275   1.182   7.847   5.046
 9112TIP3    H227276   1.069   7.936   4.997
 9113TIP3   OH227277   1.133   7.607   3.248
 9113TIP3    H127278   1.181   7.570   3.324
 9113TIP3    H227279   1.205   7.607   3.181
 9114TIP3   OH227280   1.782   8.028   4.852
 9114TIP3    H127281   1.748   8.040   4.761
 9114TIP3    H227282   1.817   7.936   4.846
 9115TIP3   OH227283   1.593   7.787   3.059
 9115TIP3    H127284   1.617   7.801   3.151
 9115TIP3    H227285   1.621   7.694   3.045
 9116TIP3   OH227286   2.256   8.047   4.429
 9116TIP3    H127287   2.325   8.103   4.386
 9116TIP3    H227288   2.180   8.105   4.424
 9117TIP3   OH227289   1.285   7.694   5.034
 9117TIP3    H127290   1.359   7.635   5.014
 9117TIP3    H227291   1.310   7.726   5.123
 9118TIP3   OH227292   1.336   7.515   3.463
 9118TIP3    H127293   1.310   7.473   3.546
 9118TIP3    H227294   1.376   7.440   3.414
 9119TIP3   OH227295   1.613   7.581   4.693
 9119TIP3    H127296   1.535   7.640   4.694
 9119TIP3    H227297   1.664   7.617   4.617
 9120TIP3   OH227298   1.446   7.311   3.307
 9120TIP3    H127299   1.421   7.312   3.212
 9120TIP3    H227300   1.544   7.314   3.300
 9121TIP3   OH227301   2.135   7.975   4.827
 9121TIP3    H127302   2.216   7.951   4.780
 9121TIP3    H227303   2.133   7.909   4.899
 9122TIP3   OH227304   2.260   7.653   2.967
 9122TIP3    H127305   2.242   7.596   2.890
 9122TIP3    H227306   2.240   7.740   2.928
 9123TIP3   OH227307   1.737   7.371   4.819
 9123TIP3    H127308   1.737   7.291   4.762
 9123TIP3    H227309   1.692   7.437   4.761
 9124TIP3   OH227310   1.739   7.158   4.628
 9124TIP3    H127311   1.767   7.197   4.543
 9124TIP3    H227312   1.646   7.134   4.609
 9125TIP3   OH227313   1.762   7.696   4.501
 9125TIP3    H127314   1.844   7.700   4.451
 9125TIP3    H227315   1.706   7.762   4.455
 9126TIP3   OH227316   2.346   7.659   4.881
 9126TIP3    H127317   2.395   7.575   4.889
 9126TIP3    H227318   2.415   7.718   4.846
 9127TIP3   OH227319   2.389   7.909   4.619
 9127TIP3    H127320   2.332   7.963   4.558
 9127TIP3    H227321   2.477   7.930   4.580
 9128TIP3   OH227322   1.615   7.479   5.052
 9128TIP3    H127323   1.547   7.410   5.067
 9128TIP3    H227324   1.649   7.453   4.963
 9129TIP3   OH227325   1.871   6.919   4.696
 9129TIP3    H127326   1.821   7.000   4.673
 9129TIP3    H227327   1.802   6.850   4.684
 9130TIP3   OH227328   1.997   7.423   4.911
 9130TIP3    H127329   1.983   7.408   5.007
 9130TIP3    H227330   1.907   7.399   4.878
 9131TIP3   OH227331   2.237   7.374   4.767
 9131TIP3    H127332   2.161   7.374   4.829
 9131TIP3    H227333   2.310   7.342   4.824
 9132TIP3   OH227334   2.469   7.315   4.917
 9132TIP3    H127335   2.478   7.219   4.933
 9132TIP3    H227336   2.461   7.352   5.007
 9133TIP3   OH227337   1.453   7.260   5.105
 9133TIP3    H127338   1.457   7.168   5.072
 9133TIP3    H227339   1.490   7.248   5.195
 9134TIP3   OH227340   1.965   6.930   4.954
 9134TIP3    H127341   2.031   6.858   4.948
 9134TIP3    H227342   1.925   6.924   4.864
 9135TIP3   OH227343   2.032   7.145   5.111
 9135TIP3    H127344   2.011   7.073   5.047
 9135TIP3    H227345   1.953   7.202   5.105
 9136TIP3   OH227346   0.745   7.710   3.432
 9136TIP3    H127347   0.828   7.750   3.401
 9136TIP3    H227348   0.734   7.635   3.370
 9137TIP3   OH227349   2.611   8.338   4.658
 9137TIP3    H127350   2.537   8.319   4.721
 9137TIP3    H227351   2.661   8.404   4.706
 9138TIP3   OH227352   2.393   7.822   3.309
 9138TIP3    H127353   2.465   7.880   3.276
 9138TIP3    H227354   2.438   7.782   3.387
 9139TIP3   OH227355   2.526   7.694   3.508
 9139TIP3    H127356   2.465   7.650   3.571
 9139TIP3    H227357   2.598   7.727   3.566
 9140TIP3   OH227358   2.567   8.080   3.932
 9140TIP3    H127359   2.633   8.022   3.889
 9140TIP3    H227360   2.576   8.163   3.884
 9141TIP3   OH227361   2.464   7.604   3.151
 9141TIP3    H127362   2.393   7.608   3.083
 9141TIP3    H227363   2.437   7.678   3.208
 9142TIP3   OH227364   2.335   7.277   3.109
 9142TIP3    H127365   2.295   7.311   3.028
 9142TIP3    H227366   2.313   7.182   3.102
 9143TIP3   OH227367   2.342   7.550   3.655
 9143TIP3    H127368   2.352   7.454   3.645
 9143TIP3    H227369   2.329   7.561   3.752
 9144TIP3   OH227370   0.967   7.632   4.402
 9144TIP3    H127371   0.964   7.595   4.311
 9144TIP3    H227372   1.065   7.631   4.417
 9145TIP3   OH227373   2.631   7.974   4.512
 9145TIP3    H127374   2.704   7.909   4.502
 9145TIP3    H227375   2.658   8.045   4.451
 9146TIP3   OH227376   2.816   7.779   4.524
 9146TIP3    H127377   2.742   7.729   4.564
 9146TIP3    H227378   2.889   7.715   4.540
 9147TIP3   OH227379   2.280   7.012   3.095
 9147TIP3    H127380   2.356   6.979   3.146
 9147TIP3    H227381   2.209   6.949   3.115
 9148TIP3   OH227382   2.340   7.269   3.545
 9148TIP3    H127383   2.380   7.181   3.561
 9148TIP3    H227384   2.398   7.301   3.474
 9149TIP3   OH227385   2.500   7.442   4.042
 9149TIP3    H127386   2.586   7.466   4.001
 9149TIP3    H227387   2.515   7.478   4.132
 9150TIP3   OH227388   2.572   7.585   4.274
 9150TIP3    H127389   2.494   7.620   4.322
 9150TIP3    H227390   2.604   7.666   4.229
 9151TIP3   OH227391   1.187   7.310   5.070
 9151TIP3    H127392   1.285   7.304   5.076
 9151TIP3    H227393   1.162   7.225   5.111
 9152TIP3   OH227394   3.048   7.187   4.818
 9152TIP3    H127395   3.037   7.096   4.789
 9152TIP3    H227396   2.996   7.237   4.751
 9153TIP3   OH227397   2.446   7.020   3.586
 9153TIP3    H127398   2.496   7.002   3.669
 9153TIP3    H227399   2.387   6.942   3.584
 9154TIP3   OH227400   1.148   7.005   4.408
 9154TIP3    H127401   1.210   6.929   4.415
 9154TIP3    H227402   1.211   7.078   4.399
 9155TIP3   OH227403   0.951   7.276   4.479
 9155TIP3    H127404   0.998   7.270   4.393
 9155TIP3    H227405   0.981   7.362   4.511
 9156TIP3   OH227406   2.886   7.310   4.641
 9156TIP3    H127407   2.802   7.358   4.658
 9156TIP3    H227408   2.853   7.244   4.576
 9157TIP3   OH227409   2.527   6.951   3.218
 9157TIP3    H127410   2.567   6.880   3.164
 9157TIP3    H227411   2.595   7.021   3.214
 9158TIP3   OH227412   0.934   6.776   3.975
 9158TIP3    H127413   0.843   6.775   4.009
 9158TIP3    H227414   0.928   6.839   3.901
 9159TIP3   OH227415   1.155   6.863   4.794
 9159TIP3    H127416   1.103   6.856   4.876
 9159TIP3    H227417   1.089   6.899   4.732
 9160TIP3   OH227418   2.790   7.075   4.514
 9160TIP3    H127419   2.700   7.066   4.478
 9160TIP3    H227420   2.824   6.983   4.504
 9161TIP3   OH227421   1.994   6.993   4.132
 9161TIP3    H127422   1.953   6.922   4.185
 9161TIP3    H227423   2.069   6.947   4.090
 9162TIP3   OH227424   2.517   6.878   4.040
 9162TIP3    H127425   2.554   6.927   3.963
 9162TIP3    H227426   2.421   6.894   4.030
 9163TIP3   OH227427   2.612   6.973   3.803
 9163TIP3    H127428   2.685   6.921   3.763
 9163TIP3    H227429   2.647   7.064   3.787
 9164TIP3   OH227430   1.243   6.703   4.148
 9164TIP3    H127431   1.151   6.669   4.153
 9164TIP3    H227432   1.293   6.618   4.147
 9165TIP3   OH227433   1.012   6.576   3.788
 9165TIP3    H127434   1.057   6.633   3.723
 9165TIP3    H227435   0.997   6.638   3.862
 9166TIP3   OH227436   1.688   6.735   4.030
 9166TIP3    H127437   1.746   6.783   3.969
 9166TIP3    H227438   1.715   6.772   4.116
 9167TIP3   OH227439   2.232   6.882   4.013
 9167TIP3    H127440   2.236   6.842   3.926
 9167TIP3    H227441   2.221   6.803   4.071
 9168TIP3   OH227442   2.265   6.806   3.577
 9168TIP3    H127443   2.178   6.847   3.590
 9168TIP3    H227444   2.251   6.720   3.622
 9169TIP3   OH227445   1.150   6.732   3.559
 9169TIP3    H127446   1.199   6.669   3.502
 9169TIP3    H227447   1.223   6.786   3.595
 9170TIP3   OH227448   1.660   6.909   3.659
 9170TIP3    H127449   1.720   6.861   3.719
 9170TIP3    H227450   1.682   7.001   3.685
 9171TIP3   OH227451   1.452   6.985   5.042
 9171TIP3    H127452   1.417   6.913   5.097
 9171TIP3    H227453   1.546   6.984   5.069
 9172TIP3   OH227454   1.702   6.981   5.160
 9172TIP3    H127455   1.787   6.954   5.120
 9172TIP3    H227456   1.689   6.911   5.227
 9173TIP3   OH227457   2.527   7.043   4.948
 9173TIP3    H127458   2.544   7.012   5.040
 9173TIP3    H227459   2.615   7.032   4.907
 9174TIP3   OH227460   3.733   7.954   3.213
 9174TIP3    H127461   3.693   8.040   3.188
 9174TIP3    H227462   3.663   7.895   3.177
 9175TIP3   OH227463   3.731   7.967   3.588
 9175TIP3    H127464   3.766   7.941   3.676
 9175TIP3    H227465   3.693   7.884   3.556
 9176TIP3   OH227466   3.026   7.863   3.956
 9176TIP3    H127467   3.060   7.795   4.017
 9176TIP3    H227468   3.107   7.915   3.941
 9177TIP3   OH227469   3.949   8.269   3.278
 9177TIP3    H127470   3.949   8.195   3.341
 9177TIP3    H227471   4.007   8.332   3.322
 9178TIP3   OH227472   3.062   8.210   3.761
 9178TIP3    H127473   3.030   8.126   3.723
 9178TIP3    H227474   3.142   8.226   3.705
 9179TIP3   OH227475   2.708   7.471   3.459
 9179TIP3    H127476   2.663   7.556   3.475
 9179TIP3    H227477   2.636   7.421   3.417
 9180TIP3   OH227478   2.762   7.760   3.635
 9180TIP3    H127479   2.812   7.682   3.668
 9180TIP3    H227480   2.832   7.810   3.591
 9181TIP3   OH227481   3.545   8.183   3.631
 9181TIP3    H127482   3.593   8.106   3.597
 9181TIP3    H227483   3.623   8.237   3.657
 9182TIP3   OH227484   4.541   7.512   3.633
 9182TIP3    H127485   4.573   7.595   3.673
 9182TIP3    H227486   4.570   7.524   3.540
 9183TIP3   OH227487   3.939   7.694   3.666
 9183TIP3    H127488   3.986   7.611   3.687
 9183TIP3    H227489   3.910   7.676   3.575
 9184TIP3   OH227490   3.280   7.354   3.633
 9184TIP3    H127491   3.262   7.426   3.569
 9184TIP3    H227492   3.233   7.280   3.588
 9185TIP3   OH227493   3.974   7.447   3.251
 9185TIP3    H127494   4.045   7.432   3.319
 9185TIP3    H227495   4.029   7.479   3.178
 9186TIP3   OH227496   2.913   7.555   3.740
 9186TIP3    H127497   2.996   7.536   3.787
 9186TIP3    H227498   2.927   7.501   3.659
 9187TIP3   OH227499   3.352   7.753   3.537
 9187TIP3    H127500   3.447   7.730   3.547
 9187TIP3    H227501   3.315   7.669   3.503
 9188TIP3   OH227502   4.618   7.721   3.803
 9188TIP3    H127503   4.533   7.766   3.785
 9188TIP3    H227504   4.638   7.752   3.893
 9189TIP3   OH227505   3.276   7.338   4.067
 9189TIP3    H127506   3.217   7.374   3.998
 9189TIP3    H227507   3.223   7.358   4.147
 9190TIP3   OH227508   3.607   8.157   3.077
 9190TIP3    H127509   3.572   8.153   2.987
 9190TIP3    H227510   3.641   8.249   3.083
 9191TIP3   OH227511   3.381   8.117   3.860
 9191TIP3    H127512   3.316   8.183   3.890
 9191TIP3    H227513   3.418   8.162   3.780
 9192TIP3   OH227514   4.177   7.454   3.429
 9192TIP3    H127515   4.186   7.395   3.504
 9192TIP3    H227516   4.237   7.528   3.453
 9193TIP3   OH227517   3.148   7.452   3.851
 9193TIP3    H127518   3.210   7.525   3.873
 9193TIP3    H227519   3.196   7.412   3.775
 9194TIP3   OH227520   3.208   8.334   3.967
 9194TIP3    H127521   3.166   8.323   3.879
 9194TIP3    H227522   3.128   8.327   4.024
 9195TIP3   OH227523   2.603   7.963   3.203
 9195TIP3    H127524   2.571   7.974   3.111
 9195TIP3    H227525   2.621   8.056   3.224
 9196TIP3   OH227526   4.337   7.412   3.800
 9196TIP3    H127527   4.251   7.440   3.766
 9196TIP3    H227528   4.398   7.444   3.730
 9197TIP3   OH227529   3.630   7.054   3.779
 9197TIP3    H127530   3.617   6.959   3.798
 9197TIP3    H227531   3.553   7.092   3.827
 9198TIP3   OH227532   3.978   8.285   2.996
 9198TIP3    H127533   3.953   8.204   2.948
 9198TIP3    H227534   3.989   8.255   3.088
 9199TIP3   OH227535   4.262   8.424   3.781
 9199TIP3    H127536   4.252   8.345   3.724
 9199TIP3    H227537   4.293   8.492   3.716
 9200TIP3   OH227538   3.566   7.814   3.041
 9200TIP3    H127539   3.485   7.865   3.022
 9200TIP3    H227540   3.609   7.811   2.953
 9201TIP3   OH227541   3.521   7.602   2.753
 9201TIP3    H127542   3.589   7.655   2.799
 9201TIP3    H227543   3.579   7.540   2.704
 9202TIP3   OH227544   4.467   8.063   3.625
 9202TIP3    H127545   4.384   8.114   3.631
 9202TIP3    H227546   4.497   8.086   3.535
 9203TIP3   OH227547   3.911   7.893   3.013
 9203TIP3    H127548   3.857   7.914   3.092
 9203TIP3    H227549   3.996   7.867   3.056
 9204TIP3   OH227550   4.144   7.939   3.924
 9204TIP3    H127551   4.144   8.022   3.974
 9204TIP3    H227552   4.058   7.945   3.878
 9205TIP3   OH227553   3.148   7.900   3.418
 9205TIP3    H127554   3.105   7.840   3.354
 9205TIP3    H227555   3.223   7.846   3.451
 9206TIP3   OH227556   3.283   8.266   3.623
 9206TIP3    H127557   3.247   8.263   3.533
 9206TIP3    H227558   3.379   8.265   3.608
 9207TIP3   OH227559   3.270   7.876   3.778
 9207TIP3    H127560   3.307   7.848   3.691
 9207TIP3    H227561   3.318   7.959   3.796
 9208TIP3   OH227562   3.456   8.330   4.103
 9208TIP3    H127563   3.421   8.418   4.126
 9208TIP3    H227564   3.383   8.299   4.047
 9209TIP3   OH227565   3.746   7.760   2.833
 9209TIP3    H127566   3.808   7.818   2.883
 9209TIP3    H227567   3.775   7.776   2.740
 9210TIP3   OH227568   3.173   7.981   4.208
 9210TIP3    H127569   3.178   8.070   4.249
 9210TIP3    H227570   3.078   7.962   4.218
 9211TIP3   OH227571   4.261   7.003   2.879
 9211TIP3    H127572   4.182   7.026   2.932
 9211TIP3    H227573   4.276   7.086   2.829
 9212TIP3   OH227574   3.009   7.742   3.234
 9212TIP3    H127575   2.944   7.783   3.172
 9212TIP3    H227576   2.973   7.653   3.243
 9213TIP3   OH227577   2.805   8.125   4.138
 9213TIP3    H127578   2.740   8.103   4.070
 9213TIP3    H227579   2.840   8.038   4.165
 9214TIP3   OH227580   4.397   7.900   4.101
 9214TIP3    H127581   4.316   7.910   4.049
 9214TIP3    H227582   4.415   7.804   4.091
 9215TIP3   OH227583   2.991   8.331   4.144
 9215TIP3    H127584   3.049   8.291   4.212
 9215TIP3    H227585   2.923   8.261   4.133
 9216TIP3   OH227586   3.393   7.130   3.912
 9216TIP3    H127587   3.304   7.101   3.883
 9216TIP3    H227588   3.368   7.213   3.957
 9217TIP3   OH227589   3.930   7.246   4.104
 9217TIP3    H127590   4.000   7.218   4.167
 9217TIP3    H227591   3.847   7.226   4.153
 9218TIP3   OH227592   4.162   7.674   4.020
 9218TIP3    H127593   4.114   7.672   4.106
 9218TIP3    H227594   4.143   7.763   3.986
 9219TIP3   OH227595   3.825   7.785   2.573
 9219TIP3    H127596   3.787   7.776   2.484
 9219TIP3    H227597   3.892   7.855   2.557
 9220TIP3   OH227598   3.537   7.181   2.882
 9220TIP3    H127599   3.503   7.176   2.973
 9220TIP3    H227600   3.500   7.098   2.846
 9221TIP3   OH227601   3.323   7.651   3.926
 9221TIP3    H127602   3.275   7.672   4.008
 9221TIP3    H227603   3.306   7.733   3.873
 9222TIP3   OH227604   3.209   7.534   3.443
 9222TIP3    H127605   3.116   7.508   3.461
 9222TIP3    H227606   3.222   7.494   3.354
 9223TIP3   OH227607   3.702   7.616   3.172
 9223TIP3    H127608   3.649   7.686   3.126
 9223TIP3    H227609   3.758   7.583   3.099
 9224TIP3   OH227610   3.878   7.894   4.254
 9224TIP3    H127611   3.857   7.822   4.316
 9224TIP3    H227612   3.972   7.910   4.276
 9225TIP3   OH227613   3.855   7.646   3.408
 9225TIP3    H127614   3.795   7.672   3.336
 9225TIP3    H227615   3.893   7.566   3.366
 9226TIP3   OH227616   3.144   7.677   4.137
 9226TIP3    H127617   3.178   7.740   4.202
 9226TIP3    H227618   3.135   7.596   4.189
 9227TIP3   OH227619   3.193   7.154   2.847
 9227TIP3    H127620   3.185   7.153   2.944
 9227TIP3    H227621   3.116   7.208   2.822
 9228TIP3   OH227622   2.737   7.197   3.721
 9228TIP3    H127623   2.813   7.230   3.772
 9228TIP3    H227624   2.777   7.168   3.637
 9229TIP3   OH227625   2.705   7.177   3.238
 9229TIP3    H127626   2.751   7.214   3.160
 9229TIP3    H227627   2.645   7.252   3.258
 9230TIP3   OH227628   3.863   7.893   3.831
 9230TIP3    H127629   3.898   7.821   3.772
 9230TIP3    H227630   3.836   7.839   3.908
 9231TIP3   OH227631   3.539   7.359   3.504
 9231TIP3    H127632   3.459   7.355   3.560
 9231TIP3    H227633   3.611   7.349   3.568
 9232TIP3   OH227634   2.970   7.412   3.512
 9232TIP3    H127635   2.876   7.418   3.483
 9232TIP3    H227636   2.995   7.321   3.488
 9233TIP3   OH227637   3.237   7.408   3.201
 9233TIP3    H127638   3.332   7.421   3.181
 9233TIP3    H227639   3.192   7.430   3.116
 9234TIP3   OH227640   4.029   7.435   3.711
 9234TIP3    H127641   3.991   7.445   3.801
 9234TIP3    H227642   3.967   7.373   3.670
 9235TIP3   OH227643   3.083   7.444   2.977
 9235TIP3    H127644   3.014   7.397   2.926
 9235TIP3    H227645   3.136   7.481   2.904
 9236TIP3   OH227646   3.159   8.230   4.344
 9236TIP3    H127647   3.239   8.257   4.395
 9236TIP3    H227648   3.095   8.220   4.418
 9237TIP3   OH227649   3.619   7.686   3.599
 9237TIP3    H127650   3.691   7.648   3.547
 9237TIP3    H227651   3.629   7.640   3.684
 9238TIP3   OH227652   3.140   7.172   3.481
 9238TIP3    H127653   3.106   7.093   3.528
 9238TIP3    H227654   3.190   7.133   3.408
 9239TIP3   OH227655   3.595   7.580   3.896
 9239TIP3    H127656   3.506   7.620   3.906
 9239TIP3    H227657   3.654   7.642   3.942
 9240TIP3   OH227658   3.333   7.956   2.992
 9240TIP3    H127659   3.255   7.898   2.978
 9240TIP3    H227660   3.310   8.000   3.077
 9241TIP3   OH227661   4.232   8.205   3.617
 9241TIP3    H127662   4.260   8.253   3.535
 9241TIP3    H227663   4.149   8.162   3.588
 9242TIP3   OH227664   3.791   7.281   2.854
 9242TIP3    H127665   3.694   7.264   2.859
 9242TIP3    H227666   3.799   7.376   2.875
 9243TIP3   OH227667   3.743   8.311   3.983
 9243TIP3    H127668   3.774   8.259   4.058
 9243TIP3    H227669   3.661   8.350   4.018
 9244TIP3   OH227670   3.859   7.532   2.954
 9244TIP3    H127671   3.956   7.536   2.968
 9244TIP3    H227672   3.843   7.611   2.899
 9245TIP3   OH227673   3.007   7.952   3.651
 9245TIP3    H127674   3.056   7.943   3.567
 9245TIP3    H227675   3.068   7.910   3.713
 9246TIP3   OH227676   3.445   8.144   2.831
 9246TIP3    H127677   3.401   8.213   2.885
 9246TIP3    H227678   3.410   8.064   2.875
 9247TIP3   OH227679   2.908   7.909   4.278
 9247TIP3    H127680   2.926   7.892   4.372
 9247TIP3    H227681   2.839   7.843   4.259
 9248TIP3   OH227682   3.637   8.018   4.300
 9248TIP3    H127683   3.577   7.969   4.242
 9248TIP3    H227684   3.724   7.985   4.269
 9249TIP3   OH227685   4.299   7.624   2.789
 9249TIP3    H127686   4.238   7.579   2.726
 9249TIP3    H227687   4.297   7.713   2.746
 9250TIP3   OH227688   4.519   8.462   3.872
 9250TIP3    H127689   4.422   8.474   3.861
 9250TIP3    H227690   4.545   8.447   3.778
 9251TIP3   OH227691   3.997   8.075   3.521
 9251TIP3    H127692   3.905   8.048   3.542
 9251TIP3    H227693   4.032   7.992   3.483
 9252TIP3   OH227694   2.691   7.600   2.991
 9252TIP3    H127695   2.738   7.684   3.010
 9252TIP3    H227696   2.614   7.607   3.051
 9253TIP3   OH227697   3.260   8.074   3.230
 9253TIP3    H127698   3.227   8.157   3.267
 9253TIP3    H227699   3.234   8.012   3.301
 9254TIP3   OH227700   3.787   8.275   3.711
 9254TIP3    H127701   3.777   8.285   3.809
 9254TIP3    H227702   3.871   8.230   3.704
 9255TIP3   OH227703   3.798   8.105   2.570
 9255TIP3    H127704   3.826   8.094   2.663
 9255TIP3    H227705   3.714   8.155   2.580
 9256TIP3   OH227706   3.115   7.422   4.281
 9256TIP3    H127707   3.018   7.423   4.292
 9256TIP3    H227708   3.142   7.361   4.351
 9257TIP3   OH227709   3.917   8.082   2.819
 9257TIP3    H127710   3.912   8.009   2.884
 9257TIP3    H227711   4.013   8.082   2.798
 9258TIP3   OH227712   3.100   8.097   2.649
 9258TIP3    H127713   3.143   8.015   2.616
 9258TIP3    H227714   3.149   8.112   2.729
 9259TIP3   OH227715   2.811   7.841   3.069
 9259TIP3    H127716   2.744   7.879   3.130
 9259TIP3    H227717   2.817   7.913   3.003
 9260TIP3   OH227718   3.949   7.488   3.970
 9260TIP3    H127719   4.035   7.525   3.999
 9260TIP3    H227720   3.943   7.405   4.023
 9261TIP3   OH227721   3.832   7.234   3.133
 9261TIP3    H127722   3.822   7.255   3.038
 9261TIP3    H227723   3.874   7.316   3.167
 9262TIP3   OH227724   3.519   7.417   3.233
 9262TIP3    H127725   3.586   7.487   3.215
 9262TIP3    H227726   3.527   7.407   3.330
 9263TIP3   OH227727   3.792   7.731   4.039
 9263TIP3    H127728   3.820   7.782   4.117
 9263TIP3    H227729   3.847   7.651   4.044
 9264TIP3   OH227730   3.665   7.137   3.332
 9264TIP3    H127731   3.666   7.212   3.394
 9264TIP3    H227732   3.727   7.171   3.263
 9265TIP3   OH227733   3.178   7.141   3.124
 9265TIP3    H127734   3.177   7.232   3.161
 9265TIP3    H227735   3.274   7.122   3.131
 9266TIP3   OH227736   4.431   7.635   4.022
 9266TIP3    H127737   4.333   7.631   4.025
 9266TIP3    H227738   4.447   7.591   3.937
 9267TIP3   OH227739   4.082   7.829   3.411
 9267TIP3    H127740   4.008   7.767   3.421
 9267TIP3    H227741   4.155   7.783   3.457
 9268TIP3   OH227742   2.800   8.057   2.883
 9268TIP3    H127743   2.831   8.149   2.871
 9268TIP3    H227744   2.857   8.009   2.819
 9269TIP3   OH227745   2.738   7.330   3.015
 9269TIP3    H127746   2.741   7.428   3.011
 9269TIP3    H227747   2.662   7.310   2.960
 9270TIP3   OH227748   3.127   7.053   3.884
 9270TIP3    H127749   3.098   7.019   3.797
 9270TIP3    H227750   3.117   6.973   3.941
 9271TIP3   OH227751   2.955   8.198   4.525
 9271TIP3    H127752   2.977   8.103   4.531
 9271TIP3    H227753   2.866   8.195   4.483
 9272TIP3   OH227754   2.927   7.860   2.736
 9272TIP3    H127755   2.981   7.824   2.809
 9272TIP3    H227756   2.998   7.867   2.668
 9273TIP3   OH227757   3.577   8.282   4.340
 9273TIP3    H127758   3.543   8.295   4.249
 9273TIP3    H227759   3.613   8.192   4.333
 9274TIP3   OH227760   3.370   8.041   2.557
 9274TIP3    H127761   3.419   8.061   2.638
 9274TIP3    H227762   3.406   7.952   2.536
 9275TIP3   OH227763   4.052   8.305   3.915
 9275TIP3    H127764   4.122   8.359   3.872
 9275TIP3    H227765   3.977   8.366   3.908
 9276TIP3   OH227766   3.077   7.947   4.522
 9276TIP3    H127767   3.157   7.901   4.494
 9276TIP3    H227768   3.105   7.982   4.610
 9277TIP3   OH227769   3.130   7.771   2.949
 9277TIP3    H127770   3.109   7.724   3.031
 9277TIP3    H227771   3.173   7.700   2.896
 9278TIP3   OH227772   3.407   7.834   4.178
 9278TIP3    H127773   3.332   7.897   4.181
 9278TIP3    H227774   3.460   7.870   4.103
 9279TIP3   OH227775   3.243   7.569   2.795
 9279TIP3    H127776   3.218   7.569   2.700
 9279TIP3    H227777   3.341   7.572   2.787
 9280TIP3   OH227778   3.931   8.232   4.313
 9280TIP3    H127779   4.014   8.211   4.267
 9280TIP3    H227780   3.931   8.167   4.385
 9281TIP3   OH227781   4.059   7.911   2.455
 9281TIP3    H127782   4.037   7.852   2.379
 9281TIP3    H227783   4.037   7.997   2.415
 9282TIP3   OH227784   3.529   7.626   4.307
 9282TIP3    H127785   3.534   7.548   4.248
 9282TIP3    H227786   3.488   7.693   4.249
 9283TIP3   OH227787   3.535   7.413   4.116
 9283TIP3    H127788   3.564   7.455   4.033
 9283TIP3    H227789   3.442   7.390   4.095
 9284TIP3   OH227790   3.558   7.951   3.990
 9284TIP3    H127791   3.641   7.955   3.942
 9284TIP3    H227792   3.503   8.018   3.943
 9285TIP3   OH227793   4.143   7.915   4.368
 9285TIP3    H127794   4.193   7.833   4.377
 9285TIP3    H227795   4.211   7.975   4.334
 9286TIP3   OH227796   4.184   8.166   4.104
 9286TIP3    H127797   4.128   8.220   4.044
 9286TIP3    H227798   4.273   8.185   4.066
 9287TIP3   OH227799   3.410   7.737   4.539
 9287TIP3    H127800   3.342   7.669   4.553
 9287TIP3    H227801   3.444   7.712   4.451
 9288TIP3   OH227802   3.667   7.177   4.186
 9288TIP3    H127803   3.619   7.258   4.159
 9288TIP3    H227804   3.600   7.108   4.169
 9289TIP3   OH227805   3.793   7.679   4.398
 9289TIP3    H127806   3.784   7.667   4.494
 9289TIP3    H227807   3.703   7.655   4.369
 9290TIP3   OH227808   4.032   7.632   4.253
 9290TIP3    H127809   3.958   7.631   4.316
 9290TIP3    H227810   4.107   7.601   4.308
 9291TIP3   OH227811   4.254   7.569   4.404
 9291TIP3    H127812   4.272   7.474   4.420
 9291TIP3    H227813   4.255   7.607   4.494
 9292TIP3   OH227814   3.246   7.520   4.593
 9292TIP3    H127815   3.258   7.431   4.553
 9292TIP3    H227816   3.286   7.506   4.681
 9293TIP3   OH227817   3.750   7.181   4.446
 9293TIP3    H127818   3.824   7.117   4.439
 9293TIP3    H227819   3.718   7.179   4.354
 9294TIP3   OH227820   3.825   7.400   4.600
 9294TIP3    H127821   3.805   7.330   4.534
 9294TIP3    H227822   3.748   7.460   4.591
 9295TIP3   OH227823   2.536   7.966   2.926
 9295TIP3    H127824   2.618   8.008   2.892
 9295TIP3    H227825   2.525   7.891   2.864
 9296TIP3   OH227826   4.405   8.596   4.144
 9296TIP3    H127827   4.333   8.576   4.207
 9296TIP3    H227828   4.458   8.659   4.194
 9297TIP3   OH227829   4.189   8.078   2.796
 9297TIP3    H127830   4.260   8.136   2.763
 9297TIP3    H227831   4.234   8.038   2.874
 9298TIP3   OH227832   4.322   7.951   2.995
 9298TIP3    H127833   4.261   7.906   3.058
 9298TIP3    H227834   4.394   7.984   3.054
 9299TIP3   OH227835   4.363   8.336   3.419
 9299TIP3    H127836   4.429   8.278   3.376
 9299TIP3    H227837   4.372   8.419   3.370
 9300TIP3   OH227838   4.261   7.861   2.638
 9300TIP3    H127839   4.190   7.865   2.570
 9300TIP3    H227840   4.233   7.935   2.695
 9301TIP3   OH227841   4.132   7.534   2.595
 9301TIP3    H127842   4.089   7.568   2.515
 9301TIP3    H227843   4.110   7.439   2.589
 9302TIP3   OH227844   4.138   7.807   3.142
 9302TIP3    H127845   4.149   7.710   3.132
 9302TIP3    H227846   4.126   7.817   3.239
 9303TIP3   OH227847   2.763   7.888   3.887
 9303TIP3    H127848   2.762   7.853   3.796
 9303TIP3    H227849   2.861   7.888   3.904
 9304TIP3   OH227850   4.427   8.230   3.999
 9304TIP3    H127851   4.500   8.165   3.989
 9304TIP3    H227852   4.455   8.301   3.938
 9305TIP3   OH227853   4.613   8.036   4.011
 9305TIP3    H127854   4.539   7.986   4.051
 9305TIP3    H227855   4.687   7.973   4.027
 9306TIP3   OH227856   4.076   7.269   2.580
 9306TIP3    H127857   4.155   7.237   2.629
 9306TIP3    H227858   4.007   7.205   2.602
 9307TIP3   OH227859   4.137   7.526   3.032
 9307TIP3    H127860   4.177   7.437   3.048
 9307TIP3    H227861   4.195   7.557   2.960
 9308TIP3   OH227862   4.296   7.701   3.529
 9308TIP3    H127863   4.382   7.725   3.487
 9308TIP3    H227864   4.312   7.735   3.619
 9309TIP3   OH227865   4.368   7.843   3.762
 9309TIP3    H127866   4.290   7.878   3.809
 9309TIP3    H227867   4.401   7.923   3.716
 9310TIP3   OH227868   2.978   7.563   4.560
 9310TIP3    H127869   3.076   7.561   4.563
 9310TIP3    H227870   2.958   7.479   4.604
 9311TIP3   OH227871   4.816   7.426   4.316
 9311TIP3    H127872   4.877   7.366   4.270
 9311TIP3    H227873   4.787   7.486   4.243
 9312TIP3   OH227874   4.242   7.276   3.074
 9312TIP3    H127875   4.292   7.261   3.157
 9312TIP3    H227876   4.184   7.198   3.072
 9313TIP3   OH227877   2.943   7.262   3.897
 9313TIP3    H127878   3.005   7.186   3.902
 9313TIP3    H227879   3.006   7.335   3.885
 9314TIP3   OH227880   2.745   7.534   3.964
 9314TIP3    H127881   2.795   7.527   3.880
 9314TIP3    H227882   2.779   7.618   3.998
 9315TIP3   OH227883   4.687   7.572   4.123
 9315TIP3    H127884   4.601   7.613   4.140
 9315TIP3    H227885   4.659   7.499   4.065
 9316TIP3   OH227886   4.321   7.211   2.701
 9316TIP3    H127887   4.369   7.136   2.661
 9316TIP3    H227888   4.391   7.279   2.703
 9317TIP3   OH227889   2.731   7.039   3.468
 9317TIP3    H127890   2.637   7.033   3.492
 9317TIP3    H227891   2.728   7.096   3.388
 9318TIP3   OH227892   2.952   7.122   4.282
 9318TIP3    H127893   2.897   7.112   4.361
 9318TIP3    H227894   2.886   7.157   4.218
 9319TIP3   OH227895   4.585   7.335   4.003
 9319TIP3    H127896   4.496   7.325   3.964
 9319TIP3    H227897   4.621   7.244   3.993
 9320TIP3   OH227898   3.787   7.249   3.615
 9320TIP3    H127899   3.750   7.176   3.668
 9320TIP3    H227900   3.865   7.207   3.574
 9321TIP3   OH227901   4.310   7.136   3.533
 9321TIP3    H127902   4.349   7.184   3.456
 9321TIP3    H227903   4.215   7.150   3.518
 9322TIP3   OH227904   4.401   7.239   3.297
 9322TIP3    H127905   4.472   7.180   3.263
 9322TIP3    H227906   4.440   7.327   3.278
 9323TIP3   OH227907   3.040   6.959   3.637
 9323TIP3    H127908   2.947   6.926   3.638
 9323TIP3    H227909   3.088   6.873   3.633
 9324TIP3   OH227910   2.828   6.830   3.286
 9324TIP3    H127911   2.859   6.885   3.212
 9324TIP3    H227912   2.802   6.897   3.352
 9325TIP3   OH227913   3.485   6.992   3.519
 9325TIP3    H127914   3.540   7.037   3.453
 9325TIP3    H227915   3.517   7.030   3.602
 9326TIP3   OH227916   4.023   7.138   3.500
 9326TIP3    H127917   4.035   7.099   3.413
 9326TIP3    H227918   4.013   7.058   3.557
 9327TIP3   OH227919   4.061   7.063   3.064
 9327TIP3    H127920   3.973   7.103   3.076
 9327TIP3    H227921   4.048   6.977   3.109
 9328TIP3   OH227922   2.946   6.987   3.048
 9328TIP3    H127923   2.994   6.924   2.990
 9328TIP3    H227924   3.020   7.041   3.082
 9329TIP3   OH227925   3.455   7.165   3.147
 9329TIP3    H127926   3.517   7.119   3.205
 9329TIP3    H227927   3.478   7.258   3.171
 9330TIP3   OH227928   3.258   7.249   4.521
 9330TIP3    H127929   3.216   7.210   4.598
 9330TIP3    H227930   3.353   7.238   4.543
 9331TIP3   OH227931   3.513   7.221   4.648
 9331TIP3    H127932   3.582   7.231   4.580
 9331TIP3    H227933   3.555   7.154   4.705
 9332TIP3   OH227934   4.325   7.300   4.434
 9332TIP3    H127935   4.344   7.270   4.525
 9332TIP3    H227936   4.414   7.295   4.392
 9333TIP3   OH227937   5.527   8.210   2.702
 9333TIP3    H127938   5.489   8.297   2.677
 9333TIP3    H227939   5.458   8.153   2.664
 9334TIP3   OH227940   5.529   8.225   3.074
 9334TIP3    H127941   5.561   8.194   3.161
 9334TIP3    H227942   5.488   8.144   3.038
 9335TIP3   OH227943   4.823   8.118   3.442
 9335TIP3    H127944   4.855   8.050   3.504
 9335TIP3    H227945   4.902   8.172   3.430
 9336TIP3   OH227946   5.744   8.525   2.765
 9336TIP3    H127947   5.745   8.449   2.825
 9336TIP3    H227948   5.802   8.587   2.810
 9337TIP3   OH227949   4.858   8.469   3.246
 9337TIP3    H127950   4.827   8.383   3.211
 9337TIP3    H227951   4.939   8.483   3.191
 9338TIP3   OH227952   4.505   7.730   2.946
 9338TIP3    H127953   4.458   7.813   2.960
 9338TIP3    H227954   4.434   7.676   2.906
 9339TIP3   OH227955   4.558   8.017   3.123
 9339TIP3    H127956   4.607   7.938   3.156
 9339TIP3    H227957   4.627   8.064   3.074
 9340TIP3   OH227958   5.342   8.441   3.117
 9340TIP3    H127959   5.389   8.363   3.082
 9340TIP3    H227960   5.420   8.494   3.143
 9341TIP3   OH227961   6.343   7.767   3.117
 9341TIP3    H127962   6.371   7.853   3.154
 9341TIP3    H227963   6.374   7.777   3.025
 9342TIP3   OH227964   5.737   7.949   3.154
 9342TIP3    H127965   5.781   7.864   3.172
 9342TIP3    H227966   5.707   7.935   3.062
 9343TIP3   OH227967   5.078   7.610   3.117
 9343TIP3    H127968   5.056   7.681   3.053
 9343TIP3    H227969   5.029   7.535   3.076
 9344TIP3   OH227970   5.772   7.702   2.738
 9344TIP3    H127971   5.843   7.688   2.805
 9344TIP3    H227972   5.825   7.737   2.664
 9345TIP3   OH227973   4.710   7.812   3.226
 9345TIP3    H127974   4.793   7.791   3.274
 9345TIP3    H227975   4.723   7.757   3.146
 9346TIP3   OH227976   5.148   8.010   3.023
 9346TIP3    H127977   5.243   7.985   3.034
 9346TIP3    H227978   5.110   7.926   2.990
 9347TIP3   OH227979   6.415   7.976   3.292
 9347TIP3    H127980   6.333   8.023   3.268
 9347TIP3    H227981   6.429   8.010   3.382
 9348TIP3   OH227982   5.075   7.595   3.553
 9348TIP3    H127983   5.013   7.629   3.485
 9348TIP3    H227984   5.021   7.610   3.634
 9349TIP3   OH227985   5.404   8.413   2.564
 9349TIP3    H127986   5.369   8.408   2.474
 9349TIP3    H227987   5.436   8.505   2.570
 9350TIP3   OH227988   5.178   8.374   3.347
 9350TIP3    H127989   5.111   8.438   3.377
 9350TIP3    H227990   5.212   8.420   3.267
 9351TIP3   OH227991   5.977   7.707   2.914
 9351TIP3    H127992   5.974   7.657   2.997
 9351TIP3    H227993   6.036   7.782   2.937
 9352TIP3   OH227994   4.945   7.708   3.336
 9352TIP3    H127995   5.008   7.780   3.360
 9352TIP3    H227996   4.994   7.667   3.262
 9353TIP3   OH227997   5.004   8.589   3.454
 9353TIP3    H127998   4.961   8.578   3.367
 9353TIP3    H227999   4.925   8.583   3.511
 9354TIP3   OH228000   4.400   8.219   2.689
 9354TIP3    H128001   4.366   8.231   2.598
 9354TIP3    H228002   4.416   8.312   2.711
 9355TIP3   OH228003   6.134   7.670   3.285
 9355TIP3    H128004   6.046   7.695   3.252
 9355TIP3    H228005   6.194   7.702   3.215
 9356TIP3   OH228006   5.429   7.310   3.271
 9356TIP3    H128007   5.414   7.215   3.288
 9356TIP3    H228008   5.350   7.348   3.316
 9357TIP3   OH228009   5.771   8.543   2.481
 9357TIP3    H128010   5.752   8.462   2.431
 9357TIP3    H228011   5.786   8.510   2.571
 9358TIP3   OH228012   6.061   8.680   3.268
 9358TIP3    H128013   6.051   8.601   3.211
 9358TIP3    H228014   6.089   8.747   3.202
 9359TIP3   OH228015   5.362   8.071   2.529
 9359TIP3    H128016   5.280   8.122   2.510
 9359TIP3    H228017   5.405   8.068   2.442
 9360TIP3   OH228018   5.311   7.863   2.247
 9360TIP3    H128019   5.382   7.912   2.291
 9360TIP3    H228020   5.362   7.800   2.192
 9361TIP3   OH228021   6.261   8.317   3.112
 9361TIP3    H128022   6.178   8.370   3.113
 9361TIP3    H228023   6.289   8.332   3.019
 9362TIP3   OH228024   5.704   8.150   2.500
 9362TIP3    H128025   5.652   8.173   2.581
 9362TIP3    H228026   5.790   8.124   2.540
 9363TIP3   OH228027   5.940   8.195   3.409
 9363TIP3    H128028   5.938   8.283   3.452
 9363TIP3    H228029   5.853   8.197   3.363
 9364TIP3   OH228030   4.944   8.156   2.905
 9364TIP3    H128031   4.901   8.096   2.840
 9364TIP3    H228032   5.019   8.102   2.937
 9365TIP3   OH228033   5.079   8.523   3.108
 9365TIP3    H128034   5.041   8.520   3.019
 9365TIP3    H228035   5.175   8.520   3.092
 9366TIP3   OH228036   5.068   8.131   3.265
 9366TIP3    H128037   5.104   8.104   3.178
 9366TIP3    H228038   5.114   8.216   3.282
 9367TIP3   OH228039   5.254   8.587   3.588
 9367TIP3    H128040   5.217   8.674   3.611
 9367TIP3    H228041   5.181   8.554   3.534
 9368TIP3   OH228042   5.544   8.008   2.327
 9368TIP3    H128043   5.603   8.068   2.378
 9368TIP3    H228044   5.574   8.029   2.235
 9369TIP3   OH228045   4.970   8.239   3.692
 9369TIP3    H128046   4.974   8.326   3.736
 9369TIP3    H228047   4.875   8.218   3.704
 9370TIP3   OH228048   6.062   7.261   2.366
 9370TIP3    H128049   5.981   7.279   2.418
 9370TIP3    H228050   6.071   7.344   2.315
 9371TIP3   OH228051   4.805   7.998   2.720
 9371TIP3    H128052   4.740   8.039   2.659
 9371TIP3    H228053   4.769   7.910   2.731
 9372TIP3   OH228054   4.602   8.382   3.625
 9372TIP3    H128055   4.536   8.359   3.557
 9372TIP3    H228056   4.636   8.294   3.652
 9373TIP3   OH228057   6.191   8.155   3.589
 9373TIP3    H128058   6.114   8.170   3.532
 9373TIP3    H228059   6.208   8.060   3.574
 9374TIP3   OH228060   4.788   8.586   3.629
 9374TIP3    H128061   4.845   8.547   3.699
 9374TIP3    H228062   4.719   8.518   3.619
 9375TIP3   OH228063   5.189   7.388   3.394
 9375TIP3    H128064   5.101   7.354   3.367
 9375TIP3    H228065   5.160   7.466   3.445
 9376TIP3   OH228066   5.724   7.505   3.592
 9376TIP3    H128067   5.790   7.474   3.657
 9376TIP3    H228068   5.639   7.484   3.637
 9377TIP3   OH228069   5.962   7.932   3.512
 9377TIP3    H128070   5.909   7.932   3.595
 9377TIP3    H228071   5.939   8.018   3.471
 9378TIP3   OH228072   5.634   8.050   2.079
 9378TIP3    H128073   5.589   8.040   1.992
 9378TIP3    H228074   5.696   8.122   2.056
 9379TIP3   OH228075   5.352   7.429   2.371
 9379TIP3    H128076   5.312   7.434   2.460
 9379TIP3    H228077   5.302   7.352   2.336
 9380TIP3   OH228078   5.122   7.908   3.414
 9380TIP3    H128079   5.071   7.926   3.495
 9380TIP3    H228080   5.103   7.989   3.361
 9381TIP3   OH228081   5.004   7.792   2.929
 9381TIP3    H128082   4.912   7.764   2.947
 9381TIP3    H228083   5.017   7.751   2.840
 9382TIP3   OH228084   5.498   7.873   2.658
 9382TIP3    H128085   5.445   7.943   2.614
 9382TIP3    H228086   5.553   7.840   2.584
 9383TIP3   OH228087   5.669   8.151   3.742
 9383TIP3    H128088   5.645   8.079   3.806
 9383TIP3    H228089   5.764   8.159   3.759
 9384TIP3   OH228090   5.654   7.904   2.895
 9384TIP3    H128091   5.593   7.933   2.824
 9384TIP3    H228092   5.689   7.823   2.851
 9385TIP3   OH228093   4.942   7.932   3.623
 9385TIP3    H128094   4.970   7.994   3.692
 9385TIP3    H228095   4.930   7.849   3.674
 9386TIP3   OH228096   4.994   7.413   2.333
 9386TIP3    H128097   4.981   7.410   2.430
 9386TIP3    H228098   4.914   7.463   2.306
 9387TIP3   OH228099   4.531   7.457   3.207
 9387TIP3    H128100   4.611   7.485   3.258
 9387TIP3    H228101   4.567   7.420   3.125
 9388TIP3   OH228102   4.502   7.434   2.725
 9388TIP3    H128103   4.547   7.470   2.646
 9388TIP3    H228104   4.442   7.509   2.744
 9389TIP3   OH228105   5.666   8.150   3.318
 9389TIP3    H128106   5.697   8.078   3.258
 9389TIP3    H228107   5.633   8.096   3.393
 9390TIP3   OH228108   5.336   7.613   2.990
 9390TIP3    H128109   5.253   7.610   3.043
 9390TIP3    H228110   5.404   7.607   3.060
 9391TIP3   OH228111   4.767   7.668   2.998
 9391TIP3    H128112   4.673   7.675   2.971
 9391TIP3    H228113   4.789   7.575   2.978
 9392TIP3   OH228114   5.034   7.665   2.688
 9392TIP3    H128115   5.128   7.679   2.665
 9392TIP3    H228116   4.987   7.686   2.604
 9393TIP3   OH228117   5.826   7.688   3.199
 9393TIP3    H128118   5.786   7.701   3.287
 9393TIP3    H228119   5.761   7.628   3.158
 9394TIP3   OH228120   4.879   7.700   2.465
 9394TIP3    H128121   4.810   7.653   2.416
 9394TIP3    H228122   4.931   7.737   2.391
 9395TIP3   OH228123   4.955   8.488   3.831
 9395TIP3    H128124   5.034   8.515   3.882
 9395TIP3    H228125   4.891   8.475   3.904
 9396TIP3   OH228126   5.415   7.943   3.088
 9396TIP3    H128127   5.487   7.903   3.037
 9396TIP3    H228128   5.421   7.897   3.173
 9397TIP3   OH228129   4.935   7.422   2.974
 9397TIP3    H128130   4.905   7.342   3.022
 9397TIP3    H228131   4.982   7.383   2.900
 9398TIP3   OH228132   5.391   7.839   3.375
 9398TIP3    H128133   5.300   7.873   3.390
 9398TIP3    H228134   5.446   7.901   3.427
 9399TIP3   OH228135   5.130   8.213   2.479
 9399TIP3    H128136   5.053   8.155   2.465
 9399TIP3    H228137   5.107   8.257   2.564
 9400TIP3   OH228138   6.027   8.461   3.105
 9400TIP3    H128139   6.058   8.507   3.024
 9400TIP3    H228140   5.944   8.419   3.075
 9401TIP3   OH228141   5.577   7.567   2.271
 9401TIP3    H128142   5.500   7.516   2.309
 9401TIP3    H228143   5.599   7.630   2.342
 9402TIP3   OH228144   5.540   8.568   3.470
 9402TIP3    H128145   5.565   8.514   3.545
 9402TIP3    H228146   5.456   8.606   3.501
 9403TIP3   OH228147   5.656   7.775   2.438
 9403TIP3    H128148   5.752   7.785   2.454
 9403TIP3    H228149   5.635   7.857   2.389
 9404TIP3   OH228150   4.805   8.213   3.138
 9404TIP3    H128151   4.853   8.201   3.054
 9404TIP3    H228152   4.862   8.165   3.201
 9405TIP3   OH228153   5.241   8.400   2.315
 9405TIP3    H128154   5.198   8.469   2.369
 9405TIP3    H228155   5.207   8.320   2.360
 9406TIP3   OH228156   4.706   8.165   3.764
 9406TIP3    H128157   4.723   8.149   3.859
 9406TIP3    H228158   4.636   8.100   3.746
 9407TIP3   OH228159   5.429   8.276   3.786
 9407TIP3    H128160   5.365   8.225   3.735
 9407TIP3    H228161   5.514   8.241   3.751
 9408TIP3   OH228162   6.090   7.868   2.266
 9408TIP3    H128163   6.013   7.839   2.213
 9408TIP3    H228164   6.094   7.963   2.240
 9409TIP3   OH228165   6.317   8.723   3.358
 9409TIP3    H128166   6.221   8.732   3.346
 9409TIP3    H228167   6.344   8.704   3.264
 9410TIP3   OH228168   5.793   8.331   3.011
 9410TIP3    H128169   5.701   8.304   3.029
 9410TIP3    H228170   5.829   8.249   2.972
 9411TIP3   OH228171   4.487   7.857   2.477
 9411TIP3    H128172   4.534   7.941   2.497
 9411TIP3    H228173   4.410   7.863   2.538
 9412TIP3   OH228174   5.057   8.332   2.718
 9412TIP3    H128175   5.019   8.413   2.753
 9412TIP3    H228176   5.031   8.269   2.788
 9413TIP3   OH228177   5.584   8.533   3.198
 9413TIP3    H128178   5.575   8.542   3.295
 9413TIP3    H228179   5.665   8.483   3.188
 9414TIP3   OH228180   5.591   8.363   2.057
 9414TIP3    H128181   5.622   8.353   2.150
 9414TIP3    H228182   5.508   8.413   2.070
 9415TIP3   OH228183   4.912   7.678   3.768
 9415TIP3    H128184   4.816   7.676   3.779
 9415TIP3    H228185   4.941   7.617   3.838
 9416TIP3   OH228186   5.713   8.338   2.304
 9416TIP3    H128187   5.708   8.266   2.370
 9416TIP3    H228188   5.810   8.337   2.284
 9417TIP3   OH228189   4.903   8.358   2.130
 9417TIP3    H128190   4.940   8.272   2.101
 9417TIP3    H228191   4.941   8.367   2.218
 9418TIP3   OH228192   4.607   8.098   2.556
 9418TIP3    H128193   4.540   8.135   2.617
 9418TIP3    H228194   4.613   8.171   2.490
 9419TIP3   OH228195   5.746   7.746   3.459
 9419TIP3    H128196   5.835   7.776   3.487
 9419TIP3    H228197   5.735   7.662   3.509
 9420TIP3   OH228198   5.633   7.494   2.616
 9420TIP3    H128199   5.613   7.527   2.528
 9420TIP3    H228200   5.674   7.573   2.658
 9421TIP3   OH228201   5.318   7.672   2.720
 9421TIP3    H128202   5.383   7.744   2.702
 9421TIP3    H228203   5.324   7.664   2.817
 9422TIP3   OH228204   5.587   7.988   3.523
 9422TIP3    H128205   5.611   8.037   3.604
 9422TIP3    H228206   5.640   7.907   3.529
 9423TIP3   OH228207   5.464   7.396   2.819
 9423TIP3    H128208   5.455   7.475   2.877
 9423TIP3    H228209   5.524   7.431   2.750
 9424TIP3   OH228210   4.975   7.398   2.610
 9424TIP3    H128211   4.973   7.488   2.648
 9424TIP3    H228212   5.071   7.380   2.618
 9425TIP3   OH228213   6.229   7.891   3.509
 9425TIP3    H128214   6.131   7.888   3.514
 9425TIP3    H228215   6.243   7.851   3.422
 9426TIP3   OH228216   5.880   8.088   2.901
 9426TIP3    H128217   5.807   8.024   2.906
 9426TIP3    H228218   5.954   8.039   2.944
 9427TIP3   OH228219   4.596   8.314   2.372
 9427TIP3    H128220   4.623   8.406   2.357
 9427TIP3    H228221   4.651   8.266   2.306
 9428TIP3   OH228222   4.536   7.588   2.501
 9428TIP3    H128223   4.536   7.685   2.496
 9428TIP3    H228224   4.457   7.566   2.450
 9429TIP3   OH228225   4.923   7.309   3.370
 9429TIP3    H128226   4.899   7.266   3.285
 9429TIP3    H228227   4.913   7.234   3.432
 9430TIP3   OH228228   4.751   8.455   4.011
 9430TIP3    H128229   4.774   8.360   4.018
 9430TIP3    H228230   4.662   8.451   3.970
 9431TIP3   OH228231   4.723   8.119   2.225
 9431TIP3    H128232   4.775   8.081   2.298
 9431TIP3    H228233   4.794   8.124   2.156
 9432TIP3   OH228234   5.375   8.541   3.826
 9432TIP3    H128235   5.340   8.554   3.736
 9432TIP3    H228236   5.407   8.449   3.819
 9433TIP3   OH228237   5.176   8.298   2.038
 9433TIP3    H128238   5.213   8.316   2.125
 9433TIP3    H228239   5.212   8.209   2.019
 9434TIP3   OH228240   5.852   8.560   3.405
 9434TIP3    H128241   5.919   8.617   3.361
 9434TIP3    H228242   5.773   8.616   3.397
 9435TIP3   OH228243   4.874   8.206   4.008
 9435TIP3    H128244   4.949   8.149   3.986
 9435TIP3    H228245   4.900   8.239   4.096
 9436TIP3   OH228246   4.927   8.028   2.436
 9436TIP3    H128247   4.905   7.981   2.518
 9436TIP3    H228248   4.969   7.956   2.383
 9437TIP3   OH228249   5.206   8.095   3.667
 9437TIP3    H128250   5.127   8.154   3.668
 9437TIP3    H228251   5.256   8.130   3.590
 9438TIP3   OH228252   5.036   7.825   2.282
 9438TIP3    H128253   5.012   7.826   2.186
 9438TIP3    H228254   5.134   7.830   2.275
 9439TIP3   OH228255   5.727   8.489   3.800
 9439TIP3    H128256   5.806   8.467   3.750
 9439TIP3    H228257   5.726   8.422   3.870
 9440TIP3   OH228258   5.857   8.169   1.937
 9440TIP3    H128259   5.827   8.114   1.862
 9440TIP3    H228260   5.834   8.257   1.901
 9441TIP3   OH228261   5.331   7.884   3.790
 9441TIP3    H128262   5.329   7.804   3.734
 9441TIP3    H228263   5.285   7.950   3.733
 9442TIP3   OH228264   5.332   7.671   3.602
 9442TIP3    H128265   5.359   7.710   3.516
 9442TIP3    H228266   5.239   7.645   3.583
 9443TIP3   OH228267   5.355   8.210   3.476
 9443TIP3    H128268   5.436   8.214   3.423
 9443TIP3    H228269   5.298   8.276   3.430
 9444TIP3   OH228270   5.966   8.157   3.879
 9444TIP3    H128271   5.994   8.079   3.829
 9444TIP3    H228272   6.016   8.227   3.834
 9445TIP3   OH228273   5.982   8.424   3.597
 9445TIP3    H128274   5.925   8.477   3.535
 9445TIP3    H228275   6.070   8.443   3.557
 9446TIP3   OH228276   5.209   7.992   4.023
 9446TIP3    H128277   5.140   7.924   4.041
 9446TIP3    H228278   5.241   7.965   3.935
 9447TIP3   OH228279   5.464   7.433   3.669
 9447TIP3    H128280   5.413   7.514   3.646
 9447TIP3    H228281   5.395   7.364   3.658
 9448TIP3   OH228282   5.588   7.934   3.885
 9448TIP3    H128283   5.566   7.919   3.979
 9448TIP3    H228284   5.500   7.912   3.846
 9449TIP3   OH228285   5.835   7.902   3.750
 9449TIP3    H128286   5.753   7.892   3.803
 9449TIP3    H228287   5.901   7.858   3.806
 9450TIP3   OH228288   6.060   7.831   3.907
 9450TIP3    H128289   6.073   7.733   3.908
 9450TIP3    H228290   6.052   7.851   4.001
 9451TIP3   OH228291   5.045   7.774   4.078
 9451TIP3    H128292   5.048   7.682   4.046
 9451TIP3    H228293   5.082   7.762   4.168
 9452TIP3   OH228294   5.558   7.443   3.927
 9452TIP3    H128295   5.623   7.370   3.920
 9452TIP3    H228296   5.516   7.438   3.839
 9453TIP3   OH228297   5.628   7.661   4.081
 9453TIP3    H128298   5.604   7.588   4.019
 9453TIP3    H228299   5.548   7.717   4.078
 9454TIP3   OH228300   4.331   8.224   2.408
 9454TIP3    H128301   4.414   8.264   2.377
 9454TIP3    H228302   4.320   8.149   2.346
 9455TIP3   OH228303   6.204   8.849   3.633
 9455TIP3    H128304   6.130   8.831   3.696
 9455TIP3    H228305   6.252   8.919   3.679
 9456TIP3   OH228306   5.983   8.333   2.283
 9456TIP3    H128307   6.055   8.393   2.250
 9456TIP3    H228308   6.028   8.299   2.364
 9457TIP3   OH228309   6.115   8.217   2.485
 9457TIP3    H128310   6.064   8.160   2.545
 9457TIP3    H228311   6.207   8.199   2.516
 9458TIP3   OH228312   6.167   8.585   2.909
 9458TIP3    H128313   6.225   8.524   2.859
 9458TIP3    H228314   6.165   8.664   2.853
 9459TIP3   OH228315   6.051   8.113   2.123
 9459TIP3    H128316   5.980   8.130   2.056
 9459TIP3    H228317   6.032   8.186   2.185
 9460TIP3   OH228318   5.906   7.781   2.079
 9460TIP3    H128319   5.904   7.845   2.006
 9460TIP3    H228320   5.957   7.708   2.044
 9461TIP3   OH228321   5.927   8.059   2.628
 9461TIP3    H128322   5.949   7.964   2.621
 9461TIP3    H228323   5.925   8.074   2.724
 9462TIP3   OH228324   4.560   8.146   3.374
 9462TIP3    H128325   4.558   8.109   3.283
 9462TIP3    H228326   4.657   8.145   3.391
 9463TIP3   OH228327   6.224   8.487   3.486
 9463TIP3    H128328   6.298   8.424   3.476
 9463TIP3    H228329   6.248   8.558   3.424
 9464TIP3   OH228330   6.410   8.292   3.506
 9464TIP3    H128331   6.333   8.243   3.543
 9464TIP3    H228332   6.481   8.226   3.520
 9465TIP3   OH228333   5.932   7.780   2.518
 9465TIP3    H128334   5.974   7.691   2.533
 9465TIP3    H228335   5.995   7.816   2.453
 9466TIP3   OH228336   6.099   7.957   3.013
 9466TIP3    H128337   6.184   7.981   2.968
 9466TIP3    H228338   6.117   7.994   3.102
 9467TIP3   OH228339   6.166   8.099   3.250
 9467TIP3    H128340   6.086   8.134   3.293
 9467TIP3    H228341   6.198   8.178   3.200
 9468TIP3   OH228342   4.779   7.824   4.048
 9468TIP3    H128343   4.877   7.819   4.050
 9468TIP3    H228344   4.757   7.738   4.089
 9469TIP3   OH228345   6.612   7.691   3.803
 9469TIP3    H128346   6.673   7.627   3.762
 9469TIP3    H228347   6.583   7.745   3.726
 9470TIP3   OH228348   6.039   7.532   2.562
 9470TIP3    H128349   6.090   7.515   2.644
 9470TIP3    H228350   5.981   7.453   2.560
 9471TIP3   OH228351   4.739   7.517   3.384
 9471TIP3    H128352   4.798   7.439   3.388
 9471TIP3    H228353   4.804   7.589   3.372
 9472TIP3   OH228354   4.541   7.793   3.449
 9472TIP3    H128355   4.591   7.783   3.366
 9472TIP3    H228356   4.578   7.874   3.484
 9473TIP3   OH228357   6.482   7.828   3.607
 9473TIP3    H128358   6.394   7.870   3.617
 9473TIP3    H228359   6.457   7.754   3.549
 9474TIP3   OH228360   6.122   7.475   2.178
 9474TIP3    H128361   6.174   7.400   2.143
 9474TIP3    H228362   6.190   7.545   2.188
 9475TIP3   OH228363   4.531   7.307   2.962
 9475TIP3    H128364   4.437   7.290   2.981
 9475TIP3    H228365   4.526   7.354   2.876
 9476TIP3   OH228366   4.750   7.380   3.773
 9476TIP3    H128367   4.695   7.372   3.852
 9476TIP3    H228368   4.684   7.409   3.707
 9477TIP3   OH228369   6.382   7.592   3.489
 9477TIP3    H128370   6.293   7.585   3.451
 9477TIP3    H228371   6.415   7.500   3.477
 9478TIP3   OH228372   5.588   7.507   3.110
 9478TIP3    H128373   5.545   7.436   3.161
 9478TIP3    H228374   5.660   7.460   3.065
 9479TIP3   OH228375   6.110   7.390   3.017
 9479TIP3    H128376   6.147   7.439   2.940
 9479TIP3    H228377   6.014   7.407   3.007
 9480TIP3   OH228378   6.206   7.482   2.778
 9480TIP3    H128379   6.277   7.429   2.736
 9480TIP3    H228380   6.243   7.572   2.762
 9481TIP3   OH228381   4.842   7.204   3.128
 9481TIP3    H128382   4.746   7.192   3.118
 9481TIP3    H228383   4.866   7.109   3.142
 9482TIP3   OH228384   4.585   7.098   2.746
 9482TIP3    H128385   4.645   7.148   2.687
 9482TIP3    H228386   4.598   7.143   2.831
 9483TIP3   OH228387   5.281   7.245   3.003
 9483TIP3    H128388   5.340   7.296   2.944
 9483TIP3    H228389   5.301   7.284   3.089
 9484TIP3   OH228390   5.827   7.397   2.987
 9484TIP3    H128391   5.824   7.360   2.898
 9484TIP3    H228392   5.814   7.316   3.043
 9485TIP3   OH228393   5.859   7.317   2.551
 9485TIP3    H128394   5.772   7.360   2.562
 9485TIP3    H228395   5.843   7.231   2.596
 9486TIP3   OH228396   4.743   7.249   2.531
 9486TIP3    H128397   4.790   7.182   2.478
 9486TIP3    H228398   4.818   7.300   2.568
 9487TIP3   OH228399   5.253   7.422   2.632
 9487TIP3    H128400   5.311   7.373   2.692
 9487TIP3    H228401   5.275   7.514   2.659
 9488TIP3   OH228402   5.044   7.502   4.019
 9488TIP3    H128403   5.010   7.428   4.072
 9488TIP3    H228404   5.139   7.499   4.043
 9489TIP3   OH228405   5.296   7.493   4.132
 9489TIP3    H128406   5.380   7.465   4.092
 9489TIP3    H228407   5.282   7.421   4.198
 9490TIP3   OH228408   6.122   7.562   3.920
 9490TIP3    H128409   6.139   7.527   4.010
 9490TIP3    H228410   6.210   7.554   3.878
 9491TIP3   OH228411   6.615   8.385   2.927
 9491TIP3    H128412   6.668   8.323   2.979
 9491TIP3    H228413   6.679   8.414   2.858
 9492TIP3   OH228414   6.839   7.865   2.615
 9492TIP3    H128415   6.830   7.925   2.539
 9492TIP3    H228416   6.805   7.783   2.572
 9493TIP3   OH228417   6.861   7.844   3.059
 9493TIP3    H128418   6.811   7.879   2.982
 9493TIP3    H228419   6.801   7.869   3.132
 9494TIP3   OH228420   6.744   7.954   2.846
 9494TIP3    H128421   6.784   8.041   2.837
 9494TIP3    H228422   6.771   7.915   2.759
 9495TIP3   OH228423   6.193   8.480   2.189
 9495TIP3    H128424   6.174   8.511   2.099
 9495TIP3    H228425   6.238   8.558   2.225
 9496TIP3   OH228426   7.213   7.570   2.760
 9496TIP3    H128427   7.199   7.474   2.770
 9496TIP3    H228428   7.132   7.604   2.804
 9497TIP3   OH228429   6.732   8.501   3.190
 9497TIP3    H128430   6.709   8.593   3.206
 9497TIP3    H228431   6.642   8.462   3.191
 9498TIP3   OH228432   6.566   8.241   2.149
 9498TIP3    H128433   6.563   8.331   2.183
 9498TIP3    H228434   6.549   8.189   2.229
 9499TIP3   OH228435   6.385   8.634   3.114
 9499TIP3    H128436   6.324   8.618   3.040
 9499TIP3    H228437   6.420   8.546   3.134
 9500TIP3   OH228438   6.980   7.642   2.889
 9500TIP3    H128439   6.892   7.612   2.857
 9500TIP3    H228440   6.955   7.729   2.923
 9501TIP3   OH228441   7.495   7.715   3.109
 9501TIP3    H128442   7.524   7.758   3.191
 9501TIP3    H228443   7.398   7.714   3.123
 9502TIP3   OH228444   6.949   8.169   2.929
 9502TIP3    H128445   6.870   8.188   2.985
 9502TIP3    H228446   6.927   8.210   2.844
 9503TIP3   OH228447   6.762   8.032   2.398
 9503TIP3    H128448   6.681   8.045   2.449
 9503TIP3    H228449   6.728   7.995   2.315
 9504TIP3   OH228450   6.749   8.198   3.115
 9504TIP3    H128451   6.729   8.262   3.185
 9504TIP3    H228452   6.729   8.113   3.159
 9505TIP3   OH228453   6.764   7.638   1.803
 9505TIP3    H128454   6.769   7.637   1.901
 9505TIP3    H228455   6.692   7.701   1.788
 9506TIP3   OH228456   6.335   7.703   2.697
 9506TIP3    H128457   6.400   7.749   2.754
 9506TIP3    H228458   6.378   7.710   2.610
 9507TIP3   OH228459   6.300   7.692   2.207
 9507TIP3    H128460   6.355   7.732   2.137
 9507TIP3    H228461   6.241   7.766   2.230
 9508TIP3   OH228462   6.622   7.940   1.976
 9508TIP3    H128463   6.558   7.894   1.918
 9508TIP3    H228464   6.631   8.026   1.933
 9509TIP3   OH228465   6.722   7.682   2.458
 9509TIP3    H128466   6.709   7.592   2.491
 9509TIP3    H228467   6.799   7.674   2.396
 9510TIP3   OH228468   6.483   8.412   3.257
 9510TIP3    H128469   6.489   8.391   3.352
 9510TIP3    H228470   6.408   8.356   3.228
 9511TIP3   OH228471   6.275   8.109   1.966
 9511TIP3    H128472   6.330   8.180   2.002
 9511TIP3    H228473   6.196   8.115   2.024
 9512TIP3   OH228474   6.702   7.938   3.262
 9512TIP3    H128475   6.605   7.936   3.267
 9512TIP3    H228476   6.727   7.873   3.330
 9513TIP3   OH228477   6.744   7.641   2.076
 9513TIP3    H128478   6.732   7.727   2.120
 9513TIP3    H228479   6.830   7.618   2.118
 9514TIP3   OH228480   6.329   7.841   1.968
 9514TIP3    H128481   6.330   7.938   1.975
 9514TIP3    H228482   6.235   7.822   1.958
 9515TIP3   OH228483   6.716   7.568   2.862
 9515TIP3    H128484   6.688   7.539   2.772
 9515TIP3    H228485   6.704   7.487   2.914
 9516TIP3   OH228486   6.557   8.716   3.485
 9516TIP3    H128487   6.588   8.623   3.480
 9516TIP3    H228488   6.468   8.710   3.445
 9517TIP3   OH228489   6.670   8.464   3.494
 9517TIP3    H128490   6.740   8.402   3.474
 9517TIP3    H228491   6.693   8.493   3.585
 9518TIP3   OH228492   7.091   8.149   3.278
 9518TIP3    H128493   7.133   8.065   3.255
 9518TIP3    H228494   7.051   8.174   3.194
 9519TIP3   OH228495   7.110   7.940   3.061
 9519TIP3    H128496   7.082   7.996   2.987
 9519TIP3    H228497   7.022   7.900   3.081
 9520TIP3   OH228498   7.009   8.246   3.521
 9520TIP3    H128499   6.937   8.180   3.534
 9520TIP3    H228500   7.039   8.222   3.430
 9521TIP3   OH228501   7.227   7.696   3.165
 9521TIP3    H128502   7.176   7.770   3.127
 9521TIP3    H228503   7.167   7.620   3.149
 9522TIP3   OH228504   6.843   8.029   3.565
 9522TIP3    H128505   6.847   7.939   3.527
 9522TIP3    H228506   6.877   8.012   3.655
 9523TIP3   OH228507   7.349   7.691   3.412
 9523TIP3    H128508   7.420   7.626   3.399
 9523TIP3    H228509   7.301   7.685   3.327
 9524TIP3   OH228510   7.418   7.896   3.581
 9524TIP3    H128511   7.396   7.832   3.510
 9524TIP3    H228512   7.350   7.965   3.568
 9525TIP3   OH228513   6.110   8.486   1.875
 9525TIP3    H128514   6.197   8.522   1.853
 9525TIP3    H228515   6.107   8.405   1.821
 9526TIP3   OH228516   6.355   8.386   2.849
 9526TIP3    H128517   6.362   8.328   2.769
 9526TIP3    H228518   6.451   8.393   2.870
 9527TIP3   OH228519   6.576   8.082   3.542
 9527TIP3    H128520   6.674   8.075   3.539
 9527TIP3    H228521   6.553   7.993   3.577
 9528TIP3   OH228522   6.530   7.777   2.885
 9528TIP3    H128523   6.596   7.705   2.879
 9528TIP3    H228524   6.587   7.855   2.868
 9529TIP3   OH228525   6.344   8.044   2.919
 9529TIP3    H128526   6.359   8.036   2.822
 9529TIP3    H228527   6.382   8.132   2.930
 9530TIP3   OH228528   6.316   7.531   2.424
 9530TIP3    H128529   6.229   7.546   2.465
 9530TIP3    H228530   6.320   7.602   2.357
 9531TIP3   OH228531   6.544   7.632   3.256
 9531TIP3    H128532   6.488   7.630   3.335
 9531TIP3    H228533   6.481   7.671   3.191
 9532TIP3   OH228534   6.632   7.465   2.623
 9532TIP3    H128535   6.539   7.438   2.616
 9532TIP3    H228536   6.679   7.380   2.610
 9533TIP3   OH228537   6.410   7.338   2.251
 9533TIP3    H128538   6.447   7.397   2.183
 9533TIP3    H228539   6.384   7.403   2.320
 9534TIP3   OH228540   7.077   7.482   2.518
 9534TIP3    H128541   7.074   7.530   2.433
 9534TIP3    H228542   7.116   7.548   2.577
 9535TIP3   OH228543   6.524   7.490   2.014
 9535TIP3    H128544   6.577   7.430   1.958
 9535TIP3    H228545   6.596   7.549   2.048
 9536TIP3   OH228546   6.838   7.753   3.502
 9536TIP3    H128547   6.804   7.682   3.559
 9536TIP3    H228548   6.933   7.753   3.529
 9537TIP3   OH228549   7.087   7.749   3.619
 9537TIP3    H128550   7.175   7.735   3.580
 9537TIP3    H228551   7.082   7.676   3.684
 9538TIP3   OH228552   2.274   0.942   7.516
 9538TIP3    H128553   2.263   0.873   7.581
 9538TIP3    H228554   2.295   1.020   7.569
 9539TIP3   OH228555   1.925   1.395   7.536
 9539TIP3    H128556   1.990   1.338   7.488
 9539TIP3    H228557   1.933   1.360   7.625
 9540TIP3   OH228558   1.958   0.881   7.325
 9540TIP3    H128559   1.894   0.839   7.267
 9540TIP3    H228560   1.928   0.973   7.324
 9541TIP3   OH228561   2.100   1.239   7.405
 9541TIP3    H128562   2.125   1.154   7.363
 9541TIP3    H228563   2.137   1.301   7.339
 9542TIP3   OH228564   2.203   1.022   7.263
 9542TIP3    H128565   2.149   0.948   7.230
 9542TIP3    H228566   2.234   0.984   7.347
 9543TIP3   OH228567   2.207   0.598   7.272
 9543TIP3    H128568   2.147   0.589   7.347
 9543TIP3    H228569   2.287   0.553   7.303
 9544TIP3   OH228570   1.839   1.160   7.306
 9544TIP3    H128571   1.861   1.203   7.390
 9544TIP3    H228572   1.742   1.157   7.309
 9545TIP3   OH228573   2.368   1.036   6.685
 9545TIP3    H128574   2.375   1.134   6.673
 9545TIP3    H228575   2.461   1.009   6.674
 9546TIP3   OH228576   1.665   1.366   7.158
 9546TIP3    H128577   1.624   1.357   7.071
 9546TIP3    H228578   1.640   1.455   7.187
 9547TIP3   OH228579   1.885   1.261   6.806
 9547TIP3    H128580   1.944   1.190   6.773
 9547TIP3    H228581   1.915   1.271   6.899
 9548TIP3   OH228582   1.923   1.311   7.076
 9548TIP3    H128583   1.834   1.318   7.118
 9548TIP3    H228584   1.966   1.255   7.143
 9549TIP3   OH228585   2.117   0.498   6.826
 9549TIP3    H128586   2.097   0.450   6.744
 9549TIP3    H228587   2.207   0.530   6.810
 9550TIP3   OH228588   1.842   0.859   7.004
 9550TIP3    H128589   1.776   0.929   7.023
 9550TIP3    H228590   1.808   0.789   7.063
 9551TIP3   OH228591   2.616   0.305   7.031
 9551TIP3    H128592   2.552   0.248   6.982
 9551TIP3    H228593   2.593   0.392   6.991
 9552TIP3   OH228594   2.312   1.114   6.954
 9552TIP3    H128595   2.278   1.049   7.018
 9552TIP3    H228596   2.317   1.062   6.872
 9553TIP3   OH228597   2.064   0.850   6.849
 9553TIP3    H128598   2.122   0.814   6.921
 9553TIP3    H228599   1.980   0.852   6.900
 9554TIP3   OH228600   2.397   1.311   6.672
 9554TIP3    H128601   2.432   1.384   6.618
 9554TIP3    H228602   2.318   1.356   6.709
 9555TIP3   OH228603   2.224   0.780   7.061
 9555TIP3    H128604   2.205   0.715   7.132
 9555TIP3    H228605   2.321   0.772   7.056
 9556TIP3   OH228606   1.646   1.041   7.064
 9556TIP3    H128607   1.573   1.046   7.127
 9556TIP3    H228608   1.648   1.131   7.028
 9557TIP3   OH228609   2.354   1.469   7.646
 9557TIP3    H128610   2.309   1.514   7.571
 9557TIP3    H228611   2.445   1.468   7.613
 9558TIP3   OH228612   1.595   1.006   6.774
 9558TIP3    H128613   1.599   0.962   6.861
 9558TIP3    H228614   1.669   0.963   6.727
 9559TIP3   OH228615   2.028   1.065   6.676
 9559TIP3    H128616   2.066   0.997   6.736
 9559TIP3    H228617   2.088   1.060   6.599
 9560TIP3   OH228618   2.366   0.569   6.707
 9560TIP3    H128619   2.346   0.526   6.621
 9560TIP3    H228620   2.329   0.658   6.689
 9561TIP3   OH228621   1.361   1.323   6.938
 9561TIP3    H128622   1.456   1.305   6.925
 9561TIP3    H228623   1.341   1.370   6.854
 9562TIP3   OH228624   2.628   1.534   7.590
 9562TIP3    H128625   2.620   1.610   7.648
 9562TIP3    H228626   2.645   1.576   7.505
 9563TIP3   OH228627   2.503   0.759   7.043
 9563TIP3    H128628   2.571   0.823   7.015
 9563TIP3    H228629   2.545   0.720   7.123
 9564TIP3   OH228630   2.626   0.628   7.246
 9564TIP3    H128631   2.559   0.588   7.306
 9564TIP3    H228632   2.691   0.668   7.308
 9565TIP3   OH228633   2.664   1.024   7.686
 9565TIP3    H128634   2.727   0.954   7.660
 9565TIP3    H228635   2.673   1.087   7.613
 9566TIP3   OH228636   2.562   0.537   6.892
 9566TIP3    H128637   2.491   0.541   6.824
 9566TIP3    H228638   2.534   0.611   6.950
 9567TIP3   OH228639   2.443   0.197   6.841
 9567TIP3    H128640   2.395   0.264   6.791
 9567TIP3    H228641   2.391   0.118   6.824
 9568TIP3   OH228642   2.440   0.483   7.398
 9568TIP3    H128643   2.462   0.390   7.386
 9568TIP3    H228644   2.442   0.493   7.494
 9569TIP3   OH228645   2.189   1.418   7.223
 9569TIP3    H128646   2.244   1.406   7.143
 9569TIP3    H228647   2.242   1.481   7.275
 9570TIP3   OH228648   1.624   1.261   6.895
 9570TIP3    H128649   1.715   1.279   6.860
 9570TIP3    H228650   1.600   1.185   6.837
 9571TIP3   OH228651   2.343   1.381   6.995
 9571TIP3    H128652   2.336   1.283   6.986
 9571TIP3    H228653   2.292   1.410   6.916
 9572TIP3   OH228654   3.830   0.895   6.951
 9572TIP3    H128655   3.802   0.986   6.929
 9572TIP3    H228656   3.757   0.846   6.910
 9573TIP3   OH228657   3.831   0.899   7.333
 9573TIP3    H128658   3.860   0.870   7.421
 9573TIP3    H228659   3.790   0.818   7.297
 9574TIP3   OH228660   3.138   0.827   7.671
 9574TIP3    H128661   3.131   0.779   7.755
 9574TIP3    H228662   3.226   0.802   7.637
 9575TIP3   OH228663   4.074   1.201   7.012
 9575TIP3    H128664   4.061   1.133   7.080
 9575TIP3    H228665   4.108   1.276   7.064
 9576TIP3   OH228666   3.113   1.213   7.452
 9576TIP3    H128667   3.098   1.116   7.438
 9576TIP3    H228668   3.204   1.218   7.415
 9577TIP3   OH228669   2.797   0.412   7.218
 9577TIP3    H128670   2.744   0.494   7.222
 9577TIP3    H228671   2.740   0.357   7.161
 9578TIP3   OH228672   2.858   0.707   7.373
 9578TIP3    H128673   2.895   0.625   7.413
 9578TIP3    H228674   2.920   0.721   7.300
 9579TIP3   OH228675   3.725   1.661   7.028
 9579TIP3    H128676   3.767   1.590   6.975
 9579TIP3    H228677   3.719   1.620   7.115
 9580TIP3   OH228678   3.630   1.119   7.386
 9580TIP3    H128679   3.667   1.044   7.336
 9580TIP3    H228680   3.714   1.166   7.406
 9581TIP3   OH228681   4.061   0.615   7.425
 9581TIP3    H128682   4.047   0.524   7.453
 9581TIP3    H228683   4.019   0.618   7.337
 9582TIP3   OH228684   3.360   0.251   7.355
 9582TIP3    H128685   3.338   0.335   7.309
 9582TIP3    H228686   3.282   0.198   7.338
 9583TIP3   OH228687   4.039   0.407   7.049
 9583TIP3    H128688   4.096   0.351   7.105
 9583TIP3    H228689   4.087   0.402   6.965
 9584TIP3   OH228690   2.980   0.492   7.472
 9584TIP3    H128691   3.063   0.482   7.523
 9584TIP3    H228692   2.997   0.425   7.404
 9585TIP3   OH228693   3.444   0.687   7.288
 9585TIP3    H128694   3.539   0.664   7.300
 9585TIP3    H228695   3.407   0.601   7.258
 9586TIP3   OH228696   3.717   1.114   6.821
 9586TIP3    H128697   3.682   1.101   6.731
 9586TIP3    H228698   3.675   1.199   6.845
 9587TIP3   OH228699   3.482   1.071   7.607
 9587TIP3    H128700   3.401   1.118   7.585
 9587TIP3    H228701   3.540   1.099   7.533
 9588TIP3   OH228702   3.229   0.436   7.549
 9588TIP3    H128703   3.306   0.484   7.586
 9588TIP3    H228704   3.271   0.354   7.521
 9589TIP3   OH228705   2.706   0.928   6.936
 9589TIP3    H128706   2.662   0.955   6.853
 9589TIP3    H228707   2.736   1.013   6.972
 9590TIP3   OH228708   4.144   1.444   7.177
 9590TIP3    H128709   4.053   1.436   7.214
 9590TIP3    H228710   4.138   1.529   7.130
 9591TIP3   OH228711   3.842   1.488   6.849
 9591TIP3    H128712   3.892   1.405   6.829
 9591TIP3    H228713   3.905   1.553   6.810
 9592TIP3   OH228714   3.984   1.273   6.761
 9592TIP3    H128715   3.962   1.192   6.714
 9592TIP3    H228716   4.022   1.238   6.845
 9593TIP3   OH228717   4.366   1.354   7.523
 9593TIP3    H128718   4.361   1.277   7.462
 9593TIP3    H228719   4.352   1.429   7.461
 9594TIP3   OH228720   3.664   0.756   6.778
 9594TIP3    H128721   3.582   0.805   6.756
 9594TIP3    H228722   3.705   0.747   6.690
 9595TIP3   OH228723   3.619   0.532   6.498
 9595TIP3    H128724   3.692   0.583   6.537
 9595TIP3    H228725   3.669   0.464   6.449
 9596TIP3   OH228726   4.561   0.971   7.358
 9596TIP3    H128727   4.483   1.029   7.373
 9596TIP3    H228728   4.596   1.010   7.274
 9597TIP3   OH228729   4.007   0.833   6.748
 9597TIP3    H128730   3.954   0.856   6.828
 9597TIP3    H228731   4.093   0.812   6.790
 9598TIP3   OH228732   4.245   0.856   7.637
 9598TIP3    H128733   4.250   0.937   7.691
 9598TIP3    H228734   4.152   0.861   7.608
 9599TIP3   OH228735   3.242   0.830   7.166
 9599TIP3    H128736   3.199   0.770   7.100
 9599TIP3    H228737   3.316   0.774   7.198
 9600TIP3   OH228738   3.362   1.223   7.324
 9600TIP3    H128739   3.343   1.200   7.231
 9600TIP3    H228740   3.455   1.196   7.333
 9601TIP3   OH228741   3.380   0.817   7.526
 9601TIP3    H128742   3.397   0.781   7.436
 9601TIP3    H228743   3.429   0.900   7.526
 9602TIP3   OH228744   3.901   1.440   7.296
 9602TIP3    H128745   3.886   1.520   7.349
 9602TIP3    H228746   3.886   1.367   7.359
 9603TIP3   OH228747   3.494   1.408   7.801
 9603TIP3    H128748   3.504   1.437   7.893
 9603TIP3    H228749   3.473   1.314   7.814
 9604TIP3   OH228750   3.849   0.688   6.575
 9604TIP3    H128751   3.906   0.750   6.626
 9604TIP3    H228752   3.875   0.709   6.483
 9605TIP3   OH228753   3.593   1.370   6.858
 9605TIP3    H128754   3.676   1.420   6.863
 9605TIP3    H228755   3.535   1.432   6.809
 9606TIP3   OH228756   3.209   1.493   7.780
 9606TIP3    H128757   3.290   1.517   7.730
 9606TIP3    H228758   3.241   1.502   7.871
 9607TIP3   OH228759   3.107   0.672   6.975
 9607TIP3    H128760   3.040   0.716   6.918
 9607TIP3    H228761   3.069   0.583   6.984
 9608TIP3   OH228762   4.166   1.297   6.175
 9608TIP3    H128763   4.174   1.393   6.159
 9608TIP3    H228764   4.259   1.267   6.162
 9609TIP3   OH228765   2.733   1.251   7.512
 9609TIP3    H128766   2.829   1.246   7.498
 9609TIP3    H228767   2.718   1.341   7.546
 9610TIP3   OH228768   4.605   1.699   7.572
 9610TIP3    H128769   4.606   1.602   7.584
 9610TIP3    H228770   4.521   1.723   7.616
 9611TIP3   OH228771   3.732   1.482   7.705
 9611TIP3    H128772   3.721   1.578   7.722
 9611TIP3    H228773   3.641   1.451   7.726
 9612TIP3   OH228774   3.475   1.612   6.657
 9612TIP3    H128775   3.431   1.595   6.571
 9612TIP3    H228776   3.444   1.702   6.679
 9613TIP3   OH228777   2.913   1.465   7.040
 9613TIP3    H128778   2.960   1.453   7.126
 9613TIP3    H228779   2.863   1.381   7.035
 9614TIP3   OH228780   3.675   1.516   6.294
 9614TIP3    H128781   3.734   1.446   6.257
 9614TIP3    H228782   3.711   1.526   6.384
 9615TIP3   OH228783   3.727   1.565   6.563
 9615TIP3    H128784   3.639   1.573   6.607
 9615TIP3    H228785   3.780   1.528   6.635
 9616TIP3   OH228786   4.479   0.786   7.803
 9616TIP3    H128787   4.423   0.865   7.814
 9616TIP3    H228788   4.490   0.758   7.896
 9617TIP3   OH228789   3.929   0.731   6.321
 9617TIP3    H128790   3.890   0.710   6.234
 9617TIP3    H228791   4.009   0.780   6.295
 9618TIP3   OH228792   3.432   0.583   7.649
 9618TIP3    H128793   3.442   0.603   7.743
 9618TIP3    H228794   3.424   0.671   7.608
 9619TIP3   OH228795   3.307   0.466   7.192
 9619TIP3    H128796   3.212   0.444   7.202
 9619TIP3    H228797   3.324   0.437   7.100
 9620TIP3   OH228798   3.794   0.557   6.916
 9620TIP3    H128799   3.746   0.628   6.868
 9620TIP3    H228800   3.859   0.528   6.849
 9621TIP3   OH228801   3.941   0.624   7.173
 9621TIP3    H128802   3.882   0.664   7.107
 9621TIP3    H228803   3.966   0.543   7.124
 9622TIP3   OH228804   2.879   0.222   7.014
 9622TIP3    H128805   2.890   0.210   6.918
 9622TIP3    H228806   2.784   0.245   7.018
 9623TIP3   OH228807   3.966   0.820   7.574
 9623TIP3    H128808   4.004   0.747   7.521
 9623TIP3    H228809   3.946   0.772   7.658
 9624TIP3   OH228810   3.058   0.340   7.237
 9624TIP3    H128811   2.966   0.373   7.225
 9624TIP3    H228812   3.050   0.258   7.188
 9625TIP3   OH228813   3.352   0.365   6.943
 9625TIP3    H128814   3.441   0.348   6.909
 9625TIP3    H228815   3.295   0.353   6.865
 9626TIP3   OH228816   3.184   0.346   6.719
 9626TIP3    H128817   3.108   0.329   6.659
 9626TIP3    H228818   3.243   0.392   6.656
 9627TIP3   OH228819   4.301   2.052   7.663
 9627TIP3    H128820   4.301   2.080   7.569
 9627TIP3    H228821   4.380   2.100   7.696
 9628TIP3   OH228822   3.705   0.624   7.342
 9628TIP3    H128823   3.785   0.585   7.304
 9628TIP3    H228824   3.710   0.593   7.436
 9629TIP3   OH228825   3.724   0.551   7.602
 9629TIP3    H128826   3.641   0.505   7.622
 9629TIP3    H228827   3.763   0.562   7.690
 9630TIP3   OH228828   3.430   0.903   6.728
 9630TIP3    H128829   3.359   0.836   6.717
 9630TIP3    H228830   3.412   0.936   6.819
 9631TIP3   OH228831   4.335   1.136   7.357
 9631TIP3    H128832   4.363   1.186   7.277
 9631TIP3    H228833   4.250   1.097   7.328
 9632TIP3   OH228834   3.866   0.285   6.548
 9632TIP3    H128835   3.807   0.232   6.606
 9632TIP3    H228836   3.903   0.349   6.613
 9633TIP3   OH228837   3.821   1.214   7.718
 9633TIP3    H128838   3.853   1.185   7.804
 9633TIP3    H228839   3.798   1.308   7.731
 9634TIP3   OH228840   3.967   0.478   6.713
 9634TIP3    H128841   4.065   0.488   6.719
 9634TIP3    H228842   3.942   0.552   6.656
 9635TIP3   OH228843   3.125   0.948   7.392
 9635TIP3    H128844   3.162   0.904   7.313
 9635TIP3    H228845   3.136   0.881   7.461
 9636TIP3   OH228846   3.579   1.051   6.552
 9636TIP3    H128847   3.530   1.137   6.556
 9636TIP3    H228848   3.524   0.996   6.612
 9637TIP3   OH228849   3.997   1.473   7.635
 9637TIP3    H128850   3.900   1.464   7.638
 9637TIP3    H228851   4.009   1.558   7.679
 9638TIP3   OH228852   4.398   0.552   6.519
 9638TIP3    H128853   4.338   0.502   6.458
 9638TIP3    H228854   4.386   0.642   6.480
 9639TIP3   OH228855   4.618   1.410   7.609
 9639TIP3    H128856   4.521   1.403   7.599
 9639TIP3    H228857   4.646   1.381   7.519
 9640TIP3   OH228858   4.100   1.371   6.438
 9640TIP3    H128859   4.078   1.298   6.497
 9640TIP3    H228860   4.116   1.327   6.352
 9641TIP3   OH228861   4.096   1.001   7.275
 9641TIP3    H128862   4.002   0.974   7.287
 9641TIP3    H228863   4.131   0.923   7.229
 9642TIP3   OH228864   3.227   1.232   7.039
 9642TIP3    H128865   3.228   1.311   6.981
 9642TIP3    H228866   3.135   1.205   7.031
 9643TIP3   OH228867   2.786   0.533   6.734
 9643TIP3    H128868   2.833   0.616   6.756
 9643TIP3    H228869   2.710   0.538   6.796
 9644TIP3   OH228870   3.361   0.995   6.973
 9644TIP3    H128871   3.329   1.084   6.995
 9644TIP3    H228872   3.324   0.942   7.046
 9645TIP3   OH228873   3.493   1.575   7.475
 9645TIP3    H128874   3.537   1.650   7.431
 9645TIP3    H228875   3.563   1.544   7.534
 9646TIP3   OH228876   3.145   1.468   6.882
 9646TIP3    H128877   3.060   1.477   6.928
 9646TIP3    H228878   3.177   1.561   6.884
 9647TIP3   OH228879   3.883   1.208   7.453
 9647TIP3    H128880   3.873   1.200   7.550
 9647TIP3    H228881   3.961   1.152   7.437
 9648TIP3   OH228882   3.860   1.099   6.341
 9648TIP3    H128883   3.912   1.075   6.421
 9648TIP3    H228884   3.771   1.071   6.369
 9649TIP3   OH228885   4.125   1.739   7.506
 9649TIP3    H128886   4.042   1.693   7.481
 9649TIP3    H228887   4.125   1.808   7.436
 9650TIP3   OH228888   4.197   1.572   6.159
 9650TIP3    H128889   4.235   1.644   6.106
 9650TIP3    H228890   4.117   1.618   6.192
 9651TIP3   OH228891   4.020   1.037   6.559
 9651TIP3    H128892   4.009   0.967   6.627
 9651TIP3    H228893   4.117   1.031   6.544
 9652TIP3   OH228894   3.222   1.079   6.340
 9652TIP3    H128895   3.237   0.987   6.312
 9652TIP3    H228896   3.201   1.067   6.435
 9653TIP3   OH228897   3.167   1.085   6.614
 9653TIP3    H128898   3.244   1.056   6.665
 9653TIP3    H228899   3.172   1.182   6.620
 9654TIP3   OH228900   2.904   0.777   6.816
 9654TIP3    H128901   2.837   0.822   6.872
 9654TIP3    H228902   2.918   0.845   6.747
 9655TIP3   OH228903   3.435   1.281   6.562
 9655TIP3    H128904   3.348   1.308   6.596
 9655TIP3    H228905   3.452   1.352   6.498
 9656TIP3   OH228906   3.641   0.332   6.935
 9656TIP3    H128907   3.691   0.417   6.932
 9656TIP3    H228908   3.642   0.311   7.029
 9657TIP3   OH228909   3.916   0.683   7.808
 9657TIP3    H128910   3.926   0.743   7.885
 9657TIP3    H228911   3.934   0.597   7.849
 9658TIP3   OH228912   3.180   1.357   6.629
 9658TIP3    H128913   3.150   1.427   6.566
 9658TIP3    H228914   3.164   1.401   6.715
 9659TIP3   OH228915   4.189   0.752   7.155
 9659TIP3    H128916   4.101   0.711   7.164
 9659TIP3    H228917   4.244   0.695   7.211
 9660TIP3   OH228918   2.898   0.984   6.619
 9660TIP3    H128919   2.969   1.051   6.628
 9660TIP3    H228920   2.940   0.926   6.553
 9661TIP3   OH228921   2.842   0.261   6.731
 9661TIP3    H128922   2.829   0.358   6.734
 9661TIP3    H228923   2.751   0.228   6.737
 9662TIP3   OH228924   4.152   1.714   7.100
 9662TIP3    H128925   4.110   1.761   7.025
 9662TIP3    H228926   4.247   1.734   7.080
 9663TIP3   OH228927   2.771   1.210   7.009
 9663TIP3    H128928   2.698   1.232   7.068
 9663TIP3    H228929   2.736   1.245   6.923
 9664TIP3   OH228930   3.387   1.282   6.252
 9664TIP3    H128931   3.331   1.209   6.289
 9664TIP3    H228932   3.462   1.231   6.218
 9665TIP3   OH228933   4.053   1.602   7.892
 9665TIP3    H128934   4.101   1.528   7.852
 9665TIP3    H228935   4.127   1.666   7.906
 9666TIP3   OH228936   3.821   1.322   6.163
 9666TIP3    H128937   3.867   1.260   6.223
 9666TIP3    H228938   3.878   1.321   6.083
 9667TIP3   OH228939   3.031   0.799   6.474
 9667TIP3    H128940   3.087   0.765   6.546
 9667TIP3    H228941   3.098   0.803   6.402
 9668TIP3   OH228942   3.544   1.000   6.282
 9668TIP3    H128943   3.546   1.011   6.379
 9668TIP3    H228944   3.547   0.902   6.276
 9669TIP3   OH228945   4.159   1.246   7.673
 9669TIP3    H128946   4.236   1.279   7.623
 9669TIP3    H228947   4.092   1.313   7.648
 9670TIP3   OH228948   3.239   0.705   6.696
 9670TIP3    H128949   3.214   0.662   6.779
 9670TIP3    H228950   3.276   0.630   6.645
 9671TIP3   OH228951   3.339   0.498   6.542
 9671TIP3    H128952   3.312   0.501   6.447
 9671TIP3    H228953   3.437   0.500   6.533
 9672TIP3   OH228954   4.160   0.826   6.200
 9672TIP3    H128955   4.140   0.783   6.114
 9672TIP3    H228956   4.129   0.917   6.179
 9673TIP3   OH228957   3.656   0.894   7.752
 9673TIP3    H128958   3.739   0.867   7.709
 9673TIP3    H228959   3.624   0.964   7.692
 9674TIP3   OH228960   4.300   1.078   7.838
 9674TIP3    H128961   4.233   1.132   7.792
 9674TIP3    H228962   4.382   1.115   7.798
 9675TIP3   OH228963   3.149   1.563   6.444
 9675TIP3    H128964   3.245   1.553   6.425
 9675TIP3    H228965   3.122   1.608   6.361
 9676TIP3   OH228966   2.628   0.943   6.655
 9676TIP3    H128967   2.723   0.964   6.641
 9676TIP3    H228968   2.622   0.854   6.615
 9677TIP3   OH228969   2.543   1.557   7.067
 9677TIP3    H128970   2.477   1.495   7.030
 9677TIP3    H228971   2.587   1.498   7.132
 9678TIP3   OH228972   2.672   1.405   7.256
 9678TIP3    H128973   2.657   1.331   7.317
 9678TIP3    H228974   2.733   1.461   7.308
 9679TIP3   OH228975   4.405   1.806   7.059
 9679TIP3    H128976   4.435   1.845   7.143
 9679TIP3    H228977   4.469   1.842   6.996
 9680TIP3   OH228978   4.430   1.826   7.346
 9680TIP3    H128979   4.394   1.736   7.336
 9680TIP3    H228980   4.514   1.806   7.391
 9681TIP3   OH228981   4.483   1.507   7.896
 9681TIP3    H128982   4.418   1.508   7.967
 9681TIP3    H228983   4.527   1.593   7.904
 9682TIP3   OH228984   4.297   1.015   6.529
 9682TIP3    H128985   4.363   1.080   6.499
 9682TIP3    H228986   4.342   0.978   6.609
 9683TIP3   OH228987   4.423   0.887   6.733
 9683TIP3    H128988   4.359   0.848   6.795
 9683TIP3    H228989   4.492   0.924   6.792
 9684TIP3   OH228990   4.477   1.273   7.166
 9684TIP3    H128991   4.533   1.207   7.120
 9684TIP3    H228992   4.478   1.348   7.103
 9685TIP3   OH228993   4.310   1.573   7.363
 9685TIP3    H128994   4.235   1.616   7.409
 9685TIP3    H228995   4.265   1.526   7.289
 9686TIP3   OH228996   4.356   0.788   6.383
 9686TIP3    H128997   4.288   0.797   6.313
 9686TIP3    H228998   4.333   0.865   6.439
 9687TIP3   OH228999   4.225   0.449   6.326
 9687TIP3    H129000   4.208   0.526   6.271
 9687TIP3    H229001   4.179   0.380   6.276
 9688TIP3   OH229002   4.235   0.753   6.880
 9688TIP3    H129003   4.240   0.659   6.852
 9688TIP3    H229004   4.227   0.748   6.977
 9689TIP3   OH229005   2.865   0.856   7.609
 9689TIP3    H129006   2.857   0.808   7.524
 9689TIP3    H229007   2.958   0.839   7.632
 9690TIP3   OH229008   4.531   1.165   7.729
 9690TIP3    H129009   4.603   1.098   7.722
 9690TIP3    H229010   4.563   1.235   7.669
 9691TIP3   OH229011   4.704   0.963   7.749
 9691TIP3    H129012   4.646   0.893   7.780
 9691TIP3    H229013   4.791   0.921   7.769
 9692TIP3   OH229014   4.239   0.503   6.750
 9692TIP3    H129015   4.267   0.423   6.801
 9692TIP3    H229016   4.302   0.504   6.676
 9693TIP3   OH229017   4.408   0.673   7.331
 9693TIP3    H129018   4.485   0.646   7.275
 9693TIP3    H229019   4.409   0.767   7.307
 9694TIP3   OH229020   3.988   1.672   6.715
 9694TIP3    H129021   4.039   1.659   6.632
 9694TIP3    H229022   4.042   1.738   6.760
 9695TIP3   OH229023   3.699   1.748   7.754
 9695TIP3    H129024   3.728   1.756   7.847
 9695TIP3    H229025   3.767   1.803   7.707
 9696TIP3   OH229026   3.892   1.899   7.641
 9696TIP3    H129027   3.964   1.864   7.586
 9696TIP3    H229028   3.942   1.962   7.698
 9697TIP3   OH229029   2.934   1.749   7.646
 9697TIP3    H129030   2.849   1.796   7.635
 9697TIP3    H229031   2.962   1.786   7.731
 9698TIP3   OH229032   3.188   1.761   7.527
 9698TIP3    H129033   3.100   1.752   7.567
 9698TIP3    H229034   3.167   1.786   7.436
 9699TIP3   OH229035   3.610   1.774   7.324
 9699TIP3    H129036   3.541   1.792   7.258
 9699TIP3    H229037   3.620   1.862   7.367
 9700TIP3   OH229038   3.877   1.708   7.383
 9700TIP3    H129039   3.783   1.728   7.361
 9700TIP3    H229040   3.922   1.780   7.334
 9701TIP3   OH229041   4.080   1.900   7.293
 9701TIP3    H129042   4.067   1.986   7.247
 9701TIP3    H229043   4.109   1.842   7.218
 9702TIP3   OH229044   2.854   1.562   7.406
 9702TIP3    H129045   2.895   1.595   7.488
 9702TIP3    H229046   2.931   1.516   7.363
 9703TIP3   OH229047   3.053   1.430   7.275
 9703TIP3    H129048   3.075   1.346   7.320
 9703TIP3    H229049   3.142   1.471   7.268
 9704TIP3   OH229050   3.312   1.526   7.278
 9704TIP3    H129051   3.354   1.441   7.259
 9704TIP3    H229052   3.360   1.550   7.361
 9705TIP3   OH229053   2.644   1.325   6.803
 9705TIP3    H129054   2.557   1.292   6.775
 9705TIP3    H229055   2.632   1.420   6.780
 9706TIP3   OH229056   3.416   1.517   6.390
 9706TIP3    H129057   3.504   1.540   6.353
 9706TIP3    H229058   3.394   1.443   6.329
 9707TIP3   OH229059   4.133   1.637   6.483
 9707TIP3    H129060   4.125   1.540   6.470
 9707TIP3    H229061   4.090   1.670   6.401
 9708TIP3   OH229062   2.725   1.362   6.449
 9708TIP3    H129063   2.730   1.363   6.546
 9708TIP3    H229064   2.810   1.317   6.426
 9709TIP3   OH229065   4.351   1.782   7.672
 9709TIP3    H129066   4.280   1.757   7.610
 9709TIP3    H229067   4.342   1.880   7.670
 9710TIP3   OH229068   5.626   1.150   6.437
 9710TIP3    H129069   5.600   1.242   6.418
 9710TIP3    H229070   5.550   1.103   6.398
 9711TIP3   OH229071   5.625   1.156   6.819
 9711TIP3    H129072   5.658   1.131   6.907
 9711TIP3    H229073   5.586   1.073   6.787
 9712TIP3   OH229074   4.922   1.051   7.185
 9712TIP3    H129075   4.954   0.980   7.244
 9712TIP3    H229076   5.005   1.097   7.165
 9713TIP3   OH229077   5.869   1.458   6.500
 9713TIP3    H129078   5.860   1.389   6.566
 9713TIP3    H229079   5.903   1.533   6.552
 9714TIP3   OH229080   4.898   1.457   6.905
 9714TIP3    H129081   4.890   1.359   6.907
 9714TIP3    H229082   4.994   1.467   6.897
 9715TIP3   OH229083   4.589   0.667   6.707
 9715TIP3    H129084   4.537   0.749   6.712
 9715TIP3    H229085   4.535   0.614   6.647
 9716TIP3   OH229086   4.656   0.958   6.861
 9716TIP3    H129087   4.698   0.874   6.893
 9716TIP3    H229088   4.725   0.993   6.803
 9717TIP3   OH229089   5.522   1.918   6.516
 9717TIP3    H129090   5.564   1.847   6.463
 9717TIP3    H229091   5.518   1.877   6.603
 9718TIP3   OH229092   5.425   1.380   6.866
 9718TIP3    H129093   5.466   1.303   6.823
 9718TIP3    H229094   5.507   1.427   6.890
 9719TIP3   OH229095   5.841   0.881   6.911
 9719TIP3    H129096   5.867   0.792   6.937
 9719TIP3    H229097   5.806   0.869   6.821
 9720TIP3   OH229098   5.152   0.505   6.845
 9720TIP3    H129099   5.131   0.590   6.802
 9720TIP3    H229100   5.086   0.446   6.805
 9721TIP3   OH229101   5.831   0.654   6.533
 9721TIP3    H129102   5.892   0.609   6.595
 9721TIP3    H229103   5.888   0.657   6.454
 9722TIP3   OH229104   4.782   0.739   6.961
 9722TIP3    H129105   4.874   0.743   6.997
 9722TIP3    H229106   4.799   0.681   6.884
 9723TIP3   OH229107   5.246   0.942   6.767
 9723TIP3    H129108   5.340   0.918   6.781
 9723TIP3    H229109   5.208   0.856   6.740
 9724TIP3   OH229110   6.474   0.889   7.065
 9724TIP3    H129111   6.402   0.945   7.027
 9724TIP3    H229112   6.536   0.956   7.099
 9725TIP3   OH229113   5.515   1.372   6.305
 9725TIP3    H129114   5.478   1.359   6.217
 9725TIP3    H229115   5.472   1.456   6.332
 9726TIP3   OH229116   5.279   1.299   7.088
 9726TIP3    H129117   5.219   1.367   7.126
 9726TIP3    H229118   5.322   1.348   7.015
 9727TIP3   OH229119   5.037   0.710   7.032
 9727TIP3    H129120   5.110   0.749   7.084
 9727TIP3    H229121   5.072   0.621   7.016
 9728TIP3   OH229122   5.107   1.496   7.189
 9728TIP3    H129123   5.082   1.582   7.151
 9728TIP3    H229124   5.028   1.479   7.244
 9729TIP3   OH229125   4.498   1.185   6.424
 9729TIP3    H129126   4.461   1.213   6.338
 9729TIP3    H229127   4.531   1.269   6.460
 9730TIP3   OH229128   5.938   1.701   6.663
 9730TIP3    H129129   5.848   1.693   6.701
 9730TIP3    H229130   5.933   1.787   6.618
 9731TIP3   OH229131   5.638   1.745   6.334
 9731TIP3    H129132   5.688   1.662   6.316
 9731TIP3    H229133   5.700   1.810   6.296
 9732TIP3   OH229134   5.782   1.530   6.248
 9732TIP3    H129135   5.753   1.448   6.206
 9732TIP3    H229136   5.820   1.497   6.333
 9733TIP3   OH229137   6.164   1.610   7.010
 9733TIP3    H129138   6.156   1.534   6.949
 9733TIP3    H229139   6.149   1.686   6.949
 9734TIP3   OH229140   5.458   1.011   6.263
 9734TIP3    H129141   5.378   1.062   6.242
 9734TIP3    H229142   5.502   1.005   6.177
 9735TIP3   OH229143   5.415   0.789   5.984
 9735TIP3    H129144   5.486   0.840   6.026
 9735TIP3    H229145   5.466   0.722   5.936
 9736TIP3   OH229146   6.361   1.251   6.854
 9736TIP3    H129147   6.279   1.304   6.856
 9736TIP3    H229148   6.393   1.274   6.763
 9737TIP3   OH229149   5.803   1.089   6.235
 9737TIP3    H129150   5.750   1.112   6.315
 9737TIP3    H229151   5.889   1.067   6.277
 9738TIP3   OH229152   6.039   1.127   7.156
 9738TIP3    H129153   6.036   1.210   7.208
 9738TIP3    H229154   5.954   1.132   7.109
 9739TIP3   OH229155   5.038   1.086   6.655
 9739TIP3    H129156   4.998   1.027   6.588
 9739TIP3    H229157   5.115   1.034   6.686
 9740TIP3   OH229158   5.166   1.495   6.804
 9740TIP3    H129159   5.149   1.459   6.716
 9740TIP3    H229160   5.256   1.461   6.822
 9741TIP3   OH229161   5.169   1.056   7.014
 9741TIP3    H129162   5.203   1.028   6.926
 9741TIP3    H229163   5.217   1.141   7.029
 9742TIP3   OH229164   5.696   1.696   6.785
 9742TIP3    H129165   5.686   1.776   6.840
 9742TIP3    H229166   5.683   1.623   6.848
 9743TIP3   OH229167   5.313   1.615   7.332
 9743TIP3    H129168   5.252   1.676   7.379
 9743TIP3    H229169   5.249   1.560   7.283
 9744TIP3   OH229170   5.644   0.946   6.062
 9744TIP3    H129171   5.703   1.007   6.113
 9744TIP3    H229172   5.672   0.967   5.970
 9745TIP3   OH229173   5.060   1.180   7.431
 9745TIP3    H129174   5.066   1.263   7.482
 9745TIP3    H229175   4.966   1.157   7.441
 9746TIP3   OH229176   5.389   1.625   6.341
 9746TIP3    H129177   5.473   1.675   6.350
 9746TIP3    H229178   5.331   1.690   6.298
 9747TIP3   OH229179   5.106   1.781   7.419
 9747TIP3    H129180   5.072   1.782   7.327
 9747TIP3    H229181   5.025   1.761   7.471
 9748TIP3   OH229182   4.903   0.928   6.461
 9748TIP3    H129183   4.837   0.973   6.404
 9748TIP3    H229184   4.866   0.839   6.467
 9749TIP3   OH229185   5.962   1.553   5.661
 9749TIP3    H129186   5.971   1.650   5.646
 9749TIP3    H229187   6.055   1.524   5.648
 9750TIP3   OH229188   4.683   1.314   7.366
 9750TIP3    H129189   4.623   1.289   7.294
 9750TIP3    H229190   4.724   1.228   7.391
 9751TIP3   OH229191   4.541   1.503   7.003
 9751TIP3    H129192   4.636   1.494   6.987
 9751TIP3    H229193   4.538   1.584   7.056
 9752TIP3   OH229194   6.408   1.957   7.063
 9752TIP3    H129195   6.404   1.860   7.074
 9752TIP3    H229196   6.323   1.983   7.103
 9753TIP3   OH229197   5.509   1.744   7.189
 9753TIP3    H129198   5.506   1.836   7.222
 9753TIP3    H229199   5.439   1.702   7.244
 9754TIP3   OH229200   5.271   1.869   6.143
 9754TIP3    H129201   5.227   1.853   6.058
 9754TIP3    H229202   5.239   1.958   6.166
 9755TIP3   OH229203   4.708   1.720   6.528
 9755TIP3    H129204   4.757   1.711   6.612
 9755TIP3    H229205   4.656   1.638   6.529
 9756TIP3   OH229206   5.472   1.772   5.781
 9756TIP3    H129207   5.531   1.703   5.745
 9756TIP3    H229208   5.507   1.783   5.872
 9757TIP3   OH229209   5.523   1.822   6.050
 9757TIP3    H129210   5.435   1.830   6.094
 9757TIP3    H229211   5.576   1.785   6.123
 9758TIP3   OH229212   6.291   1.075   7.316
 9758TIP3    H129213   6.210   1.101   7.271
 9758TIP3    H229214   6.285   0.979   7.316
 9759TIP3   OH229215   4.889   1.498   7.355
 9759TIP3    H129216   4.941   1.479   7.435
 9759TIP3    H229217   4.816   1.432   7.362
 9760TIP3   OH229218   6.058   0.866   7.272
 9760TIP3    H129219   6.039   0.901   7.359
 9760TIP3    H229220   6.046   0.944   7.215
 9761TIP3   OH229221   5.724   0.987   5.808
 9761TIP3    H129222   5.687   0.966   5.720
 9761TIP3    H229223   5.804   1.037   5.783
 9762TIP3   OH229224   5.237   0.840   7.173
 9762TIP3    H129225   5.178   0.861   7.248
 9762TIP3    H229226   5.223   0.918   7.115
 9763TIP3   OH229227   5.106   0.719   6.680
 9763TIP3    H129228   5.010   0.703   6.689
 9763TIP3    H229229   5.122   0.690   6.587
 9764TIP3   OH229230   5.588   0.810   6.398
 9764TIP3    H129231   5.542   0.883   6.353
 9764TIP3    H229232   5.655   0.783   6.332
 9765TIP3   OH229233   5.780   1.114   7.474
 9765TIP3    H129234   5.756   1.032   7.524
 9765TIP3    H229235   5.875   1.122   7.497
 9766TIP3   OH229236   5.733   0.873   6.658
 9766TIP3    H129237   5.680   0.918   6.590
 9766TIP3    H229238   5.756   0.791   6.608
 9767TIP3   OH229239   5.039   0.871   7.369
 9767TIP3    H129240   5.075   0.933   7.435
 9767TIP3    H229241   5.031   0.788   7.420
 9768TIP3   OH229242   4.671   0.479   6.505
 9768TIP3    H129243   4.689   0.479   6.409
 9768TIP3    H229244   4.575   0.494   6.503
 9769TIP3   OH229245   5.754   1.086   7.061
 9769TIP3    H129246   5.793   1.015   7.005
 9769TIP3    H229247   5.732   1.032   7.140
 9770TIP3   OH229248   4.851   0.602   6.724
 9770TIP3    H129249   4.758   0.629   6.708
 9770TIP3    H229250   4.852   0.518   6.676
 9771TIP3   OH229251   5.145   0.618   6.431
 9771TIP3    H129252   5.237   0.605   6.403
 9771TIP3    H229253   5.095   0.608   6.348
 9772TIP3   OH229254   4.978   0.602   6.203
 9772TIP3    H129255   4.904   0.585   6.141
 9772TIP3    H229256   5.038   0.649   6.142
 9773TIP3   OH229257   6.097   2.308   7.159
 9773TIP3    H129258   6.094   2.327   7.062
 9773TIP3    H229259   6.178   2.355   7.185
 9774TIP3   OH229260   5.051   1.422   7.576
 9774TIP3    H129261   5.133   1.447   7.622
 9774TIP3    H229262   4.989   1.417   7.651
 9775TIP3   OH229263   5.502   0.869   6.830
 9775TIP3    H129264   5.588   0.845   6.791
 9775TIP3    H229265   5.511   0.836   6.923
 9776TIP3   OH229266   5.512   0.800   7.093
 9776TIP3    H129267   5.422   0.796   7.132
 9776TIP3    H229268   5.564   0.842   7.164
 9777TIP3   OH229269   5.226   1.159   6.213
 9777TIP3    H129270   5.153   1.094   6.202
 9777TIP3    H229271   5.208   1.192   6.304
 9778TIP3   OH229272   6.128   1.396   6.842
 9778TIP3    H129273   6.154   1.446   6.761
 9778TIP3    H229274   6.044   1.354   6.815
 9779TIP3   OH229275   5.660   0.540   6.034
 9779TIP3    H129276   5.603   0.490   6.097
 9779TIP3    H229277   5.699   0.606   6.096
 9780TIP3   OH229278   5.621   1.474   7.213
 9780TIP3    H129279   5.659   1.457   7.300
 9780TIP3    H229280   5.590   1.566   7.219
 9781TIP3   OH229281   5.763   0.733   6.196
 9781TIP3    H129282   5.861   0.742   6.204
 9781TIP3    H229283   5.740   0.811   6.142
 9782TIP3   OH229284   4.919   1.177   6.889
 9782TIP3    H129285   4.958   1.152   6.803
 9782TIP3    H229286   4.971   1.121   6.950
 9783TIP3   OH229287   5.374   1.308   6.037
 9783TIP3    H129288   5.326   1.394   6.041
 9783TIP3    H229289   5.320   1.253   6.097
 9784TIP3   OH229290   4.797   1.106   7.505
 9784TIP3    H129291   4.830   1.096   7.597
 9784TIP3    H229292   4.740   1.028   7.495
 9785TIP3   OH229293   5.529   1.219   7.527
 9785TIP3    H129294   5.471   1.164   7.471
 9785TIP3    H229295   5.618   1.190   7.495
 9786TIP3   OH229296   5.786   1.733   7.111
 9786TIP3    H129297   5.689   1.736   7.123
 9786TIP3    H229298   5.815   1.788   7.188
 9787TIP3   OH229299   6.195   0.808   6.005
 9787TIP3    H129300   6.135   0.759   5.945
 9787TIP3    H229301   6.183   0.899   5.968
 9788TIP3   OH229302   6.415   1.665   7.099
 9788TIP3    H129303   6.317   1.660   7.089
 9788TIP3    H229304   6.442   1.637   7.009
 9789TIP3   OH229305   5.895   1.628   5.924
 9789TIP3    H129306   5.874   1.557   5.987
 9789TIP3    H229307   5.911   1.581   5.841
 9790TIP3   OH229308   5.893   1.260   6.760
 9790TIP3    H129309   5.800   1.233   6.773
 9790TIP3    H229310   5.929   1.181   6.716
 9791TIP3   OH229311   5.024   1.486   6.518
 9791TIP3    H129312   5.025   1.566   6.462
 9791TIP3    H229313   4.930   1.469   6.524
 9792TIP3   OH229314   4.582   0.789   6.220
 9792TIP3    H129315   4.631   0.872   6.240
 9792TIP3    H229316   4.508   0.796   6.283
 9793TIP3   OH229317   5.155   1.248   6.457
 9793TIP3    H129318   5.124   1.339   6.478
 9793TIP3    H229319   5.122   1.199   6.534
 9794TIP3   OH229320   5.292   1.828   6.984
 9794TIP3    H129321   5.334   1.900   6.934
 9794TIP3    H229322   5.369   1.791   7.031
 9795TIP3   OH229323   4.941   1.725   6.367
 9795TIP3    H129324   4.855   1.735   6.414
 9795TIP3    H229325   4.974   1.817   6.370
 9796TIP3   OH229326   5.677   1.463   6.944
 9796TIP3    H129327   5.667   1.459   7.042
 9796TIP3    H229328   5.758   1.412   6.931
 9797TIP3   OH229329   5.656   1.355   5.828
 9797TIP3    H129330   5.710   1.331   5.907
 9797TIP3    H229331   5.568   1.328   5.858
 9798TIP3   OH229332   5.926   1.996   6.993
 9798TIP3    H129333   5.846   1.941   6.984
 9798TIP3    H229334   5.913   2.061   6.921
 9799TIP3   OH229335   5.993   1.829   5.645
 9799TIP3    H129336   6.033   1.904   5.598
 9799TIP3    H229337   5.913   1.874   5.679
 9800TIP3   OH229338   5.816   1.289   6.043
 9800TIP3    H129339   5.806   1.222   6.114
 9800TIP3    H229340   5.913   1.286   6.031
 9801TIP3   OH229341   4.727   1.691   7.146
 9801TIP3    H129342   4.783   1.618   7.177
 9801TIP3    H229343   4.763   1.765   7.196
 9802TIP3   OH229344   5.018   1.336   5.827
 9802TIP3    H129345   5.034   1.244   5.799
 9802TIP3    H229346   4.999   1.324   5.922
 9803TIP3   OH229347   4.963   1.341   6.101
 9803TIP3    H129348   5.040   1.314   6.153
 9803TIP3    H229349   4.967   1.439   6.107
 9804TIP3   OH229350   4.697   1.032   6.302
 9804TIP3    H129351   4.633   1.079   6.359
 9804TIP3    H229352   4.715   1.100   6.235
 9805TIP3   OH229353   5.230   1.536   6.047
 9805TIP3    H129354   5.143   1.564   6.083
 9805TIP3    H229355   5.248   1.611   5.987
 9806TIP3   OH229356   5.429   0.591   6.423
 9806TIP3    H129357   5.482   0.674   6.416
 9806TIP3    H229358   5.449   0.565   6.514
 9807TIP3   OH229359   5.700   0.922   7.272
 9807TIP3    H129360   5.698   0.980   7.350
 9807TIP3    H229361   5.757   0.851   7.304
 9808TIP3   OH229362   4.975   1.613   6.116
 9808TIP3    H129363   4.946   1.683   6.053
 9808TIP3    H229364   4.960   1.657   6.202
 9809TIP3   OH229365   5.981   1.019   6.639
 9809TIP3    H129366   5.903   0.965   6.660
 9809TIP3    H229367   6.053   0.971   6.687
 9810TIP3   OH229368   4.693   1.241   6.107
 9810TIP3    H129369   4.762   1.309   6.116
 9810TIP3    H229370   4.737   1.184   6.040
 9811TIP3   OH229371   4.636   0.518   6.234
 9811TIP3    H129372   4.631   0.616   6.223
 9811TIP3    H229373   4.548   0.490   6.207
 9812TIP3   OH229374   5.958   1.975   6.584
 9812TIP3    H129375   5.913   2.020   6.509
 9812TIP3    H229376   6.051   1.998   6.563
 9813TIP3   OH229377   4.561   1.455   6.493
 9813TIP3    H129378   4.492   1.488   6.552
 9813TIP3    H229379   4.534   1.498   6.408
 9814TIP3   OH229380   4.723   2.001   7.570
 9814TIP3    H129381   4.810   2.004   7.615
 9814TIP3    H229382   4.710   1.905   7.563
 9815TIP3   OH229383   5.197   1.962   7.612
 9815TIP3    H129384   5.292   1.947   7.620
 9815TIP3    H229385   5.175   1.901   7.538
 9816TIP3   OH229386   5.182   1.539   5.737
 9816TIP3    H129387   5.127   1.467   5.776
 9816TIP3    H229388   5.258   1.488   5.704
 9817TIP3   OH229389   5.837   1.872   7.346
 9817TIP3    H129390   5.831   1.801   7.414
 9817TIP3    H229391   5.916   1.922   7.374
 9818TIP3   OH229392   5.618   1.578   5.650
 9818TIP3    H129393   5.663   1.515   5.711
 9818TIP3    H229394   5.676   1.576   5.572
 9819TIP3   OH229395   4.849   1.406   7.765
 9819TIP3    H129396   4.871   1.312   7.773
 9819TIP3    H229397   4.764   1.404   7.716
 9820TIP3   OH229398   4.828   1.054   5.962
 9820TIP3    H129399   4.886   1.023   6.035
 9820TIP3    H229400   4.893   1.059   5.889
 9821TIP3   OH229401   5.455   1.492   7.542
 9821TIP3    H129402   5.419   1.510   7.453
 9821TIP3    H229403   5.488   1.400   7.534
 9822TIP3   OH229404   5.338   1.256   5.768
 9822TIP3    H129405   5.342   1.268   5.865
 9822TIP3    H229406   5.342   1.158   5.763
 9823TIP3   OH229407   5.949   1.503   7.147
 9823TIP3    H129408   6.026   1.542   7.102
 9823TIP3    H229409   5.882   1.573   7.130
 9824TIP3   OH229410   4.965   1.144   7.742
 9824TIP3    H129411   5.038   1.083   7.726
 9824TIP3    H229412   4.991   1.175   7.832
 9825TIP3   OH229413   5.031   0.961   6.180
 9825TIP3    H129414   5.014   0.920   6.266
 9825TIP3    H229415   5.071   0.887   6.130
 9826TIP3   OH229416   5.299   1.049   7.404
 9826TIP3    H129417   5.220   1.107   7.400
 9826TIP3    H229418   5.351   1.078   7.326
 9827TIP3   OH229419   5.136   0.754   6.029
 9827TIP3    H129420   5.110   0.759   5.934
 9827TIP3    H229421   5.233   0.757   6.021
 9828TIP3   OH229422   5.825   1.430   7.544
 9828TIP3    H129423   5.900   1.398   7.491
 9828TIP3    H229424   5.815   1.358   7.609
 9829TIP3   OH229425   5.956   1.083   5.686
 9829TIP3    H129426   5.936   1.040   5.600
 9829TIP3    H229427   5.924   1.174   5.666
 9830TIP3   OH229428   5.391   0.831   7.529
 9830TIP3    H129429   5.347   0.771   7.466
 9830TIP3    H229430   5.365   0.918   7.490
 9831TIP3   OH229431   5.465   1.141   7.214
 9831TIP3    H129432   5.548   1.145   7.165
 9831TIP3    H229433   5.409   1.205   7.166
 9832TIP3   OH229434   6.035   1.111   7.576
 9832TIP3    H129435   6.067   1.045   7.641
 9832TIP3    H229436   6.119   1.152   7.548
 9833TIP3   OH229437   6.079   1.356   7.332
 9833TIP3    H129438   6.022   1.411   7.273
 9833TIP3    H229439   6.167   1.377   7.292
 9834TIP3   OH229440   5.278   0.959   7.754
 9834TIP3    H129441   5.225   0.891   7.797
 9834TIP3    H229442   5.333   0.909   7.691
 9835TIP3   OH229443   5.672   0.888   7.568
 9835TIP3    H129444   5.702   0.853   7.654
 9835TIP3    H229445   5.576   0.874   7.574
 9836TIP3   OH229446   4.945   1.815   5.928
 9836TIP3    H129447   5.041   1.808   5.909
 9836TIP3    H229448   4.917   1.866   5.850
 9837TIP3   OH229449   4.424   1.197   6.144
 9837TIP3    H129450   4.519   1.220   6.129
 9837TIP3    H229451   4.419   1.109   6.102
 9838TIP3   OH229452   4.338   1.809   6.559
 9838TIP3    H129453   4.273   1.747   6.520
 9838TIP3    H229454   4.384   1.751   6.623
 9839TIP3   OH229455   4.474   1.658   6.745
 9839TIP3    H129456   4.464   1.586   6.809
 9839TIP3    H229457   4.528   1.721   6.796
 9840TIP3   OH229458   6.208   2.078   6.544
 9840TIP3    H129459   6.229   2.088   6.639
 9840TIP3    H229460   6.296   2.104   6.506
 9841TIP3   OH229461   6.226   2.082   6.823
 9841TIP3    H129462   6.190   1.991   6.831
 9841TIP3    H229463   6.316   2.068   6.856
 9842TIP3   OH229464   6.278   1.759   7.401
 9842TIP3    H129465   6.203   1.769   7.463
 9842TIP3    H229466   6.319   1.848   7.404
 9843TIP3   OH229467   6.094   1.271   6.017
 9843TIP3    H129468   6.161   1.336   5.988
 9843TIP3    H229469   6.138   1.234   6.097
 9844TIP3   OH229470   6.219   1.143   6.220
 9844TIP3    H129471   6.154   1.104   6.283
 9844TIP3    H229472   6.287   1.181   6.281
 9845TIP3   OH229473   6.274   1.531   6.652
 9845TIP3    H129474   6.329   1.465   6.605
 9845TIP3    H229475   6.277   1.607   6.590
 9846TIP3   OH229476   6.106   1.829   6.852
 9846TIP3    H129477   6.033   1.872   6.900
 9846TIP3    H229478   6.059   1.783   6.779
 9847TIP3   OH229479   6.153   1.044   5.870
 9847TIP3    H129480   6.084   1.055   5.801
 9847TIP3    H229481   6.130   1.121   5.926
 9848TIP3   OH229482   6.022   0.706   5.813
 9848TIP3    H129483   6.003   0.783   5.758
 9848TIP3    H229484   5.977   0.635   5.764
 9849TIP3   OH229485   6.032   1.009   6.367
 9849TIP3    H129486   6.038   0.914   6.345
 9849TIP3    H229487   6.021   1.009   6.465
 9850TIP3   OH229488   4.659   1.070   7.117
 9850TIP3    H129489   4.659   1.040   7.024
 9850TIP3    H229490   4.756   1.072   7.135
 9851TIP3   OH229491   6.322   1.420   7.221
 9851TIP3    H129492   6.395   1.354   7.215
 9851TIP3    H229493   6.351   1.490   7.160
 9852TIP3   OH229494   6.506   1.226   7.249
 9852TIP3    H129495   6.432   1.170   7.279
 9852TIP3    H229496   6.581   1.164   7.262
 9853TIP3   OH229497   6.033   0.756   6.234
 9853TIP3    H129498   6.063   0.678   6.287
 9853TIP3    H229499   6.099   0.758   6.162
 9854TIP3   OH229500   6.189   0.891   6.765
 9854TIP3    H129501   6.274   0.914   6.722
 9854TIP3    H229502   6.206   0.927   6.854
 9855TIP3   OH229503   6.255   1.038   6.991
 9855TIP3    H129504   6.179   1.075   7.038
 9855TIP3    H229505   6.290   1.117   6.944
 9856TIP3   OH229506   4.876   0.757   7.789
 9856TIP3    H129507   4.967   0.783   7.809
 9856TIP3    H229508   4.869   0.669   7.829
 9857TIP3   OH229509   4.640   0.711   7.195
 9857TIP3    H129510   4.686   0.717   7.108
 9857TIP3    H229511   4.665   0.795   7.235
 9858TIP3   OH229512   5.783   1.929   6.200
 9858TIP3    H129513   5.837   1.917   6.119
 9858TIP3    H229514   5.837   1.992   6.251
 9859TIP3   OH229515   4.884   1.738   7.584
 9859TIP3    H129516   4.794   1.705   7.570
 9859TIP3    H229517   4.902   1.712   7.675
 9860TIP3   OH229518   5.064   1.767   7.133
 9860TIP3    H129519   5.020   1.845   7.093
 9860TIP3    H229520   5.152   1.778   7.090
 9861TIP3   OH229521   5.507   2.011   7.272
 9861TIP3    H129522   5.550   2.010   7.360
 9861TIP3    H229523   5.574   2.060   7.219
 9862TIP3   OH229524   5.687   2.162   7.131
 9862TIP3    H129525   5.758   2.112   7.088
 9862TIP3    H229526   5.740   2.219   7.191
 9863TIP3   OH229527   4.739   2.019   7.160
 9863TIP3    H129528   4.649   2.052   7.137
 9863TIP3    H229529   4.756   2.069   7.241
 9864TIP3   OH229530   4.976   2.000   7.016
 9864TIP3    H129531   4.888   2.012   7.059
 9864TIP3    H229532   4.959   2.032   6.926
 9865TIP3   OH229533   5.402   2.028   6.815
 9865TIP3    H129534   5.335   2.048   6.747
 9865TIP3    H229535   5.416   2.115   6.856
 9866TIP3   OH229536   5.673   1.966   6.867
 9866TIP3    H129537   5.580   1.986   6.845
 9866TIP3    H229538   5.719   2.039   6.823
 9867TIP3   OH229539   5.871   2.156   6.777
 9867TIP3    H129540   5.861   2.242   6.731
 9867TIP3    H229541   5.906   2.098   6.705
 9868TIP3   OH229542   4.650   1.813   6.902
 9868TIP3    H129543   4.678   1.788   6.993
 9868TIP3    H229544   4.724   1.771   6.851
 9869TIP3   OH229545   4.847   1.687   6.762
 9869TIP3    H129546   4.863   1.602   6.809
 9869TIP3    H229547   4.938   1.724   6.756
 9870TIP3   OH229548   5.112   1.780   6.766
 9870TIP3    H129549   5.145   1.689   6.752
 9870TIP3    H229550   5.161   1.802   6.847
 9871TIP3   OH229551   4.439   1.590   6.294
 9871TIP3    H129552   4.354   1.558   6.259
 9871TIP3    H229553   4.431   1.684   6.269
 9872TIP3   OH229554   5.213   1.773   5.877
 9872TIP3    H129555   5.301   1.796   5.840
 9872TIP3    H229556   5.191   1.699   5.816
 9873TIP3   OH229557   5.931   1.894   5.969
 9873TIP3    H129558   5.922   1.797   5.957
 9873TIP3    H229559   5.886   1.926   5.888
 9874TIP3   OH229560   4.515   1.608   5.930
 9874TIP3    H129561   4.522   1.636   6.022
 9874TIP3    H229562   4.603   1.567   5.914
 9875TIP3   OH229563   6.155   2.037   7.158
 9875TIP3    H129564   6.077   2.008   7.105
 9875TIP3    H229565   6.139   2.134   7.161
 9876TIP3   OH229566   7.425   1.410   5.921
 9876TIP3    H129567   7.396   1.501   5.900
 9876TIP3    H229568   7.348   1.360   5.886
 9877TIP3   OH229569   7.415   1.417   6.288
 9877TIP3    H129570   7.438   1.393   6.381
 9877TIP3    H229571   7.371   1.335   6.259
 9878TIP3   OH229572   6.717   1.306   6.667
 9878TIP3    H129573   6.752   1.236   6.728
 9878TIP3    H229574   6.794   1.364   6.662
 9879TIP3   OH229575   7.671   1.715   5.983
 9879TIP3    H129576   7.646   1.650   6.050
 9879TIP3    H229577   7.698   1.791   6.038
 9880TIP3   OH229578   6.690   1.711   6.394
 9880TIP3    H129579   6.686   1.613   6.394
 9880TIP3    H229580   6.786   1.725   6.386
 9881TIP3   OH229581   6.390   0.926   6.191
 9881TIP3    H129582   6.337   1.007   6.200
 9881TIP3    H229583   6.333   0.872   6.135
 9882TIP3   OH229584   6.452   1.213   6.348
 9882TIP3    H129585   6.495   1.130   6.381
 9882TIP3    H229586   6.521   1.248   6.289
 9883TIP3   OH229587   7.318   2.175   6.002
 9883TIP3    H129588   7.363   2.103   5.952
 9883TIP3    H229589   7.307   2.134   6.088
 9884TIP3   OH229590   7.220   1.634   6.353
 9884TIP3    H129591   7.258   1.559   6.304
 9884TIP3    H229592   7.304   1.680   6.377
 9885TIP3   OH229593   7.635   1.138   6.402
 9885TIP3    H129594   7.661   1.048   6.422
 9885TIP3    H229595   7.604   1.132   6.309
 9886TIP3   OH229596   6.974   0.752   6.284
 9886TIP3    H129597   6.944   0.846   6.284
 9886TIP3    H229598   6.894   0.708   6.315
 9887TIP3   OH229599   7.631   0.917   6.024
 9887TIP3    H129600   7.691   0.865   6.080
 9887TIP3    H229601   7.680   0.917   5.940
 9888TIP3   OH229602   6.584   0.997   6.447
 9888TIP3    H129603   6.678   1.008   6.478
 9888TIP3    H229604   6.600   0.936   6.374
 9889TIP3   OH229605   7.044   1.202   6.253
 9889TIP3    H129606   7.136   1.172   6.267
 9889TIP3    H229607   7.000   1.118   6.225
 9890TIP3   OH229608   7.317   1.632   5.790
 9890TIP3    H129609   7.272   1.614   5.706
 9890TIP3    H229610   7.271   1.715   5.817
 9891TIP3   OH229611   7.084   1.552   6.583
 9891TIP3    H129612   7.016   1.615   6.616
 9891TIP3    H229613   7.117   1.599   6.504
 9892TIP3   OH229614   6.842   0.985   6.512
 9892TIP3    H129615   6.923   1.011   6.564
 9892TIP3    H229616   6.841   0.886   6.538
 9893TIP3   OH229617   6.903   1.748   6.670
 9893TIP3    H129618   6.873   1.833   6.634
 9893TIP3    H229619   6.826   1.728   6.728
 9894TIP3   OH229620   6.295   1.440   5.911
 9894TIP3    H129621   6.257   1.471   5.827
 9894TIP3    H229622   6.328   1.525   5.949
 9895TIP3   OH229623   7.738   1.954   6.149
 9895TIP3    H129624   7.648   1.949   6.189
 9895TIP3    H229625   7.732   2.041   6.104
 9896TIP3   OH229626   7.438   2.000   5.826
 9896TIP3    H129627   7.488   1.918   5.804
 9896TIP3    H229628   7.498   2.066   5.783
 9897TIP3   OH229629   7.582   1.786   5.733
 9897TIP3    H129630   7.539   1.707   5.697
 9897TIP3    H229631   7.620   1.752   5.816
 9898TIP3   OH229632   7.945   1.856   6.495
 9898TIP3    H129633   7.946   1.789   6.424
 9898TIP3    H229634   7.942   1.939   6.444
 9899TIP3   OH229635   7.255   1.267   5.751
 9899TIP3    H129636   7.173   1.317   5.732
 9899TIP3    H229637   7.296   1.262   5.663
 9900TIP3   OH229638   7.211   1.045   5.471
 9900TIP3    H129639   7.283   1.096   5.512
 9900TIP3    H229640   7.262   0.979   5.421
 9901TIP3   OH229641   8.186   1.503   6.338
 9901TIP3    H129642   8.092   1.532   6.345
 9901TIP3    H229643   8.206   1.529   6.246
 9902TIP3   OH229644   7.601   1.346   5.721
 9902TIP3    H129645   7.546   1.369   5.800
 9902TIP3    H229646   7.686   1.325   5.765
 9903TIP3   OH229647   7.861   1.371   6.517
 9903TIP3    H129648   7.908   1.440   6.567
 9903TIP3    H229649   7.805   1.422   6.457
 9904TIP3   OH229650   6.835   1.342   6.140
 9904TIP3    H129651   6.794   1.282   6.073
 9904TIP3    H229652   6.910   1.289   6.172
 9905TIP3   OH229653   6.965   1.755   6.290
 9905TIP3    H129654   6.942   1.717   6.204
 9905TIP3    H229655   7.054   1.718   6.305
 9906TIP3   OH229656   6.968   1.314   6.496
 9906TIP3    H129657   7.000   1.285   6.408
 9906TIP3    H229658   7.016   1.397   6.511
 9907TIP3   OH229659   7.498   1.952   6.272
 9907TIP3    H129660   7.482   2.034   6.322
 9907TIP3    H229661   7.479   1.882   6.337
 9908TIP3   OH229662   7.102   1.874   6.809
 9908TIP3    H129663   7.038   1.937   6.852
 9908TIP3    H229664   7.038   1.821   6.756
 9909TIP3   OH229665   7.442   1.200   5.549
 9909TIP3    H129666   7.499   1.263   5.599
 9909TIP3    H229667   7.469   1.222   5.456
 9910TIP3   OH229668   6.847   1.443   6.915
 9910TIP3    H129669   6.851   1.524   6.967
 9910TIP3    H229670   6.757   1.413   6.931
 9911TIP3   OH229671   7.189   1.879   5.825
 9911TIP3    H129672   7.268   1.934   5.837
 9911TIP3    H229673   7.126   1.942   5.787
 9912TIP3   OH229674   6.903   2.040   6.908
 9912TIP3    H129675   6.865   2.040   6.818
 9912TIP3    H229676   6.824   2.015   6.962
 9913TIP3   OH229677   6.702   1.185   5.942
 9913TIP3    H129678   6.632   1.228   5.889
 9913TIP3    H229679   6.663   1.099   5.959
 9914TIP3   OH229680   7.751   1.812   5.147
 9914TIP3    H129681   7.763   1.908   5.133
 9914TIP3    H229682   7.844   1.780   5.136
 9915TIP3   OH229683   6.478   1.570   6.856
 9915TIP3    H129684   6.418   1.550   6.782
 9915TIP3    H229685   6.518   1.482   6.875
 9916TIP3   OH229686   6.343   1.764   6.493
 9916TIP3    H129687   6.438   1.761   6.477
 9916TIP3    H229688   6.333   1.852   6.531
 9917TIP3   OH229689   8.185   2.223   6.537
 9917TIP3    H129690   8.193   2.127   6.533
 9917TIP3    H229691   8.102   2.234   6.588
 9918TIP3   OH229692   7.309   1.993   6.678
 9918TIP3    H129693   7.305   2.088   6.705
 9918TIP3    H229694   7.232   1.957   6.725
 9919TIP3   OH229695   7.069   2.128   5.628
 9919TIP3    H129696   7.021   2.110   5.545
 9919TIP3    H229697   7.035   2.215   5.654
 9920TIP3   OH229698   6.500   1.977   6.006
 9920TIP3    H129699   6.556   1.967   6.087
 9920TIP3    H229700   6.445   1.898   6.015
 9921TIP3   OH229701   7.267   2.030   5.267
 9921TIP3    H129702   7.326   1.960   5.231
 9921TIP3    H229703   7.302   2.040   5.358
 9922TIP3   OH229704   7.319   2.078   5.536
 9922TIP3    H129705   7.231   2.087   5.579
 9922TIP3    H229706   7.372   2.042   5.609
 9923TIP3   OH229707   6.698   1.741   6.847
 9923TIP3    H129708   6.741   1.722   6.932
 9923TIP3    H229709   6.616   1.687   6.851
 9924TIP3   OH229710   7.521   1.244   5.295
 9924TIP3    H129711   7.483   1.223   5.208
 9924TIP3    H229712   7.601   1.294   5.268
 9925TIP3   OH229713   7.053   1.122   6.668
 9925TIP3    H129714   6.981   1.115   6.733
 9925TIP3    H229715   7.015   1.186   6.604
 9926TIP3   OH229716   6.895   0.992   6.160
 9926TIP3    H129717   6.805   0.958   6.178
 9926TIP3    H229718   6.914   0.951   6.073
 9927TIP3   OH229719   7.387   1.069   5.888
 9927TIP3    H129720   7.338   1.141   5.841
 9927TIP3    H229721   7.451   1.041   5.820
 9928TIP3   OH229722   7.532   1.134   6.147
 9928TIP3    H129723   7.473   1.176   6.081
 9928TIP3    H229724   7.556   1.052   6.097
 9929TIP3   OH229725   6.829   1.130   6.855
 9929TIP3    H129726   6.855   1.188   6.925
 9929TIP3    H229727   6.828   1.041   6.895
 9930TIP3   OH229728   6.467   0.733   5.989
 9930TIP3    H129729   6.484   0.733   5.893
 9930TIP3    H229730   6.372   0.753   5.989
 9931TIP3   OH229731   7.507   1.339   6.533
 9931TIP3    H129732   7.550   1.264   6.485
 9931TIP3    H229733   7.568   1.349   6.607
 9932TIP3   OH229734   6.651   0.856   6.212
 9932TIP3    H129735   6.558   0.885   6.195
 9932TIP3    H229736   6.650   0.772   6.164
 9933TIP3   OH229737   6.945   0.875   5.916
 9933TIP3    H129738   7.034   0.859   5.881
 9933TIP3    H229739   6.888   0.865   5.837
 9934TIP3   OH229740   6.775   0.856   5.691
 9934TIP3    H129741   6.700   0.842   5.631
 9934TIP3    H229742   6.835   0.905   5.629
 9935TIP3   OH229743   7.888   2.565   6.637
 9935TIP3    H129744   7.878   2.603   6.548
 9935TIP3    H229745   7.959   2.622   6.671
 9936TIP3   OH229746   6.848   1.673   7.072
 9936TIP3    H129747   6.925   1.706   7.121
 9936TIP3    H229748   6.781   1.673   7.143
 9937TIP3   OH229749   7.299   1.131   6.319
 9937TIP3    H129750   7.383   1.101   6.281
 9937TIP3    H229751   7.306   1.100   6.412
 9938TIP3   OH229752   7.316   1.056   6.582
 9938TIP3    H129753   7.221   1.052   6.607
 9938TIP3    H229754   7.354   1.098   6.662
 9939TIP3   OH229755   7.024   1.414   5.701
 9939TIP3    H129756   6.951   1.350   5.690
 9939TIP3    H229757   7.006   1.448   5.792
 9940TIP3   OH229758   7.935   1.635   6.328
 9940TIP3    H129759   7.960   1.690   6.250
 9940TIP3    H229760   7.847   1.600   6.301
 9941TIP3   OH229761   7.460   0.797   5.522
 9941TIP3    H129762   7.400   0.746   5.579
 9941TIP3    H229763   7.495   0.862   5.586
 9942TIP3   OH229764   7.446   1.744   6.711
 9942TIP3    H129765   7.395   1.686   6.769
 9942TIP3    H229766   7.391   1.824   6.704
 9943TIP3   OH229767   7.561   0.990   5.685
 9943TIP3    H129768   7.658   1.002   5.691
 9943TIP3    H229769   7.535   1.066   5.630
 9944TIP3   OH229770   6.717   1.432   6.376
 9944TIP3    H129771   6.757   1.406   6.291
 9944TIP3    H229772   6.762   1.371   6.438
 9945TIP3   OH229773   7.170   1.564   5.524
 9945TIP3    H129774   7.121   1.650   5.528
 9945TIP3    H229775   7.115   1.509   5.585
 9946TIP3   OH229776   6.596   1.357   6.992
 9946TIP3    H129777   6.620   1.343   7.086
 9946TIP3    H229778   6.525   1.291   6.978
 9947TIP3   OH229779   7.374   1.513   6.986
 9947TIP3    H129780   7.345   1.466   6.908
 9947TIP3    H229781   7.426   1.448   7.031
 9948TIP3   OH229782   7.585   1.989   6.598
 9948TIP3    H129783   7.488   1.981   6.603
 9948TIP3    H229784   7.600   2.054   6.668
 9949TIP3   OH229785   7.991   1.062   5.492
 9949TIP3    H129786   7.931   1.014   5.430
 9949TIP3    H229787   7.980   1.153   5.456
 9950TIP3   OH229788   7.695   1.885   5.414
 9950TIP3    H129789   7.667   1.816   5.475
 9950TIP3    H229790   7.705   1.837   5.329
 9951TIP3   OH229791   7.689   1.506   6.267
 9951TIP3    H129792   7.593   1.486   6.263
 9951TIP3    H229793   7.723   1.434   6.210
 9952TIP3   OH229794   6.819   1.738   5.997
 9952TIP3    H129795   6.815   1.822   5.946
 9952TIP3    H229796   6.731   1.737   6.036
 9953TIP3   OH229797   6.378   1.046   5.708
 9953TIP3    H129798   6.426   1.129   5.728
 9953TIP3    H229799   6.303   1.052   5.771
 9954TIP3   OH229800   6.956   1.505   5.945
 9954TIP3    H129801   6.917   1.593   5.961
 9954TIP3    H229802   6.919   1.454   6.020
 9955TIP3   OH229803   7.078   2.096   6.468
 9955TIP3    H129804   7.127   2.162   6.414
 9955TIP3    H229805   7.151   2.053   6.515
 9956TIP3   OH229806   6.736   1.982   5.852
 9956TIP3    H129807   6.651   1.988   5.900
 9956TIP3    H229808   6.767   2.075   5.857
 9957TIP3   OH229809   7.473   1.719   6.434
 9957TIP3    H129810   7.475   1.718   6.532
 9957TIP3    H229811   7.550   1.664   6.412
 9958TIP3   OH229812   7.451   1.613   5.314
 9958TIP3    H129813   7.504   1.588   5.392
 9958TIP3    H229814   7.363   1.585   5.342
 9959TIP3   OH229815   7.722   2.252   6.480
 9959TIP3    H129816   7.640   2.202   6.463
 9959TIP3    H229817   7.715   2.320   6.410
 9960TIP3   OH229818   7.789   2.088   5.132
 9960TIP3    H129819   7.822   2.163   5.081
 9960TIP3    H229820   7.708   2.129   5.169
 9961TIP3   OH229821   7.612   1.545   5.527
 9961TIP3    H129822   7.601   1.479   5.599
 9961TIP3    H229823   7.709   1.543   5.515
 9962TIP3   OH229824   6.814   1.592   5.313
 9962TIP3    H129825   6.830   1.500   5.287
 9962TIP3    H229826   6.796   1.582   5.409
 9963TIP3   OH229827   6.760   1.598   5.585
 9963TIP3    H129828   6.831   1.570   5.645
 9963TIP3    H229829   6.763   1.696   5.594
 9964TIP3   OH229830   6.493   1.289   5.789
 9964TIP3    H129831   6.429   1.336   5.847
 9964TIP3    H229832   6.510   1.358   5.722
 9965TIP3   OH229833   7.027   1.794   5.532
 9965TIP3    H129834   6.940   1.818   5.570
 9965TIP3    H229835   7.043   1.870   5.475
 9966TIP3   OH229836   7.238   0.842   5.910
 9966TIP3    H129837   7.286   0.928   5.909
 9966TIP3    H229838   7.224   0.828   6.005
 9967TIP3   OH229839   7.476   1.157   6.801
 9967TIP3    H129840   7.524   1.237   6.781
 9967TIP3    H229841   7.542   1.090   6.774
 9968TIP3   OH229842   6.772   1.870   5.602
 9968TIP3    H129843   6.741   1.941   5.541
 9968TIP3    H229844   6.756   1.912   5.690
 9969TIP3   OH229845   7.773   1.279   6.123
 9969TIP3    H129846   7.693   1.226   6.142
 9969TIP3    H229847   7.843   1.232   6.173
 9970TIP3   OH229848   6.489   1.498   5.593
 9970TIP3    H129849   6.558   1.566   5.604
 9970TIP3    H229850   6.534   1.441   5.527
 9971TIP3   OH229851   6.435   0.776   5.715
 9971TIP3    H129852   6.425   0.873   5.709
 9971TIP3    H229853   6.345   0.744   5.699
 9972TIP3   OH229854   7.746   2.222   6.070
 9972TIP3    H129855   7.702   2.267   5.995
 9972TIP3    H229856   7.839   2.246   6.051
 9973TIP3   OH229857   6.353   1.705   5.978
 9973TIP3    H129858   6.290   1.742   6.040
 9973TIP3    H229859   6.328   1.752   5.895
 9974TIP3   OH229860   6.512   2.253   7.064
 9974TIP3    H129861   6.601   2.254   7.103
 9974TIP3    H229862   6.497   2.158   7.051
 9975TIP3   OH229863   6.994   2.221   7.098
 9975TIP3    H129864   7.089   2.205   7.100
 9975TIP3    H229865   6.966   2.160   7.025
 9976TIP3   OH229866   6.978   1.795   5.223
 9976TIP3    H129867   6.922   1.724   5.263
 9976TIP3    H229868   7.054   1.743   5.193
 9977TIP3   OH229869   7.612   2.138   6.837
 9977TIP3    H129870   7.605   2.065   6.902
 9977TIP3    H229871   7.706   2.162   6.840
 9978TIP3   OH229872   7.414   1.835   5.137
 9978TIP3    H129873   7.457   1.771   5.197
 9978TIP3    H229874   7.472   1.832   5.059
 9979TIP3   OH229875   6.643   1.665   7.256
 9979TIP3    H129876   6.660   1.569   7.260
 9979TIP3    H229877   6.557   1.667   7.208
 9980TIP3   OH229878   6.624   1.311   5.448
 9980TIP3    H129879   6.681   1.280   5.521
 9980TIP3    H229880   6.691   1.316   5.376
 9981TIP3   OH229881   7.236   1.756   7.021
 9981TIP3    H129882   7.184   1.774   6.935
 9981TIP3    H229883   7.273   1.668   7.000
 9982TIP3   OH229884   7.136   1.514   5.255
 9982TIP3    H129885   7.138   1.525   5.352
 9982TIP3    H229886   7.139   1.416   5.249
 9983TIP3   OH229887   7.756   1.758   6.662
 9983TIP3    H129888   7.823   1.796   6.601
 9983TIP3    H229889   7.678   1.811   6.637
 9984TIP3   OH229890   6.768   1.393   7.224
 9984TIP3    H129891   6.845   1.335   7.217
 9984TIP3    H229892   6.774   1.417   7.318
 9985TIP3   OH229893   6.828   1.219   5.667
 9985TIP3    H129894   6.807   1.180   5.754
 9985TIP3    H229895   6.867   1.143   5.620
 9986TIP3   OH229896   7.089   1.325   6.889
 9986TIP3    H129897   7.005   1.375   6.894
 9986TIP3    H229898   7.123   1.346   6.801
 9987TIP3   OH229899   6.931   1.010   5.515
 9987TIP3    H129900   6.905   1.015   5.421
 9987TIP3    H229901   7.029   1.013   5.507
 9988TIP3   OH229902   7.753   1.338   5.173
 9988TIP3    H129903   7.734   1.296   5.087
 9988TIP3    H229904   7.721   1.429   5.153
 9989TIP3   OH229905   7.214   1.121   6.992
 9989TIP3    H129906   7.202   1.050   6.933
 9989TIP3    H229907   7.180   1.203   6.942
 9990TIP3   OH229908   7.302   1.435   6.711
 9990TIP3    H129909   7.355   1.395   6.640
 9990TIP3    H229910   7.227   1.475   6.660
 9991TIP3   OH229911   7.050   1.190   7.198
 9991TIP3    H129912   6.976   1.130   7.186
 9991TIP3    H229913   7.105   1.177   7.119
 9992TIP3   OH229914   6.741   2.074   5.414
 9992TIP3    H129915   6.837   2.065   5.397
 9992TIP3    H229916   6.714   2.124   5.335
 9993TIP3   OH229917   6.220   1.455   5.627
 9993TIP3    H129918   6.315   1.477   5.615
 9993TIP3    H229919   6.215   1.366   5.588
 9994TIP3   OH229920   6.135   2.066   6.047
 9994TIP3    H129921   6.069   2.003   6.011
 9994TIP3    H229922   6.181   2.010   6.113
 9995TIP3   OH229923   6.272   1.917   6.234
 9995TIP3    H129924   6.269   1.841   6.294
 9995TIP3    H229925   6.322   1.980   6.289
 9996TIP3   OH229926   7.998   2.313   6.029
 9996TIP3    H129927   8.020   2.342   6.120
 9996TIP3    H229928   8.059   2.365   5.976
 9997TIP3   OH229929   8.050   2.317   6.297
 9997TIP3    H129930   8.001   2.234   6.304
 9997TIP3    H229931   8.105   2.313   6.377
 9998TIP3   OH229932   7.890   1.530   5.501
 9998TIP3    H129933   7.958   1.595   5.473
 9998TIP3    H229934   7.932   1.494   5.582
 9999TIP3   OH229935   8.011   1.410   5.711
 9999TIP3    H129936   7.944   1.363   5.766
 9999TIP3    H229937   8.071   1.446   5.779
10000TIP3   OH229938   8.068   1.791   6.142
10000TIP3    H129939   8.119   1.725   6.091
10000TIP3    H229940   8.063   1.866   6.080
10001TIP3   OH229941   7.903   2.084   6.340
10001TIP3    H129942   7.831   2.133   6.384
10001TIP3    H229943   7.855   2.041   6.266
10002TIP3   OH229944   7.948   1.300   5.357
10002TIP3    H129945   7.880   1.309   5.287
10002TIP3    H229946   7.925   1.379   5.411
10003TIP3   OH229947   7.818   0.961   5.299
10003TIP3    H129948   7.802   1.040   5.247
10003TIP3    H229949   7.769   0.894   5.248
10004TIP3   OH229950   7.831   1.265   5.852
10004TIP3    H129951   7.833   1.170   5.828
10004TIP3    H229952   7.815   1.264   5.949
10005TIP3   OH229953   6.455   1.325   6.604
10005TIP3    H129954   6.453   1.296   6.510
10005TIP3    H229955   6.552   1.326   6.620
10006TIP3   OH229956   7.833   1.013   5.724
10006TIP3    H129957   7.863   0.934   5.774
10006TIP3    H229958   7.898   1.016   5.650
10007TIP3   OH229959   7.985   1.162   6.251
10007TIP3    H129960   8.077   1.163   6.224
10007TIP3    H229961   7.989   1.183   6.345
10008TIP3   OH229962   6.664   1.004   7.265
10008TIP3    H129963   6.759   0.996   7.273
10008TIP3    H229964   6.632   0.924   7.311
10009TIP3   OH229965   6.434   0.978   6.680
10009TIP3    H129966   6.482   0.977   6.594
10009TIP3    H229967   6.466   1.061   6.717
10010TIP3   OH229968   7.577   2.182   5.684
10010TIP3    H129969   7.636   2.176   5.606
10010TIP3    H229970   7.624   2.248   5.739
10011TIP3   OH229971   6.686   1.990   7.077
10011TIP3    H129972   6.596   1.964   7.052
10011TIP3    H229973   6.687   1.969   7.171
10012TIP3   OH229974   6.852   2.022   6.629
10012TIP3    H129975   6.769   2.050   6.587
10012TIP3    H229976   6.920   2.057   6.569
10013TIP3   OH229977   7.301   2.262   6.753
10013TIP3    H129978   7.338   2.271   6.843
10013TIP3    H229979   7.367   2.314   6.701
10014TIP3   OH229980   7.478   2.415   6.614
10014TIP3    H129981   7.546   2.374   6.560
10014TIP3    H229982   7.532   2.478   6.668
10015TIP3   OH229983   7.201   2.285   6.300
10015TIP3    H129984   7.129   2.300   6.234
10015TIP3    H229985   7.212   2.374   6.338
10016TIP3   OH229986   7.470   2.220   6.356
10016TIP3    H129987   7.378   2.243   6.333
10016TIP3    H229988   7.520   2.290   6.309
10017TIP3   OH229989   7.660   2.406   6.266
10017TIP3    H129990   7.659   2.496   6.226
10017TIP3    H229991   7.699   2.355   6.193
10018TIP3   OH229992   6.657   1.918   6.213
10018TIP3    H129993   6.650   1.857   6.289
10018TIP3    H229994   6.715   1.986   6.250
10019TIP3   OH229995   6.919   2.046   6.246
10019TIP3    H129996   6.931   1.951   6.232
10019TIP3    H229997   6.966   2.057   6.331
10020TIP3   OH229998   6.237   1.845   5.777
10020TIP3    H129999   6.151   1.814   5.745
10020TIP3    H230000   6.228   1.940   5.761
10021TIP3   OH230001   7.008   2.030   5.362
10021TIP3    H130002   7.096   2.053   5.326
10021TIP3    H230003   6.986   1.955   5.302
10022TIP3   OH230004   7.731   2.152   5.455
10022TIP3    H130005   7.722   2.054   5.445
10022TIP3    H230006   7.683   2.183   5.376
10023TIP3   OH230007   6.313   1.869   5.418
10023TIP3    H130008   6.315   1.887   5.513
10023TIP3    H230009   6.400   1.826   5.403
10024TIP3   OH230010   7.942   2.291   6.650
10024TIP3    H130011   7.868   2.262   6.591
10024TIP3    H230012   7.929   2.388   6.646
10025TIP3   OH230013   8.478   1.953   5.932
10025TIP3    H130014   8.434   1.887   5.876
10025TIP3    H230015   8.567   1.955   5.891
10026TIP3   OH230016   8.194   1.202   5.698
10026TIP3    H130017   8.123   1.266   5.681
10026TIP3    H230018   8.172   1.130   5.637
10027TIP3   OH230019   8.276   1.460   5.834
10027TIP3    H130020   8.286   1.364   5.823
10027TIP3    H230021   8.314   1.492   5.751
10028TIP3   OH230022   8.094   1.694   5.397
10028TIP3    H130023   8.048   1.725   5.317
10028TIP3    H230024   8.120   1.781   5.437
10029TIP3   OH230025   8.293   1.801   6.308
10029TIP3    H130026   8.220   1.817   6.245
10029TIP3    H230027   8.247   1.753   6.376
10030TIP3   OH230028   8.133   2.020   5.979
10030TIP3    H130029   8.229   2.033   5.975
10030TIP3    H230030   8.106   2.102   6.023
10031TIP3   OH230031   8.271   2.227   5.494
10031TIP3    H130032   8.354   2.238   5.543
10031TIP3    H230033   8.229   2.157   5.547
10032TIP3   OH230034   8.259   0.991   5.469
10032TIP3    H130035   8.273   1.000   5.373
10032TIP3    H230036   8.162   1.002   5.475
10033TIP3   OH230037   8.174   1.293   5.196
10033TIP3    H130038   8.223   1.376   5.215
10033TIP3    H230039   8.098   1.302   5.257
10034TIP3   OH230040   8.320   2.205   6.109
10034TIP3    H130041   8.375   2.136   6.150
10034TIP3    H230042   8.337   2.282   6.166
10035TIP3   OH230043   8.277   1.539   5.262
10035TIP3    H130044   8.215   1.583   5.324
10035TIP3    H230045   8.281   1.604   5.189
10036TIP3   OH230046   8.276   1.735   5.063
10036TIP3    H130047   8.344   1.799   5.094
10036TIP3    H230048   8.304   1.722   4.970
10037TIP3   OH230049   8.235   1.026   5.194
10037TIP3    H130050   8.225   1.124   5.193
10037TIP3    H230051   8.145   0.997   5.175
10038TIP3   OH230052   8.137   1.952   5.468
10038TIP3    H130053   8.077   1.997   5.529
10038TIP3    H230054   8.129   2.008   5.388
10039TIP3   OH230055   8.280   2.476   6.524
10039TIP3    H130056   8.372   2.470   6.553
10039TIP3    H230057   8.251   2.383   6.526
10040TIP3   OH230058   8.007   1.708   5.116
10040TIP3    H130059   8.102   1.724   5.100
10040TIP3    H230060   7.997   1.618   5.079
10041TIP3   OH230061   7.933   2.324   5.532
10041TIP3    H130062   7.866   2.263   5.496
10041TIP3    H230063   7.980   2.265   5.595
10042TIP3   OH230064   8.071   2.168   5.714
10042TIP3    H130065   8.053   2.103   5.784
10042TIP3    H230066   8.120   2.235   5.766
10043TIP3   OH230067   8.253   1.586   6.077
10043TIP3    H130068   8.255   1.541   5.990
10043TIP3    H230069   8.345   1.610   6.089
10044TIP3   OH230070   8.323   2.532   6.139
10044TIP3    H130071   8.239   2.567   6.101
10044TIP3    H230072   8.304   2.548   6.232
10045TIP3   OH230073   8.586   2.515   6.012
10045TIP3    H130074   8.494   2.522   6.045
10045TIP3    H230075   8.573   2.546   5.919
10046TIP3   OH230076   8.239   2.333   5.874
10046TIP3    H130077   8.266   2.307   5.964
10046TIP3    H230078   8.312   2.291   5.823
10047TIP3   OH230079   8.425   2.195   5.734
10047TIP3    H130080   8.434   2.101   5.755
10047TIP3    H230081   8.516   2.215   5.704
10048TIP3   OH230082   8.041   2.097   5.253
10048TIP3    H130083   7.951   2.071   5.227
10048TIP3    H230084   8.032   2.194   5.253
10049TIP3   OH230085   8.109   2.133   4.919
10049TIP3    H130086   8.075   2.166   5.004
10049TIP3    H230087   8.180   2.074   4.945
10050TIP3   OH230088   1.674   2.454   7.095
10050TIP3    H130089   1.646   2.546   7.078
10050TIP3    H230090   1.595   2.406   7.064
10051TIP3   OH230091   1.657   2.461   7.461
10051TIP3    H130092   1.706   2.445   7.544
10051TIP3    H230093   1.615   2.375   7.444
10052TIP3   OH230094   1.918   2.756   7.163
10052TIP3    H130095   1.900   2.692   7.233
10052TIP3    H230096   1.946   2.834   7.214
10053TIP3   OH230097   0.946   2.764   7.563
10053TIP3    H130098   0.932   2.667   7.567
10053TIP3    H230099   1.044   2.768   7.561
10054TIP3   OH230100   0.694   2.232   7.504
10054TIP3    H130101   0.754   2.196   7.569
10054TIP3    H230102   0.751   2.293   7.455
10055TIP3   OH230103   1.565   3.220   7.177
10055TIP3    H130104   1.610   3.147   7.129
10055TIP3    H230105   1.559   3.183   7.266
10056TIP3   OH230106   1.472   2.678   7.514
10056TIP3    H130107   1.515   2.602   7.473
10056TIP3    H230108   1.551   2.722   7.551
10057TIP3   OH230109   2.484   2.002   7.515
10057TIP3    H130110   2.497   2.081   7.572
10057TIP3    H230111   2.494   2.042   7.427
10058TIP3   OH230112   1.871   2.160   7.563
10058TIP3    H130113   1.924   2.080   7.579
10058TIP3    H230114   1.850   2.151   7.468
10059TIP3   OH230115   1.251   1.842   7.523
10059TIP3    H130116   1.205   1.919   7.486
10059TIP3    H230117   1.188   1.770   7.501
10060TIP3   OH230118   1.917   1.933   7.148
10060TIP3    H130119   1.989   1.920   7.213
10060TIP3    H230120   1.967   1.969   7.072
10061TIP3   OH230121   1.297   2.243   7.429
10061TIP3    H130122   1.391   2.217   7.436
10061TIP3    H230123   1.256   2.161   7.393
10062TIP3   OH230124   2.537   2.194   7.699
10062TIP3    H130125   2.451   2.242   7.694
10062TIP3    H230126   2.589   2.254   7.756
10063TIP3   OH230127   1.566   2.677   6.964
10063TIP3    H130128   1.521   2.660   6.880
10063TIP3    H230129   1.520   2.759   6.993
10064TIP3   OH230130   2.125   1.938   7.324
10064TIP3    H130131   2.115   1.890   7.407
10064TIP3    H230132   2.176   2.017   7.352
10065TIP3   OH230133   0.560   2.480   7.087
10065TIP3    H130134   0.508   2.503   7.007
10065TIP3    H230135   0.577   2.567   7.127
10066TIP3   OH230136   1.986   3.000   7.322
10066TIP3    H130137   1.897   2.991   7.364
10066TIP3    H230138   1.978   3.087   7.280
10067TIP3   OH230139   2.280   1.891   7.698
10067TIP3    H130140   2.190   1.916   7.671
10067TIP3    H230141   2.335   1.927   7.627
10068TIP3   OH230142   1.687   3.045   7.001
10068TIP3    H130143   1.738   2.963   6.981
10068TIP3    H230144   1.748   3.111   6.961
10069TIP3   OH230145   1.831   2.830   6.911
10069TIP3    H130146   1.784   2.753   6.878
10069TIP3    H230147   1.869   2.795   6.995
10070TIP3   OH230148   2.210   2.911   7.671
10070TIP3    H130149   2.198   2.835   7.611
10070TIP3    H230150   2.190   2.987   7.613
10071TIP3   OH230151   1.502   2.305   6.930
10071TIP3    H130152   1.421   2.358   6.912
10071TIP3    H230153   1.545   2.305   6.844
10072TIP3   OH230154   1.462   2.091   6.646
10072TIP3    H130155   1.528   2.145   6.692
10072TIP3    H230156   1.520   2.030   6.598
10073TIP3   OH230157   2.406   2.545   7.516
10073TIP3    H130158   2.324   2.599   7.524
10073TIP3    H230159   2.436   2.575   7.427
10074TIP3   OH230160   1.852   2.389   6.899
10074TIP3    H130161   1.795   2.414   6.976
10074TIP3    H230162   1.936   2.368   6.945
10075TIP3   OH230163   2.075   2.453   7.789
10075TIP3    H130164   2.074   2.549   7.804
10075TIP3    H230165   1.994   2.445   7.735
10076TIP3   OH230166   1.084   2.389   7.315
10076TIP3    H130167   1.044   2.328   7.249
10076TIP3    H230168   1.159   2.336   7.349
10077TIP3   OH230169   1.218   2.800   7.465
10077TIP3    H130170   1.197   2.759   7.379
10077TIP3    H230171   1.306   2.762   7.485
10078TIP3   OH230172   1.201   2.378   7.653
10078TIP3    H130173   1.238   2.323   7.581
10078TIP3    H230174   1.273   2.439   7.669
10079TIP3   OH230175   1.748   2.992   7.448
10079TIP3    H130176   1.730   3.078   7.491
10079TIP3    H230177   1.723   2.926   7.515
10080TIP3   OH230178   1.692   2.245   6.727
10080TIP3    H130179   1.749   2.308   6.777
10080TIP3    H230180   1.718   2.267   6.634
10081TIP3   OH230181   1.436   2.924   7.002
10081TIP3    H130182   1.516   2.978   7.015
10081TIP3    H230183   1.375   2.986   6.961
10082TIP3   OH230184   2.208   1.487   6.777
10082TIP3    H130185   2.125   1.505   6.826
10082TIP3    H230186   2.228   1.574   6.738
10083TIP3   OH230187   0.952   2.230   7.119
10083TIP3    H130188   0.884   2.273   7.063
10083TIP3    H230189   0.911   2.145   7.139
10084TIP3   OH230190   2.005   2.855   6.325
10084TIP3    H130191   2.013   2.951   6.309
10084TIP3    H230192   2.098   2.826   6.313
10085TIP3   OH230193   2.450   3.260   7.711
10085TIP3    H130194   2.451   3.165   7.734
10085TIP3    H230195   2.372   3.287   7.765
10086TIP3   OH230196   1.575   3.059   7.870
10086TIP3    H130197   1.523   3.134   7.901
10086TIP3    H230198   1.507   2.988   7.868
10087TIP3   OH230199   1.317   3.171   6.805
10087TIP3    H130200   1.271   3.154   6.721
10087TIP3    H230201   1.284   3.260   6.830
10088TIP3   OH230202   0.753   3.022   7.190
10088TIP3    H130203   0.803   3.014   7.274
10088TIP3    H230204   0.704   2.937   7.189
10089TIP3   OH230205   1.517   3.075   6.444
10089TIP3    H130206   1.575   3.005   6.408
10089TIP3    H230207   1.551   3.084   6.535
10090TIP3   OH230208   1.568   3.122   6.714
10090TIP3    H130209   1.479   3.132   6.755
10090TIP3    H230210   1.619   3.085   6.788
10091TIP3   OH230211   1.771   2.288   6.473
10091TIP3    H130212   1.733   2.268   6.385
10091TIP3    H230213   1.848   2.341   6.447
10092TIP3   OH230214   1.485   1.662   6.770
10092TIP3    H130215   1.450   1.659   6.861
10092TIP3    H230216   1.436   1.588   6.730
10093TIP3   OH230217   1.164   2.028   7.329
10093TIP3    H130218   1.074   1.991   7.346
10093TIP3    H230219   1.178   1.989   7.240
10094TIP3   OH230220   1.641   2.109   7.064
10094TIP3    H130221   1.588   2.180   7.022
10094TIP3    H230222   1.694   2.077   6.988
10095TIP3   OH230223   1.796   2.135   7.299
10095TIP3    H130224   1.736   2.170   7.230
10095TIP3    H230225   1.827   2.055   7.252
10096TIP3   OH230226   1.147   1.638   6.750
10096TIP3    H130227   1.116   1.626   6.842
10096TIP3    H230228   1.072   1.690   6.713
10097TIP3   OH230229   1.819   2.403   7.673
10097TIP3    H130230   1.839   2.310   7.648
10097TIP3    H230231   1.785   2.396   7.764
10098TIP3   OH230232   1.488   1.836   7.392
10098TIP3    H130233   1.399   1.839   7.434
10098TIP3    H230234   1.542   1.867   7.466
10099TIP3   OH230235   0.945   1.880   7.379
10099TIP3    H130236   0.853   1.897   7.408
10099TIP3    H230237   0.955   1.786   7.395
10100TIP3   OH230238   1.187   1.898   7.089
10100TIP3    H130239   1.277   1.917   7.058
10100TIP3    H230240   1.131   1.922   7.010
10101TIP3   OH230241   1.973   1.908   7.618
10101TIP3    H130242   1.939   1.921   7.708
10101TIP3    H230243   1.900   1.854   7.579
10102TIP3   OH230244   1.022   1.933   6.878
10102TIP3    H130245   0.947   1.885   6.837
10102TIP3    H230246   1.070   1.960   6.797
10103TIP3   OH230247   2.159   3.607   7.804
10103TIP3    H130248   2.165   3.633   7.710
10103TIP3    H230249   2.229   3.661   7.844
10104TIP3   OH230250   1.564   2.170   7.476
10104TIP3    H130251   1.641   2.142   7.424
10104TIP3    H230252   1.592   2.151   7.567
10105TIP3   OH230253   1.109   1.633   7.398
10105TIP3    H130254   1.043   1.584   7.345
10105TIP3    H230255   1.179   1.646   7.332
10106TIP3   OH230256   1.274   2.457   6.879
10106TIP3    H130257   1.201   2.393   6.867
10106TIP3    H230258   1.254   2.492   6.969
10107TIP3   OH230259   2.176   2.693   7.505
10107TIP3    H130260   2.199   2.746   7.426
10107TIP3    H230261   2.088   2.656   7.480
10108TIP3   OH230262   1.733   1.769   6.746
10108TIP3    H130263   1.637   1.749   6.750
10108TIP3    H230264   1.737   1.865   6.766
10109TIP3   OH230265   1.799   2.020   6.847
10109TIP3    H130266   1.895   2.031   6.860
10109TIP3    H230267   1.776   2.100   6.795
10110TIP3   OH230268   0.965   2.483   7.550
10110TIP3    H130269   1.001   2.457   7.463
10110TIP3    H230270   1.033   2.444   7.609
10111TIP3   OH230271   1.420   2.609   6.703
10111TIP3    H130272   1.371   2.695   6.706
10111TIP3    H230273   1.364   2.554   6.763
10112TIP3   OH230274   1.838   3.017   7.798
10112TIP3    H130275   1.743   3.037   7.811
10112TIP3    H230276   1.879   3.080   7.860
10113TIP3   OH230277   2.255   2.104   6.675
10113TIP3    H130278   2.196   2.057   6.612
10113TIP3    H230279   2.249   2.193   6.633
10114TIP3   OH230280   2.455   2.969   7.763
10114TIP3    H130281   2.357   2.963   7.752
10114TIP3    H230282   2.482   2.936   7.675
10115TIP3   OH230283   1.947   2.929   6.590
10115TIP3    H130284   1.914   2.861   6.650
10115TIP3    H230285   1.956   2.882   6.505
10116TIP3   OH230286   1.940   2.565   7.416
10116TIP3    H130287   1.848   2.539   7.435
10116TIP3    H230288   1.973   2.483   7.373
10117TIP3   OH230289   1.068   2.786   7.176
10117TIP3    H130290   1.066   2.868   7.123
10117TIP3    H230291   0.974   2.770   7.191
10118TIP3   OH230292   0.614   2.092   6.903
10118TIP3    H130293   0.681   2.163   6.902
10118TIP3    H230294   0.554   2.128   6.970
10119TIP3   OH230295   1.203   2.550   7.121
10119TIP3    H130296   1.170   2.640   7.139
10119TIP3    H230297   1.167   2.500   7.197
10120TIP3   OH230298   1.332   3.131   7.631
10120TIP3    H130299   1.375   3.208   7.589
10120TIP3    H230300   1.407   3.088   7.673
10121TIP3   OH230301   0.985   3.027   7.031
10121TIP3    H130302   0.900   3.037   7.077
10121TIP3    H230303   1.019   3.119   7.034
10122TIP3   OH230304   1.725   2.761   7.613
10122TIP3    H130305   1.755   2.779   7.703
10122TIP3    H230306   1.805   2.719   7.577
10123TIP3   OH230307   1.700   2.656   6.489
10123TIP3    H130308   1.751   2.631   6.569
10123TIP3    H230309   1.610   2.631   6.516
10124TIP3   OH230310   1.964   3.293   7.653
10124TIP3    H130311   1.880   3.245   7.635
10124TIP3    H230312   1.958   3.363   7.584
10125TIP3   OH230313   2.038   3.130   6.309
10125TIP3    H130314   2.073   3.202   6.254
10125TIP3    H230315   1.958   3.175   6.344
10126TIP3   OH230316   1.860   2.587   6.703
10126TIP3    H130317   1.850   2.524   6.777
10126TIP3    H230318   1.958   2.586   6.692
10127TIP3   OH230319   1.065   2.637   6.490
10127TIP3    H130320   1.077   2.544   6.462
10127TIP3    H230321   1.045   2.625   6.585
10128TIP3   OH230322   1.009   2.642   6.763
10128TIP3    H130323   1.082   2.617   6.821
10128TIP3    H230324   1.012   2.740   6.769
10129TIP3   OH230325   0.748   2.330   6.959
10129TIP3    H130326   0.683   2.375   7.017
10129TIP3    H230327   0.763   2.401   6.894
10130TIP3   OH230328   1.780   1.719   7.024
10130TIP3    H130329   1.760   1.741   6.931
10130TIP3    H230330   1.815   1.804   7.058
10131TIP3   OH230331   1.276   2.838   6.710
10131TIP3    H130332   1.189   2.864   6.747
10131TIP3    H230333   1.292   2.911   6.649
10132TIP3   OH230334   1.471   1.902   7.124
10132TIP3    H130335   1.530   1.979   7.107
10132TIP3    H230336   1.471   1.900   7.222
10133TIP3   OH230337   1.614   1.636   7.234
10133TIP3    H130338   1.586   1.719   7.278
10133TIP3    H230339   1.674   1.670   7.164
10134TIP3   OH230340   1.020   2.914   6.779
10134TIP3    H130341   0.991   2.984   6.716
10134TIP3    H230342   1.005   2.958   6.866
10135TIP3   OH230343   1.134   1.635   7.035
10135TIP3    H130344   1.144   1.731   7.051
10135TIP3    H230345   1.228   1.610   7.028
10136TIP3   OH230346   2.024   2.314   7.301
10136TIP3    H130347   1.947   2.256   7.313
10136TIP3    H230348   2.094   2.266   7.351
10137TIP3   OH230349   0.741   2.543   6.768
10137TIP3    H130350   0.810   2.612   6.777
10137TIP3    H230351   0.785   2.487   6.701
10138TIP3   OH230352   0.731   1.852   6.821
10138TIP3    H130353   0.711   1.935   6.868
10138TIP3    H230354   0.665   1.792   6.860
10139TIP3   OH230355   1.994   3.270   7.248
10139TIP3    H130356   1.951   3.317   7.173
10139TIP3    H230357   2.089   3.289   7.228
10140TIP3   OH230358   0.609   2.771   7.162
10140TIP3    H130359   0.526   2.799   7.202
10140TIP3    H230360   0.594   2.802   7.071
10141TIP3   OH230361   1.228   2.840   6.401
10141TIP3    H130362   1.173   2.768   6.439
10141TIP3    H230363   1.303   2.789   6.365
10142TIP3   OH230364   1.663   2.880   6.314
10142TIP3    H130365   1.708   2.816   6.372
10142TIP3    H230366   1.718   2.878   6.233
10143TIP3   OH230367   0.873   2.354   6.624
10143TIP3    H130368   0.931   2.325   6.697
10143TIP3    H230369   0.939   2.360   6.552
10144TIP3   OH230370   1.388   2.558   6.433
10144TIP3    H130371   1.388   2.569   6.530
10144TIP3    H230372   1.387   2.460   6.426
10145TIP3   OH230373   1.982   2.779   7.770
10145TIP3    H130374   2.073   2.814   7.758
10145TIP3    H230375   1.935   2.863   7.789
10146TIP3   OH230376   1.079   2.262   6.844
10146TIP3    H130377   1.052   2.221   6.928
10146TIP3    H230378   1.115   2.185   6.795
10147TIP3   OH230379   1.181   2.056   6.686
10147TIP3    H130380   1.154   2.060   6.592
10147TIP3    H230381   1.279   2.059   6.677
10148TIP3   OH230382   2.007   2.384   6.351
10148TIP3    H130383   1.983   2.341   6.266
10148TIP3    H230384   1.974   2.475   6.331
10149TIP3   OH230385   0.990   3.117   6.592
10149TIP3    H130386   1.085   3.111   6.572
10149TIP3    H230387   0.960   3.167   6.514
10150TIP3   OH230388   0.479   2.487   6.813
10150TIP3    H130389   0.571   2.514   6.796
10150TIP3    H230390   0.473   2.402   6.766
10151TIP3   OH230391   0.363   3.113   7.227
10151TIP3    H130392   0.322   3.046   7.172
10151TIP3    H230393   0.411   3.060   7.294
10152TIP3   OH230394   0.506   2.971   7.411
10152TIP3    H130395   0.533   2.886   7.447
10152TIP3    H230396   0.562   3.032   7.462
10153TIP3   OH230397   2.251   3.355   7.209
10153TIP3    H130398   2.270   3.389   7.299
10153TIP3    H230399   2.304   3.414   7.154
10154TIP3   OH230400   2.276   3.379   7.488
10154TIP3    H130401   2.234   3.290   7.487
10154TIP3    H230402   2.346   3.363   7.554
10155TIP3   OH230403   2.141   2.568   6.682
10155TIP3    H130404   2.204   2.636   6.652
10155TIP3    H230405   2.186   2.532   6.760
10156TIP3   OH230406   2.271   2.433   6.884
10156TIP3    H130407   2.201   2.396   6.943
10156TIP3    H230408   2.332   2.476   6.948
10157TIP3   OH230409   2.325   2.835   7.320
10157TIP3    H130410   2.374   2.770   7.266
10157TIP3    H230411   2.316   2.911   7.259
10158TIP3   OH230412   2.149   3.131   7.512
10158TIP3    H130413   2.078   3.174   7.564
10158TIP3    H230414   2.098   3.086   7.441
10159TIP3   OH230415   2.207   2.343   6.532
10159TIP3    H130416   2.136   2.348   6.464
10159TIP3    H230417   2.179   2.418   6.588
10160TIP3   OH230418   2.083   2.008   6.486
10160TIP3    H130419   2.037   2.064   6.422
10160TIP3    H230420   2.047   1.920   6.465
10161TIP3   OH230421   2.081   2.298   7.033
10161TIP3    H130422   2.085   2.201   7.028
10161TIP3    H230423   2.065   2.313   7.129
10162TIP3   OH230424   2.346   2.691   7.861
10162TIP3    H130425   2.436   2.671   7.891
10162TIP3    H230426   2.352   2.786   7.841
10163TIP3   OH230427   2.555   2.524   7.918
10163TIP3    H130428   2.472   2.481   7.940
10163TIP3    H230429   2.613   2.449   7.894
10164TIP3   OH230430   2.022   1.737   6.475
10164TIP3    H130431   2.056   1.709   6.561
10164TIP3    H230432   1.932   1.697   6.476
10165TIP3   OH230433   2.078   2.011   6.930
10165TIP3    H130434   2.120   1.922   6.941
10165TIP3    H230435   2.134   2.047   6.858
10166TIP3   OH230436   2.237   2.184   7.426
10166TIP3    H130437   2.323   2.211   7.386
10166TIP3    H230438   2.248   2.224   7.515
10167TIP3   OH230439   2.302   2.334   7.661
10167TIP3    H130440   2.226   2.372   7.711
10167TIP3    H230441   2.335   2.413   7.614
10168TIP3   OH230442   2.192   1.757   6.961
10168TIP3    H130443   2.232   1.745   7.050
10168TIP3    H230444   2.125   1.685   6.962
10169TIP3   OH230445   2.284   1.699   6.597
10169TIP3    H130446   2.304   1.620   6.543
10169TIP3    H230447   2.255   1.762   6.530
10170TIP3   OH230448   1.830   3.228   6.864
10170TIP3    H130449   1.883   3.220   6.782
10170TIP3    H230450   1.879   3.296   6.913
10171TIP3   OH230451   1.090   3.070   7.783
10171TIP3    H130452   1.074   3.158   7.742
10171TIP3    H230453   1.185   3.063   7.764
10172TIP3   OH230454   1.731   3.465   7.758
10172TIP3    H130455   1.813   3.416   7.747
10172TIP3    H230456   1.744   3.508   7.843
10173TIP3   OH230457   1.011   3.309   7.673
10173TIP3    H130458   0.939   3.357   7.716
10173TIP3    H230459   0.998   3.334   7.579
10174TIP3   OH230460   1.450   3.331   7.473
10174TIP3    H130461   1.378   3.349   7.410
10174TIP3    H230462   1.462   3.420   7.513
10175TIP3   OH230463   1.717   3.259   7.519
10175TIP3    H130464   1.623   3.283   7.506
10175TIP3    H230465   1.761   3.342   7.492
10176TIP3   OH230466   1.923   3.457   7.443
10176TIP3    H130467   1.908   3.543   7.397
10176TIP3    H230468   1.948   3.399   7.368
10177TIP3   OH230469   0.695   3.112   7.555
10177TIP3    H130470   0.718   3.102   7.648
10177TIP3    H230471   0.771   3.068   7.510
10178TIP3   OH230472   0.894   2.988   7.420
10178TIP3    H130473   0.910   2.903   7.469
10178TIP3    H230474   0.985   3.024   7.418
10179TIP3   OH230475   1.157   3.078   7.426
10179TIP3    H130476   1.187   2.986   7.417
10179TIP3    H230477   1.208   3.102   7.507
10180TIP3   OH230478   1.763   1.751   7.522
10180TIP3    H130479   1.709   1.678   7.550
10180TIP3    H230480   1.823   1.709   7.457
10181TIP3   OH230481   2.260   1.610   7.418
10181TIP3    H130482   2.293   1.666   7.344
10181TIP3    H230483   2.165   1.630   7.417
10182TIP3   OH230484   2.351   1.719   7.184
10182TIP3    H130485   2.425   1.668   7.144
10182TIP3    H230486   2.384   1.811   7.169
10183TIP3   OH230487   1.409   1.499   7.369
10183TIP3    H130488   1.485   1.549   7.336
10183TIP3    H230489   1.414   1.512   7.464
10184TIP3   OH230490   1.974   1.621   7.390
10184TIP3    H130491   1.972   1.585   7.300
10184TIP3    H230492   1.956   1.540   7.443
10185TIP3   OH230493   2.002   1.551   6.957
10185TIP3    H130494   1.917   1.597   6.971
10185TIP3    H230495   1.985   1.467   7.004
10186TIP3   OH230496   0.471   2.892   6.962
10186TIP3    H130497   0.406   2.843   6.911
10186TIP3    H230498   0.465   2.981   6.920
10187TIP3   OH230499   1.410   1.652   7.036
10187TIP3    H130500   1.460   1.605   7.103
10187TIP3    H230501   1.431   1.745   7.060
10188TIP3   OH230502   1.258   3.075   6.540
10188TIP3    H130503   1.345   3.098   6.503
10188TIP3    H230504   1.235   3.001   6.479
10189TIP3   OH230505   1.978   3.197   6.633
10189TIP3    H130506   1.970   3.099   6.621
10189TIP3    H230507   1.931   3.228   6.553
10190TIP3   OH230508   0.562   2.911   6.596
10190TIP3    H130509   0.567   2.950   6.684
10190TIP3    H230510   0.651   2.870   6.585
10191TIP3   OH230511   2.195   3.330   7.804
10191TIP3    H130512   2.114   3.314   7.751
10191TIP3    H230513   2.186   3.426   7.823
10192TIP3   OH230514   3.468   2.711   6.584
10192TIP3    H130515   3.440   2.802   6.563
10192TIP3    H230516   3.391   2.662   6.550
10193TIP3   OH230517   3.471   2.712   6.967
10193TIP3    H130518   3.502   2.687   7.055
10193TIP3    H230519   3.427   2.632   6.936
10194TIP3   OH230520   2.770   2.605   7.326
10194TIP3    H130521   2.798   2.539   7.391
10194TIP3    H230522   2.841   2.670   7.333
10195TIP3   OH230523   3.713   3.013   6.649
10195TIP3    H130524   3.696   2.946   6.717
10195TIP3    H230525   3.742   3.090   6.702
10196TIP3   OH230526   2.740   3.016   7.052
10196TIP3    H130527   2.730   2.919   7.056
10196TIP3    H230528   2.836   3.025   7.049
10197TIP3   OH230529   2.449   2.212   6.836
10197TIP3    H130530   2.401   2.295   6.859
10197TIP3    H230531   2.378   2.165   6.789
10198TIP3   OH230532   2.505   2.508   7.014
10198TIP3    H130533   2.556   2.432   7.049
10198TIP3    H230534   2.568   2.551   6.955
10199TIP3   OH230535   3.364   3.479   6.665
10199TIP3    H130536   3.407   3.406   6.615
10199TIP3    H230537   3.349   3.438   6.751
10200TIP3   OH230538   3.266   2.937   7.015
10200TIP3    H130539   3.308   2.863   6.968
10200TIP3    H230540   3.348   2.984   7.041
10201TIP3   OH230541   4.281   2.256   7.014
10201TIP3    H130542   4.309   2.340   7.055
10201TIP3    H230543   4.304   2.273   6.921
10202TIP3   OH230544   3.676   2.437   7.047
10202TIP3    H130545   3.722   2.353   7.066
10202TIP3    H230546   3.647   2.421   6.955
10203TIP3   OH230547   3.015   2.095   7.011
10203TIP3    H130548   2.999   2.170   6.950
10203TIP3    H230549   2.964   2.025   6.966
10204TIP3   OH230550   3.712   2.191   6.633
10204TIP3    H130551   3.784   2.176   6.698
10204TIP3    H230552   3.765   2.225   6.558
10205TIP3   OH230553   2.652   2.301   7.119
10205TIP3    H130554   2.733   2.284   7.169
10205TIP3    H230555   2.668   2.247   7.039
10206TIP3   OH230556   3.094   2.498   6.910
10206TIP3    H130557   3.187   2.473   6.924
10206TIP3    H230558   3.055   2.413   6.880
10207TIP3   OH230559   4.353   2.464   7.186
10207TIP3    H130560   4.270   2.513   7.166
10207TIP3    H230561   4.378   2.504   7.271
10208TIP3   OH230562   3.013   2.080   7.444
10208TIP3    H130563   2.956   2.120   7.375
10208TIP3    H230564   2.960   2.103   7.524
10209TIP3   OH230565   3.356   2.931   6.454
10209TIP3    H130566   3.318   2.919   6.366
10209TIP3    H230567   3.314   3.015   6.481
10210TIP3   OH230568   3.120   2.857   7.240
10210TIP3    H130569   3.059   2.924   7.277
10210TIP3    H230570   3.162   2.906   7.167
10211TIP3   OH230571   3.919   2.194   6.809
10211TIP3    H130572   3.908   2.151   6.895
10211TIP3    H230573   3.973   2.272   6.833
10212TIP3   OH230574   2.886   2.197   7.230
10212TIP3    H130575   2.946   2.272   7.254
10212TIP3    H230576   2.936   2.158   7.155
10213TIP3   OH230577   2.950   3.052   7.336
10213TIP3    H130578   2.925   3.140   7.301
10213TIP3    H230579   2.870   3.035   7.392
10214TIP3   OH230580   2.342   2.741   6.575
10214TIP3    H130581   2.299   2.768   6.491
10214TIP3    H230582   2.371   2.828   6.610
10215TIP3   OH230583   3.783   3.259   6.815
10215TIP3    H130584   3.693   3.249   6.855
10215TIP3    H230585   3.772   3.344   6.769
10216TIP3   OH230586   4.075   2.151   7.178
10216TIP3    H130587   3.988   2.184   7.148
10216TIP3    H230588   4.135   2.186   7.109
10217TIP3   OH230589   3.368   1.798   7.160
10217TIP3    H130590   3.352   1.704   7.181
10217TIP3    H230591   3.291   1.839   7.205
10218TIP3   OH230592   3.482   3.303   6.488
10218TIP3    H130593   3.531   3.220   6.468
10218TIP3    H230594   3.544   3.368   6.448
10219TIP3   OH230595   3.625   3.088   6.398
10219TIP3    H130596   3.591   3.008   6.356
10219TIP3    H230597   3.662   3.052   6.482
10220TIP3   OH230598   4.007   3.170   7.158
10220TIP3    H130599   3.995   3.092   7.099
10220TIP3    H230600   3.989   3.244   7.097
10221TIP3   OH230601   3.299   2.561   6.417
10221TIP3    H130602   3.221   2.617   6.397
10221TIP3    H230603   3.346   2.562   6.332
10222TIP3   OH230604   3.257   2.345   6.136
10222TIP3    H130605   3.323   2.400   6.181
10222TIP3    H230606   3.316   2.285   6.085
10223TIP3   OH230607   4.202   2.807   7.004
10223TIP3    H130608   4.119   2.859   7.008
10223TIP3    H230609   4.233   2.831   6.914
10224TIP3   OH230610   3.646   2.645   6.387
10224TIP3    H130611   3.592   2.670   6.465
10224TIP3    H230612   3.731   2.622   6.430
10225TIP3   OH230613   3.881   2.684   7.303
10225TIP3    H130614   3.880   2.767   7.354
10225TIP3    H230615   3.795   2.690   7.257
10226TIP3   OH230616   2.878   2.639   6.806
10226TIP3    H130617   2.842   2.583   6.734
10226TIP3    H230618   2.957   2.590   6.834
10227TIP3   OH230619   3.009   3.055   6.953
10227TIP3    H130620   2.989   3.020   6.864
10227TIP3    H230621   3.099   3.019   6.969
10228TIP3   OH230622   3.021   2.613   7.157
10228TIP3    H130623   3.053   2.596   7.066
10228TIP3    H230624   3.060   2.701   7.177
10229TIP3   OH230625   3.543   3.252   6.937
10229TIP3    H130626   3.527   3.333   6.990
10229TIP3    H230627   3.525   3.180   7.001
10230TIP3   OH230628   3.153   3.170   7.483
10230TIP3    H130629   3.093   3.232   7.529
10230TIP3    H230630   3.087   3.118   7.432
10231TIP3   OH230631   3.485   2.504   6.213
10231TIP3    H130632   3.545   2.564   6.263
10231TIP3    H230633   3.512   2.525   6.120
10232TIP3   OH230634   2.912   2.721   7.584
10232TIP3    H130635   2.919   2.812   7.621
10232TIP3    H230636   2.815   2.706   7.595
10233TIP3   OH230637   3.233   3.181   6.491
10233TIP3    H130638   3.312   3.236   6.501
10233TIP3    H230639   3.171   3.241   6.447
10234TIP3   OH230640   2.948   3.336   7.573
10234TIP3    H130641   2.910   3.340   7.483
10234TIP3    H230642   2.869   3.314   7.628
10235TIP3   OH230643   4.003   1.744   6.263
10235TIP3    H130644   3.922   1.767   6.312
10235TIP3    H230645   4.019   1.826   6.211
10236TIP3   OH230646   2.749   2.478   6.597
10236TIP3    H130647   2.687   2.535   6.546
10236TIP3    H230648   2.687   2.414   6.633
10237TIP3   OH230649   3.803   3.111   5.812
10237TIP3    H130650   3.810   3.208   5.795
10237TIP3    H230651   3.895   3.082   5.799
10238TIP3   OH230652   2.525   2.871   7.519
10238TIP3    H130653   2.455   2.855   7.452
10238TIP3    H230654   2.561   2.782   7.535
10239TIP3   OH230655   2.380   3.064   7.151
10239TIP3    H130656   2.477   3.068   7.146
10239TIP3    H230657   2.361   3.144   7.202
10240TIP3   OH230658   4.241   3.518   7.202
10240TIP3    H130659   4.244   3.421   7.215
10240TIP3    H230660   4.158   3.539   7.250
10241TIP3   OH230661   3.351   3.297   7.341
10241TIP3    H130662   3.349   3.390   7.373
10241TIP3    H230663   3.278   3.258   7.394
10242TIP3   OH230664   3.115   3.429   6.292
10242TIP3    H130665   3.067   3.410   6.209
10242TIP3    H230666   3.080   3.516   6.318
10243TIP3   OH230667   2.551   3.278   6.676
10243TIP3    H130668   2.597   3.269   6.762
10243TIP3    H230669   2.491   3.202   6.680
10244TIP3   OH230670   3.314   3.332   5.931
10244TIP3    H130671   3.372   3.262   5.894
10244TIP3    H230672   3.348   3.341   6.022
10245TIP3   OH230673   3.366   3.379   6.201
10245TIP3    H130674   3.276   3.390   6.240
10245TIP3    H230675   3.413   3.338   6.274
10246TIP3   OH230676   4.135   2.644   7.481
10246TIP3    H130677   4.052   2.656   7.432
10246TIP3    H230678   4.150   2.548   7.473
10247TIP3   OH230679   2.732   3.051   7.498
10247TIP3    H130680   2.779   3.043   7.583
10247TIP3    H230681   2.655   2.992   7.512
10248TIP3   OH230682   3.129   1.878   7.284
10248TIP3    H130683   3.040   1.849   7.257
10248TIP3    H230684   3.106   1.960   7.333
10249TIP3   OH230685   3.665   1.992   7.483
10249TIP3    H130686   3.732   1.968   7.549
10249TIP3    H230687   3.580   1.974   7.530
10250TIP3   OH230688   3.901   2.420   7.399
10250TIP3    H130689   3.853   2.417   7.485
10250TIP3    H230690   3.879   2.509   7.366
10251TIP3   OH230691   3.563   2.547   5.958
10251TIP3    H130692   3.529   2.525   5.870
10251TIP3    H230693   3.645   2.594   5.934
10252TIP3   OH230694   3.271   1.925   6.262
10252TIP3    H130695   3.239   1.920   6.354
10252TIP3    H230696   3.237   1.841   6.227
10253TIP3   OH230697   3.062   2.392   7.307
10253TIP3    H130698   3.011   2.415   7.388
10253TIP3    H230699   3.048   2.474   7.254
10254TIP3   OH230700   2.949   2.277   6.823
10254TIP3    H130701   2.855   2.255   6.841
10254TIP3    H230702   2.959   2.239   6.733
10255TIP3   OH230703   3.434   2.359   6.549
10255TIP3    H130704   3.385   2.433   6.506
10255TIP3    H230705   3.492   2.330   6.476
10256TIP3   OH230706   3.614   2.644   7.629
10256TIP3    H130707   3.593   2.571   7.691
10256TIP3    H230708   3.707   2.661   7.654
10257TIP3   OH230709   3.591   2.391   6.789
10257TIP3    H130710   3.532   2.423   6.718
10257TIP3    H230711   3.626   2.311   6.743
10258TIP3   OH230712   2.884   2.423   7.515
10258TIP3    H130713   2.900   2.494   7.579
10258TIP3    H230714   2.872   2.344   7.571
10259TIP3   OH230715   2.935   1.898   6.222
10259TIP3    H130716   2.926   1.905   6.319
10259TIP3    H230717   2.858   1.946   6.189
10260TIP3   OH230718   2.479   1.938   7.097
10260TIP3    H130719   2.548   1.976   7.155
10260TIP3    H230720   2.527   1.915   7.017
10261TIP3   OH230721   3.601   2.636   7.211
10261TIP3    H130722   3.635   2.565   7.152
10261TIP3    H230723   3.572   2.583   7.288
10262TIP3   OH230724   3.274   2.097   6.882
10262TIP3    H130725   3.195   2.098   6.940
10262TIP3    H230726   3.346   2.099   6.948
10263TIP3   OH230727   2.709   2.160   6.887
10263TIP3    H130728   2.612   2.168   6.867
10263TIP3    H230729   2.726   2.065   6.876
10264TIP3   OH230730   2.979   2.156   6.577
10264TIP3    H130731   3.078   2.166   6.578
10264TIP3    H230732   2.955   2.199   6.493
10265TIP3   OH230733   3.768   2.175   7.084
10265TIP3    H130734   3.735   2.189   7.176
10265TIP3    H230735   3.699   2.117   7.049
10266TIP3   OH230736   2.803   2.173   6.340
10266TIP3    H130737   2.755   2.151   6.257
10266TIP3    H230738   2.875   2.226   6.297
10267TIP3   OH230739   3.934   3.861   7.301
10267TIP3    H130740   3.929   3.882   7.206
10267TIP3    H230741   3.980   3.938   7.337
10268TIP3   OH230742   2.912   2.971   7.714
10268TIP3    H130743   2.985   3.006   7.769
10268TIP3    H230744   2.838   2.981   7.778
10269TIP3   OH230745   3.356   2.426   6.977
10269TIP3    H130746   3.433   2.394   6.928
10269TIP3    H230747   3.369   2.386   7.065
10270TIP3   OH230748   2.871   1.915   6.856
10270TIP3    H130749   2.837   1.838   6.906
10270TIP3    H230750   2.939   1.874   6.801
10271TIP3   OH230751   3.332   2.324   7.278
10271TIP3    H130752   3.244   2.364   7.286
10271TIP3    H230753   3.390   2.388   7.323
10272TIP3   OH230754   3.072   2.715   6.367
10272TIP3    H130755   2.997   2.654   6.353
10272TIP3    H230756   3.051   2.751   6.457
10273TIP3   OH230757   3.969   2.952   6.993
10273TIP3    H130758   3.993   3.003   6.913
10273TIP3    H230759   3.884   2.910   6.967
10274TIP3   OH230760   3.528   2.025   6.235
10274TIP3    H130761   3.430   2.011   6.238
10274TIP3    H230762   3.538   2.120   6.253
10275TIP3   OH230763   3.469   3.035   7.364
10275TIP3    H130764   3.494   3.019   7.456
10275TIP3    H230765   3.428   3.123   7.368
10276TIP3   OH230766   3.596   2.276   6.332
10276TIP3    H130767   3.693   2.283   6.346
10276TIP3    H230768   3.577   2.356   6.279
10277TIP3   OH230769   2.760   2.734   7.041
10277TIP3    H130770   2.801   2.707   6.957
10277TIP3    H230771   2.804   2.677   7.106
10278TIP3   OH230772   3.216   2.866   6.190
10278TIP3    H130773   3.167   2.952   6.192
10278TIP3    H230774   3.161   2.812   6.250
10279TIP3   OH230775   2.647   2.650   7.642
10279TIP3    H130776   2.666   2.654   7.738
10279TIP3    H230777   2.563   2.601   7.639
10280TIP3   OH230778   3.371   2.773   7.673
10280TIP3    H130779   3.311   2.719   7.620
10280TIP3    H230780   3.458   2.741   7.641
10281TIP3   OH230781   3.628   3.295   7.258
10281TIP3    H130782   3.532   3.292   7.272
10281TIP3    H230783   3.657   3.346   7.337
10282TIP3   OH230784   4.037   2.369   6.168
10282TIP3    H130785   3.975   2.325   6.105
10282TIP3    H230786   4.034   2.458   6.127
10283TIP3   OH230787   4.258   3.228   7.245
10283TIP3    H130788   4.160   3.220   7.238
10283TIP3    H230789   4.284   3.196   7.156
10284TIP3   OH230790   3.743   3.186   6.077
10284TIP3    H130791   3.712   3.115   6.136
10284TIP3    H230792   3.753   3.140   5.991
10285TIP3   OH230793   3.736   2.815   6.912
10285TIP3    H130794   3.642   2.791   6.925
10285TIP3    H230795   3.769   2.735   6.866
10286TIP3   OH230796   2.864   3.042   6.665
10286TIP3    H130797   2.862   3.124   6.611
10286TIP3    H230798   2.770   3.029   6.680
10287TIP3   OH230799   2.438   2.340   6.378
10287TIP3    H130800   2.472   2.430   6.394
10287TIP3    H230801   2.357   2.341   6.433
10288TIP3   OH230802   2.997   2.806   6.610
10288TIP3    H130803   2.964   2.897   6.625
10288TIP3    H230804   2.960   2.760   6.687
10289TIP3   OH230805   3.133   3.386   7.134
10289TIP3    H130806   3.174   3.459   7.084
10289TIP3    H230807   3.209   3.351   7.183
10290TIP3   OH230808   2.783   3.280   6.519
10290TIP3    H130809   2.697   3.289   6.564
10290TIP3    H230810   2.815   3.373   6.521
10291TIP3   OH230811   3.518   3.019   7.095
10291TIP3    H130812   3.508   3.019   7.193
10291TIP3    H230813   3.599   2.968   7.084
10292TIP3   OH230814   3.497   2.914   5.977
10292TIP3    H130815   3.548   2.888   6.057
10292TIP3    H230816   3.408   2.887   6.003
10293TIP3   OH230817   3.768   3.553   7.144
10293TIP3    H130818   3.689   3.496   7.138
10293TIP3    H230819   3.751   3.616   7.071
10294TIP3   OH230820   3.834   3.387   5.795
10294TIP3    H130821   3.870   3.459   5.742
10294TIP3    H230822   3.754   3.432   5.830
10295TIP3   OH230823   2.855   2.158   7.655
10295TIP3    H130824   2.761   2.165   7.677
10295TIP3    H230825   2.890   2.106   7.729
10296TIP3   OH230826   3.656   2.848   6.195
10296TIP3    H130827   3.647   2.780   6.265
10296TIP3    H230828   3.753   2.844   6.181
10297TIP3   OH230829   2.574   3.247   7.291
10297TIP3    H130830   2.627   3.179   7.335
10297TIP3    H230831   2.585   3.322   7.351
10298TIP3   OH230832   2.864   2.894   5.977
10298TIP3    H130833   2.873   2.801   5.948
10298TIP3    H230834   2.842   2.883   6.072
10299TIP3   OH230835   2.808   2.898   6.249
10299TIP3    H130836   2.880   2.877   6.310
10299TIP3    H230837   2.807   2.996   6.253
10300TIP3   OH230838   2.544   2.596   6.455
10300TIP3    H130839   2.475   2.639   6.510
10300TIP3    H230840   2.553   2.663   6.385
10301TIP3   OH230841   3.693   2.227   7.342
10301TIP3    H130842   3.771   2.270   7.382
10301TIP3    H230843   3.681   2.148   7.399
10302TIP3   OH230844   3.570   1.978   6.513
10302TIP3    H130845   3.559   2.000   6.418
10302TIP3    H230846   3.611   2.061   6.547
10303TIP3   OH230847   3.073   3.096   6.199
10303TIP3    H130848   2.985   3.121   6.233
10303TIP3    H230849   3.087   3.167   6.134
10304TIP3   OH230850   3.251   2.162   6.614
10304TIP3    H130851   3.318   2.231   6.592
10304TIP3    H230852   3.265   2.152   6.711
10305TIP3   OH230853   3.529   2.476   7.420
10305TIP3    H130854   3.553   2.533   7.496
10305TIP3    H230855   3.586   2.398   7.434
10306TIP3   OH230856   3.401   1.882   6.711
10306TIP3    H130857   3.398   1.957   6.772
10306TIP3    H230858   3.464   1.917   6.643
10307TIP3   OH230859   2.817   3.170   6.266
10307TIP3    H130860   2.787   3.239   6.203
10307TIP3    H230861   2.800   3.213   6.352
10308TIP3   OH230862   2.895   1.912   6.501
10308TIP3    H130863   2.937   1.991   6.542
10308TIP3    H230864   2.971   1.851   6.508
10309TIP3   OH230865   4.168   2.376   7.404
10309TIP3    H130866   4.070   2.373   7.407
10309TIP3    H230867   4.184   2.347   7.314
10310TIP3   OH230868   3.820   2.572   6.789
10310TIP3    H130869   3.745   2.512   6.801
10310TIP3    H230870   3.892   2.525   6.836
10311TIP3   OH230871   2.533   2.797   6.259
10311TIP3    H130872   2.596   2.871   6.266
10311TIP3    H230873   2.578   2.744   6.190
10312TIP3   OH230874   3.789   3.531   6.738
10312TIP3    H130875   3.745   3.578   6.663
10312TIP3    H230876   3.883   3.549   6.715
10313TIP3   OH230877   2.865   1.797   7.258
10313TIP3    H130878   2.834   1.768   7.169
10313TIP3    H230879   2.851   1.717   7.311
10314TIP3   OH230880   2.400   3.008   6.641
10314TIP3    H130881   2.337   3.042   6.707
10314TIP3    H230882   2.368   3.054   6.560
10315TIP3   OH230883   2.563   3.558   7.711
10315TIP3    H130884   2.647   3.558   7.762
10315TIP3    H230885   2.539   3.464   7.715
10316TIP3   OH230886   3.046   3.524   7.757
10316TIP3    H130887   3.138   3.497   7.766
10316TIP3    H230888   3.015   3.461   7.688
10317TIP3   OH230889   3.026   3.098   5.889
10317TIP3    H130890   2.970   3.025   5.925
10317TIP3    H230891   3.099   3.047   5.849
10318TIP3   OH230892   3.685   3.427   7.493
10318TIP3    H130893   3.675   3.358   7.562
10318TIP3    H230894   3.760   3.479   7.527
10319TIP3   OH230895   3.460   3.137   5.801
10319TIP3    H130896   3.504   3.071   5.859
10319TIP3    H230897   3.514   3.134   5.720
10320TIP3   OH230898   2.700   2.975   7.882
10320TIP3    H130899   2.710   2.880   7.902
10320TIP3    H230900   2.606   2.980   7.854
10321TIP3   OH230901   2.670   2.613   6.111
10321TIP3    H130902   2.729   2.590   6.185
10321TIP3    H230903   2.735   2.618   6.037
10322TIP3   OH230904   3.302   3.053   7.686
10322TIP3    H130905   3.256   3.070   7.602
10322TIP3    H230906   3.329   2.960   7.678
10323TIP3   OH230907   3.186   2.812   5.920
10323TIP3    H130908   3.184   2.825   6.016
10323TIP3    H230909   3.182   2.715   5.914
10324TIP3   OH230910   3.792   3.059   7.297
10324TIP3    H130911   3.866   3.104   7.253
10324TIP3    H230912   3.721   3.124   7.283
10325TIP3   OH230913   2.804   2.694   7.878
10325TIP3    H130914   2.894   2.674   7.848
10325TIP3    H230915   2.802   2.654   7.967
10326TIP3   OH230916   2.875   2.523   6.331
10326TIP3    H130917   2.845   2.486   6.416
10326TIP3    H230918   2.912   2.446   6.284
10327TIP3   OH230919   3.150   2.579   7.561
10327TIP3    H130920   3.071   2.637   7.563
10327TIP3    H230921   3.198   2.615   7.483
10328TIP3   OH230922   2.977   2.305   6.185
10328TIP3    H130923   2.950   2.315   6.091
10328TIP3    H230924   3.075   2.311   6.174
10329TIP3   OH230925   3.662   2.984   7.694
10329TIP3    H130926   3.743   2.958   7.648
10329TIP3    H230927   3.658   2.919   7.767
10330TIP3   OH230928   3.798   2.640   5.839
10330TIP3    H130929   3.779   2.597   5.753
10330TIP3    H230930   3.766   2.731   5.817
10331TIP3   OH230931   3.272   2.370   7.684
10331TIP3    H130932   3.272   2.291   7.626
10331TIP3    H230933   3.229   2.437   7.627
10332TIP3   OH230934   3.270   2.156   7.496
10332TIP3    H130935   3.300   2.201   7.414
10332TIP3    H230936   3.177   2.134   7.474
10333TIP3   OH230937   3.297   2.692   7.368
10333TIP3    H130938   3.382   2.707   7.323
10333TIP3    H230939   3.239   2.757   7.323
10334TIP3   OH230940   3.879   2.658   7.744
10334TIP3    H130941   3.932   2.579   7.762
10334TIP3    H230942   3.947   2.719   7.711
10335TIP3   OH230943   3.922   2.911   7.482
10335TIP3    H130944   3.864   2.966   7.424
10335TIP3    H230945   4.010   2.934   7.443
10336TIP3   OH230946   3.123   2.497   7.887
10336TIP3    H130947   3.063   2.420   7.893
10336TIP3    H230948   3.174   2.474   7.807
10337TIP3   OH230949   3.406   1.924   7.563
10337TIP3    H130950   3.356   2.004   7.538
10337TIP3    H230951   3.338   1.854   7.550
10338TIP3   OH230952   3.536   2.424   7.766
10338TIP3    H130953   3.520   2.416   7.862
10338TIP3    H230954   3.446   2.400   7.733
10339TIP3   OH230955   3.768   2.368   7.627
10339TIP3    H130956   3.694   2.376   7.691
10339TIP3    H230957   3.843   2.343   7.685
10340TIP3   OH230958   3.997   2.314   7.773
10340TIP3    H130959   4.008   2.219   7.792
10340TIP3    H230960   3.992   2.354   7.863
10341TIP3   OH230961   2.974   2.266   7.936
10341TIP3    H130962   2.993   2.173   7.915
10341TIP3    H230963   3.021   2.278   8.021
10342TIP3   OH230964   3.497   1.923   7.819
10342TIP3    H130965   3.564   1.856   7.796
10342TIP3    H230966   3.452   1.931   7.732
10343TIP3   OH230967   3.574   2.149   7.966
10343TIP3    H130968   3.547   2.067   7.920
10343TIP3    H230969   3.493   2.201   7.963
10344TIP3   OH230970   2.787   3.372   6.079
10344TIP3    H130971   2.882   3.368   6.058
10344TIP3    H230972   2.755   3.422   6.001
10345TIP3   OH230973   2.264   2.754   6.296
10345TIP3    H130974   2.359   2.776   6.280
10345TIP3    H230975   2.257   2.667   6.252
10346TIP3   OH230976   2.183   3.368   6.708
10346TIP3    H130977   2.115   3.308   6.670
10346TIP3    H230978   2.226   3.308   6.773
10347TIP3   OH230979   2.319   3.214   6.893
10347TIP3    H130980   2.302   3.146   6.960
10347TIP3    H230981   2.368   3.279   6.947
10348TIP3   OH230982   4.043   3.619   6.695
10348TIP3    H130983   4.074   3.649   6.783
10348TIP3    H230984   4.109   3.657   6.635
10349TIP3   OH230985   4.076   3.639   6.979
10349TIP3    H130986   4.025   3.555   6.970
10349TIP3    H230987   4.146   3.607   7.037
10350TIP3   OH230988   4.118   3.316   7.549
10350TIP3    H130989   4.045   3.325   7.614
10350TIP3    H230990   4.160   3.404   7.555
10351TIP3   OH230991   3.935   2.828   6.169
10351TIP3    H130992   4.001   2.893   6.138
10351TIP3    H230993   3.980   2.790   6.248
10352TIP3   OH230994   4.063   2.696   6.373
10352TIP3    H130995   3.997   2.655   6.433
10352TIP3    H230996   4.129   2.733   6.436
10353TIP3   OH230997   4.119   3.089   6.806
10353TIP3    H130998   4.171   3.022   6.758
10353TIP3    H230999   4.113   3.161   6.741
10354TIP3   OH231000   3.947   3.391   6.999
10354TIP3    H131001   3.874   3.431   7.050
10354TIP3    H231002   3.898   3.343   6.928
10355TIP3   OH231003   4.000   2.604   6.020
10355TIP3    H131004   3.929   2.606   5.952
10355TIP3    H231005   3.972   2.680   6.074
10356TIP3   OH231006   3.870   2.277   5.975
10356TIP3    H131007   3.829   2.316   5.897
10356TIP3    H231008   3.846   2.183   5.964
10357TIP3   OH231009   3.875   2.555   6.519
10357TIP3    H131010   3.884   2.458   6.512
10357TIP3    H231011   3.861   2.567   6.616
10358TIP3   OH231012   2.503   2.620   7.268
10358TIP3    H131013   2.499   2.593   7.174
10358TIP3    H231014   2.600   2.624   7.282
10359TIP3   OH231015   4.167   2.979   7.376
10359TIP3    H131016   4.238   2.912   7.366
10359TIP3    H231017   4.192   3.046   7.312
10360TIP3   OH231018   4.349   2.781   7.388
10360TIP3    H131019   4.275   2.731   7.429
10360TIP3    H231020   4.423   2.718   7.404
10361TIP3   OH231021   3.814   2.011   5.960
10361TIP3    H131022   3.890   1.980   6.013
10361TIP3    H231023   3.743   1.950   5.981
10362TIP3   OH231024   3.873   2.270   6.413
10362TIP3    H131025   3.914   2.182   6.427
10362TIP3    H231026   3.930   2.304   6.342
10363TIP3   OH231027   4.033   2.441   6.909
10363TIP3    H131028   4.119   2.466   6.868
10363TIP3    H231029   4.048   2.479   6.998
10364TIP3   OH231030   4.104   2.587   7.141
10364TIP3    H131031   4.026   2.622   7.189
10364TIP3    H231032   4.136   2.668   7.095
10365TIP3   OH231033   2.713   2.305   7.873
10365TIP3    H131034   2.811   2.309   7.875
10365TIP3    H231035   2.697   2.259   7.958
10366TIP3   OH231036   4.551   2.174   7.696
10366TIP3    H131037   4.614   2.112   7.653
10366TIP3    H231038   4.524   2.230   7.621
10367TIP3   OH231039   3.981   2.020   6.452
10367TIP3    H131040   4.030   2.004   6.535
10367TIP3    H231041   3.921   1.943   6.451
10368TIP3   OH231042   2.684   2.006   7.265
10368TIP3    H131043   2.748   1.933   7.275
10368TIP3    H231044   2.743   2.083   7.263
10369TIP3   OH231045   2.486   2.274   7.347
10369TIP3    H131046   2.534   2.281   7.262
10369TIP3    H231047   2.497   2.363   7.383
10370TIP3   OH231048   4.424   2.316   7.504
10370TIP3    H131049   4.339   2.360   7.525
10370TIP3    H231050   4.392   2.247   7.443
10371TIP3   OH231051   4.061   1.952   6.086
10371TIP3    H131052   4.101   1.882   6.030
10371TIP3    H231053   4.127   2.023   6.081
10372TIP3   OH231054   2.454   1.799   6.829
10372TIP3    H131055   2.381   1.762   6.882
10372TIP3    H231056   2.406   1.867   6.781
10373TIP3   OH231057   3.630   3.486   6.354
10373TIP3    H131058   3.677   3.472   6.269
10373TIP3    H231059   3.684   3.556   6.394
10374TIP3   OH231060   2.674   1.868   7.662
10374TIP3    H131061   2.588   1.876   7.705
10374TIP3    H231062   2.651   1.921   7.582
10375TIP3   OH231063   2.729   3.282   7.737
10375TIP3    H131064   2.634   3.265   7.720
10375TIP3    H231065   2.734   3.268   7.832
10376TIP3   OH231066   2.908   3.321   7.283
10376TIP3    H131067   2.855   3.395   7.247
10376TIP3    H231068   2.992   3.340   7.237
10377TIP3   OH231069   3.350   3.563   7.420
10377TIP3    H131070   3.390   3.566   7.509
10377TIP3    H231071   3.414   3.618   7.369
10378TIP3   OH231072   3.528   3.720   7.281
10378TIP3    H131073   3.598   3.667   7.241
10378TIP3    H231074   3.579   3.776   7.343
10379TIP3   OH231075   4.323   2.082   7.381
10379TIP3    H131076   4.235   2.077   7.340
10379TIP3    H231077   4.355   1.989   7.369
10380TIP3   OH231078   2.583   3.579   7.310
10380TIP3    H131079   2.492   3.608   7.286
10380TIP3    H231080   2.594   3.625   7.394
10381TIP3   OH231081   2.818   3.558   7.167
10381TIP3    H131082   2.732   3.570   7.212
10381TIP3    H231083   2.797   3.591   7.077
10382TIP3   OH231084   3.245   3.585   6.963
10382TIP3    H131085   3.173   3.602   6.899
10382TIP3    H231086   3.254   3.673   7.006
10383TIP3   OH231087   3.513   3.526   7.016
10383TIP3    H131088   3.418   3.540   6.997
10383TIP3    H231089   3.552   3.601   6.970
10384TIP3   OH231090   3.727   3.721   6.929
10384TIP3    H131091   3.706   3.803   6.879
10384TIP3    H231092   3.748   3.658   6.857
10385TIP3   OH231093   2.495   3.374   7.049
10385TIP3    H131094   2.518   3.347   7.141
10385TIP3    H231095   2.567   3.329   7.000
10386TIP3   OH231096   2.689   3.244   6.909
10386TIP3    H131097   2.703   3.161   6.960
10386TIP3    H231098   2.779   3.281   6.906
10387TIP3   OH231099   2.955   3.339   6.914
10387TIP3    H131100   2.986   3.247   6.904
10387TIP3    H231101   2.999   3.362   6.998
10388TIP3   OH231102   3.528   1.995   6.997
10388TIP3    H131103   3.488   1.923   7.049
10388TIP3    H231104   3.605   1.951   6.956
10389TIP3   OH231105   4.049   1.875   6.906
10389TIP3    H131106   4.088   1.926   6.831
10389TIP3    H231107   3.955   1.897   6.899
10390TIP3   OH231108   4.146   1.973   6.670
10390TIP3    H131109   4.219   1.922   6.630
10390TIP3    H231110   4.180   2.064   6.655
10391TIP3   OH231111   2.777   1.704   7.013
10391TIP3    H131112   2.685   1.669   7.017
10391TIP3    H231113   2.826   1.619   7.010
10392TIP3   OH231114   2.567   1.564   6.695
10392TIP3    H131115   2.574   1.603   6.607
10392TIP3    H231116   2.525   1.636   6.746
10393TIP3   OH231117   3.219   1.739   6.898
10393TIP3    H131118   3.276   1.784   6.833
10393TIP3    H231119   3.251   1.776   6.981
10394TIP3   OH231120   3.762   1.884   6.881
10394TIP3    H131121   3.769   1.846   6.792
10394TIP3    H231122   3.752   1.802   6.935
10395TIP3   OH231123   3.798   1.807   6.443
10395TIP3    H131124   3.711   1.850   6.456
10395TIP3    H231125   3.783   1.721   6.488
10396TIP3   OH231126   2.282   3.148   6.443
10396TIP3    H131127   2.196   3.115   6.410
10396TIP3    H231128   2.273   3.242   6.419
10397TIP3   OH231129   3.186   1.910   6.528
10397TIP3    H131130   3.249   1.861   6.583
10397TIP3    H231131   3.212   2.002   6.552
10398TIP3   OH231132   3.055   3.332   6.027
10398TIP3    H131133   3.142   3.356   5.989
10398TIP3    H231134   3.032   3.258   5.966
10399TIP3   OH231135   3.773   3.453   6.120
10399TIP3    H131136   3.766   3.355   6.108
10399TIP3    H231137   3.727   3.484   6.039
10400TIP3   OH231138   3.025   2.000   7.870
10400TIP3    H131139   3.018   1.936   7.944
10400TIP3    H231140   3.121   2.014   7.865
10401TIP3   OH231141   2.356   3.167   6.080
10401TIP3    H131142   2.358   3.195   6.172
10401TIP3    H231143   2.445   3.126   6.069
10402TIP3   OH231144   4.059   2.046   7.794
10402TIP3    H131145   4.088   2.027   7.887
10402TIP3    H231146   4.147   2.050   7.750
10403TIP3   OH231147   3.997   3.592   7.306
10403TIP3    H131148   3.919   3.560   7.257
10403TIP3    H231149   3.976   3.688   7.311
10404TIP3   OH231150   5.266   2.969   6.070
10404TIP3    H131151   5.235   3.060   6.049
10404TIP3    H231152   5.191   2.918   6.034
10405TIP3   OH231153   5.263   2.970   6.456
10405TIP3    H131154   5.298   2.943   6.543
10405TIP3    H231155   5.224   2.887   6.423
10406TIP3   OH231156   4.562   2.863   6.821
10406TIP3    H131157   4.592   2.794   6.883
10406TIP3    H231158   4.643   2.914   6.807
10407TIP3   OH231159   5.510   3.272   6.136
10407TIP3    H131160   5.493   3.203   6.202
10407TIP3    H231161   5.540   3.346   6.191
10408TIP3   OH231162   4.535   3.274   6.545
10408TIP3    H131163   4.527   3.176   6.544
10408TIP3    H231164   4.632   3.283   6.534
10409TIP3   OH231165   4.240   2.473   6.326
10409TIP3    H131166   4.194   2.557   6.343
10409TIP3    H231167   4.170   2.423   6.282
10410TIP3   OH231168   4.300   2.763   6.503
10410TIP3    H131169   4.350   2.685   6.536
10410TIP3    H231170   4.359   2.796   6.434
10411TIP3   OH231171   5.159   3.732   6.153
10411TIP3    H131172   5.202   3.661   6.101
10411TIP3    H231173   5.153   3.691   6.240
10412TIP3   OH231174   5.062   3.195   6.503
10412TIP3    H131175   5.102   3.118   6.459
10412TIP3    H231176   5.145   3.241   6.527
10413TIP3   OH231177   6.056   2.521   6.490
10413TIP3    H131178   6.098   2.595   6.539
10413TIP3    H231179   6.095   2.533   6.402
10414TIP3   OH231180   5.473   2.696   6.532
10414TIP3    H131181   5.518   2.612   6.553
10414TIP3    H231182   5.443   2.678   6.441
10415TIP3   OH231183   4.814   2.355   6.499
10415TIP3    H131184   4.796   2.428   6.436
10415TIP3    H231185   4.766   2.282   6.454
10416TIP3   OH231186   5.508   2.448   6.120
10416TIP3    H131187   5.580   2.432   6.186
10416TIP3    H231188   5.561   2.481   6.046
10417TIP3   OH231189   4.446   2.556   6.606
10417TIP3    H131190   4.530   2.538   6.654
10417TIP3    H231191   4.461   2.501   6.526
10418TIP3   OH231192   4.886   2.754   6.403
10418TIP3    H131193   4.981   2.730   6.413
10418TIP3    H231194   4.849   2.670   6.368
10419TIP3   OH231195   6.144   2.727   6.660
10419TIP3    H131196   6.057   2.772   6.651
10419TIP3    H231197   6.165   2.745   6.753
10420TIP3   OH231198   4.809   2.338   6.933
10420TIP3    H131199   4.750   2.375   6.864
10420TIP3    H231200   4.757   2.357   7.013
10421TIP3   OH231201   5.156   3.191   5.939
10421TIP3    H131202   5.114   3.172   5.854
10421TIP3    H231203   5.109   3.272   5.966
10422TIP3   OH231204   4.916   3.114   6.726
10422TIP3    H131205   4.856   3.183   6.763
10422TIP3    H231206   4.960   3.163   6.653
10423TIP3   OH231207   5.715   2.452   6.295
10423TIP3    H131208   5.708   2.404   6.379
10423TIP3    H231209   5.771   2.528   6.321
10424TIP3   OH231210   4.681   2.453   6.717
10424TIP3    H131211   4.743   2.526   6.740
10424TIP3    H231212   4.730   2.413   6.641
10425TIP3   OH231213   4.744   3.310   6.827
10425TIP3    H131214   4.718   3.395   6.787
10425TIP3    H231215   4.665   3.294   6.883
10426TIP3   OH231216   4.136   2.998   6.061
10426TIP3    H131217   4.097   3.025   5.976
10426TIP3    H231218   4.168   3.084   6.096
10427TIP3   OH231219   5.577   3.515   6.301
10427TIP3    H131220   5.487   3.506   6.340
10427TIP3    H231221   5.569   3.602   6.256
10428TIP3   OH231222   5.869   2.412   6.665
10428TIP3    H131223   5.782   2.442   6.634
10428TIP3    H231224   5.929   2.447   6.595
10429TIP3   OH231225   5.163   2.056   6.646
10429TIP3    H131226   5.150   1.961   6.665
10429TIP3    H231227   5.086   2.094   6.694
10430TIP3   OH231228   5.276   3.560   5.972
10430TIP3    H131229   5.327   3.477   5.954
10430TIP3    H231230   5.339   3.625   5.933
10431TIP3   OH231231   5.422   3.344   5.885
10431TIP3    H131232   5.380   3.265   5.849
10431TIP3    H231233   5.459   3.310   5.969
10432TIP3   OH231234   5.803   3.426   6.646
10432TIP3    H131235   5.792   3.348   6.586
10432TIP3    H231236   5.786   3.500   6.585
10433TIP3   OH231237   5.096   2.822   5.904
10433TIP3    H131238   5.016   2.873   5.881
10433TIP3    H231239   5.139   2.812   5.817
10434TIP3   OH231240   5.054   2.602   5.633
10434TIP3    H131241   5.129   2.655   5.667
10434TIP3    H231242   5.101   2.540   5.574
10435TIP3   OH231243   5.998   3.066   6.492
10435TIP3    H131244   5.915   3.116   6.496
10435TIP3    H231245   6.028   3.087   6.401
10436TIP3   OH231246   5.445   2.905   5.874
10436TIP3    H131247   5.389   2.928   5.952
10436TIP3    H231248   5.528   2.878   5.919
10437TIP3   OH231249   5.676   2.941   6.790
10437TIP3    H131250   5.674   3.024   6.841
10437TIP3    H231251   5.591   2.946   6.744
10438TIP3   OH231252   4.675   2.900   6.293
10438TIP3    H131253   4.633   2.842   6.226
10438TIP3    H231254   4.751   2.846   6.322
10439TIP3   OH231255   4.803   3.310   6.441
10439TIP3    H131256   4.784   3.275   6.352
10439TIP3    H231257   4.893   3.275   6.458
10440TIP3   OH231258   4.808   2.872   6.647
10440TIP3    H131259   4.842   2.847   6.558
10440TIP3    H231260   4.854   2.957   6.664
10441TIP3   OH231261   5.335   3.510   6.423
10441TIP3    H131262   5.324   3.589   6.477
10441TIP3    H231263   5.321   3.437   6.486
10442TIP3   OH231264   4.951   3.429   6.969
10442TIP3    H131265   4.890   3.490   7.016
10442TIP3    H231266   4.886   3.375   6.920
10443TIP3   OH231267   5.284   2.760   5.701
10443TIP3    H131268   5.342   2.822   5.751
10443TIP3    H231269   5.310   2.782   5.608
10444TIP3   OH231270   4.706   2.984   7.074
10444TIP3    H131271   4.709   3.071   7.117
10444TIP3    H231272   4.610   2.963   7.084
10445TIP3   OH231273   5.027   3.439   5.979
10445TIP3    H131274   5.109   3.491   5.987
10445TIP3    H231275   4.968   3.501   5.934
10446TIP3   OH231276   4.742   3.595   7.056
10446TIP3    H131277   4.710   3.595   6.964
10446TIP3    H231278   4.662   3.574   7.107
10447TIP3   OH231279   5.798   2.000   5.749
10447TIP3    H131280   5.717   2.022   5.800
10447TIP3    H231281   5.813   2.083   5.699
10448TIP3   OH231282   4.540   2.744   6.099
10448TIP3    H131283   4.474   2.788   6.041
10448TIP3    H231284   4.504   2.655   6.105
10449TIP3   OH231285   5.598   3.367   5.299
10449TIP3    H131286   5.607   3.464   5.282
10449TIP3    H231287   5.691   3.338   5.290
10450TIP3   OH231288   4.323   3.129   7.003
10450TIP3    H131289   4.256   3.106   6.935
10450TIP3    H231290   4.361   3.041   7.026
10451TIP3   OH231291   4.177   3.318   6.636
10451TIP3    H131292   4.272   3.312   6.623
10451TIP3    H231293   4.169   3.398   6.691
10452TIP3   OH231294   6.041   3.773   6.693
10452TIP3    H131295   6.040   3.676   6.707
10452TIP3    H231296   5.958   3.798   6.739
10453TIP3   OH231297   5.146   3.558   6.826
10453TIP3    H131298   5.144   3.650   6.859
10453TIP3    H231299   5.076   3.517   6.881
10454TIP3   OH231300   4.909   3.684   5.779
10454TIP3    H131301   4.863   3.665   5.695
10454TIP3    H231302   4.875   3.773   5.802
10455TIP3   OH231303   4.346   3.535   6.164
10455TIP3    H131304   4.393   3.525   6.250
10455TIP3    H231305   4.294   3.452   6.162
10456TIP3   OH231306   5.108   3.588   5.418
10456TIP3    H131307   5.167   3.518   5.381
10456TIP3    H231308   5.144   3.597   5.509
10457TIP3   OH231309   5.161   3.636   5.688
10457TIP3    H131310   5.072   3.645   5.730
10457TIP3    H231311   5.212   3.597   5.761
10458TIP3   OH231312   5.929   2.902   6.968
10458TIP3    H131313   5.849   2.911   6.915
10458TIP3    H231314   5.949   2.807   6.957
10459TIP3   OH231315   4.526   3.314   6.995
10459TIP3    H131316   4.578   3.291   7.074
10459TIP3    H231317   4.453   3.249   6.999
10460TIP3   OH231318   4.926   2.132   6.778
10460TIP3    H131319   4.837   2.103   6.750
10460TIP3    H231320   4.901   2.214   6.824
10461TIP3   OH231321   5.463   2.248   6.971
10461TIP3    H131322   5.532   2.220   7.034
10461TIP3    H231323   5.380   2.228   7.020
10462TIP3   OH231324   5.697   2.675   6.887
10462TIP3    H131325   5.648   2.673   6.973
10462TIP3    H231326   5.676   2.764   6.852
10463TIP3   OH231327   5.365   2.808   5.448
10463TIP3    H131328   5.325   2.783   5.363
10463TIP3    H231329   5.445   2.855   5.418
10464TIP3   OH231330   5.070   2.179   5.748
10464TIP3    H131331   5.037   2.176   5.840
10464TIP3    H231332   5.031   2.097   5.713
10465TIP3   OH231333   4.857   2.649   6.795
10465TIP3    H131334   4.808   2.672   6.877
10465TIP3    H231335   4.842   2.731   6.741
10466TIP3   OH231336   4.743   2.535   6.309
10466TIP3    H131337   4.650   2.509   6.326
10466TIP3    H231338   4.755   2.495   6.220
10467TIP3   OH231339   5.232   2.621   6.038
10467TIP3    H131340   5.181   2.692   5.994
10467TIP3    H231341   5.287   2.587   5.964
10468TIP3   OH231342   5.408   2.898   7.122
10468TIP3    H131343   5.386   2.824   7.184
10468TIP3    H231344   5.502   2.912   7.143
10469TIP3   OH231345   5.387   2.647   6.275
10469TIP3    H131346   5.327   2.675   6.203
10469TIP3    H231347   5.424   2.567   6.232
10470TIP3   OH231348   4.676   2.678   7.004
10470TIP3    H131349   4.711   2.740   7.070
10470TIP3    H231350   4.668   2.596   7.056
10471TIP3   OH231351   4.726   2.155   5.712
10471TIP3    H131352   4.717   2.155   5.810
10471TIP3    H231353   4.650   2.210   5.686
10472TIP3   OH231354   4.271   2.196   6.588
10472TIP3    H131355   4.345   2.231   6.640
10472TIP3    H231356   4.312   2.170   6.504
10473TIP3   OH231357   4.238   2.179   6.105
10473TIP3    H131358   4.283   2.216   6.026
10473TIP3    H231359   4.178   2.254   6.124
10474TIP3   OH231360   5.397   2.894   6.697
10474TIP3    H131361   5.432   2.823   6.638
10474TIP3    H231362   5.369   2.840   6.774
10475TIP3   OH231363   5.072   2.358   6.370
10475TIP3    H131364   4.992   2.356   6.426
10475TIP3    H231365   5.143   2.351   6.436
10476TIP3   OH231366   4.503   2.413   6.378
10476TIP3    H131367   4.409   2.420   6.349
10476TIP3    H231368   4.528   2.322   6.353
10477TIP3   OH231369   4.770   2.409   6.067
10477TIP3    H131370   4.865   2.423   6.046
10477TIP3    H231371   4.725   2.431   5.983
10478TIP3   OH231372   5.560   2.435   6.574
10478TIP3    H131373   5.526   2.446   6.665
10478TIP3    H231374   5.495   2.373   6.537
10479TIP3   OH231375   4.617   2.444   5.843
10479TIP3    H131376   4.548   2.398   5.792
10479TIP3    H231377   4.670   2.482   5.770
10480TIP3   OH231378   5.733   4.122   6.792
10480TIP3    H131379   5.731   4.147   6.698
10480TIP3    H231380   5.812   4.170   6.823
10481TIP3   OH231381   4.688   3.234   7.212
10481TIP3    H131382   4.769   3.261   7.260
10481TIP3    H231383   4.625   3.228   7.286
10482TIP3   OH231384   5.152   2.686   6.467
10482TIP3    H131385   5.226   2.649   6.415
10482TIP3    H231386   5.162   2.641   6.552
10483TIP3   OH231387   4.673   2.174   6.347
10483TIP3    H131388   4.639   2.094   6.394
10483TIP3    H231389   4.722   2.135   6.274
10484TIP3   OH231390   5.129   2.582   6.760
10484TIP3    H131391   5.039   2.620   6.772
10484TIP3    H231392   5.187   2.644   6.808
10485TIP3   OH231393   4.864   2.974   5.851
10485TIP3    H131394   4.792   2.907   5.840
10485TIP3    H231395   4.845   3.006   5.942
10486TIP3   OH231396   5.764   3.210   6.480
10486TIP3    H131397   5.789   3.260   6.399
10486TIP3    H231398   5.680   3.167   6.453
10487TIP3   OH231399   5.323   2.281   5.723
10487TIP3    H131400   5.226   2.264   5.726
10487TIP3    H231401   5.330   2.377   5.740
10488TIP3   OH231402   5.261   3.289   6.850
10488TIP3    H131403   5.296   3.272   6.938
10488TIP3    H231404   5.227   3.380   6.857
10489TIP3   OH231405   5.392   2.533   5.822
10489TIP3    H131406   5.488   2.540   5.835
10489TIP3    H231407   5.372   2.612   5.767
10490TIP3   OH231408   4.558   2.996   6.527
10490TIP3    H131409   4.595   2.968   6.441
10490TIP3    H231410   4.604   2.936   6.588
10491TIP3   OH231411   5.012   3.123   5.677
10491TIP3    H131412   4.963   3.208   5.681
10491TIP3    H231413   4.957   3.067   5.736
10492TIP3   OH231414   4.439   2.917   7.142
10492TIP3    H131415   4.460   2.902   7.236
10492TIP3    H231416   4.371   2.849   7.126
10493TIP3   OH231417   5.167   3.031   7.161
10493TIP3    H131418   5.108   2.972   7.111
10493TIP3    H231419   5.255   2.996   7.134
10494TIP3   OH231420   5.424   3.550   6.746
10494TIP3    H131421   5.327   3.550   6.759
10494TIP3    H231422   5.452   3.603   6.824
10495TIP3   OH231423   5.829   2.618   5.657
10495TIP3    H131424   5.769   2.575   5.591
10495TIP3    H231425   5.838   2.704   5.614
10496TIP3   OH231426   6.054   3.483   6.734
10496TIP3    H131427   5.956   3.476   6.726
10496TIP3    H231428   6.080   3.452   6.644
10497TIP3   OH231429   5.540   3.440   5.565
10497TIP3    H131430   5.502   3.372   5.622
10497TIP3    H231431   5.548   3.396   5.478
10498TIP3   OH231432   5.531   3.072   6.397
10498TIP3    H131433   5.437   3.047   6.411
10498TIP3    H231434   5.564   2.992   6.353
10499TIP3   OH231435   4.660   3.301   6.156
10499TIP3    H131436   4.660   3.381   6.100
10499TIP3    H231437   4.566   3.280   6.160
10500TIP3   OH231438   4.225   2.603   5.859
10500TIP3    H131439   4.270   2.687   5.879
10500TIP3    H231440   4.147   2.607   5.919
10501TIP3   OH231441   4.794   3.064   6.096
10501TIP3    H131442   4.761   3.154   6.116
10501TIP3    H231443   4.759   3.013   6.172
10502TIP3   OH231444   4.929   3.642   6.622
10502TIP3    H131445   4.971   3.714   6.571
10502TIP3    H231446   5.006   3.605   6.669
10503TIP3   OH231447   4.578   3.539   6.005
10503TIP3    H131448   4.492   3.548   6.051
10503TIP3    H231449   4.610   3.632   6.007
10504TIP3   OH231450   5.315   3.277   6.581
10504TIP3    H131451   5.305   3.274   6.679
10504TIP3    H231452   5.395   3.224   6.568
10505TIP3   OH231453   5.291   3.172   5.463
10505TIP3    H131454   5.343   3.145   5.543
10505TIP3    H231455   5.203   3.141   5.488
10506TIP3   OH231456   5.564   3.809   6.631
10506TIP3    H131457   5.485   3.754   6.624
10506TIP3    H231458   5.549   3.874   6.558
10507TIP3   OH231459   5.631   3.643   5.284
10507TIP3    H131460   5.668   3.713   5.228
10507TIP3    H231461   5.551   3.689   5.316
10508TIP3   OH231462   4.650   2.421   7.148
10508TIP3    H131463   4.553   2.423   7.162
10508TIP3    H231464   4.679   2.365   7.222
10509TIP3   OH231465   5.448   3.104   5.680
10509TIP3    H131466   5.437   3.038   5.752
10509TIP3    H231467   5.545   3.098   5.667
10510TIP3   OH231468   4.368   3.507   6.782
10510TIP3    H131469   4.416   3.425   6.801
10510TIP3    H231470   4.407   3.566   6.847
10511TIP3   OH231471   4.655   3.151   5.464
10511TIP3    H131472   4.670   3.059   5.435
10511TIP3    H231473   4.635   3.138   5.559
10512TIP3   OH231474   4.600   3.155   5.738
10512TIP3    H131475   4.677   3.128   5.790
10512TIP3    H231476   4.605   3.253   5.744
10513TIP3   OH231477   4.336   2.848   5.940
10513TIP3    H131478   4.270   2.893   5.995
10513TIP3    H231479   4.351   2.916   5.871
10514TIP3   OH231480   5.486   2.487   6.833
10514TIP3    H131481   5.569   2.525   6.866
10514TIP3    H231482   5.476   2.405   6.887
10515TIP3   OH231483   5.368   2.234   5.999
10515TIP3    H131484   5.354   2.255   5.905
10515TIP3    H231485   5.407   2.317   6.033
10516TIP3   OH231486   4.868   3.352   5.686
10516TIP3    H131487   4.781   3.379   5.720
10516TIP3    H231488   4.883   3.421   5.620
10517TIP3   OH231489   5.053   2.417   6.099
10517TIP3    H131490   5.118   2.489   6.081
10517TIP3    H231491   5.061   2.409   6.196
10518TIP3   OH231492   5.326   2.733   6.905
10518TIP3    H131493   5.351   2.784   6.984
10518TIP3    H231494   5.381   2.653   6.914
10519TIP3   OH231495   5.199   2.138   6.199
10519TIP3    H131496   5.195   2.214   6.259
10519TIP3    H231497   5.261   2.173   6.130
10520TIP3   OH231498   4.614   3.429   5.752
10520TIP3    H131499   4.583   3.498   5.690
10520TIP3    H231500   4.597   3.472   5.839
10521TIP3   OH231501   4.711   2.142   5.991
10521TIP3    H131502   4.710   2.233   6.027
10521TIP3    H231503   4.807   2.124   5.997
10522TIP3   OH231504   5.967   2.638   6.887
10522TIP3    H131505   5.868   2.634   6.890
10522TIP3    H231506   5.983   2.589   6.805
10523TIP3   OH231507   5.614   2.831   6.272
10523TIP3    H131508   5.540   2.769   6.285
10523TIP3    H231509   5.687   2.786   6.320
10524TIP3   OH231510   4.331   3.055   5.744
10524TIP3    H131511   4.401   3.122   5.753
10524TIP3    H231512   4.373   2.997   5.677
10525TIP3   OH231513   4.271   2.332   5.881
10525TIP3    H131514   4.275   2.430   5.877
10525TIP3    H231515   4.193   2.314   5.827
10526TIP3   OH231516   5.585   3.786   6.223
10526TIP3    H131517   5.543   3.833   6.148
10526TIP3    H231518   5.680   3.805   6.203
10527TIP3   OH231519   4.660   2.053   6.751
10527TIP3    H131520   4.631   2.020   6.663
10527TIP3    H231521   4.650   1.974   6.807
10528TIP3   OH231522   4.200   3.274   6.129
10528TIP3    H131523   4.131   3.303   6.190
10528TIP3    H231524   4.169   3.315   6.045
10529TIP3   OH231525   4.357   3.792   7.220
10529TIP3    H131526   4.446   3.759   7.241
10529TIP3    H231527   4.313   3.706   7.206
10530TIP3   OH231528   4.818   3.786   7.246
10530TIP3    H131529   4.913   3.776   7.262
10530TIP3    H231530   4.804   3.719   7.176
10531TIP3   OH231531   4.821   3.353   5.377
10531TIP3    H131532   4.765   3.280   5.413
10531TIP3    H231533   4.895   3.301   5.341
10532TIP3   OH231534   5.476   3.685   6.982
10532TIP3    H131535   5.469   3.615   7.051
10532TIP3    H231536   5.554   3.735   7.012
10533TIP3   OH231537   5.255   3.394   5.289
10533TIP3    H131538   5.298   3.328   5.346
10533TIP3    H231539   5.311   3.392   5.208
10534TIP3   OH231540   4.487   3.222   7.403
10534TIP3    H131541   4.504   3.126   7.412
10534TIP3    H231542   4.400   3.222   7.358
10535TIP3   OH231543   4.465   2.869   5.599
10535TIP3    H131544   4.523   2.837   5.670
10535TIP3    H231545   4.531   2.874   5.526
10536TIP3   OH231546   5.093   3.305   7.178
10536TIP3    H131547   5.056   3.324   7.090
10536TIP3    H231548   5.126   3.214   7.169
10537TIP3   OH231549   4.979   3.071   5.407
10537TIP3    H131550   4.981   3.082   5.504
10537TIP3    H231551   4.982   2.973   5.400
10538TIP3   OH231552   5.587   3.317   6.784
10538TIP3    H131553   5.664   3.358   6.740
10538TIP3    H231554   5.519   3.385   6.767
10539TIP3   OH231555   4.608   2.956   7.386
10539TIP3    H131556   4.685   2.903   7.362
10539TIP3    H231557   4.634   2.988   7.475
10540TIP3   OH231558   4.672   2.775   5.817
10540TIP3    H131559   4.647   2.730   5.899
10540TIP3    H231560   4.711   2.702   5.765
10541TIP3   OH231561   4.940   2.836   7.045
10541TIP3    H131562   4.864   2.899   7.047
10541TIP3    H231563   4.993   2.871   6.970
10542TIP3   OH231564   4.775   2.570   5.660
10542TIP3    H131565   4.752   2.575   5.565
10542TIP3    H231566   4.873   2.571   5.654
10543TIP3   OH231567   5.459   3.241   7.180
10543TIP3    H131568   5.539   3.214   7.133
10543TIP3    H231569   5.456   3.175   7.252
10544TIP3   OH231570   5.608   2.897   5.325
10544TIP3    H131571   5.582   2.851   5.243
10544TIP3    H231572   5.572   2.986   5.304
10545TIP3   OH231573   5.064   2.627   7.173
10545TIP3    H131574   5.067   2.548   7.115
10545TIP3    H231575   5.021   2.694   7.114
10546TIP3   OH231576   5.068   2.414   6.982
10546TIP3    H131577   5.097   2.456   6.898
10546TIP3    H231578   4.975   2.392   6.961
10547TIP3   OH231579   5.092   2.948   6.855
10547TIP3    H131580   5.178   2.958   6.812
10547TIP3    H231581   5.038   3.015   6.808
10548TIP3   OH231582   5.677   2.915   7.234
10548TIP3    H131583   5.724   2.831   7.244
10548TIP3    H231584   5.746   2.972   7.197
10549TIP3   OH231585   5.717   3.170   6.971
10549TIP3    H131586   5.660   3.225   6.911
10549TIP3    H231587   5.805   3.190   6.932
10550TIP3   OH231588   4.943   2.737   7.404
10550TIP3    H131589   4.875   2.669   7.420
10550TIP3    H231590   4.978   2.710   7.317
10551TIP3   OH231591   5.200   2.177   7.050
10551TIP3    H131592   5.151   2.259   7.026
10551TIP3    H231593   5.132   2.108   7.037
10552TIP3   OH231594   5.326   2.680   7.265
10552TIP3    H131595   5.315   2.667   7.361
10552TIP3    H231596   5.236   2.656   7.234
10553TIP3   OH231597   5.565   2.633   7.119
10553TIP3    H131598   5.491   2.632   7.183
10553TIP3    H231599   5.640   2.602   7.175
10554TIP3   OH231600   5.790   2.572   7.269
10554TIP3    H131601   5.806   2.476   7.285
10554TIP3    H231602   5.790   2.609   7.360
10555TIP3   OH231603   4.781   2.517   7.459
10555TIP3    H131604   4.790   2.426   7.425
10555TIP3    H231605   4.819   2.507   7.549
10556TIP3   OH231606   5.291   2.185   7.309
10556TIP3    H131607   5.360   2.116   7.302
10556TIP3    H231608   5.254   2.181   7.218
10557TIP3   OH231609   5.359   2.401   7.467
10557TIP3    H131610   5.339   2.330   7.402
10557TIP3    H231611   5.281   2.460   7.459
10558TIP3   OH231612   4.583   3.634   5.567
10558TIP3    H131613   4.678   3.625   5.546
10558TIP3    H231614   4.554   3.681   5.486
10559TIP3   OH231615   4.062   3.012   5.782
10559TIP3    H131616   4.156   3.033   5.766
10559TIP3    H231617   4.055   2.923   5.740
10560TIP3   OH231618   3.977   3.625   6.195
10560TIP3    H131619   3.911   3.564   6.157
10560TIP3    H231620   4.021   3.566   6.260
10561TIP3   OH231621   4.111   3.474   6.382
10561TIP3    H131622   4.098   3.401   6.445
10561TIP3    H231623   4.164   3.535   6.437
10562TIP3   OH231624   5.839   3.875   6.182
10562TIP3    H131625   5.866   3.908   6.270
10562TIP3    H231626   5.903   3.918   6.123
10563TIP3   OH231627   5.867   3.896   6.465
10563TIP3    H131628   5.824   3.808   6.460
10563TIP3    H231629   5.943   3.873   6.521
10564TIP3   OH231630   5.914   3.573   7.037
10564TIP3    H131631   5.842   3.582   7.103
10564TIP3    H231632   5.956   3.661   7.041
10565TIP3   OH231633   5.724   3.084   5.660
10565TIP3    H131634   5.774   3.167   5.645
10565TIP3    H231635   5.765   3.051   5.743
10566TIP3   OH231636   5.860   2.957   5.860
10566TIP3    H131637   5.794   2.913   5.919
10566TIP3    H231638   5.927   2.990   5.924
10567TIP3   OH231639   5.913   3.346   6.291
10567TIP3    H131640   5.968   3.279   6.245
10567TIP3    H231641   5.910   3.419   6.226
10568TIP3   OH231642   5.743   3.646   6.486
10568TIP3    H131643   5.671   3.687   6.538
10568TIP3    H231644   5.694   3.598   6.416
10569TIP3   OH231645   5.819   2.887   5.496
10569TIP3    H131646   5.756   2.871   5.422
10569TIP3    H231647   5.759   2.936   5.556
10570TIP3   OH231648   5.668   2.537   5.453
10570TIP3    H131649   5.616   2.567   5.378
10570TIP3    H231650   5.647   2.441   5.451
10571TIP3   OH231651   5.675   2.811   6.004
10571TIP3    H131652   5.680   2.714   5.997
10571TIP3    H231653   5.660   2.824   6.100
10572TIP3   OH231654   4.297   2.882   6.754
10572TIP3    H131655   4.296   2.850   6.662
10572TIP3    H231656   4.395   2.884   6.771
10573TIP3   OH231657   5.962   3.235   6.864
10573TIP3    H131658   6.033   3.168   6.855
10573TIP3    H231659   5.989   3.302   6.800
10574TIP3   OH231660   6.146   3.038   6.877
10574TIP3    H131661   6.071   2.988   6.916
10574TIP3    H231662   6.219   2.975   6.894
10575TIP3   OH231663   5.610   2.272   5.447
10575TIP3    H131664   5.682   2.236   5.501
10575TIP3    H231665   5.535   2.212   5.466
10576TIP3   OH231666   5.670   2.527   5.900
10576TIP3    H131667   5.709   2.438   5.916
10576TIP3    H231668   5.727   2.556   5.826
10577TIP3   OH231669   5.825   2.704   6.393
10577TIP3    H131670   5.912   2.726   6.353
10577TIP3    H231671   5.843   2.735   6.484
10578TIP3   OH231672   5.896   2.846   6.628
10578TIP3    H131673   5.819   2.882   6.675
10578TIP3    H231674   5.931   2.925   6.582
10579TIP3   OH231675   4.514   2.566   7.422
10579TIP3    H131676   4.612   2.564   7.428
10579TIP3    H231677   4.492   2.482   7.466
10580TIP3   OH231678   6.349   2.437   7.184
10580TIP3    H131679   6.409   2.371   7.143
10580TIP3    H231680   6.322   2.489   7.106
10581TIP3   OH231681   5.777   2.277   5.938
10581TIP3    H131682   5.826   2.261   6.021
10581TIP3    H231683   5.717   2.200   5.937
10582TIP3   OH231684   4.477   2.263   6.762
10582TIP3    H131685   4.539   2.187   6.768
10582TIP3    H231686   4.539   2.337   6.751
10583TIP3   OH231687   4.278   2.535   6.831
10583TIP3    H131688   4.328   2.529   6.747
10583TIP3    H231689   4.307   2.620   6.864
10584TIP3   OH231690   6.221   2.575   6.986
10584TIP3    H131691   6.130   2.611   6.994
10584TIP3    H231692   6.205   2.504   6.922
10585TIP3   OH231693   5.856   2.208   5.572
10585TIP3    H131694   5.896   2.136   5.519
10585TIP3    H231695   5.926   2.276   5.571
10586TIP3   OH231696   4.264   2.038   6.332
10586TIP3    H131697   4.170   2.035   6.358
10586TIP3    H231698   4.261   2.097   6.254
10587TIP3   OH231699   5.422   3.744   5.838
10587TIP3    H131700   5.473   3.731   5.756
10587TIP3    H231701   5.476   3.809   5.885
10588TIP3   OH231702   4.483   2.115   7.146
10588TIP3    H131703   4.433   2.118   7.229
10588TIP3    H231704   4.418   2.155   7.084
10589TIP3   OH231705   4.522   3.559   7.228
10589TIP3    H131706   4.434   3.521   7.208
10589TIP3    H231707   4.540   3.520   7.315
10590TIP3   OH231708   4.702   3.582   6.771
10590TIP3    H131709   4.657   3.658   6.730
10590TIP3    H231710   4.789   3.593   6.728
10591TIP3   OH231711   5.143   3.825   6.909
10591TIP3    H131712   5.187   3.823   6.997
10591TIP3    H231713   5.210   3.875   6.857
10592TIP3   OH231714   5.324   3.976   6.769
10592TIP3    H131715   5.395   3.926   6.726
10592TIP3    H231716   5.376   4.033   6.829
10593TIP3   OH231717   6.112   2.326   6.881
10593TIP3    H131718   6.027   2.322   6.834
10593TIP3    H231719   6.148   2.236   6.863
10594TIP3   OH231720   4.380   3.849   6.794
10594TIP3    H131721   4.290   3.884   6.772
10594TIP3    H231722   4.372   3.836   6.889
10595TIP3   OH231723   4.615   3.815   6.653
10595TIP3    H131724   4.529   3.834   6.697
10595TIP3    H231725   4.596   3.845   6.562
10596TIP3   OH231726   5.039   3.842   6.452
10596TIP3    H131727   4.971   3.861   6.385
10596TIP3    H231728   5.052   3.929   6.493
10597TIP3   OH231729   5.309   3.781   6.504
10597TIP3    H131730   5.216   3.799   6.483
10597TIP3    H231731   5.354   3.855   6.459
10598TIP3   OH231732   5.513   3.972   6.416
10598TIP3    H131733   5.501   4.057   6.368
10598TIP3    H231734   5.541   3.913   6.343
10599TIP3   OH231735   4.289   3.629   6.542
10599TIP3    H131736   4.318   3.601   6.631
10599TIP3    H231737   4.361   3.587   6.488
10600TIP3   OH231738   4.483   3.502   6.399
10600TIP3    H131739   4.500   3.417   6.447
10600TIP3    H231740   4.575   3.538   6.393
10601TIP3   OH231741   4.750   3.595   6.402
10601TIP3    H131742   4.781   3.504   6.388
10601TIP3    H231743   4.799   3.616   6.484
10602TIP3   OH231744   5.322   2.251   6.484
10602TIP3    H131745   5.283   2.179   6.536
10602TIP3    H231746   5.399   2.207   6.442
10603TIP3   OH231747   5.846   2.129   6.389
10603TIP3    H131748   5.885   2.183   6.316
10603TIP3    H231749   5.752   2.153   6.383
10604TIP3   OH231750   5.943   2.235   6.154
10604TIP3    H131751   6.017   2.182   6.118
10604TIP3    H231752   5.978   2.326   6.140
10605TIP3   OH231753   4.573   1.960   6.503
10605TIP3    H131754   4.481   1.928   6.504
10605TIP3    H231755   4.622   1.875   6.499
10606TIP3   OH231756   4.362   1.831   6.152
10606TIP3    H131757   4.392   1.887   6.078
10606TIP3    H231758   4.335   1.897   6.218
10607TIP3   OH231759   5.018   1.992   6.386
10607TIP3    H131760   5.074   2.039   6.321
10607TIP3    H231761   5.049   2.031   6.469
10608TIP3   OH231762   5.558   2.140   6.368
10608TIP3    H131763   5.565   2.101   6.280
10608TIP3    H231764   5.548   2.060   6.424
10609TIP3   OH231765   5.594   2.064   5.930
10609TIP3    H131766   5.508   2.106   5.943
10609TIP3    H231767   5.580   1.978   5.975
10610TIP3   OH231768   4.077   3.404   5.928
10610TIP3    H131769   3.991   3.370   5.896
10610TIP3    H231770   4.067   3.498   5.904
10611TIP3   OH231771   4.479   1.987   5.915
10611TIP3    H131772   4.527   1.926   5.856
10611TIP3    H231773   4.552   2.042   5.950
10612TIP3   OH231774   4.988   2.166   6.014
10612TIP3    H131775   5.051   2.120   6.073
10612TIP3    H231776   5.010   2.259   6.037
10613TIP3   OH231777   4.849   3.589   5.512
10613TIP3    H131778   4.938   3.611   5.476
10613TIP3    H231779   4.827   3.514   5.452
10614TIP3   OH231780   5.568   3.709   5.607
10614TIP3    H131781   5.562   3.611   5.595
10614TIP3    H231782   5.524   3.740   5.525
10615TIP3   OH231783   4.782   2.239   7.392
10615TIP3    H131784   4.747   2.170   7.451
10615TIP3    H231785   4.876   2.240   7.419
10616TIP3   OH231786   5.031   2.237   7.511
10616TIP3    H131787   5.117   2.217   7.470
10616TIP3    H231788   5.023   2.165   7.577
10617TIP3   OH231789   4.155   3.426   5.567
10617TIP3    H131790   4.157   3.447   5.662
10617TIP3    H231791   4.242   3.384   5.553
10618TIP3   OH231792   5.857   2.302   7.300
10618TIP3    H131793   5.877   2.270   7.390
10618TIP3    H231794   5.946   2.298   7.258
10619TIP3   OH231795   5.794   3.852   6.793
10619TIP3    H131796   5.715   3.822   6.743
10619TIP3    H231797   5.774   3.948   6.798
10620TIP3   OH231798   7.061   3.228   5.557
10620TIP3    H131799   7.029   3.318   5.533
10620TIP3    H231800   6.988   3.174   5.522
10621TIP3   OH231801   7.060   3.227   5.944
10621TIP3    H131802   7.094   3.196   6.029
10621TIP3    H231803   7.022   3.146   5.907
10622TIP3   OH231804   6.357   3.118   6.308
10622TIP3    H131805   6.386   3.048   6.370
10622TIP3    H231806   6.438   3.171   6.302
10623TIP3   OH231807   7.306   3.529   5.621
10623TIP3    H131808   7.287   3.457   5.683
10623TIP3    H231809   7.334   3.601   5.680
10624TIP3   OH231810   6.332   3.528   6.028
10624TIP3    H131811   6.322   3.431   6.031
10624TIP3    H231812   6.428   3.537   6.020
10625TIP3   OH231813   6.041   2.741   5.800
10625TIP3    H131814   5.989   2.815   5.834
10625TIP3    H231815   5.971   2.677   5.779
10626TIP3   OH231816   6.099   3.018   5.986
10626TIP3    H131817   6.143   2.939   6.024
10626TIP3    H231818   6.173   3.062   5.942
10627TIP3   OH231819   6.958   3.992   5.640
10627TIP3    H131820   7.000   3.920   5.589
10627TIP3    H231821   6.943   3.949   5.725
10628TIP3   OH231822   6.858   3.451   5.989
10628TIP3    H131823   6.897   3.373   5.945
10628TIP3    H231824   6.942   3.498   6.012
10629TIP3   OH231825   7.869   2.772   5.987
10629TIP3    H131826   7.900   2.852   6.035
10629TIP3    H231827   7.898   2.792   5.896
10630TIP3   OH231828   7.270   2.960   6.016
10630TIP3    H131829   7.308   2.872   6.039
10630TIP3    H231830   7.238   2.941   5.926
10631TIP3   OH231831   6.610   2.616   5.982
10631TIP3    H131832   6.588   2.686   5.917
10631TIP3    H231833   6.562   2.540   5.943
10632TIP3   OH231834   7.306   2.703   5.608
10632TIP3    H131835   7.376   2.686   5.675
10632TIP3    H231836   7.361   2.737   5.535
10633TIP3   OH231837   6.245   2.814   6.091
10633TIP3    H131838   6.327   2.793   6.141
10633TIP3    H231839   6.260   2.756   6.012
10634TIP3   OH231840   6.684   3.012   5.891
10634TIP3    H131841   6.779   2.987   5.902
10634TIP3    H231842   6.647   2.928   5.857
10635TIP3   OH231843   7.946   2.969   6.159
10635TIP3    H131844   7.862   3.018   6.160
10635TIP3    H231845   7.940   2.917   6.242
10636TIP3   OH231846   6.611   2.598   6.422
10636TIP3    H131847   6.547   2.625   6.353
10636TIP3    H231848   6.556   2.606   6.502
10637TIP3   OH231849   6.954   3.449   5.424
10637TIP3    H131850   6.906   3.425   5.343
10637TIP3    H231851   6.906   3.530   5.451
10638TIP3   OH231852   6.713   3.371   6.212
10638TIP3    H131853   6.652   3.438   6.249
10638TIP3    H231854   6.755   3.420   6.138
10639TIP3   OH231855   7.512   2.706   5.787
10639TIP3    H131856   7.500   2.664   5.873
10639TIP3    H231857   7.567   2.783   5.810
10640TIP3   OH231858   6.477   2.710   6.204
10640TIP3    H131859   6.542   2.779   6.229
10640TIP3    H231860   6.527   2.667   6.130
10641TIP3   OH231861   6.542   3.566   6.313
10641TIP3    H131862   6.515   3.652   6.275
10641TIP3    H231863   6.463   3.548   6.368
10642TIP3   OH231864   5.943   3.242   5.548
10642TIP3    H131865   5.906   3.273   5.462
10642TIP3    H231866   5.975   3.327   5.584
10643TIP3   OH231867   7.376   3.773   5.790
10643TIP3    H131868   7.286   3.762   5.830
10643TIP3    H231869   7.364   3.858   5.744
10644TIP3   OH231870   7.656   2.645   6.127
10644TIP3    H131871   7.590   2.715   6.129
10644TIP3    H231872   7.730   2.688   6.078
10645TIP3   OH231873   6.963   2.311   6.136
10645TIP3    H131874   6.945   2.217   6.157
10645TIP3    H231875   6.886   2.353   6.180
10646TIP3   OH231876   7.075   3.818   5.462
10646TIP3    H131877   7.124   3.734   5.444
10646TIP3    H231878   7.137   3.881   5.420
10647TIP3   OH231879   7.219   3.603   5.370
10647TIP3    H131880   7.173   3.525   5.336
10647TIP3    H231881   7.257   3.568   5.454
10648TIP3   OH231882   7.601   3.682   6.132
10648TIP3    H131883   7.587   3.604   6.074
10648TIP3    H231884   7.582   3.756   6.071
10649TIP3   OH231885   6.896   3.076   5.393
10649TIP3    H131886   6.812   3.126   5.376
10649TIP3    H231887   6.935   3.074   5.305
10650TIP3   OH231888   6.851   2.863   5.103
10650TIP3    H131889   6.917   2.914   5.152
10650TIP3    H231890   6.908   2.800   5.056
10651TIP3   OH231891   7.795   3.326   5.980
10651TIP3    H131892   7.710   3.374   5.984
10651TIP3    H231893   7.822   3.344   5.888
10652TIP3   OH231894   7.240   3.162   5.360
10652TIP3    H131895   7.185   3.185   5.438
10652TIP3    H231896   7.323   3.135   5.404
10653TIP3   OH231897   7.473   3.201   6.274
10653TIP3    H131898   7.466   3.287   6.319
10653TIP3    H231899   7.386   3.197   6.229
10654TIP3   OH231900   6.477   3.154   5.784
10654TIP3    H131901   6.460   3.098   5.708
10654TIP3    H231902   6.555   3.109   5.823
10655TIP3   OH231903   6.599   3.567   5.926
10655TIP3    H131904   6.579   3.536   5.837
10655TIP3    H231905   6.689   3.530   5.942
10656TIP3   OH231906   6.601   3.131   6.132
10656TIP3    H131907   6.640   3.102   6.047
10656TIP3    H231908   6.650   3.214   6.151
10657TIP3   OH231909   7.135   3.766   5.910
10657TIP3    H131910   7.121   3.845   5.966
10657TIP3    H231911   7.118   3.692   5.972
10658TIP3   OH231912   6.746   3.684   6.457
10658TIP3    H131913   6.684   3.746   6.503
10658TIP3    H231914   6.682   3.631   6.406
10659TIP3   OH231915   7.081   3.016   5.187
10659TIP3    H131916   7.138   3.078   5.238
10659TIP3    H231917   7.107   3.039   5.094
10660TIP3   OH231918   6.501   3.242   6.558
10660TIP3    H131919   6.504   3.329   6.603
10660TIP3    H231920   6.406   3.220   6.570
10661TIP3   OH231921   6.824   3.694   5.467
10661TIP3    H131922   6.903   3.751   5.476
10661TIP3    H231923   6.762   3.750   5.419
10662TIP3   OH231924   6.540   3.852   6.544
10662TIP3    H131925   6.505   3.853   6.453
10662TIP3    H231926   6.460   3.830   6.597
10663TIP3   OH231927   7.595   2.257   5.237
10663TIP3    H131928   7.513   2.278   5.287
10663TIP3    H231929   7.609   2.340   5.187
10664TIP3   OH231930   7.395   3.623   4.785
10664TIP3    H131931   7.404   3.720   4.770
10664TIP3    H231932   7.487   3.593   4.772
10665TIP3   OH231933   6.119   3.384   6.491
10665TIP3    H131934   6.052   3.361   6.423
10665TIP3    H231935   6.156   3.297   6.515
10666TIP3   OH231936   5.973   3.576   6.122
10666TIP3    H131937   6.070   3.571   6.114
10666TIP3    H231938   5.963   3.655   6.178
10667TIP3   OH231939   7.836   4.030   6.178
10667TIP3    H131940   7.837   3.933   6.191
10667TIP3    H231941   7.753   4.053   6.225
10668TIP3   OH231942   6.943   3.812   6.315
10668TIP3    H131943   6.940   3.905   6.346
10668TIP3    H231944   6.870   3.773   6.368
10669TIP3   OH231945   6.709   3.945   5.263
10669TIP3    H131946   6.655   3.922   5.186
10669TIP3    H231947   6.672   4.031   5.291
10670TIP3   OH231948   6.141   3.791   5.651
10670TIP3    H131949   6.190   3.782   5.736
10670TIP3    H231950   6.084   3.713   5.655
10671TIP3   OH231951   6.907   3.846   4.904
10671TIP3    H131952   6.964   3.775   4.869
10671TIP3    H231953   6.938   3.853   4.996
10672TIP3   OH231954   6.959   3.894   5.173
10672TIP3    H131955   6.869   3.906   5.212
10672TIP3    H231956   7.004   3.847   5.245
10673TIP3   OH231957   7.718   3.152   6.450
10673TIP3    H131958   7.642   3.163   6.391
10673TIP3    H231959   7.727   3.055   6.452
10674TIP3   OH231960   6.323   3.567   6.477
10674TIP3    H131961   6.373   3.550   6.560
10674TIP3    H231962   6.249   3.503   6.484
10675TIP3   OH231963   6.735   2.402   6.258
10675TIP3    H131964   6.651   2.355   6.242
10675TIP3    H231965   6.702   2.471   6.318
10676TIP3   OH231966   7.256   2.506   6.457
10676TIP3    H131967   7.325   2.475   6.520
10676TIP3    H231968   7.173   2.487   6.504
10677TIP3   OH231969   7.500   2.935   6.373
10677TIP3    H131970   7.453   2.933   6.458
10677TIP3    H231971   7.478   3.023   6.337
10678TIP3   OH231972   7.157   3.063   4.931
10678TIP3    H131973   7.121   3.038   4.844
10678TIP3    H231974   7.239   3.108   4.906
10679TIP3   OH231975   6.867   2.438   5.235
10679TIP3    H131976   6.834   2.434   5.327
10679TIP3    H231977   6.829   2.355   5.200
10680TIP3   OH231978   6.655   2.908   6.282
10680TIP3    H131979   6.603   2.925   6.364
10680TIP3    H231980   6.635   2.989   6.230
10681TIP3   OH231981   6.533   2.797   5.790
10681TIP3    H131982   6.443   2.764   5.812
10681TIP3    H231983   6.548   2.752   5.704
10682TIP3   OH231984   7.030   2.875   5.526
10682TIP3    H131985   6.979   2.947   5.482
10682TIP3    H231986   7.084   2.842   5.452
10683TIP3   OH231987   7.204   3.158   6.614
10683TIP3    H131988   7.180   3.083   6.674
10683TIP3    H231989   7.300   3.161   6.628
10684TIP3   OH231990   7.185   2.906   5.760
10684TIP3    H131991   7.123   2.929   5.688
10684TIP3    H231992   7.222   2.824   5.721
10685TIP3   OH231993   6.474   2.931   6.491
10685TIP3    H131994   6.503   2.991   6.561
10685TIP3    H231995   6.461   2.847   6.540
10686TIP3   OH231996   6.523   2.411   5.199
10686TIP3    H131997   6.516   2.409   5.296
10686TIP3    H231998   6.444   2.463   5.175
10687TIP3   OH231999   6.068   2.460   6.066
10687TIP3    H132000   6.142   2.488   6.124
10687TIP3    H232001   6.113   2.417   5.992
10688TIP3   OH232002   6.035   2.432   5.596
10688TIP3    H132003   6.080   2.473   5.519
10688TIP3    H232004   5.971   2.504   5.616
10689TIP3   OH232005   7.199   3.153   6.187
10689TIP3    H132006   7.231   3.082   6.125
10689TIP3    H232007   7.168   3.097   6.261
10690TIP3   OH232008   6.867   2.619   5.858
10690TIP3    H132009   6.787   2.615   5.914
10690TIP3    H232010   6.938   2.604   5.922
10691TIP3   OH232011   6.302   2.668   5.864
10691TIP3    H132012   6.210   2.673   5.831
10691TIP3    H232013   6.328   2.575   5.845
10692TIP3   OH232014   6.568   2.666   5.551
10692TIP3    H132015   6.663   2.679   5.536
10692TIP3    H232016   6.527   2.690   5.465
10693TIP3   OH232017   7.337   2.698   6.056
10693TIP3    H132018   7.310   2.704   6.150
10693TIP3    H232019   7.279   2.628   6.022
10694TIP3   OH232020   6.400   2.711   5.325
10694TIP3    H132021   6.348   2.655   5.266
10694TIP3    H232022   6.463   2.750   5.259
10695TIP3   OH232023   7.530   4.378   6.279
10695TIP3    H132024   7.526   4.402   6.184
10695TIP3    H232025   7.608   4.428   6.309
10696TIP3   OH232026   6.485   3.490   6.698
10696TIP3    H132027   6.564   3.519   6.747
10696TIP3    H232028   6.420   3.486   6.772
10697TIP3   OH232029   6.948   2.945   5.956
10697TIP3    H132030   7.019   2.902   5.906
10697TIP3    H232031   6.952   2.898   6.042
10698TIP3   OH232032   6.466   2.430   5.836
10698TIP3    H132033   6.431   2.354   5.887
10698TIP3    H232034   6.523   2.385   5.772
10699TIP3   OH232035   6.925   2.844   6.237
10699TIP3    H132036   6.834   2.875   6.256
10699TIP3    H232037   6.981   2.902   6.292
10700TIP3   OH232038   6.670   3.228   5.343
10700TIP3    H132039   6.594   3.168   5.332
10700TIP3    H232040   6.646   3.269   5.430
10701TIP3   OH232041   7.559   3.467   5.967
10701TIP3    H132042   7.582   3.516   5.886
10701TIP3    H232043   7.475   3.422   5.942
10702TIP3   OH232044   7.119   2.541   5.202
10702TIP3    H132045   7.023   2.522   5.212
10702TIP3    H232046   7.127   2.635   5.228
10703TIP3   OH232047   7.067   3.553   6.334
10703TIP3    H132048   7.079   3.524   6.425
10703TIP3    H232049   7.022   3.638   6.343
10704TIP3   OH232050   7.188   2.788   5.307
10704TIP3    H132051   7.284   2.795   5.323
10704TIP3    H232052   7.169   2.869   5.255
10705TIP3   OH232053   6.348   3.245   6.014
10705TIP3    H132054   6.392   3.220   5.931
10705TIP3    H232055   6.399   3.194   6.079
10706TIP3   OH232056   6.809   3.382   5.164
10706TIP3    H132057   6.758   3.467   5.167
10706TIP3    H232058   6.753   3.325   5.222
10707TIP3   OH232059   6.236   3.172   6.628
10707TIP3    H132060   6.254   3.157   6.723
10707TIP3    H232061   6.168   3.104   6.611
10708TIP3   OH232062   6.960   3.288   6.647
10708TIP3    H132063   6.898   3.228   6.603
10708TIP3    H232064   7.046   3.250   6.620
10709TIP3   OH232065   7.222   3.815   6.229
10709TIP3    H132066   7.126   3.805   6.243
10709TIP3    H232067   7.248   3.863   6.310
10710TIP3   OH232068   7.630   2.881   5.141
10710TIP3    H132069   7.568   2.836   5.078
10710TIP3    H232070   7.627   2.970   5.101
10711TIP3   OH232071   7.852   3.745   6.217
10711TIP3    H132072   7.754   3.733   6.211
10711TIP3    H232073   7.878   3.710   6.129
10712TIP3   OH232074   7.338   3.699   5.052
10712TIP3    H132075   7.304   3.632   5.114
10712TIP3    H232076   7.344   3.651   4.968
10713TIP3   OH232077   7.327   3.328   5.885
10713TIP3    H132078   7.234   3.302   5.898
10713TIP3    H232079   7.362   3.248   5.841
10714TIP3   OH232080   6.458   3.559   5.646
10714TIP3    H132081   6.460   3.637   5.587
10714TIP3    H232082   6.364   3.537   5.644
10715TIP3   OH232083   6.595   3.323   5.588
10715TIP3    H132084   6.560   3.414   5.600
10715TIP3    H232085   6.560   3.278   5.666
10716TIP3   OH232086   6.725   3.899   6.108
10716TIP3    H132087   6.767   3.972   6.057
10716TIP3    H232088   6.802   3.862   6.155
10717TIP3   OH232089   6.375   3.795   5.494
10717TIP3    H132090   6.289   3.804   5.539
10717TIP3    H232091   6.406   3.888   5.494
10718TIP3   OH232092   7.113   3.534   6.066
10718TIP3    H132093   7.104   3.532   6.164
10718TIP3    H232094   7.187   3.474   6.053
10719TIP3   OH232095   7.088   3.431   4.949
10719TIP3    H132096   7.140   3.404   5.028
10719TIP3    H232097   6.999   3.399   4.975
10720TIP3   OH232098   7.362   4.066   6.119
10720TIP3    H132099   7.284   4.008   6.115
10720TIP3    H232100   7.343   4.129   6.046
10721TIP3   OH232101   7.425   3.898   4.769
10721TIP3    H132102   7.458   3.968   4.709
10721TIP3    H232103   7.345   3.942   4.804
10722TIP3   OH232104   6.443   2.678   6.635
10722TIP3    H132105   6.347   2.661   6.636
10722TIP3    H232106   6.471   2.611   6.699
10723TIP3   OH232107   7.249   3.361   5.164
10723TIP3    H132108   7.237   3.296   5.236
10723TIP3    H232109   7.346   3.356   5.154
10724TIP3   OH232110   6.163   3.760   6.267
10724TIP3    H132111   6.217   3.687   6.302
10724TIP3    H232112   6.190   3.833   6.325
10725TIP3   OH232113   7.283   2.749   6.325
10725TIP3    H132114   7.371   2.780   6.350
10725TIP3    H232115   7.274   2.665   6.376
10726TIP3   OH232116   7.166   2.491   5.485
10726TIP3    H132117   7.153   2.515   5.391
10726TIP3    H232118   7.205   2.573   5.521
10727TIP3   OH232119   6.663   3.611   5.167
10727TIP3    H132120   6.573   3.618   5.204
10727TIP3    H232121   6.668   3.695   5.119
10728TIP3   OH232122   6.848   2.675   5.587
10728TIP3    H132123   6.914   2.745   5.570
10728TIP3    H232124   6.856   2.664   5.684
10729TIP3   OH232125   7.123   2.988   6.390
10729TIP3    H132126   7.148   3.034   6.472
10729TIP3    H232127   7.178   2.907   6.393
10730TIP3   OH232128   6.996   2.396   5.686
10730TIP3    H132129   6.999   2.469   5.750
10730TIP3    H232130   7.057   2.430   5.616
10731TIP3   OH232131   6.412   3.692   5.235
10731TIP3    H132132   6.379   3.763   5.177
10731TIP3    H232133   6.394   3.727   5.324
10732TIP3   OH232134   6.508   2.400   5.475
10732TIP3    H132135   6.507   2.488   5.517
10732TIP3    H232136   6.603   2.379   5.484
10733TIP3   OH232137   7.412   3.088   5.761
10733TIP3    H132138   7.337   3.027   5.773
10733TIP3    H232139   7.484   3.041   5.809
10734TIP3   OH232140   6.107   3.339   5.246
10734TIP3    H132141   6.159   3.419   5.253
10734TIP3    H232142   6.164   3.290   5.180
10735TIP3   OH232143   6.045   2.603   5.375
10735TIP3    H132144   6.106   2.654   5.320
10735TIP3    H232145   5.997   2.547   5.312
10736TIP3   OH232146   7.382   4.045   5.711
10736TIP3    H132147   7.338   4.091   5.635
10736TIP3    H232148   7.476   4.061   5.688
10737TIP3   OH232149   6.463   2.324   6.243
10737TIP3    H132150   6.438   2.261   6.174
10737TIP3    H232151   6.474   2.264   6.321
10738TIP3   OH232152   5.993   3.515   5.615
10738TIP3    H132153   5.927   3.553   5.675
10738TIP3    H232154   5.969   3.561   5.531
10739TIP3   OH232155   6.155   4.073   6.690
10739TIP3    H132156   6.241   4.073   6.737
10739TIP3    H232157   6.134   3.978   6.689
10740TIP3   OH232158   6.634   4.032   6.735
10740TIP3    H132159   6.729   4.013   6.740
10740TIP3    H232160   6.606   3.973   6.663
10741TIP3   OH232161   6.615   3.602   4.863
10741TIP3    H132162   6.577   3.540   4.928
10741TIP3    H232163   6.688   3.549   4.828
10742TIP3   OH232164   7.272   3.943   6.469
10742TIP3    H132165   7.265   3.872   6.537
10742TIP3    H232166   7.349   3.994   6.499
10743TIP3   OH232167   7.054   3.651   4.777
10743TIP3    H132168   7.089   3.580   4.836
10743TIP3    H232169   7.110   3.643   4.698
10744TIP3   OH232170   6.284   3.477   6.890
10744TIP3    H132171   6.301   3.381   6.896
10744TIP3    H232172   6.197   3.479   6.845
10745TIP3   OH232173   6.892   3.564   6.663
10745TIP3    H132174   6.848   3.581   6.578
10745TIP3    H232175   6.920   3.470   6.655
10746TIP3   OH232176   6.774   3.331   4.894
10746TIP3    H132177   6.774   3.338   4.991
10746TIP3    H232178   6.770   3.234   4.884
10747TIP3   OH232179   7.387   3.571   6.276
10747TIP3    H132180   7.459   3.616   6.228
10747TIP3    H232181   7.313   3.631   6.258
10748TIP3   OH232182   6.403   3.215   6.872
10748TIP3    H132183   6.476   3.156   6.848
10748TIP3    H232184   6.432   3.245   6.961
10749TIP3   OH232185   6.488   3.008   5.352
10749TIP3    H132186   6.457   2.921   5.378
10749TIP3    H232187   6.503   2.993   5.257
10750TIP3   OH232188   6.739   3.098   6.537
10750TIP3    H132189   6.659   3.155   6.535
10750TIP3    H232190   6.789   3.131   6.459
10751TIP3   OH232191   6.572   2.819   5.151
10751TIP3    H132192   6.542   2.822   5.057
10751TIP3    H232193   6.669   2.829   5.139
10752TIP3   OH232194   7.263   3.500   6.669
10752TIP3    H132195   7.327   3.459   6.609
10752TIP3    H232196   7.250   3.429   6.735
10753TIP3   OH232197   7.391   3.156   4.810
10753TIP3    H132198   7.371   3.110   4.727
10753TIP3    H232199   7.357   3.245   4.788
10754TIP3   OH232200   6.863   2.886   6.659
10754TIP3    H132201   6.862   2.806   6.602
10754TIP3    H232202   6.817   2.951   6.601
10755TIP3   OH232203   6.867   2.677   6.467
10755TIP3    H132204   6.894   2.712   6.380
10755TIP3    H232205   6.774   2.651   6.450
10756TIP3   OH232206   6.890   3.208   6.343
10756TIP3    H132207   6.973   3.211   6.295
10756TIP3    H232208   6.834   3.272   6.295
10757TIP3   OH232209   7.479   3.171   6.724
10757TIP3    H132210   7.515   3.081   6.728
10757TIP3    H232211   7.549   3.217   6.676
10758TIP3   OH232212   7.513   3.434   6.472
10758TIP3    H132213   7.457   3.485   6.408
10758TIP3    H232214   7.601   3.449   6.432
10759TIP3   OH232215   6.742   2.994   6.892
10759TIP3    H132216   6.674   2.925   6.907
10759TIP3    H232217   6.774   2.969   6.803
10760TIP3   OH232218   6.994   2.441   6.536
10760TIP3    H132219   6.949   2.526   6.515
10760TIP3    H232220   6.929   2.377   6.505
10761TIP3   OH232221   7.120   2.938   6.751
10761TIP3    H132222   7.103   2.922   6.846
10761TIP3    H232223   7.032   2.914   6.716
10762TIP3   OH232224   7.365   2.902   6.608
10762TIP3    H132225   7.289   2.891   6.668
10762TIP3    H232226   7.439   2.866   6.661
10763TIP3   OH232227   7.589   2.838   6.753
10763TIP3    H132228   7.603   2.741   6.763
10763TIP3    H232229   7.593   2.869   6.846
10764TIP3   OH232230   6.580   2.780   6.948
10764TIP3    H132231   6.578   2.689   6.911
10764TIP3    H232232   6.616   2.762   7.037
10765TIP3   OH232233   7.092   2.443   6.793
10765TIP3    H132234   7.155   2.370   6.783
10765TIP3    H232235   7.049   2.441   6.705
10766TIP3   OH232236   7.158   2.659   6.949
10766TIP3    H132237   7.136   2.587   6.886
10766TIP3    H232238   7.078   2.717   6.943
10767TIP3   OH232239   6.379   3.900   5.053
10767TIP3    H132240   6.473   3.885   5.031
10767TIP3    H232241   6.350   3.944   4.971
10768TIP3   OH232242   5.855   3.255   5.283
10768TIP3    H132243   5.945   3.289   5.261
10768TIP3    H232244   5.850   3.176   5.224
10769TIP3   OH232245   5.772   3.881   5.684
10769TIP3    H132246   5.707   3.819   5.644
10769TIP3    H232247   5.817   3.821   5.748
10770TIP3   OH232248   5.909   3.728   5.868
10770TIP3    H132249   5.897   3.658   5.934
10770TIP3    H232250   5.961   3.792   5.921
10771TIP3   OH232251   7.638   4.130   5.669
10771TIP3    H132252   7.660   4.160   5.759
10771TIP3    H232253   7.698   4.181   5.614
10772TIP3   OH232254   7.666   4.151   5.950
10772TIP3    H132255   7.618   4.065   5.946
10772TIP3    H232256   7.737   4.126   6.012
10773TIP3   OH232257   7.715   3.829   6.525
10773TIP3    H132258   7.637   3.839   6.583
10773TIP3    H232259   7.754   3.918   6.527
10774TIP3   OH232260   7.528   3.341   5.144
10774TIP3    H132261   7.596   3.404   5.114
10774TIP3    H232262   7.571   3.303   5.224
10775TIP3   OH232263   7.655   3.211   5.350
10775TIP3    H132264   7.588   3.167   5.406
10775TIP3    H232265   7.718   3.246   5.416
10776TIP3   OH232266   7.711   3.604   5.780
10776TIP3    H132267   7.765   3.535   5.736
10776TIP3    H232268   7.700   3.670   5.710
10777TIP3   OH232269   7.540   3.904   5.973
10777TIP3    H132270   7.467   3.943   6.025
10777TIP3    H232271   7.491   3.855   5.903
10778TIP3   OH232272   7.593   3.118   4.992
10778TIP3    H132273   7.521   3.119   4.925
10778TIP3    H232274   7.563   3.193   5.048
10779TIP3   OH232275   7.464   2.791   4.945
10779TIP3    H132276   7.418   2.825   4.868
10779TIP3    H232277   7.441   2.695   4.940
10780TIP3   OH232278   7.468   3.067   5.492
10780TIP3    H132279   7.476   2.970   5.485
10780TIP3    H232280   7.454   3.079   5.589
10781TIP3   OH232281   6.094   3.143   6.239
10781TIP3    H132282   6.093   3.108   6.148
10781TIP3    H232283   6.191   3.142   6.258
10782TIP3   OH232284   7.762   3.497   6.366
10782TIP3    H132285   7.829   3.425   6.353
10782TIP3    H232286   7.781   3.555   6.291
10783TIP3   OH232287   7.939   3.295   6.373
10783TIP3    H132288   7.865   3.237   6.399
10783TIP3    H232289   8.014   3.233   6.389
10784TIP3   OH232290   7.406   2.526   4.933
10784TIP3    H132291   7.480   2.493   4.987
10784TIP3    H232292   7.333   2.465   4.955
10785TIP3   OH232293   7.466   2.784   5.386
10785TIP3    H132294   7.505   2.694   5.402
10785TIP3    H232295   7.524   2.815   5.315
10786TIP3   OH232296   7.624   2.959   5.881
10786TIP3    H132297   7.710   2.984   5.840
10786TIP3    H232298   7.641   2.988   5.973
10787TIP3   OH232299   7.697   3.101   6.117
10787TIP3    H132300   7.617   3.134   6.161
10787TIP3    H232301   7.732   3.180   6.071
10788TIP3   OH232302   6.313   2.831   6.923
10788TIP3    H132303   6.411   2.820   6.917
10788TIP3    H232304   6.289   2.742   6.956
10789TIP3   OH232305   8.164   2.692   6.646
10789TIP3    H132306   8.190   2.609   6.602
10789TIP3    H232307   8.114   2.734   6.572
10790TIP3   OH232308   7.573   2.534   5.425
10790TIP3    H132309   7.622   2.518   5.508
10790TIP3    H232310   7.513   2.456   5.424
10791TIP3   OH232311   6.270   2.520   6.246
10791TIP3    H132312   6.330   2.443   6.253
10791TIP3    H232313   6.335   2.592   6.238
10792TIP3   OH232314   6.070   2.796   6.311
10792TIP3    H132315   6.125   2.787   6.230
10792TIP3    H232316   6.111   2.871   6.355
10793TIP3   OH232317   7.652   2.466   5.058
10793TIP3    H132318   7.692   2.394   5.004
10793TIP3    H232319   7.721   2.535   5.055
10794TIP3   OH232320   6.059   2.290   5.823
10794TIP3    H132321   5.966   2.287   5.850
10794TIP3    H232322   6.056   2.349   5.745
10795TIP3   OH232323   7.221   4.000   5.325
10795TIP3    H132324   7.273   3.986   5.243
10795TIP3    H232325   7.274   4.065   5.373
10796TIP3   OH232326   6.266   2.449   6.666
10796TIP3    H132327   6.241   2.376   6.724
10796TIP3    H232328   6.213   2.431   6.587
10797TIP3   OH232329   6.320   3.805   6.710
10797TIP3    H132330   6.228   3.778   6.692
10797TIP3    H232331   6.329   3.784   6.803
10798TIP3   OH232332   6.499   3.838   6.258
10798TIP3    H132333   6.451   3.913   6.219
10798TIP3    H232334   6.585   3.851   6.213
10799TIP3   OH232335   6.941   4.079   6.395
10799TIP3    H132336   6.983   4.080   6.484
10799TIP3    H232337   7.006   4.131   6.343
10800TIP3   OH232338   7.119   4.233   6.256
10800TIP3    H132339   7.189   4.181   6.212
10800TIP3    H232340   7.173   4.289   6.316
10801TIP3   OH232341   6.174   4.092   6.282
10801TIP3    H132342   6.084   4.125   6.258
10801TIP3    H232343   6.185   4.135   6.368
10802TIP3   OH232344   6.411   4.072   6.140
10802TIP3    H132345   6.323   4.084   6.184
10802TIP3    H232346   6.392   4.104   6.050
10803TIP3   OH232347   6.836   4.098   5.938
10803TIP3    H132348   6.766   4.116   5.872
10803TIP3    H232349   6.847   4.187   5.979
10804TIP3   OH232350   7.105   4.040   5.991
10804TIP3    H132351   7.010   4.055   5.971
10804TIP3    H232352   7.147   4.115   5.945
10805TIP3   OH232353   7.316   4.231   5.904
10805TIP3    H132354   7.299   4.315   5.855
10805TIP3    H232355   7.339   4.170   5.831
10806TIP3   OH232356   6.085   3.886   6.026
10806TIP3    H132357   6.111   3.859   6.116
10806TIP3    H232358   6.157   3.842   5.975
10807TIP3   OH232359   6.280   3.758   5.885
10807TIP3    H132360   6.296   3.674   5.933
10807TIP3    H232361   6.371   3.794   5.879
10808TIP3   OH232362   6.547   3.853   5.887
10808TIP3    H132363   6.577   3.761   5.873
10808TIP3    H232364   6.593   3.872   5.971
10809TIP3   OH232365   7.112   2.503   5.967
10809TIP3    H132366   7.075   2.432   6.023
10809TIP3    H232367   7.192   2.461   5.929
10810TIP3   OH232368   7.643   2.375   5.869
10810TIP3    H132369   7.682   2.435   5.802
10810TIP3    H232370   7.553   2.412   5.879
10811TIP3   OH232371   7.740   2.492   5.640
10811TIP3    H132372   7.814   2.440   5.603
10811TIP3    H232373   7.774   2.583   5.626
10812TIP3   OH232374   6.368   2.216   5.980
10812TIP3    H132375   6.277   2.181   5.991
10812TIP3    H232376   6.418   2.132   5.981
10813TIP3   OH232377   6.152   2.088   5.637
10813TIP3    H132378   6.186   2.145   5.567
10813TIP3    H232379   6.130   2.152   5.708
10814TIP3   OH232380   6.811   2.251   5.869
10814TIP3    H132381   6.873   2.299   5.812
10814TIP3    H232382   6.834   2.286   5.957
10815TIP3   OH232383   7.351   2.399   5.856
10815TIP3    H132384   7.363   2.360   5.769
10815TIP3    H232385   7.342   2.318   5.912
10816TIP3   OH232386   7.390   2.320   5.416
10816TIP3    H132387   7.304   2.363   5.432
10816TIP3    H232388   7.376   2.234   5.462
10817TIP3   OH232389   5.873   3.662   5.420
10817TIP3    H132390   5.787   3.629   5.386
10817TIP3    H232391   5.865   3.755   5.394
10818TIP3   OH232392   6.276   2.250   5.397
10818TIP3    H132393   6.324   2.183   5.344
10818TIP3    H232394   6.351   2.300   5.435
10819TIP3   OH232395   6.785   2.423   5.500
10819TIP3    H132396   6.845   2.375   5.560
10819TIP3    H232397   6.807   2.515   5.525
10820TIP3   OH232398   6.645   3.842   4.998
10820TIP3    H132399   6.732   3.865   4.961
10820TIP3    H232400   6.622   3.767   4.938
10821TIP3   OH232401   7.370   3.966   5.092
10821TIP3    H132402   7.363   3.868   5.085
10821TIP3    H232403   7.318   3.993   5.013
10822TIP3   OH232404   6.578   2.515   6.887
10822TIP3    H132405   6.540   2.428   6.907
10822TIP3    H232406   6.670   2.504   6.918
10823TIP3   OH232407   6.830   2.498   7.005
10823TIP3    H132408   6.911   2.466   6.962
10823TIP3    H232409   6.813   2.426   7.070
10824TIP3   OH232410   5.944   3.679   5.056
10824TIP3    H132411   5.954   3.708   5.147
10824TIP3    H232412   6.032   3.640   5.036
10825TIP3   OH232413   7.645   2.567   6.770
10825TIP3    H132414   7.658   2.530   6.860
10825TIP3    H232415   7.735   2.561   6.732
10826TIP3   OH232416   7.589   4.108   6.281
10826TIP3    H132417   7.511   4.077   6.230
10826TIP3    H232418   7.569   4.204   6.285
10827TIP3   OH232419   8.153   3.374   5.792
10827TIP3    H132420   8.177   3.303   5.855
10827TIP3    H232421   8.233   3.427   5.793
10828TIP3   OH232422   8.127   3.789   5.515
10828TIP3    H132423   8.114   3.691   5.514
10828TIP3    H232424   8.223   3.793   5.519
10829TIP3   OH232425   7.833   2.993   5.298
10829TIP3    H132426   7.781   3.073   5.315
10829TIP3    H232427   7.764   2.934   5.262
10830TIP3   OH232428   7.896   3.277   5.477
10830TIP3    H132429   7.942   3.198   5.513
10830TIP3    H232430   7.947   3.293   5.396
10831TIP3   OH232431   8.763   4.221   5.107
10831TIP3    H132432   8.848   4.189   5.071
10831TIP3    H232433   8.776   4.191   5.197
10832TIP3   OH232434   8.650   3.706   5.471
10832TIP3    H132435   8.659   3.653   5.390
10832TIP3    H232436   8.740   3.744   5.482
10833TIP3   OH232437   8.380   2.870   5.484
10833TIP3    H132438   8.394   2.935   5.413
10833TIP3    H232439   8.347   2.794   5.432
10834TIP3   OH232440   8.042   3.071   5.577
10834TIP3    H132441   8.122   3.049   5.629
10834TIP3    H232442   8.057   3.014   5.498
10835TIP3   OH232443   8.464   3.272   5.371
10835TIP3    H132444   8.556   3.238   5.387
10835TIP3    H232445   8.421   3.189   5.341
10836TIP3   OH232446   8.404   2.861   5.918
10836TIP3    H132447   8.345   2.890   5.846
10836TIP3    H232448   8.346   2.877   5.996
10837TIP3   OH232449   8.515   3.625   5.705
10837TIP3    H132450   8.448   3.685   5.747
10837TIP3    H232451   8.552   3.683   5.636
10838TIP3   OH232452   8.267   2.971   5.703
10838TIP3    H132453   8.335   3.039   5.724
10838TIP3    H232454   8.310   2.928   5.625
10839TIP3   OH232455   8.336   3.815   5.799
10839TIP3    H132456   8.305   3.901   5.764
10839TIP3    H232457   8.260   3.793   5.856
10840TIP3   OH232458   7.730   3.511   5.034
10840TIP3    H132459   7.687   3.537   4.950
10840TIP3    H232460   7.761   3.597   5.068
10841TIP3   OH232461   8.259   3.417   5.262
10841TIP3    H132462   8.217   3.358   5.196
10841TIP3    H232463   8.334   3.362   5.293
10842TIP3   OH232464   8.398   3.842   5.406
10842TIP3    H132465   8.366   3.801   5.324
10842TIP3    H232466   8.479   3.791   5.425
10843TIP3   OH232467   8.404   3.385   5.619
10843TIP3    H132468   8.429   3.357   5.528
10843TIP3    H232469   8.445   3.472   5.629
10844TIP3   OH232470   8.538   3.947   5.940
10844TIP3    H132471   8.478   4.004   5.992
10844TIP3    H232472   8.475   3.887   5.897
10845TIP3   OH232473   8.294   3.508   6.039
10845TIP3    H132474   8.296   3.590   6.093
10845TIP3    H232475   8.203   3.477   6.057
10846TIP3   OH232476   8.606   3.988   4.989
10846TIP3    H132477   8.647   4.075   4.991
10846TIP3    H232478   8.557   3.989   4.905
10847TIP3   OH232479   8.330   4.109   6.031
10847TIP3    H132480   8.286   4.098   5.945
10847TIP3    H232481   8.255   4.090   6.093
10848TIP3   OH232482   8.132   3.257   5.071
10848TIP3    H132483   8.064   3.297   5.013
10848TIP3    H232484   8.097   3.169   5.086
10849TIP3   OH232485   7.917   3.641   5.975
10849TIP3    H132486   7.848   3.618   5.910
10849TIP3    H232487   7.952   3.554   6.002
10850TIP3   OH232488   7.767   3.838   5.600
10850TIP3    H132489   7.863   3.828   5.604
10850TIP3    H232490   7.752   3.912   5.661
10851TIP3   OH232491   8.743   4.058   5.795
10851TIP3    H132492   8.739   4.150   5.825
10851TIP3    H232493   8.668   4.019   5.844
10852TIP3   OH232494   8.505   4.197   4.751
10852TIP3    H132495   8.458   4.173   4.669
10852TIP3    H232496   8.470   4.286   4.771
10853TIP3   OH232497   7.938   4.049   5.137
10853TIP3    H132498   7.979   4.037   5.225
10853TIP3    H232499   7.889   3.965   5.128
10854TIP3   OH232500   8.773   4.161   4.693
10854TIP3    H132501   8.678   4.167   4.715
10854TIP3    H232502   8.791   4.067   4.709
10855TIP3   OH232503   8.120   3.824   5.965
10855TIP3    H132504   8.169   3.806   6.048
10855TIP3    H232505   8.047   3.759   5.971
10856TIP3   OH232506   8.505   2.634   5.775
10856TIP3    H132507   8.419   2.612   5.737
10856TIP3    H232508   8.490   2.725   5.805
10857TIP3   OH232509   8.446   3.167   5.773
10857TIP3    H132510   8.393   3.184   5.854
10857TIP3    H232511   8.426   3.247   5.719
10858TIP3   OH232512   8.335   3.051   5.276
10858TIP3    H132513   8.246   3.017   5.301
10858TIP3    H232514   8.348   3.008   5.189
10859TIP3   OH232515   8.260   3.190   5.980
10859TIP3    H132516   8.309   3.238   6.049
10859TIP3    H232517   8.245   3.104   6.025
10860TIP3   OH232518   8.301   2.623   4.675
10860TIP3    H132519   8.295   2.648   4.768
10860TIP3    H232520   8.248   2.692   4.633
10861TIP3   OH232521   7.864   2.715   5.552
10861TIP3    H132522   7.936   2.747   5.611
10861TIP3    H232523   7.911   2.676   5.477
10862TIP3   OH232524   7.831   2.693   5.077
10862TIP3    H132525   7.877   2.732   4.999
10862TIP3    H232526   7.770   2.766   5.098
10863TIP3   OH232527   8.097   2.930   5.346
10863TIP3    H132528   8.002   2.933   5.321
10863TIP3    H232529   8.121   2.836   5.333
10864TIP3   OH232530   8.375   2.928   5.030
10864TIP3    H132531   8.457   2.932   4.980
10864TIP3    H232532   8.309   2.944   4.958
10865TIP3   OH232533   8.211   2.954   4.819
10865TIP3    H132534   8.141   2.907   4.770
10865TIP3    H232535   8.265   2.988   4.745
10866TIP3   OH232536   8.281   3.753   6.188
10866TIP3    H132537   8.362   3.775   6.238
10866TIP3    H232538   8.218   3.742   6.262
10867TIP3   OH232539   8.258   2.685   5.318
10867TIP3    H132540   8.226   2.612   5.376
10867TIP3    H232541   8.305   2.635   5.250
10868TIP3   OH232542   8.714   3.092   5.782
10868TIP3    H132543   8.622   3.117   5.759
10868TIP3    H232544   8.762   3.177   5.781
10869TIP3   OH232545   8.421   3.517   4.824
10869TIP3    H132546   8.378   3.430   4.818
10869TIP3    H232547   8.433   3.528   4.921
10870TIP3   OH232548   8.815   3.780   5.847
10870TIP3    H132549   8.855   3.754   5.930
10870TIP3    H232550   8.808   3.876   5.855
10871TIP3   OH232551   8.157   3.519   5.502
10871TIP3    H132552   8.187   3.481   5.417
10871TIP3    H232553   8.181   3.449   5.565
10872TIP3   OH232554   8.562   3.636   4.621
10872TIP3    H132555   8.542   3.726   4.654
10872TIP3    H232556   8.533   3.582   4.697
10873TIP3   OH232557   8.031   3.431   6.117
10873TIP3    H132558   8.054   3.409   6.210
10873TIP3    H232559   7.966   3.362   6.096
10874TIP3   OH232560   8.765   3.548   6.134
10874TIP3    H132561   8.713   3.494   6.072
10874TIP3    H232562   8.852   3.506   6.130
10875TIP3   OH232563   8.251   3.817   5.139
10875TIP3    H132564   8.250   3.891   5.075
10875TIP3    H232565   8.160   3.786   5.132
10876TIP3   OH232566   7.815   3.116   4.831
10876TIP3    H132567   7.861   3.200   4.854
10876TIP3    H232568   7.738   3.119   4.892
10877TIP3   OH232569   8.406   3.584   5.095
10877TIP3    H132570   8.362   3.670   5.102
10877TIP3    H232571   8.353   3.528   5.155
10878TIP3   OH232572   8.169   4.050   4.978
10878TIP3    H132573   8.083   4.059   5.025
10878TIP3    H232574   8.200   4.143   4.977
10879TIP3   OH232575   8.227   2.938   6.121
10879TIP3    H132576   8.130   2.946   6.136
10879TIP3    H232577   8.250   2.876   6.193
10880TIP3   OH232578   7.962   4.017   5.753
10880TIP3    H132579   8.012   3.941   5.788
10880TIP3    H232580   7.978   4.082   5.822
10881TIP3   OH232581   8.242   3.663   4.440
10881TIP3    H132582   8.249   3.571   4.410
10881TIP3    H232583   8.226   3.651   4.536
10882TIP3   OH232584   8.197   3.665   4.712
10882TIP3    H132585   8.278   3.629   4.753
10882TIP3    H232586   8.208   3.762   4.725
10883TIP3   OH232587   7.929   3.360   4.912
10883TIP3    H132588   7.861   3.404   4.968
10883TIP3    H232589   7.943   3.430   4.845
10884TIP3   OH232590   8.468   3.884   4.678
10884TIP3    H132591   8.375   3.905   4.700
10884TIP3    H232592   8.482   3.944   4.603
10885TIP3   OH232593   8.204   3.943   4.724
10885TIP3    H132594   8.169   4.012   4.663
10885TIP3    H232595   8.187   3.984   4.811
10886TIP3   OH232596   8.312   2.661   4.958
10886TIP3    H132597   8.298   2.745   5.007
10886TIP3    H232598   8.397   2.680   4.916
10887TIP3   OH232599   7.926   3.568   4.716
10887TIP3    H132600   7.999   3.631   4.728
10887TIP3    H232601   7.967   3.510   4.648
10888TIP3   OH232602   7.867   2.847   4.854
10888TIP3    H132603   7.864   2.944   4.849
10888TIP3    H232604   7.789   2.821   4.805
10889TIP3   OH232605   8.239   2.570   5.724
10889TIP3    H132606   8.223   2.531   5.635
10889TIP3    H232607   8.237   2.491   5.781
10890TIP3   OH232608   7.798   3.796   5.105
10890TIP3    H132609   7.727   3.815   5.168
10890TIP3    H232610   7.759   3.831   5.021
10891TIP3   OH232611   7.951   4.329   6.177
10891TIP3    H132612   8.037   4.328   6.223
10891TIP3    H232613   7.929   4.234   6.175
10892TIP3   OH232614   8.430   4.294   6.216
10892TIP3    H132615   8.522   4.266   6.232
10892TIP3    H232616   8.404   4.230   6.146
10893TIP3   OH232617   8.409   3.862   4.356
10893TIP3    H132618   8.345   3.794   4.387
10893TIP3    H232619   8.492   3.813   4.366
10894TIP3   OH232620   8.079   3.728   6.380
10894TIP3    H132621   8.099   3.632   6.378
10894TIP3    H232622   7.994   3.731   6.332
10895TIP3   OH232623   8.062   3.383   4.569
10895TIP3    H132624   8.116   3.350   4.644
10895TIP3    H232625   8.131   3.386   4.499
10896TIP3   OH232626   8.701   3.822   6.147
10896TIP3    H132627   8.654   3.831   6.062
10896TIP3    H232628   8.721   3.725   6.149
10897TIP3   OH232629   8.549   3.566   4.364
10897TIP3    H132630   8.568   3.599   4.455
10897TIP3    H232631   8.482   3.500   4.385
10898TIP3   OH232632   8.213   3.468   6.354
10898TIP3    H132633   8.291   3.414   6.334
10898TIP3    H232634   8.230   3.491   6.447
10899TIP3   OH232635   8.266   3.284   4.789
10899TIP3    H132636   8.238   3.240   4.871
10899TIP3    H232637   8.309   3.210   4.740
10900TIP3   OH232638   8.509   3.334   6.041
10900TIP3    H132639   8.438   3.401   6.046
10900TIP3    H232640   8.566   3.373   5.972
10901TIP3   OH232641   8.372   3.077   4.631
10901TIP3    H132642   8.336   3.083   4.540
10901TIP3    H232643   8.466   3.055   4.609
10902TIP3   OH232644   8.664   3.139   6.157
10902TIP3    H132645   8.665   3.055   6.106
10902TIP3    H232646   8.605   3.194   6.102
10903TIP3   OH232647   8.668   2.915   5.980
10903TIP3    H132648   8.678   2.966   5.897
10903TIP3    H232649   8.578   2.878   5.965
10904TIP3   OH232650   8.663   3.459   5.864
10904TIP3    H132651   8.726   3.430   5.797
10904TIP3    H232652   8.608   3.523   5.815
10905TIP3   OH232653   8.446   3.284   6.328
10905TIP3    H132654   8.423   3.194   6.359
10905TIP3    H232655   8.517   3.266   6.264
10906TIP3   OH232656   8.376   3.037   6.418
10906TIP3    H132657   8.375   2.942   6.393
10906TIP3    H232658   8.417   3.030   6.508
10907TIP3   OH232659   8.165   4.154   4.543
10907TIP3    H132660   8.261   4.144   4.529
10907TIP3    H232661   8.141   4.198   4.459
10908TIP3   OH232662   7.655   3.527   4.753
10908TIP3    H132663   7.750   3.546   4.738
10908TIP3    H232664   7.647   3.437   4.713
10909TIP3   OH232665   7.569   4.143   5.165
10909TIP3    H132666   7.504   4.079   5.129
10909TIP3    H232667   7.614   4.086   5.231
10910TIP3   OH232668   7.700   3.993   5.357
10910TIP3    H132669   7.688   3.917   5.416
10910TIP3    H232670   7.751   4.052   5.416
10911TIP3   OH232671   7.889   3.402   5.725
10911TIP3    H132672   7.887   3.364   5.634
10911TIP3    H232673   7.985   3.398   5.743
10912TIP3   OH232674   8.109   3.094   6.430
10912TIP3    H132675   8.204   3.072   6.416
10912TIP3    H232676   8.070   3.003   6.426
10913TIP3   OH232677   8.064   2.780   5.730
10913TIP3    H132678   8.122   2.702   5.739
10913TIP3    H232679   8.131   2.851   5.729
10914TIP3   OH232680   7.868   3.052   5.799
10914TIP3    H132681   7.920   3.041   5.717
10914TIP3    H232682   7.913   3.125   5.841
10915TIP3   OH232683   7.856   2.547   5.303
10915TIP3    H132684   7.763   2.546   5.334
10915TIP3    H232685   7.851   2.608   5.227
10916TIP3   OH232686   8.066   2.629   6.128
10916TIP3    H132687   8.036   2.656   6.216
10916TIP3    H232688   7.994   2.662   6.072
10917TIP3   OH232689   8.115   4.065   6.197
10917TIP3    H132690   8.024   4.034   6.182
10917TIP3    H232691   8.131   4.039   6.288
10918TIP3   OH232692   8.288   4.084   5.742
10918TIP3    H132693   8.240   4.160   5.703
10918TIP3    H232694   8.380   4.114   5.737
10919TIP3   OH232695   8.730   4.331   5.882
10919TIP3    H132696   8.776   4.329   5.969
10919TIP3    H232697   8.779   4.402   5.836
10920TIP3   OH232698   8.859   4.510   5.715
10920TIP3    H132699   8.906   4.472   5.639
10920TIP3    H232700   8.933   4.546   5.769
10921TIP3   OH232701   7.975   4.354   5.767
10921TIP3    H132702   7.884   4.383   5.744
10921TIP3    H232703   7.982   4.391   5.856
10922TIP3   OH232704   8.203   4.318   5.622
10922TIP3    H132705   8.119   4.333   5.671
10922TIP3    H232706   8.180   4.356   5.535
10923TIP3   OH232707   7.884   4.146   5.514
10923TIP3    H132708   7.908   4.115   5.605
10923TIP3    H232709   7.953   4.098   5.463
10924TIP3   OH232710   8.074   4.013   5.372
10924TIP3    H132711   8.085   3.927   5.421
10924TIP3    H232712   8.166   4.030   5.345
10925TIP3   OH232713   8.357   4.116   5.372
10925TIP3    H132714   8.389   4.025   5.353
10925TIP3    H232715   8.328   4.104   5.463
10926TIP3   OH232716   8.167   2.475   5.469
10926TIP3    H132717   8.076   2.439   5.477
10926TIP3    H232718   8.217   2.391   5.464
10927TIP3   OH232719   7.954   2.345   5.116
10927TIP3    H132720   7.982   2.407   5.046
10927TIP3    H232721   7.927   2.407   5.187
10928TIP3   OH232722   7.670   3.913   4.901
10928TIP3    H132723   7.584   3.879   4.870
10928TIP3    H232724   7.662   4.006   4.870
10929TIP3   OH232725   8.068   2.504   4.891
10929TIP3    H132726   8.111   2.445   4.826
10929TIP3    H232727   8.144   2.558   4.923
10930TIP3   OH232728   8.430   4.102   4.494
10930TIP3    H132729   8.522   4.114   4.460
10930TIP3    H232730   8.403   4.029   4.434
10931TIP3   OH232731   8.387   2.770   6.372
10931TIP3    H132732   8.339   2.707   6.427
10931TIP3    H232733   8.471   2.726   6.356
10932TIP3   OH232734   7.749   3.943   4.544
10932TIP3    H132735   7.749   3.954   4.640
10932TIP3    H232736   7.836   3.898   4.528
10933TIP3   OH232737   1.310   4.270   6.733
10933TIP3    H132738   1.279   4.360   6.712
10933TIP3    H232739   1.234   4.219   6.701
10934TIP3   OH232740   1.308   4.272   7.120
10934TIP3    H132741   1.343   4.244   7.207
10934TIP3    H232742   1.267   4.190   7.088
10935TIP3   OH232743   0.638   4.144   7.440
10935TIP3    H132744   0.617   4.099   7.523
10935TIP3    H232745   0.688   4.221   7.472
10936TIP3   OH232746   1.554   4.572   6.800
10936TIP3    H132747   1.538   4.502   6.865
10936TIP3    H232748   1.585   4.645   6.856
10937TIP3   OH232749   0.585   4.559   7.146
10937TIP3    H132750   0.569   4.464   7.166
10937TIP3    H232751   0.676   4.568   7.177
10938TIP3   OH232752   0.356   4.055   7.120
10938TIP3    H132753   0.392   4.016   7.201
10938TIP3    H232754   0.416   4.129   7.105
10939TIP3   OH232755   1.207   5.035   6.822
10939TIP3    H132756   1.245   4.969   6.761
10939TIP3    H232757   1.205   4.984   6.904
10940TIP3   OH232758   1.108   4.496   7.166
10940TIP3    H132759   1.146   4.418   7.123
10940TIP3    H232760   1.192   4.541   7.190
10941TIP3   OH232761   2.121   3.812   7.162
10941TIP3    H132762   2.146   3.893   7.212
10941TIP3    H232763   2.141   3.839   7.071
10942TIP3   OH232764   1.519   3.998   7.195
10942TIP3    H132765   1.562   3.913   7.218
10942TIP3    H232766   1.488   3.979   7.104
10943TIP3   OH232767   0.862   3.656   7.162
10943TIP3    H132768   0.842   3.728   7.099
10943TIP3    H232769   0.815   3.582   7.117
10944TIP3   OH232770   1.554   3.748   6.783
10944TIP3    H132771   1.626   3.732   6.849
10944TIP3    H232772   1.607   3.783   6.709
10945TIP3   OH232773   0.497   3.858   7.273
10945TIP3    H132774   0.579   3.849   7.324
10945TIP3    H232775   0.521   3.815   7.189
10946TIP3   OH232776   0.936   4.055   7.049
10946TIP3    H132777   1.028   4.030   7.071
10946TIP3    H232778   0.896   3.969   7.025
10947TIP3   OH232779   2.182   4.018   7.327
10947TIP3    H132780   2.101   4.073   7.324
10947TIP3    H232781   2.230   4.058   7.403
10948TIP3   OH232782   0.852   3.628   7.593
10948TIP3    H132783   0.799   3.676   7.526
10948TIP3    H232784   0.808   3.653   7.675
10949TIP3   OH232785   1.195   4.488   6.605
10949TIP3    H132786   1.160   4.475   6.516
10949TIP3    H232787   1.149   4.570   6.632
10950TIP3   OH232788   0.961   4.422   7.393
10950TIP3    H132789   0.900   4.488   7.433
10950TIP3    H232790   1.001   4.471   7.319
10951TIP3   OH232791   1.761   3.751   6.960
10951TIP3    H132792   1.744   3.710   7.046
10951TIP3    H232793   1.814   3.829   6.986
10952TIP3   OH232794   0.733   3.753   7.381
10952TIP3    H132795   0.791   3.830   7.405
10952TIP3    H232796   0.784   3.717   7.305
10953TIP3   OH232797   0.775   4.601   7.511
10953TIP3    H132798   0.716   4.650   7.451
10953TIP3    H232799   0.708   4.560   7.569
10954TIP3   OH232800   1.621   4.817   6.967
10954TIP3    H132801   1.531   4.807   7.005
10954TIP3    H232802   1.612   4.902   6.920
10955TIP3   OH232803   1.914   3.706   7.325
10955TIP3    H132804   1.829   3.744   7.298
10955TIP3    H232805   1.976   3.744   7.259
10956TIP3   OH232806   1.211   3.354   7.309
10956TIP3    H132807   1.196   3.259   7.328
10956TIP3    H232808   1.134   3.394   7.356
10957TIP3   OH232809   1.318   4.865   6.635
10957TIP3    H132810   1.367   4.781   6.619
10957TIP3    H232811   1.383   4.928   6.596
10958TIP3   OH232812   1.461   4.649   6.551
10958TIP3    H132813   1.437   4.568   6.503
10958TIP3    H232814   1.499   4.612   6.634
10959TIP3   OH232815   1.847   4.728   7.308
10959TIP3    H132816   1.838   4.649   7.251
10959TIP3    H232817   1.834   4.801   7.245
10960TIP3   OH232818   1.140   4.122   6.567
10960TIP3    H132819   1.061   4.175   6.546
10960TIP3    H232820   1.186   4.119   6.481
10961TIP3   OH232821   1.099   3.905   6.283
10961TIP3    H132822   1.166   3.958   6.330
10961TIP3    H232823   1.157   3.843   6.235
10962TIP3   OH232824   2.046   4.367   7.155
10962TIP3    H132825   1.962   4.418   7.162
10962TIP3    H232826   2.074   4.391   7.064
10963TIP3   OH232827   1.488   4.204   6.537
10963TIP3    H132828   1.433   4.228   6.615
10963TIP3    H232829   1.572   4.179   6.581
10964TIP3   OH232830   1.722   4.242   7.452
10964TIP3    H132831   1.722   4.322   7.507
10964TIP3    H232832   1.635   4.250   7.408
10965TIP3   OH232833   0.722   4.197   6.954
10965TIP3    H132834   0.681   4.138   6.888
10965TIP3    H232835   0.801   4.145   6.981
10966TIP3   OH232836   0.866   4.628   7.098
10966TIP3    H132837   0.834   4.580   7.019
10966TIP3    H232838   0.952   4.585   7.114
10967TIP3   OH232839   0.904   4.164   7.306
10967TIP3    H132840   0.909   4.155   7.210
10967TIP3    H232841   0.917   4.260   7.321
10968TIP3   OH232842   1.378   4.812   7.087
10968TIP3    H132843   1.372   4.888   7.147
10968TIP3    H232844   1.366   4.736   7.147
10969TIP3   OH232845   0.992   4.732   7.630
10969TIP3    H132846   0.936   4.788   7.687
10969TIP3    H232847   0.924   4.675   7.589
10970TIP3   OH232848   1.327   4.061   6.364
10970TIP3    H132849   1.386   4.122   6.414
10970TIP3    H232850   1.353   4.083   6.271
10971TIP3   OH232851   0.728   4.262   7.714
10971TIP3    H132852   0.746   4.348   7.758
10971TIP3    H232853   0.633   4.273   7.697
10972TIP3   OH232854   1.070   4.743   6.649
10972TIP3    H132855   1.153   4.793   6.650
10972TIP3    H232856   1.015   4.794   6.588
10973TIP3   OH232857   0.774   4.894   7.715
10973TIP3    H132858   0.751   4.899   7.620
10973TIP3    H232859   0.697   4.849   7.753
10974TIP3   OH232860   1.844   3.301   6.414
10974TIP3    H132861   1.762   3.323   6.463
10974TIP3    H232862   1.859   3.384   6.363
10975TIP3   OH232863   0.595   4.037   6.760
10975TIP3    H132864   0.532   4.078   6.697
10975TIP3    H232865   0.552   3.953   6.777
10976TIP3   OH232866   1.648   4.667   5.961
10976TIP3    H132867   1.652   4.764   5.944
10976TIP3    H232868   1.742   4.641   5.950
10977TIP3   OH232869   2.084   5.071   7.356
10977TIP3    H132870   2.085   4.975   7.371
10977TIP3    H232871   2.001   5.095   7.402
10978TIP3   OH232872   1.188   4.860   7.486
10978TIP3    H132873   1.187   4.952   7.521
10978TIP3    H232874   1.119   4.818   7.542
10979TIP3   OH232875   0.950   4.982   6.442
10979TIP3    H132876   0.914   4.960   6.353
10979TIP3    H232877   0.919   5.073   6.455
10980TIP3   OH232878   1.155   4.905   6.091
10980TIP3    H132879   1.210   4.844   6.037
10980TIP3    H232880   1.195   4.895   6.178
10981TIP3   OH232881   1.209   4.943   6.365
10981TIP3    H132882   1.116   4.946   6.397
10981TIP3    H232883   1.251   4.890   6.435
10982TIP3   OH232884   1.971   4.210   7.633
10982TIP3    H132885   1.904   4.213   7.564
10982TIP3    H232886   2.006   4.120   7.624
10983TIP3   OH232887   0.973   3.432   7.433
10983TIP3    H132888   0.884   3.401   7.407
10983TIP3    H232889   0.948   3.515   7.479
10984TIP3   OH232890   1.511   3.554   7.620
10984TIP3    H132891   1.581   3.518   7.680
10984TIP3    H232892   1.428   3.533   7.667
10985TIP3   OH232893   1.741   3.975   7.544
10985TIP3    H132894   1.700   3.973   7.633
10985TIP3    H232895   1.724   4.067   7.515
10986TIP3   OH232896   1.405   4.104   6.109
10986TIP3    H132897   1.370   4.081   6.020
10986TIP3    H232898   1.483   4.156   6.085
10987TIP3   OH232899   1.117   3.481   6.413
10987TIP3    H132900   1.082   3.478   6.503
10987TIP3    H232901   1.077   3.400   6.376
10988TIP3   OH232902   0.906   3.946   7.462
10988TIP3    H132903   0.854   3.971   7.541
10988TIP3    H232904   0.899   4.028   7.407
10989TIP3   OH232905   0.786   3.833   6.972
10989TIP3    H132906   0.692   3.813   6.986
10989TIP3    H232907   0.800   3.795   6.883
10990TIP3   OH232908   1.277   3.921   6.701
10990TIP3    H132909   1.226   3.993   6.657
10990TIP3    H232910   1.332   3.889   6.627
10991TIP3   OH232911   1.462   4.209   7.780
10991TIP3    H132912   1.440   4.127   7.830
10991TIP3    H232913   1.557   4.217   7.800
10992TIP3   OH232914   1.433   3.949   6.938
10992TIP3    H132915   1.372   3.978   6.868
10992TIP3    H232916   1.468   3.868   6.894
10993TIP3   OH232917   0.734   3.971   7.681
10993TIP3    H132918   0.757   4.058   7.719
10993TIP3    H232919   0.654   3.949   7.729
10994TIP3   OH232920   0.774   3.456   6.376
10994TIP3    H132921   0.762   3.457   6.473
10994TIP3    H232922   0.694   3.504   6.346
10995TIP3   OH232923   0.331   3.531   7.242
10995TIP3    H132924   0.413   3.530   7.295
10995TIP3    H232925   0.343   3.458   7.179
10996TIP3   OH232926   0.309   3.532   6.799
10996TIP3    H132927   0.336   3.541   6.705
10996TIP3    H232928   0.298   3.625   6.822
10997TIP3   OH232929   1.442   4.197   7.358
10997TIP3    H132930   1.478   4.126   7.300
10997TIP3    H232931   1.415   4.143   7.435
10998TIP3   OH232932   1.117   3.658   7.033
10998TIP3    H132933   1.037   3.657   7.089
10998TIP3    H232934   1.188   3.654   7.099
10999TIP3   OH232935   0.547   3.704   7.040
10999TIP3    H132936   0.455   3.674   7.042
10999TIP3    H232937   0.595   3.620   7.024
11000TIP3   OH232938   0.815   3.709   6.729
11000TIP3    H132939   0.909   3.725   6.710
11000TIP3    H232940   0.770   3.733   6.645
11001TIP3   OH232941   1.604   3.735   7.234
11001TIP3    H132942   1.573   3.749   7.326
11001TIP3    H232943   1.536   3.674   7.201
11002TIP3   OH232944   0.660   3.747   6.505
11002TIP3    H132945   0.597   3.700   6.448
11002TIP3    H232946   0.717   3.788   6.436
11003TIP3   OH232947   1.778   5.426   7.456
11003TIP3    H132948   1.778   5.445   7.360
11003TIP3    H232949   1.860   5.469   7.485
11004TIP3   OH232950   0.736   4.497   7.844
11004TIP3    H132951   0.807   4.556   7.879
11004TIP3    H232952   0.670   4.500   7.913
11005TIP3   OH232953   1.196   3.987   7.130
11005TIP3    H132954   1.272   3.949   7.082
11005TIP3    H232955   1.204   3.945   7.217
11006TIP3   OH232956   0.715   3.478   7.012
11006TIP3    H132957   0.681   3.398   7.057
11006TIP3    H232958   0.763   3.439   6.937
11007TIP3   OH232959   1.174   3.886   7.418
11007TIP3    H132960   1.085   3.925   7.432
11007TIP3    H232961   1.232   3.947   7.468
11008TIP3   OH232962   0.908   4.274   6.514
11008TIP3    H132963   0.836   4.209   6.503
11008TIP3    H232964   0.891   4.307   6.606
11009TIP3   OH232965   1.811   4.510   7.143
11009TIP3    H132966   1.834   4.560   7.062
11009TIP3    H232967   1.726   4.467   7.118
11010TIP3   OH232968   1.369   3.584   6.382
11010TIP3    H132969   1.272   3.566   6.389
11010TIP3    H232970   1.376   3.679   6.405
11011TIP3   OH232971   1.310   4.594   7.512
11011TIP3    H132972   1.338   4.569   7.600
11011TIP3    H232973   1.272   4.683   7.524
11012TIP3   OH232974   1.437   3.834   6.483
11012TIP3    H132975   1.533   3.841   6.498
11012TIP3    H232976   1.417   3.914   6.431
11013TIP3   OH232977   0.611   4.290   7.196
11013TIP3    H132978   0.655   4.245   7.121
11013TIP3    H232979   0.616   4.225   7.269
11014TIP3   OH232980   1.063   4.425   6.343
11014TIP3    H132981   1.016   4.512   6.348
11014TIP3    H232982   1.004   4.370   6.399
11015TIP3   OH232983   1.213   4.333   7.808
11015TIP3    H132984   1.152   4.270   7.764
11015TIP3    H232985   1.300   4.295   7.781
11016TIP3   OH232986   1.468   4.860   7.403
11016TIP3    H132987   1.372   4.852   7.420
11016TIP3    H232988   1.497   4.909   7.482
11017TIP3   OH232989   1.879   3.926   6.317
11017TIP3    H132990   1.817   3.882   6.255
11017TIP3    H232991   1.875   4.016   6.278
11018TIP3   OH232992   2.100   4.782   7.401
11018TIP3    H132993   2.003   4.770   7.396
11018TIP3    H232994   2.126   4.749   7.312
11019TIP3   OH232995   1.591   4.741   6.228
11019TIP3    H132996   1.552   4.672   6.282
11019TIP3    H232997   1.590   4.702   6.139
11020TIP3   OH232998   1.575   4.374   7.060
11020TIP3    H132999   1.482   4.348   7.074
11020TIP3    H233000   1.610   4.293   7.017
11021TIP3   OH233001   0.711   4.602   6.818
11021TIP3    H133002   0.704   4.679   6.759
11021TIP3    H233003   0.621   4.591   6.850
11022TIP3   OH233004   0.274   3.911   6.533
11022TIP3    H133005   0.331   3.990   6.548
11022TIP3    H233006   0.187   3.950   6.548
11023TIP3   OH233007   0.840   4.362   6.759
11023TIP3    H133008   0.808   4.453   6.779
11023TIP3    H233009   0.805   4.313   6.836
11024TIP3   OH233010   0.981   4.946   7.286
11024TIP3    H133011   1.027   5.014   7.233
11024TIP3    H233012   1.056   4.905   7.332
11025TIP3   OH233013   0.620   4.845   6.671
11025TIP3    H133014   0.539   4.863   6.720
11025TIP3    H233015   0.660   4.935   6.670
11026TIP3   OH233016   1.361   4.580   7.244
11026TIP3    H133017   1.351   4.576   7.341
11026TIP3    H233018   1.439   4.523   7.231
11027TIP3   OH233019   1.337   4.471   6.123
11027TIP3    H133020   1.386   4.447   6.205
11027TIP3    H233021   1.246   4.451   6.148
11028TIP3   OH233022   1.609   5.113   7.298
11028TIP3    H133023   1.532   5.052   7.293
11028TIP3    H233024   1.591   5.173   7.223
11029TIP3   OH233025   1.676   4.944   5.944
11029TIP3    H133026   1.709   5.019   5.893
11029TIP3    H233027   1.594   4.984   5.979
11030TIP3   OH233028   1.497   4.410   6.349
11030TIP3    H133029   1.487   4.341   6.417
11030TIP3    H233030   1.593   4.404   6.333
11031TIP3   OH233031   0.682   4.450   6.122
11031TIP3    H133032   0.727   4.368   6.094
11031TIP3    H233033   0.672   4.435   6.217
11032TIP3   OH233034   0.650   4.458   6.404
11032TIP3    H133035   0.732   4.431   6.450
11032TIP3    H233036   0.658   4.556   6.405
11033TIP3   OH233037   0.398   4.144   6.604
11033TIP3    H133038   0.354   4.196   6.673
11033TIP3    H233039   0.414   4.213   6.536
11034TIP3   OH233040   1.532   3.793   7.492
11034TIP3    H133041   1.615   3.832   7.526
11034TIP3    H233042   1.525   3.710   7.545
11035TIP3   OH233043   1.414   3.535   6.662
11035TIP3    H133044   1.400   3.557   6.568
11035TIP3    H233045   1.453   3.618   6.697
11036TIP3   OH233046   0.919   4.653   6.352
11036TIP3    H133047   0.834   4.692   6.382
11036TIP3    H233048   0.914   4.667   6.256
11037TIP3   OH233049   1.098   3.719   6.762
11037TIP3    H133050   1.162   3.790   6.745
11037TIP3    H233051   1.105   3.710   6.860
11038TIP3   OH233052   1.369   4.033   7.563
11038TIP3    H133053   1.390   4.081   7.645
11038TIP3    H233054   1.424   3.953   7.572
11039TIP3   OH233055   1.244   3.440   6.862
11039TIP3    H133056   1.239   3.516   6.923
11039TIP3    H233057   1.306   3.475   6.794
11040TIP3   OH233058   0.659   4.731   6.415
11040TIP3    H133059   0.630   4.799   6.350
11040TIP3    H233060   0.643   4.776   6.500
11041TIP3   OH233061   0.756   3.444   6.654
11041TIP3    H133062   0.756   3.535   6.690
11041TIP3    H233063   0.852   3.425   6.661
11042TIP3   OH233064   2.010   3.936   7.556
11042TIP3    H133065   1.912   3.934   7.555
11042TIP3    H233066   2.031   3.911   7.466
11043TIP3   OH233067   1.661   4.130   6.938
11043TIP3    H133068   1.585   4.071   6.951
11043TIP3    H233069   1.733   4.083   6.987
11044TIP3   OH233070   0.386   4.366   6.445
11044TIP3    H133071   0.471   4.415   6.434
11044TIP3    H233072   0.389   4.314   6.362
11045TIP3   OH233073   0.295   3.633   6.547
11045TIP3    H133074   0.303   3.731   6.543
11045TIP3    H233075   0.271   3.612   6.456
11046TIP3   OH233076   1.629   5.090   6.886
11046TIP3    H133077   1.587   5.140   6.813
11046TIP3    H233078   1.724   5.109   6.866
11047TIP3   OH233079   0.709   3.350   7.412
11047TIP3    H133080   0.679   3.319   7.324
11047TIP3    H233081   0.695   3.270   7.466
11048TIP3   OH233082   0.864   5.096   7.885
11048TIP3    H133083   0.949   5.084   7.929
11048TIP3    H233084   0.861   5.019   7.825
11049TIP3   OH233085   0.872   4.660   6.074
11049TIP3    H133086   0.823   4.576   6.076
11049TIP3    H233087   0.904   4.660   5.982
11050TIP3   OH233088   1.522   4.993   7.638
11050TIP3    H133089   1.510   4.916   7.698
11050TIP3    H233090   1.602   5.036   7.674
11051TIP3   OH233091   1.324   4.723   5.971
11051TIP3    H133092   1.326   4.634   6.010
11051TIP3    H233093   1.352   4.707   5.880
11052TIP3   OH233094   0.506   4.175   6.269
11052TIP3    H133095   0.569   4.145   6.337
11052TIP3    H233096   0.567   4.179   6.192
11053TIP3   OH233097   1.153   4.606   7.828
11053TIP3    H133098   1.114   4.624   7.741
11053TIP3    H233099   1.182   4.513   7.819
11054TIP3   OH233100   0.972   4.355   6.081
11054TIP3    H133101   1.011   4.378   6.166
11054TIP3    H233102   1.001   4.262   6.071
11055TIP3   OH233103   1.633   4.618   7.447
11055TIP3    H133104   1.709   4.660   7.403
11055TIP3    H233105   1.563   4.683   7.429
11056TIP3   OH233106   0.716   4.076   6.482
11056TIP3    H133107   0.698   4.029   6.565
11056TIP3    H233108   0.754   4.004   6.427
11057TIP3   OH233109   0.990   4.144   7.712
11057TIP3    H133110   0.909   4.197   7.708
11057TIP3    H233111   1.039   4.174   7.632
11058TIP3   OH233112   0.821   3.873   6.324
11058TIP3    H133113   0.794   3.877   6.230
11058TIP3    H233114   0.918   3.875   6.315
11059TIP3   OH233115   1.508   4.537   7.844
11059TIP3    H133116   1.585   4.513   7.790
11059TIP3    H233117   1.507   4.464   7.909
11060TIP3   OH233118   1.642   4.200   5.987
11060TIP3    H133119   1.618   4.155   5.903
11060TIP3    H233120   1.609   4.290   5.965
11061TIP3   OH233121   1.105   3.921   7.835
11061TIP3    H133122   1.097   3.847   7.772
11061TIP3    H233123   1.051   3.991   7.793
11062TIP3   OH233124   1.105   3.723   7.637
11062TIP3    H133125   1.134   3.771   7.557
11062TIP3    H233126   1.012   3.700   7.616
11063TIP3   OH233127   1.140   4.253   7.517
11063TIP3    H133128   1.223   4.258   7.468
11063TIP3    H233129   1.082   4.315   7.469
11064TIP3   OH233130   1.735   4.209   7.891
11064TIP3    H133131   1.773   4.121   7.906
11064TIP3    H233132   1.810   4.254   7.848
11065TIP3   OH233133   1.761   4.471   7.635
11065TIP3    H133134   1.711   4.527   7.571
11065TIP3    H233135   1.853   4.481   7.599
11066TIP3   OH233136   1.246   3.486   7.668
11066TIP3    H133137   1.198   3.571   7.657
11066TIP3    H233138   1.174   3.421   7.659
11067TIP3   OH233139   1.363   3.977   7.886
11067TIP3    H133140   1.343   4.020   7.972
11067TIP3    H233141   1.271   3.948   7.862
11068TIP3   OH233142   1.619   3.934   7.781
11068TIP3    H133143   1.535   3.928   7.829
11068TIP3    H233144   1.685   3.912   7.851
11069TIP3   OH233145   1.816   3.895   7.971
11069TIP3    H133146   1.853   3.805   7.962
11069TIP3    H233147   1.810   3.903   8.069
11070TIP3   OH233148   1.266   3.333   7.901
11070TIP3    H133149   1.319   3.376   7.972
11070TIP3    H233150   1.266   3.403   7.833
11071TIP3   OH233151   0.630   4.932   6.229
11071TIP3    H133152   0.726   4.929   6.209
11071TIP3    H233153   0.600   4.982   6.152
11072TIP3   OH233154   1.882   5.185   6.845
11072TIP3    H133155   1.915   5.209   6.933
11072TIP3    H233156   1.954   5.212   6.786
11073TIP3   OH233157   1.914   5.198   7.129
11073TIP3    H133158   1.868   5.111   7.124
11073TIP3    H233159   1.990   5.171   7.184
11074TIP3   OH233160   1.949   4.883   7.689
11074TIP3    H133161   1.883   4.885   7.761
11074TIP3    H233162   1.997   4.967   7.703
11075TIP3   OH233163   1.775   4.384   6.320
11075TIP3    H133164   1.841   4.450   6.290
11075TIP3    H233165   1.821   4.347   6.399
11076TIP3   OH233166   1.905   4.253   6.524
11076TIP3    H133167   1.837   4.211   6.583
11076TIP3    H233168   1.968   4.291   6.588
11077TIP3   OH233169   1.959   4.648   6.955
11077TIP3    H133170   2.012   4.580   6.908
11077TIP3    H233171   1.955   4.720   6.889
11078TIP3   OH233172   1.788   4.950   7.148
11078TIP3    H133173   1.716   4.985   7.202
11078TIP3    H233174   1.739   4.900   7.079
11079TIP3   OH233175   1.842   4.162   6.169
11079TIP3    H133176   1.770   4.164   6.101
11079TIP3    H233177   1.813   4.237   6.225
11080TIP3   OH233178   1.714   3.834   6.123
11080TIP3    H133179   1.666   3.872   6.048
11080TIP3    H233180   1.690   3.739   6.114
11081TIP3   OH233181   1.717   4.112   6.670
11081TIP3    H133182   1.724   4.015   6.663
11081TIP3    H233183   1.703   4.125   6.766
11082TIP3   OH233184   2.011   4.514   7.524
11082TIP3    H133185   2.089   4.459   7.549
11082TIP3    H233186   2.055   4.586   7.476
11083TIP3   OH233187   1.655   3.568   6.108
11083TIP3    H133188   1.727   3.536   6.165
11083TIP3    H233189   1.580   3.510   6.130
11084TIP3   OH233190   1.714   3.828   6.563
11084TIP3    H133191   1.755   3.739   6.578
11084TIP3    H233192   1.772   3.861   6.492
11085TIP3   OH233193   1.874   3.998   7.059
11085TIP3    H133194   1.959   4.024   7.018
11085TIP3    H233195   1.887   4.036   7.148
11086TIP3   OH233196   1.939   4.147   7.289
11086TIP3    H133197   1.862   4.182   7.339
11086TIP3    H233198   1.974   4.228   7.247
11087TIP3   OH233199   2.411   3.739   7.852
11087TIP3    H133200   2.464   3.677   7.799
11087TIP3    H233201   2.370   3.796   7.782
11088TIP3   OH233202   1.823   3.578   6.601
11088TIP3    H133203   1.870   3.562   6.685
11088TIP3    H233204   1.761   3.501   6.600
11089TIP3   OH233205   0.536   3.563   7.427
11089TIP3    H133206   0.599   3.488   7.429
11089TIP3    H233207   0.597   3.637   7.407
11090TIP3   OH233208   2.259   3.866   7.667
11090TIP3    H133209   2.178   3.914   7.692
11090TIP3    H233210   2.223   3.809   7.596
11091TIP3   OH233211   1.902   3.509   6.237
11091TIP3    H133212   1.941   3.440   6.180
11091TIP3    H233213   1.968   3.581   6.230
11092TIP3   OH233214   0.331   3.362   7.013
11092TIP3    H133215   0.237   3.347   7.029
11092TIP3    H233216   0.330   3.419   6.933
11093TIP3   OH233217   1.473   5.049   6.507
11093TIP3    H133218   1.513   5.027   6.420
11093TIP3    H233219   1.539   5.108   6.544
11094TIP3   OH233220   0.744   4.916   7.432
11094TIP3    H133221   0.735   4.989   7.368
11094TIP3    H233222   0.835   4.889   7.410
11095TIP3   OH233223   1.189   5.125   7.569
11095TIP3    H133224   1.231   5.122   7.658
11095TIP3    H233225   1.256   5.176   7.519
11096TIP3   OH233226   1.369   5.280   7.430
11096TIP3    H133227   1.438   5.225   7.390
11096TIP3    H233228   1.423   5.334   7.492
11097TIP3   OH233229   2.166   3.638   7.521
11097TIP3    H133230   2.074   3.635   7.491
11097TIP3    H233231   2.194   3.544   7.511
11098TIP3   OH233232   0.664   5.138   7.281
11098TIP3    H133233   0.626   5.221   7.316
11098TIP3    H233234   0.603   5.112   7.211
11099TIP3   OH233235   1.087   5.144   7.120
11099TIP3    H133236   1.034   5.165   7.041
11099TIP3    H233237   1.101   5.232   7.160
11100TIP3   OH233238   1.356   5.085   7.170
11100TIP3    H133239   1.262   5.099   7.146
11100TIP3    H233240   1.400   5.156   7.121
11101TIP3   OH233241   1.559   5.276   7.079
11101TIP3    H133242   1.547   5.359   7.028
11101TIP3    H233243   1.588   5.214   7.008
11102TIP3   OH233244   0.533   4.810   7.059
11102TIP3    H133245   0.537   4.718   7.095
11102TIP3    H233246   0.627   4.832   7.055
11103TIP3   OH233247   0.811   4.904   7.065
11103TIP3    H133248   0.833   4.810   7.045
11103TIP3    H233249   0.861   4.913   7.148
11104TIP3   OH233250   1.367   3.552   7.147
11104TIP3    H133251   1.327   3.481   7.201
11104TIP3    H233252   1.444   3.507   7.107
11105TIP3   OH233253   1.891   3.428   7.052
11105TIP3    H133254   1.928   3.484   6.980
11105TIP3    H233255   1.797   3.453   7.050
11106TIP3   OH233256   1.988   3.532   6.818
11106TIP3    H133257   2.062   3.482   6.779
11106TIP3    H233258   2.020   3.624   6.804
11107TIP3   OH233259   0.616   3.263   7.167
11107TIP3    H133260   0.522   3.236   7.162
11107TIP3    H233261   0.661   3.175   7.162
11108TIP3   OH233262   0.434   3.124   6.824
11108TIP3    H133263   0.450   3.180   6.746
11108TIP3    H233264   0.379   3.182   6.880
11109TIP3   OH233265   1.064   3.294   7.050
11109TIP3    H133266   1.119   3.342   6.985
11109TIP3    H233267   1.095   3.331   7.133
11110TIP3   OH233268   1.606   3.442   7.031
11110TIP3    H133269   1.607   3.404   6.943
11110TIP3    H233270   1.594   3.361   7.087
11111TIP3   OH233271   1.639   3.365   6.593
11111TIP3    H133272   1.553   3.409   6.607
11111TIP3    H233273   1.624   3.279   6.639
11112TIP3   OH233274   0.525   3.285   6.589
11112TIP3    H133275   0.569   3.224   6.527
11112TIP3    H233276   0.600   3.340   6.620
11113TIP3   OH233277   1.033   3.467   6.677
11113TIP3    H133278   1.095   3.421   6.736
11113TIP3    H233279   1.055   3.560   6.701
11114TIP3   OH233280   0.896   4.912   6.173
11114TIP3    H133281   0.987   4.925   6.138
11114TIP3    H233282   0.877   4.826   6.129
11115TIP3   OH233283   1.613   5.009   6.272
11115TIP3    H133284   1.610   4.911   6.260
11115TIP3    H233285   1.569   5.039   6.190
11116TIP3   OH233286   1.927   3.636   7.948
11116TIP3    H133287   1.964   3.583   8.021
11116TIP3    H233288   2.002   3.632   7.885
11117TIP3   OH233289   1.837   5.155   7.458
11117TIP3    H133290   1.760   5.122   7.408
11117TIP3    H233291   1.817   5.250   7.462
11118TIP3   OH233292   3.103   4.531   6.226
11118TIP3    H133293   3.072   4.619   6.197
11118TIP3    H233294   3.033   4.475   6.187
11119TIP3   OH233295   3.120   4.508   6.606
11119TIP3    H133296   3.109   4.432   6.665
11119TIP3    H233297   3.072   4.478   6.528
11120TIP3   OH233298   2.405   4.418   6.967
11120TIP3    H133299   2.434   4.351   7.032
11120TIP3    H233300   2.478   4.480   6.971
11121TIP3   OH233301   3.358   4.828   6.281
11121TIP3    H133302   3.312   4.768   6.339
11121TIP3    H233303   3.377   4.905   6.336
11122TIP3   OH233304   2.374   4.831   6.696
11122TIP3    H133305   2.368   4.733   6.697
11122TIP3    H233306   2.470   4.842   6.679
11123TIP3   OH233307   2.084   4.034   6.475
11123TIP3    H133308   2.035   4.116   6.493
11123TIP3    H233309   2.013   3.980   6.435
11124TIP3   OH233310   2.141   4.321   6.653
11124TIP3    H133311   2.190   4.244   6.688
11124TIP3    H233312   2.200   4.353   6.584
11125TIP3   OH233313   2.997   5.296   6.308
11125TIP3    H133314   3.042   5.215   6.276
11125TIP3    H233315   2.960   5.265   6.394
11126TIP3   OH233316   2.888   4.752   6.651
11126TIP3    H133317   2.934   4.683   6.601
11126TIP3    H233318   2.967   4.806   6.676
11127TIP3   OH233319   3.921   4.071   6.649
11127TIP3    H133320   3.950   4.156   6.686
11127TIP3    H233321   3.941   4.083   6.554
11128TIP3   OH233322   3.336   4.262   6.683
11128TIP3    H133323   3.364   4.172   6.704
11128TIP3    H233324   3.290   4.249   6.598
11129TIP3   OH233325   2.659   3.913   6.647
11129TIP3    H133326   2.635   3.985   6.585
11129TIP3    H233327   2.609   3.839   6.605
11130TIP3   OH233328   3.349   4.007   6.271
11130TIP3    H133329   3.422   3.990   6.334
11130TIP3    H233330   3.400   4.040   6.194
11131TIP3   OH233331   2.289   4.115   6.755
11131TIP3    H133332   2.371   4.095   6.804
11131TIP3    H233333   2.302   4.058   6.676
11132TIP3   OH233334   2.729   4.312   6.548
11132TIP3    H133335   2.821   4.285   6.565
11132TIP3    H233336   2.689   4.229   6.517
11133TIP3   OH233337   4.000   4.282   6.819
11133TIP3    H133338   3.916   4.325   6.793
11133TIP3    H233339   3.998   4.299   6.914
11134TIP3   OH233340   2.651   3.895   7.083
11134TIP3    H133341   2.591   3.933   7.017
11134TIP3    H233342   2.598   3.909   7.165
11135TIP3   OH233343   2.999   4.747   6.091
11135TIP3    H133344   2.955   4.730   6.006
11135TIP3    H233345   2.955   4.832   6.115
11136TIP3   OH233346   2.758   4.672   6.878
11136TIP3    H133347   2.695   4.739   6.913
11136TIP3    H233348   2.792   4.718   6.799
11137TIP3   OH233349   3.559   4.006   6.443
11137TIP3    H133350   3.542   3.959   6.525
11137TIP3    H233351   3.609   4.084   6.473
11138TIP3   OH233352   2.523   4.011   6.867
11138TIP3    H133353   2.585   4.084   6.891
11138TIP3    H233354   2.573   3.971   6.792
11139TIP3   OH233355   2.584   4.864   6.978
11139TIP3    H133356   2.557   4.947   6.934
11139TIP3    H233357   2.505   4.849   7.034
11140TIP3   OH233358   1.978   4.556   6.211
11140TIP3    H133359   1.935   4.583   6.128
11140TIP3    H233360   2.009   4.641   6.247
11141TIP3   OH233361   3.397   5.071   6.465
11141TIP3    H133362   3.306   5.078   6.495
11141TIP3    H233363   3.406   5.154   6.413
11142TIP3   OH233364   3.708   3.980   6.818
11142TIP3    H133365   3.619   3.994   6.781
11142TIP3    H233366   3.766   4.006   6.744
11143TIP3   OH233367   3.007   3.615   6.802
11143TIP3    H133368   2.989   3.520   6.816
11143TIP3    H233369   2.929   3.654   6.847
11144TIP3   OH233370   3.129   5.115   6.137
11144TIP3    H133371   3.174   5.034   6.105
11144TIP3    H233372   3.183   5.183   6.092
11145TIP3   OH233373   3.265   4.902   6.030
11145TIP3    H133374   3.224   4.824   5.991
11145TIP3    H233375   3.305   4.866   6.111
11146TIP3   OH233376   3.643   4.981   6.805
11146TIP3    H133377   3.631   4.913   6.736
11146TIP3    H233378   3.619   5.063   6.756
11147TIP3   OH233379   2.940   4.382   6.057
11147TIP3    H133380   2.858   4.431   6.036
11147TIP3    H233381   2.981   4.374   5.969
11148TIP3   OH233382   2.895   4.162   5.772
11148TIP3    H133383   2.964   4.216   5.815
11148TIP3    H233384   2.951   4.099   5.722
11149TIP3   OH233385   3.832   4.622   6.641
11149TIP3    H133386   3.753   4.679   6.641
11149TIP3    H233387   3.869   4.644   6.552
11150TIP3   OH233388   3.283   4.463   6.026
11150TIP3    H133389   3.229   4.487   6.104
11150TIP3    H233390   3.367   4.437   6.069
11151TIP3   OH233391   2.515   4.457   6.442
11151TIP3    H133392   2.474   4.400   6.374
11151TIP3    H233393   2.592   4.403   6.470
11152TIP3   OH233394   2.632   4.851   6.598
11152TIP3    H133395   2.626   4.827   6.505
11152TIP3    H233396   2.727   4.839   6.616
11153TIP3   OH233397   2.659   4.427   6.797
11153TIP3    H133398   2.685   4.409   6.705
11153TIP3    H233399   2.694   4.517   6.814
11154TIP3   OH233400   2.788   4.978   7.127
11154TIP3    H133401   2.728   5.044   7.168
11154TIP3    H233402   2.723   4.928   7.073
11155TIP3   OH233403   3.123   4.317   5.852
11155TIP3    H133404   3.181   4.379   5.902
11155TIP3    H233405   3.150   4.339   5.759
11156TIP3   OH233406   2.544   4.543   7.219
11156TIP3    H133407   2.549   4.629   7.265
11156TIP3    H233408   2.451   4.519   7.239
11157TIP3   OH233409   2.873   4.993   6.120
11157TIP3    H133410   2.945   5.052   6.152
11157TIP3    H233411   2.807   5.056   6.089
11158TIP3   OH233412   2.584   5.153   7.208
11158TIP3    H133413   2.551   5.155   7.117
11158TIP3    H233414   2.503   5.133   7.260
11159TIP3   OH233415   3.641   3.558   5.901
11159TIP3    H133416   3.558   3.579   5.949
11159TIP3    H233417   3.654   3.640   5.850
11160TIP3   OH233418   2.383   4.300   6.245
11160TIP3    H133419   2.316   4.346   6.190
11160TIP3    H233420   2.342   4.214   6.259
11161TIP3   OH233421   3.439   4.926   5.448
11161TIP3    H133422   3.447   5.023   5.433
11161TIP3    H233423   3.532   4.897   5.436
11162TIP3   OH233424   2.165   4.682   7.157
11162TIP3    H133425   2.099   4.660   7.088
11162TIP3    H233426   2.200   4.594   7.181
11163TIP3   OH233427   2.020   4.878   6.784
11163TIP3    H133428   2.115   4.867   6.773
11163TIP3    H233429   2.017   4.954   6.845
11164TIP3   OH233430   3.883   5.332   6.846
11164TIP3    H133431   3.879   5.236   6.860
11164TIP3    H233432   3.799   5.360   6.890
11165TIP3   OH233433   3.015   5.092   7.003
11165TIP3    H133434   2.999   5.188   7.004
11165TIP3    H233435   2.930   5.060   7.040
11166TIP3   OH233436   2.750   5.244   5.927
11166TIP3    H133437   2.701   5.227   5.845
11166TIP3    H233438   2.716   5.331   5.954
11167TIP3   OH233439   2.187   5.092   6.314
11167TIP3    H133440   2.235   5.083   6.400
11167TIP3    H233441   2.136   5.009   6.313
11168TIP3   OH233442   2.950   5.146   5.568
11168TIP3    H133443   3.008   5.076   5.532
11168TIP3    H233444   2.984   5.155   5.659
11169TIP3   OH233445   3.001   5.193   5.837
11169TIP3    H133446   2.912   5.203   5.878
11169TIP3    H233447   3.051   5.154   5.911
11170TIP3   OH233448   3.773   4.458   7.127
11170TIP3    H133449   3.683   4.454   7.093
11170TIP3    H233450   3.797   4.364   7.123
11171TIP3   OH233451   2.367   4.868   7.144
11171TIP3    H133452   2.417   4.849   7.226
11171TIP3    H233453   2.293   4.804   7.150
11172TIP3   OH233454   2.768   3.692   6.928
11172TIP3    H133455   2.680   3.661   6.900
11172TIP3    H233456   2.741   3.772   6.977
11173TIP3   OH233457   3.298   3.805   7.121
11173TIP3    H133458   3.366   3.777   7.186
11173TIP3    H233459   3.214   3.785   7.168
11174TIP3   OH233460   3.545   4.277   7.051
11174TIP3    H133461   3.504   4.247   7.135
11174TIP3    H233462   3.467   4.277   6.992
11175TIP3   OH233463   3.208   4.369   5.604
11175TIP3    H133464   3.165   4.345   5.518
11175TIP3    H233465   3.288   4.414   5.571
11176TIP3   OH233466   2.915   3.735   5.900
11176TIP3    H133467   2.877   3.733   5.990
11176TIP3    H233468   2.872   3.656   5.862
11177TIP3   OH233469   2.702   4.206   6.948
11177TIP3    H133470   2.649   4.226   7.029
11177TIP3    H233471   2.685   4.287   6.895
11178TIP3   OH233472   2.584   4.093   6.459
11178TIP3    H133473   2.491   4.068   6.477
11178TIP3    H233474   2.595   4.053   6.370
11179TIP3   OH233475   3.075   4.180   6.190
11179TIP3    H133476   3.023   4.250   6.145
11179TIP3    H233477   3.128   4.146   6.116
11180TIP3   OH233478   3.251   4.452   7.265
11180TIP3    H133479   3.224   4.382   7.329
11180TIP3    H233480   3.342   4.470   7.294
11181TIP3   OH233481   3.232   4.210   6.425
11181TIP3    H133482   3.168   4.234   6.354
11181TIP3    H233483   3.267   4.129   6.384
11182TIP3   OH233484   2.521   4.233   7.155
11182TIP3    H133485   2.539   4.296   7.227
11182TIP3    H233486   2.506   4.150   7.204
11183TIP3   OH233487   2.570   3.715   5.864
11183TIP3    H133488   2.558   3.713   5.961
11183TIP3    H233489   2.491   3.766   5.837
11184TIP3   OH233490   2.111   3.756   6.734
11184TIP3    H133491   2.186   3.789   6.788
11184TIP3    H233492   2.153   3.726   6.653
11185TIP3   OH233493   2.081   3.738   6.254
11185TIP3    H133494   2.126   3.776   6.175
11185TIP3    H233495   2.019   3.811   6.274
11186TIP3   OH233496   2.915   3.914   6.521
11186TIP3    H133497   2.830   3.913   6.570
11186TIP3    H233498   2.979   3.911   6.594
11187TIP3   OH233499   2.345   3.972   6.527
11187TIP3    H133500   2.250   3.981   6.500
11187TIP3    H233501   2.366   3.880   6.505
11188TIP3   OH233502   2.612   3.967   6.217
11188TIP3    H133503   2.705   3.982   6.192
11188TIP3    H233504   2.563   3.988   6.135
11189TIP3   OH233505   3.406   3.990   6.724
11189TIP3    H133506   3.374   4.003   6.816
11189TIP3    H233507   3.338   3.930   6.688
11190TIP3   OH233508   2.459   4.000   5.995
11190TIP3    H133509   2.387   3.956   5.947
11190TIP3    H233510   2.510   4.037   5.920
11191TIP3   OH233511   3.576   5.678   6.942
11191TIP3    H133512   3.571   5.703   6.848
11191TIP3    H233513   3.654   5.727   6.972
11192TIP3   OH233514   2.525   4.786   7.366
11192TIP3    H133515   2.604   4.819   7.413
11192TIP3    H233516   2.463   4.775   7.441
11193TIP3   OH233517   2.995   4.243   6.628
11193TIP3    H133518   3.062   4.198   6.576
11193TIP3    H233519   2.996   4.195   6.713
11194TIP3   OH233520   2.517   3.730   6.500
11194TIP3    H133521   2.479   3.653   6.547
11194TIP3    H233522   2.556   3.688   6.422
11195TIP3   OH233523   2.969   4.142   6.900
11195TIP3    H133524   2.878   4.174   6.920
11195TIP3    H233525   3.025   4.201   6.955
11196TIP3   OH233526   2.708   4.529   6.004
11196TIP3    H133527   2.635   4.465   5.991
11196TIP3    H233528   2.687   4.563   6.094
11197TIP3   OH233529   3.591   4.771   6.636
11197TIP3    H133530   3.630   4.821   6.560
11197TIP3    H233531   3.520   4.720   6.592
11198TIP3   OH233532   3.165   3.838   5.875
11198TIP3    H133533   3.068   3.819   5.876
11198TIP3    H233534   3.169   3.934   5.889
11199TIP3   OH233535   3.158   4.852   6.991
11199TIP3    H133536   3.130   4.815   7.076
11199TIP3    H233537   3.108   4.937   6.993
11200TIP3   OH233538   3.232   4.093   5.973
11200TIP3    H133539   3.329   4.100   5.983
11200TIP3    H233540   3.210   4.170   5.917
11201TIP3   OH233541   2.398   4.553   6.678
11201TIP3    H133542   2.438   4.525   6.593
11201TIP3    H233543   2.437   4.490   6.741
11202TIP3   OH233544   2.853   4.680   5.827
11202TIP3    H133545   2.804   4.766   5.830
11202TIP3    H233546   2.798   4.625   5.887
11203TIP3   OH233547   2.286   4.464   7.298
11203TIP3    H133548   2.297   4.453   7.396
11203TIP3    H233549   2.212   4.403   7.280
11204TIP3   OH233550   3.007   4.587   7.312
11204TIP3    H133551   2.942   4.530   7.268
11204TIP3    H233552   3.091   4.551   7.276
11205TIP3   OH233553   3.277   5.119   6.882
11205TIP3    H133554   3.181   5.109   6.891
11205TIP3    H233555   3.298   5.159   6.969
11206TIP3   OH233556   3.676   4.183   5.803
11206TIP3    H133557   3.614   4.137   5.741
11206TIP3    H233558   3.670   4.272   5.763
11207TIP3   OH233559   3.895   5.034   6.889
11207TIP3    H133560   3.797   5.032   6.878
11207TIP3    H233561   3.922   5.008   6.798
11208TIP3   OH233562   3.381   4.999   5.715
11208TIP3    H133563   3.347   4.931   5.774
11208TIP3    H233564   3.389   4.953   5.629
11209TIP3   OH233565   3.368   4.618   6.598
11209TIP3    H133566   3.274   4.588   6.599
11209TIP3    H233567   3.404   4.548   6.539
11210TIP3   OH233568   2.502   4.856   6.298
11210TIP3    H133569   2.499   4.939   6.248
11210TIP3    H233570   2.408   4.842   6.317
11211TIP3   OH233571   2.064   4.161   6.007
11211TIP3    H133572   2.108   4.245   6.028
11211TIP3    H233573   1.987   4.165   6.068
11212TIP3   OH233574   2.638   4.620   6.248
11212TIP3    H133575   2.602   4.710   6.264
11212TIP3    H233576   2.599   4.571   6.323
11213TIP3   OH233577   2.418   5.099   6.155
11213TIP3    H133578   2.333   5.106   6.202
11213TIP3    H233579   2.451   5.191   6.161
11214TIP3   OH233580   3.140   4.817   6.716
11214TIP3    H133581   3.150   4.851   6.807
11214TIP3    H233582   3.227   4.807   6.679
11215TIP3   OH233583   3.133   4.732   5.614
11215TIP3    H133584   3.185   4.705   5.693
11215TIP3    H233585   3.045   4.700   5.640
11216TIP3   OH233586   3.409   5.365   6.781
11216TIP3    H133587   3.333   5.304   6.785
11216TIP3    H233588   3.385   5.427   6.708
11217TIP3   OH233589   3.472   5.202   5.433
11217TIP3    H133590   3.509   5.275   5.382
11217TIP3    H233591   3.391   5.246   5.467
11218TIP3   OH233592   2.498   3.974   7.300
11218TIP3    H133593   2.411   3.999   7.336
11218TIP3    H233594   2.530   3.919   7.373
11219TIP3   OH233595   3.294   4.663   5.830
11219TIP3    H133596   3.282   4.595   5.900
11219TIP3    H233597   3.391   4.658   5.817
11220TIP3   OH233598   2.204   5.063   6.932
11220TIP3    H133599   2.259   4.987   6.960
11220TIP3    H233600   2.240   5.133   6.989
11221TIP3   OH233601   2.497   4.708   5.613
11221TIP3    H133602   2.511   4.615   5.587
11221TIP3    H233603   2.477   4.698   5.709
11222TIP3   OH233604   2.443   4.714   5.885
11222TIP3    H133605   2.515   4.687   5.944
11222TIP3    H233606   2.446   4.812   5.893
11223TIP3   OH233607   2.177   4.406   6.090
11223TIP3    H133608   2.110   4.450   6.146
11223TIP3    H233609   2.191   4.475   6.022
11224TIP3   OH233610   3.342   4.041   6.989
11224TIP3    H133611   3.404   4.063   7.059
11224TIP3    H233612   3.305   3.958   7.026
11225TIP3   OH233613   3.210   3.790   6.150
11225TIP3    H133614   3.193   3.811   6.055
11225TIP3    H233615   3.246   3.876   6.182
11226TIP3   OH233616   2.708   4.909   5.833
11226TIP3    H133617   2.622   4.935   5.870
11226TIP3    H233618   2.725   4.984   5.775
11227TIP3   OH233619   2.900   3.973   6.249
11227TIP3    H133620   2.962   4.047   6.232
11227TIP3    H233621   2.902   3.968   6.347
11228TIP3   OH233622   3.152   4.286   7.053
11228TIP3    H133623   3.178   4.349   7.123
11228TIP3    H233624   3.211   4.211   7.069
11229TIP3   OH233625   3.041   3.699   6.352
11229TIP3    H133626   3.026   3.780   6.404
11229TIP3    H233627   3.102   3.733   6.283
11230TIP3   OH233628   2.454   4.986   5.904
11230TIP3    H133629   2.424   5.056   5.842
11230TIP3    H233630   2.438   5.029   5.991
11231TIP3   OH233631   2.552   3.700   6.142
11231TIP3    H133632   2.550   3.791   6.177
11231TIP3    H233633   2.649   3.683   6.148
11232TIP3   OH233634   3.807   4.190   7.032
11232TIP3    H133635   3.711   4.206   7.043
11232TIP3    H233636   3.805   4.135   6.952
11233TIP3   OH233637   3.457   4.394   6.431
11233TIP3    H133638   3.380   4.335   6.437
11233TIP3    H233639   3.527   4.340   6.475
11234TIP3   OH233640   2.174   4.613   5.895
11234TIP3    H133641   2.242   4.682   5.903
11234TIP3    H233642   2.217   4.556   5.827
11235TIP3   OH233643   2.114   3.891   6.029
11235TIP3    H133644   2.113   3.988   6.026
11235TIP3    H233645   2.032   3.868   5.983
11236TIP3   OH233646   3.428   5.332   6.372
11236TIP3    H133647   3.382   5.381   6.300
11236TIP3    H233648   3.521   5.358   6.352
11237TIP3   OH233649   2.506   3.611   6.899
11237TIP3    H133650   2.472   3.577   6.813
11237TIP3    H233651   2.493   3.534   6.958
11238TIP3   OH233652   2.041   4.832   6.280
11238TIP3    H133653   1.971   4.859   6.341
11238TIP3    H233654   2.009   4.873   6.196
11239TIP3   OH233655   2.199   5.374   7.356
11239TIP3    H133656   2.286   5.373   7.400
11239TIP3    H233657   2.180   5.279   7.351
11240TIP3   OH233658   2.677   5.334   7.400
11240TIP3    H133659   2.772   5.317   7.403
11240TIP3    H233660   2.651   5.275   7.326
11241TIP3   OH233661   2.660   4.911   5.524
11241TIP3    H133662   2.605   4.839   5.563
11241TIP3    H233663   2.736   4.859   5.492
11242TIP3   OH233664   3.320   5.240   7.131
11242TIP3    H133665   3.312   5.172   7.202
11242TIP3    H233666   3.395   5.295   7.164
11243TIP3   OH233667   3.097   4.951   5.439
11243TIP3    H133668   3.137   4.884   5.498
11243TIP3    H233669   3.154   4.947   5.360
11244TIP3   OH233670   2.332   4.777   7.568
11244TIP3    H133671   2.338   4.684   7.602
11244TIP3    H233672   2.249   4.769   7.517
11245TIP3   OH233673   2.307   4.427   5.748
11245TIP3    H133674   2.363   4.395   5.821
11245TIP3    H233675   2.374   4.432   5.676
11246TIP3   OH233676   2.940   4.865   7.328
11246TIP3    H133677   2.891   4.886   7.245
11246TIP3    H233678   2.963   4.771   7.316
11247TIP3   OH233679   2.820   4.629   5.557
11247TIP3    H133680   2.820   4.639   5.654
11247TIP3    H233681   2.823   4.530   5.549
11248TIP3   OH233682   2.514   4.333   5.968
11248TIP3    H133683   2.485   4.291   6.051
11248TIP3    H233684   2.551   4.258   5.918
11249TIP3   OH233685   2.784   4.399   7.202
11249TIP3    H133686   2.702   4.454   7.204
11249TIP3    H233687   2.832   4.438   7.126
11250TIP3   OH233688   2.616   4.127   5.810
11250TIP3    H133689   2.590   4.132   5.715
11250TIP3    H233690   2.713   4.130   5.802
11251TIP3   OH233691   3.305   4.790   7.328
11251TIP3    H133692   3.399   4.799   7.344
11251TIP3    H233693   3.280   4.726   7.397
11252TIP3   OH233694   3.439   4.457   5.474
11252TIP3    H133695   3.413   4.410   5.392
11252TIP3    H233696   3.404   4.546   5.451
11253TIP3   OH233697   2.915   4.188   7.317
11253TIP3    H133698   2.907   4.107   7.263
11253TIP3    H233699   2.865   4.254   7.264
11254TIP3   OH233700   2.910   3.970   7.127
11254TIP3    H133701   2.934   4.012   7.043
11254TIP3    H233702   2.816   3.948   7.113
11255TIP3   OH233703   2.936   4.519   7.016
11255TIP3    H133704   2.998   4.492   6.948
11255TIP3    H233705   2.876   4.580   6.966
11256TIP3   OH233706   3.517   4.470   7.384
11256TIP3    H133707   3.557   4.385   7.406
11256TIP3    H233708   3.596   4.525   7.368
11257TIP3   OH233709   3.536   4.749   7.039
11257TIP3    H133710   3.518   4.822   7.100
11257TIP3    H233711   3.634   4.757   7.029
11258TIP3   OH233712   2.798   4.293   7.559
11258TIP3    H133713   2.721   4.233   7.571
11258TIP3    H233714   2.823   4.272   7.467
11259TIP3   OH233715   3.040   3.733   7.198
11259TIP3    H133716   2.990   3.815   7.175
11259TIP3    H233717   2.970   3.665   7.188
11260TIP3   OH233718   3.170   4.238   7.412
11260TIP3    H133719   3.150   4.224   7.507
11260TIP3    H233720   3.082   4.216   7.375
11261TIP3   OH233721   3.409   4.175   7.264
11261TIP3    H133722   3.331   4.186   7.321
11261TIP3    H233723   3.478   4.148   7.328
11262TIP3   OH233724   3.647   4.130   7.417
11262TIP3    H133725   3.652   4.034   7.437
11262TIP3    H233726   3.633   4.169   7.506
11263TIP3   OH233727   2.632   4.081   7.612
11263TIP3    H133728   2.616   3.993   7.574
11263TIP3    H233729   2.665   4.057   7.700
11264TIP3   OH233730   3.140   3.747   7.454
11264TIP3    H133731   3.201   3.671   7.448
11264TIP3    H233732   3.095   3.740   7.367
11265TIP3   OH233733   3.206   3.962   7.610
11265TIP3    H133734   3.181   3.890   7.548
11265TIP3    H233735   3.126   4.020   7.608
11266TIP3   OH233736   2.423   5.190   5.716
11266TIP3    H133737   2.519   5.181   5.696
11266TIP3    H233738   2.395   5.239   5.636
11267TIP3   OH233739   1.906   4.571   5.930
11267TIP3    H133740   2.001   4.591   5.916
11267TIP3    H233741   1.898   4.482   5.889
11268TIP3   OH233742   1.814   5.183   6.348
11268TIP3    H133743   1.750   5.120   6.309
11268TIP3    H233744   1.861   5.125   6.411
11269TIP3   OH233745   1.950   5.033   6.533
11269TIP3    H133746   1.941   4.959   6.596
11269TIP3    H233747   2.006   5.093   6.586
11270TIP3   OH233748   3.682   5.427   6.334
11270TIP3    H133749   3.704   5.465   6.421
11270TIP3    H233750   3.739   5.478   6.275
11271TIP3   OH233751   3.711   5.454   6.615
11271TIP3    H133752   3.667   5.367   6.611
11271TIP3    H233753   3.788   5.432   6.670
11272TIP3   OH233754   3.756   5.127   7.189
11272TIP3    H133755   3.684   5.140   7.254
11272TIP3    H233756   3.798   5.215   7.189
11273TIP3   OH233757   3.573   4.641   5.806
11273TIP3    H133758   3.638   4.708   5.776
11273TIP3    H233759   3.618   4.604   5.885
11274TIP3   OH233760   3.701   4.508   6.011
11274TIP3    H133761   3.633   4.468   6.069
11274TIP3    H233762   3.764   4.547   6.075
11275TIP3   OH233763   3.750   4.896   6.452
11275TIP3    H133764   3.803   4.834   6.398
11275TIP3    H233765   3.748   4.975   6.393
11276TIP3   OH233766   3.583   5.199   6.646
11276TIP3    H133767   3.516   5.252   6.693
11276TIP3    H233768   3.530   5.159   6.574
11277TIP3   OH233769   3.638   4.418   5.655
11277TIP3    H133770   3.567   4.421   5.587
11277TIP3    H233771   3.609   4.494   5.710
11278TIP3   OH233772   3.510   4.083   5.611
11278TIP3    H133773   3.467   4.131   5.539
11278TIP3    H233774   3.486   3.991   5.590
11279TIP3   OH233775   3.513   4.368   6.158
11279TIP3    H133776   3.518   4.272   6.148
11279TIP3    H233777   3.498   4.380   6.254
11280TIP3   OH233778   2.139   4.442   6.904
11280TIP3    H133779   2.136   4.409   6.812
11280TIP3    H233780   2.236   4.442   6.920
11281TIP3   OH233781   3.801   4.792   7.014
11281TIP3    H133782   3.875   4.728   7.004
11281TIP3    H233783   3.829   4.866   6.956
11282TIP3   OH233784   3.985   4.596   7.025
11282TIP3    H133785   3.911   4.546   7.065
11282TIP3    H233786   4.060   4.536   7.045
11283TIP3   OH233787   3.460   3.808   5.577
11283TIP3    H133788   3.521   3.790   5.651
11283TIP3    H233789   3.376   3.768   5.608
11284TIP3   OH233790   3.513   4.086   6.052
11284TIP3    H133791   3.552   3.997   6.066
11284TIP3    H233792   3.569   4.117   5.978
11285TIP3   OH233793   3.673   4.254   6.542
11285TIP3    H133794   3.757   4.281   6.499
11285TIP3    H233795   3.692   4.285   6.632
11286TIP3   OH233796   3.752   4.396   6.771
11286TIP3    H133797   3.665   4.421   6.805
11286TIP3    H233798   3.782   4.478   6.727
11287TIP3   OH233799   2.347   4.098   7.522
11287TIP3    H133800   2.407   4.164   7.561
11287TIP3    H233801   2.328   4.041   7.599
11288TIP3   OH233802   4.246   4.022   7.316
11288TIP3    H133803   4.255   3.929   7.283
11288TIP3    H233804   4.178   4.057   7.253
11289TIP3   OH233805   3.619   3.834   6.088
11289TIP3    H133806   3.665   3.817   6.173
11289TIP3    H233807   3.557   3.759   6.086
11290TIP3   OH233808   2.319   3.819   6.904
11290TIP3    H133809   2.381   3.745   6.917
11290TIP3    H233810   2.381   3.894   6.901
11291TIP3   OH233811   2.118   4.092   6.977
11291TIP3    H133812   2.169   4.091   6.894
11291TIP3    H233813   2.148   4.174   7.018
11292TIP3   OH233814   4.058   4.123   7.147
11292TIP3    H133815   3.976   4.170   7.170
11292TIP3    H233816   4.022   4.057   7.084
11293TIP3   OH233817   3.700   3.766   5.726
11293TIP3    H133818   3.736   3.696   5.667
11293TIP3    H233819   3.765   3.837   5.716
11294TIP3   OH233820   2.105   3.595   6.482
11294TIP3    H133821   2.012   3.591   6.510
11294TIP3    H233822   2.100   3.655   6.404
11295TIP3   OH233823   3.263   5.299   5.988
11295TIP3    H133824   3.315   5.289   5.906
11295TIP3    H233825   3.313   5.367   6.036
11296TIP3   OH233826   2.324   3.666   7.289
11296TIP3    H133827   2.278   3.670   7.374
11296TIP3    H233828   2.260   3.713   7.232
11297TIP3   OH233829   2.362   5.112   7.373
11297TIP3    H133830   2.272   5.078   7.355
11297TIP3    H233831   2.378   5.078   7.462
11298TIP3   OH233832   2.544   5.138   6.923
11298TIP3    H133833   2.502   5.215   6.878
11298TIP3    H233834   2.630   5.140   6.878
11299TIP3   OH233835   2.983   5.381   7.059
11299TIP3    H133836   3.029   5.383   7.146
11299TIP3    H233837   3.047   5.430   7.003
11300TIP3   OH233838   3.172   5.525   6.920
11300TIP3    H133839   3.249   5.485   6.878
11300TIP3    H233840   3.216   5.589   6.980
11301TIP3   OH233841   3.958   3.891   7.017
11301TIP3    H133842   3.868   3.878   6.982
11301TIP3    H233843   3.993   3.799   7.008
11302TIP3   OH233844   2.216   5.395   6.943
11302TIP3    H133845   2.127   5.431   6.923
11302TIP3    H233846   2.230   5.431   7.031
11303TIP3   OH233847   2.456   5.371   6.807
11303TIP3    H133848   2.367   5.383   6.846
11303TIP3    H233849   2.441   5.398   6.714
11304TIP3   OH233850   3.378   5.536   6.569
11304TIP3    H133851   3.346   5.617   6.525
11304TIP3    H233852   3.380   5.473   6.496
11305TIP3   OH233853   2.129   5.186   6.691
11305TIP3    H133854   2.159   5.160   6.781
11305TIP3    H233855   2.201   5.144   6.639
11306TIP3   OH233856   2.323   5.058   6.549
11306TIP3    H133857   2.338   4.975   6.599
11306TIP3    H233858   2.414   5.096   6.551
11307TIP3   OH233859   2.582   5.147   6.564
11307TIP3    H133860   2.622   5.064   6.535
11307TIP3    H233861   2.666   5.191   6.588
11308TIP3   OH233862   3.172   3.812   6.646
11308TIP3    H133863   3.123   3.741   6.694
11308TIP3    H233864   3.236   3.761   6.594
11309TIP3   OH233865   3.689   3.696   6.547
11309TIP3    H133866   3.724   3.744   6.468
11309TIP3    H233867   3.592   3.708   6.535
11310TIP3   OH233868   3.784   3.788   6.307
11310TIP3    H133869   3.857   3.737   6.266
11310TIP3    H233870   3.816   3.880   6.292
11311TIP3   OH233871   2.414   3.518   6.651
11311TIP3    H133872   2.322   3.486   6.654
11311TIP3    H233873   2.462   3.433   6.647
11312TIP3   OH233874   2.207   3.389   6.303
11312TIP3    H133875   2.232   3.446   6.229
11312TIP3    H233876   2.175   3.454   6.369
11313TIP3   OH233877   2.862   3.546   6.533
11313TIP3    H133878   2.919   3.597   6.473
11313TIP3    H233879   2.877   3.591   6.618
11314TIP3   OH233880   3.409   3.698   6.515
11314TIP3    H133881   3.400   3.660   6.427
11314TIP3    H233882   3.395   3.619   6.572
11315TIP3   OH233883   3.436   3.622   6.081
11315TIP3    H133884   3.349   3.666   6.093
11315TIP3    H233885   3.419   3.536   6.125
11316TIP3   OH233886   1.919   4.961   6.077
11316TIP3    H133887   1.833   4.926   6.045
11316TIP3    H233888   1.908   5.054   6.052
11317TIP3   OH233889   2.319   3.545   6.065
11317TIP3    H133890   2.367   3.483   6.006
11317TIP3    H233891   2.393   3.599   6.100
11318TIP3   OH233892   2.829   3.724   6.164
11318TIP3    H133893   2.889   3.676   6.223
11318TIP3    H233894   2.852   3.816   6.188
11319TIP3   OH233895   2.690   5.146   5.662
11319TIP3    H133896   2.778   5.168   5.626
11319TIP3    H233897   2.668   5.070   5.602
11320TIP3   OH233898   3.411   5.267   5.756
11320TIP3    H133899   3.404   5.169   5.745
11320TIP3    H233900   3.364   5.298   5.676
11321TIP3   OH233901   2.623   3.800   7.539
11321TIP3    H133902   2.584   3.733   7.598
11321TIP3    H233903   2.715   3.802   7.572
11322TIP3   OH233904   2.870   3.796   7.668
11322TIP3    H133905   2.954   3.765   7.631
11322TIP3    H233906   2.853   3.727   7.735
11323TIP3   OH233907   1.995   4.985   5.718
11323TIP3    H133908   1.994   5.004   5.813
11323TIP3    H233909   2.083   4.943   5.705
11324TIP3   OH233910   3.696   3.858   7.452
11324TIP3    H133911   3.712   3.827   7.544
11324TIP3    H233912   3.784   3.844   7.412
11325TIP3   OH233913   3.634   5.409   6.944
11325TIP3    H133914   3.556   5.380   6.892
11325TIP3    H233915   3.617   5.506   6.948
11326TIP3   OH233916   4.896   4.776   5.700
11326TIP3    H133917   4.880   4.871   5.679
11326TIP3    H233918   4.806   4.750   5.723
11327TIP3   OH233919   4.899   4.779   6.091
11327TIP3    H133920   4.935   4.763   6.180
11327TIP3    H233921   4.859   4.694   6.070
11328TIP3   OH233922   4.200   4.680   6.458
11328TIP3    H133923   4.233   4.611   6.518
11328TIP3    H233924   4.279   4.733   6.444
11329TIP3   OH233925   5.144   5.084   5.775
11329TIP3    H133926   5.136   5.020   5.847
11329TIP3    H233927   5.175   5.163   5.822
11330TIP3   OH233928   4.173   5.087   6.178
11330TIP3    H133929   4.165   4.989   6.181
11330TIP3    H233930   4.269   5.097   6.172
11331TIP3   OH233931   3.879   4.289   5.963
11331TIP3    H133932   3.830   4.372   5.980
11331TIP3    H233933   3.809   4.237   5.920
11332TIP3   OH233934   3.936   4.578   6.142
11332TIP3    H133935   3.987   4.501   6.174
11332TIP3    H233936   3.994   4.614   6.073
11333TIP3   OH233937   4.793   5.545   5.789
11333TIP3    H133938   4.838   5.474   5.739
11333TIP3    H233939   4.792   5.510   5.878
11334TIP3   OH233940   4.700   5.007   6.140
11334TIP3    H133941   4.743   4.932   6.096
11334TIP3    H233942   4.781   5.056   6.166
11335TIP3   OH233943   5.714   4.328   6.137
11335TIP3    H133944   5.743   4.411   6.179
11335TIP3    H233945   5.737   4.346   6.044
11336TIP3   OH233946   5.110   4.508   6.171
11336TIP3    H133947   5.156   4.424   6.191
11336TIP3    H233948   5.081   4.491   6.079
11337TIP3   OH233949   4.451   4.168   6.136
11337TIP3    H133950   4.432   4.241   6.073
11337TIP3    H233951   4.404   4.094   6.092
11338TIP3   OH233952   5.146   4.264   5.755
11338TIP3    H133953   5.217   4.247   5.822
11338TIP3    H233954   5.200   4.296   5.681
11339TIP3   OH233955   4.083   4.369   6.243
11339TIP3    H133956   4.167   4.351   6.290
11339TIP3    H233957   4.096   4.315   6.163
11340TIP3   OH233958   4.525   4.567   6.037
11340TIP3    H133959   4.619   4.542   6.050
11340TIP3    H233960   4.486   4.483   6.005
11341TIP3   OH233961   5.787   4.536   6.308
11341TIP3    H133962   5.704   4.584   6.288
11341TIP3    H233963   5.808   4.571   6.396
11342TIP3   OH233964   4.445   4.157   6.571
11342TIP3    H133965   4.388   4.191   6.500
11342TIP3    H233966   4.393   4.183   6.649
11343TIP3   OH233967   4.777   4.996   5.579
11343TIP3    H133968   4.759   4.999   5.484
11343TIP3    H233969   4.742   5.083   5.607
11344TIP3   OH233970   4.552   4.928   6.363
11344TIP3    H133971   4.493   4.997   6.400
11344TIP3    H233972   4.597   4.976   6.291
11345TIP3   OH233973   5.352   4.266   5.933
11345TIP3    H133974   5.343   4.220   6.017
11345TIP3    H233975   5.406   4.343   5.957
11346TIP3   OH233976   4.318   4.267   6.354
11346TIP3    H133977   4.380   4.341   6.376
11346TIP3    H233978   4.368   4.227   6.278
11347TIP3   OH233979   4.382   5.124   6.461
11347TIP3    H133980   4.359   5.211   6.424
11347TIP3    H233981   4.303   5.109   6.517
11348TIP3   OH233982   3.776   4.811   5.698
11348TIP3    H133983   3.733   4.838   5.615
11348TIP3    H233984   3.805   4.898   5.734
11349TIP3   OH233985   5.212   5.327   5.934
11349TIP3    H133986   5.123   5.321   5.975
11349TIP3    H233987   5.208   5.415   5.892
11350TIP3   OH233988   5.507   4.226   6.301
11350TIP3    H133989   5.421   4.257   6.270
11350TIP3    H233990   5.568   4.260   6.232
11351TIP3   OH233991   4.801   3.869   6.284
11351TIP3    H133992   4.788   3.774   6.303
11351TIP3    H233993   4.724   3.908   6.331
11352TIP3   OH233994   4.913   5.373   5.610
11352TIP3    H133995   4.963   5.290   5.589
11352TIP3    H233996   4.975   5.439   5.571
11353TIP3   OH233997   5.052   5.154   5.523
11353TIP3    H133998   5.043   5.073   5.471
11353TIP3    H233999   5.091   5.121   5.607
11354TIP3   OH234000   5.440   5.238   6.285
11354TIP3    H134001   5.430   5.163   6.223
11354TIP3    H234002   5.421   5.315   6.226
11355TIP3   OH234003   4.693   4.581   5.483
11355TIP3    H134004   4.653   4.669   5.501
11355TIP3    H234005   4.778   4.606   5.440
11356TIP3   OH234006   5.636   4.877   6.128
11356TIP3    H134007   5.553   4.930   6.132
11356TIP3    H234008   5.667   4.902   6.039
11357TIP3   OH234009   5.087   4.721   5.512
11357TIP3    H134010   5.030   4.740   5.589
11357TIP3    H234011   5.170   4.694   5.556
11358TIP3   OH234012   5.315   4.755   6.427
11358TIP3    H134013   5.314   4.838   6.478
11358TIP3    H234014   5.230   4.763   6.379
11359TIP3   OH234015   4.315   4.717   5.930
11359TIP3    H134016   4.269   4.658   5.866
11359TIP3    H234017   4.390   4.661   5.959
11360TIP3   OH234018   4.441   5.122   6.079
11360TIP3    H134019   4.424   5.088   5.990
11360TIP3    H234020   4.531   5.089   6.097
11361TIP3   OH234021   4.446   4.687   6.283
11361TIP3    H134022   4.481   4.665   6.194
11361TIP3    H234023   4.490   4.773   6.302
11362TIP3   OH234024   4.973   5.323   6.059
11362TIP3    H134025   4.960   5.406   6.108
11362TIP3    H234026   4.957   5.254   6.126
11363TIP3   OH234027   4.588   5.240   6.609
11363TIP3    H134028   4.528   5.304   6.654
11363TIP3    H234029   4.523   5.189   6.557
11364TIP3   OH234030   4.923   4.584   5.342
11364TIP3    H134031   4.988   4.644   5.386
11364TIP3    H234032   4.945   4.600   5.247
11365TIP3   OH234033   4.344   4.794   6.717
11365TIP3    H134034   4.348   4.884   6.754
11365TIP3    H234035   4.247   4.779   6.720
11366TIP3   OH234036   4.665   5.253   5.615
11366TIP3    H134037   4.747   5.305   5.625
11366TIP3    H234038   4.605   5.317   5.573
11367TIP3   OH234039   4.382   5.406   6.693
11367TIP3    H134040   4.346   5.412   6.602
11367TIP3    H234041   4.301   5.385   6.746
11368TIP3   OH234042   5.437   3.815   5.387
11368TIP3    H134043   5.355   3.838   5.436
11368TIP3    H234044   5.452   3.897   5.335
11369TIP3   OH234045   4.173   4.563   5.746
11369TIP3    H134046   4.113   4.606   5.681
11369TIP3    H234047   4.136   4.475   5.751
11370TIP3   OH234048   5.236   5.183   4.935
11370TIP3    H134049   5.245   5.280   4.920
11370TIP3    H234050   5.329   5.154   4.922
11371TIP3   OH234051   3.959   4.942   6.643
11371TIP3    H134052   3.896   4.922   6.571
11371TIP3    H234053   3.998   4.854   6.663
11372TIP3   OH234054   3.813   5.127   6.287
11372TIP3    H134055   3.908   5.130   6.268
11372TIP3    H234056   3.800   5.213   6.330
11373TIP3   OH234057   5.682   5.588   6.335
11373TIP3    H134058   5.676   5.491   6.348
11373TIP3    H234059   5.597   5.616   6.377
11374TIP3   OH234060   4.784   5.371   6.464
11374TIP3    H134061   4.782   5.464   6.496
11374TIP3    H234062   4.713   5.331   6.520
11375TIP3   OH234063   4.545   5.497   5.418
11375TIP3    H134064   4.502   5.482   5.332
11375TIP3    H234065   4.514   5.586   5.442
11376TIP3   OH234066   3.983   5.349   5.801
11376TIP3    H134067   4.031   5.341   5.886
11376TIP3    H234068   3.926   5.270   5.804
11377TIP3   OH234069   4.745   5.401   5.055
11377TIP3    H134070   4.805   5.332   5.018
11377TIP3    H234071   4.781   5.412   5.145
11378TIP3   OH234072   4.797   5.450   5.324
11378TIP3    H134073   4.709   5.459   5.368
11378TIP3    H234074   4.852   5.418   5.398
11379TIP3   OH234075   5.568   4.715   6.607
11379TIP3    H134076   5.487   4.728   6.556
11379TIP3    H234077   5.583   4.619   6.595
11380TIP3   OH234078   4.165   5.123   6.626
11380TIP3    H134079   4.213   5.111   6.710
11380TIP3    H234080   4.090   5.062   6.636
11381TIP3   OH234081   4.563   3.946   6.415
11381TIP3    H134082   4.475   3.916   6.386
11381TIP3    H234083   4.538   4.029   6.460
11382TIP3   OH234084   5.100   4.062   6.608
11382TIP3    H134085   5.169   4.034   6.671
11382TIP3    H234086   5.017   4.042   6.657
11383TIP3   OH234087   5.333   4.490   6.524
11383TIP3    H134088   5.285   4.489   6.610
11383TIP3    H234089   5.313   4.580   6.490
11384TIP3   OH234090   4.999   4.621   5.086
11384TIP3    H134091   4.961   4.596   5.000
11384TIP3    H234092   5.083   4.663   5.058
11385TIP3   OH234093   4.704   4.004   5.388
11385TIP3    H134094   4.673   3.992   5.480
11385TIP3    H234095   4.668   3.923   5.348
11386TIP3   OH234096   4.494   4.464   6.430
11386TIP3    H134097   4.446   4.487   6.512
11386TIP3    H234098   4.480   4.545   6.377
11387TIP3   OH234099   4.378   4.348   5.947
11387TIP3    H134100   4.285   4.324   5.968
11387TIP3    H234101   4.387   4.307   5.858
11388TIP3   OH234102   4.868   4.434   5.669
11388TIP3    H134103   4.817   4.497   5.616
11388TIP3    H234104   4.932   4.401   5.602
11389TIP3   OH234105   5.045   4.710   6.757
11389TIP3    H134106   5.025   4.638   6.820
11389TIP3    H234107   5.138   4.729   6.780
11390TIP3   OH234108   5.025   4.461   5.913
11390TIP3    H134109   4.967   4.492   5.840
11390TIP3    H234110   5.062   4.381   5.869
11391TIP3   OH234111   4.314   4.496   6.639
11391TIP3    H134112   4.346   4.564   6.700
11391TIP3    H234113   4.303   4.418   6.697
11392TIP3   OH234114   4.370   3.973   5.350
11392TIP3    H134115   4.357   3.970   5.446
11392TIP3    H234116   4.288   4.017   5.321
11393TIP3   OH234117   3.907   4.013   6.225
11393TIP3    H134118   3.985   4.044   6.275
11393TIP3    H234119   3.943   3.982   6.141
11394TIP3   OH234120   3.877   3.996   5.741
11394TIP3    H134121   3.922   4.034   5.663
11394TIP3    H234122   3.814   4.068   5.761
11395TIP3   OH234123   5.030   4.708   6.333
11395TIP3    H134124   5.066   4.636   6.275
11395TIP3    H234125   5.004   4.654   6.411
11396TIP3   OH234126   4.706   4.174   6.004
11396TIP3    H134127   4.627   4.170   6.061
11396TIP3    H234128   4.779   4.167   6.069
11397TIP3   OH234129   4.140   4.227   6.015
11397TIP3    H134130   4.045   4.236   5.987
11397TIP3    H234131   4.161   4.135   5.991
11398TIP3   OH234132   4.401   4.221   5.701
11398TIP3    H134133   4.498   4.230   5.695
11398TIP3    H234134   4.372   4.248   5.611
11399TIP3   OH234135   5.200   4.248   6.210
11399TIP3    H134136   5.166   4.260   6.302
11399TIP3    H234137   5.134   4.187   6.174
11400TIP3   OH234138   4.271   4.267   5.454
11400TIP3    H134139   4.190   4.241   5.500
11400TIP3    H234140   4.246   4.235   5.364
11401TIP3   OH234141   5.371   5.935   6.430
11401TIP3    H134142   5.368   5.963   6.336
11401TIP3    H234143   5.449   5.985   6.462
11402TIP3   OH234144   4.327   5.042   6.851
11402TIP3    H134145   4.407   5.075   6.896
11402TIP3    H234146   4.262   5.051   6.924
11403TIP3   OH234147   4.790   4.500   6.102
11403TIP3    H134148   4.865   4.463   6.052
11403TIP3    H234149   4.800   4.457   6.189
11404TIP3   OH234150   4.312   3.985   5.985
11404TIP3    H134151   4.274   3.909   6.034
11404TIP3    H234152   4.362   3.941   5.916
11405TIP3   OH234153   4.766   4.396   6.399
11405TIP3    H134154   4.677   4.435   6.410
11405TIP3    H234155   4.825   4.459   6.445
11406TIP3   OH234156   4.500   4.783   5.496
11406TIP3    H134157   4.405   4.768   5.486
11406TIP3    H234158   4.499   4.825   5.586
11407TIP3   OH234159   5.403   5.022   6.116
11407TIP3    H134160   5.429   5.074   6.037
11407TIP3    H234161   5.318   4.983   6.089
11408TIP3   OH234162   4.962   4.095   5.360
11408TIP3    H134163   4.865   4.081   5.362
11408TIP3    H234164   4.971   4.191   5.374
11409TIP3   OH234165   4.894   5.101   6.490
11409TIP3    H134166   4.935   5.093   6.577
11409TIP3    H234167   4.864   5.194   6.489
11410TIP3   OH234168   5.027   4.351   5.455
11410TIP3    H134169   5.124   4.355   5.467
11410TIP3    H234170   5.009   4.429   5.400
11411TIP3   OH234171   4.194   4.807   6.164
11411TIP3    H134172   4.233   4.783   6.078
11411TIP3    H234173   4.243   4.749   6.224
11412TIP3   OH234174   4.645   4.936   5.314
11412TIP3    H134175   4.600   5.024   5.317
11412TIP3    H234176   4.592   4.886   5.380
11413TIP3   OH234177   4.077   4.728   6.779
11413TIP3    H134178   4.098   4.719   6.874
11413TIP3    H234179   4.009   4.661   6.767
11414TIP3   OH234180   4.805   4.843   6.799
11414TIP3    H134181   4.748   4.789   6.742
11414TIP3    H234182   4.893   4.811   6.772
11415TIP3   OH234183   5.060   5.354   6.389
11415TIP3    H134184   4.963   5.365   6.398
11415TIP3    H234185   5.091   5.412   6.462
11416TIP3   OH234186   5.470   4.440   5.292
11416TIP3    H134187   5.408   4.396   5.229
11416TIP3    H234188   5.468   4.529   5.251
11417TIP3   OH234189   5.690   5.293   6.374
11417TIP3    H134190   5.593   5.290   6.364
11417TIP3    H234191   5.717   5.265   6.283
11418TIP3   OH234192   5.169   5.256   5.198
11418TIP3    H134193   5.148   5.184   5.258
11418TIP3    H234194   5.186   5.212   5.113
11419TIP3   OH234195   5.168   4.887   6.034
11419TIP3    H134196   5.074   4.862   6.047
11419TIP3    H234197   5.202   4.806   5.990
11420TIP3   OH234198   4.297   5.113   5.785
11420TIP3    H134199   4.297   5.196   5.734
11420TIP3    H234200   4.203   5.102   5.803
11421TIP3   OH234201   3.863   4.418   5.497
11421TIP3    H134202   3.903   4.505   5.516
11421TIP3    H234203   3.783   4.422   5.554
11422TIP3   OH234204   4.433   4.880   5.736
11422TIP3    H134205   4.398   4.970   5.752
11422TIP3    H234206   4.395   4.830   5.810
11423TIP3   OH234207   4.567   5.456   6.258
11423TIP3    H134208   4.607   5.530   6.207
11423TIP3    H234209   4.644   5.423   6.306
11424TIP3   OH234210   4.216   5.352   5.642
11424TIP3    H134211   4.131   5.362   5.688
11424TIP3    H234212   4.250   5.444   5.645
11425TIP3   OH234213   4.950   5.089   6.221
11425TIP3    H134214   4.940   5.087   6.318
11425TIP3    H234215   5.036   5.047   6.209
11426TIP3   OH234216   4.933   4.984   5.101
11426TIP3    H134217   4.983   4.960   5.182
11426TIP3    H234218   4.843   4.956   5.126
11427TIP3   OH234219   5.202   5.622   6.264
11427TIP3    H134220   5.118   5.572   6.253
11427TIP3    H234221   5.191   5.690   6.194
11428TIP3   OH234222   5.269   5.459   4.921
11428TIP3    H134223   5.309   5.535   4.875
11428TIP3    H234224   5.187   5.503   4.953
11429TIP3   OH234225   4.276   4.245   6.789
11429TIP3    H134226   4.178   4.255   6.789
11429TIP3    H234227   4.285   4.157   6.827
11430TIP3   OH234228   5.091   4.923   5.324
11430TIP3    H134229   5.083   4.853   5.391
11430TIP3    H234230   5.187   4.918   5.305
11431TIP3   OH234231   4.005   5.320   6.416
11431TIP3    H134232   4.062   5.251   6.454
11431TIP3    H234233   4.030   5.396   6.469
11432TIP3   OH234234   4.296   4.969   5.103
11432TIP3    H134235   4.297   4.880   5.063
11432TIP3    H234236   4.279   4.949   5.197
11433TIP3   OH234237   4.251   4.969   5.383
11433TIP3    H134238   4.314   4.972   5.455
11433TIP3    H234239   4.238   5.065   5.369
11434TIP3   OH234240   3.977   4.666   5.574
11434TIP3    H134241   3.911   4.707   5.633
11434TIP3    H234242   3.983   4.737   5.506
11435TIP3   OH234243   5.125   4.299   6.469
11435TIP3    H134244   5.205   4.340   6.505
11435TIP3    H234245   5.114   4.219   6.524
11436TIP3   OH234246   5.001   4.052   5.638
11436TIP3    H134247   4.991   4.071   5.542
11436TIP3    H234248   5.045   4.134   5.670
11437TIP3   OH234249   4.505   5.165   5.323
11437TIP3    H134250   4.417   5.193   5.356
11437TIP3    H234251   4.523   5.237   5.260
11438TIP3   OH234252   4.682   4.237   5.735
11438TIP3    H134253   4.752   4.303   5.719
11438TIP3    H234254   4.692   4.224   5.832
11439TIP3   OH234255   4.962   4.546   6.543
11439TIP3    H134256   4.988   4.601   6.621
11439TIP3    H234257   5.019   4.468   6.554
11440TIP3   OH234258   4.836   3.954   5.837
11440TIP3    H134259   4.839   4.027   5.901
11440TIP3    H234260   4.897   3.988   5.767
11441TIP3   OH234261   4.246   5.239   5.388
11441TIP3    H134262   4.219   5.310   5.325
11441TIP3    H234263   4.232   5.284   5.474
11442TIP3   OH234264   4.349   3.955   5.626
11442TIP3    H134265   4.351   4.042   5.670
11442TIP3    H234266   4.444   3.932   5.633
11443TIP3   OH234267   5.601   4.449   6.526
11443TIP3    H134268   5.503   4.445   6.530
11443TIP3    H234269   5.616   4.412   6.438
11444TIP3   OH234270   5.253   4.642   5.913
11444TIP3    H134271   5.179   4.581   5.926
11444TIP3    H234272   5.327   4.597   5.960
11445TIP3   OH234273   3.966   4.871   5.384
11445TIP3    H134274   4.025   4.947   5.389
11445TIP3    H234275   4.009   4.820   5.313
11446TIP3   OH234276   3.920   4.152   5.519
11446TIP3    H134277   3.907   4.249   5.514
11446TIP3    H234278   3.846   4.119   5.467
11447TIP3   OH234279   5.223   5.597   5.858
11447TIP3    H134280   5.181   5.643   5.783
11447TIP3    H234281   5.317   5.619   5.840
11448TIP3   OH234282   4.298   3.868   6.388
11448TIP3    H134283   4.268   3.834   6.300
11448TIP3    H234284   4.288   3.788   6.444
11449TIP3   OH234285   3.834   5.081   5.766
11449TIP3    H134286   3.768   5.114   5.829
11449TIP3    H234287   3.804   5.126   5.683
11450TIP3   OH234288   3.996   5.632   6.842
11450TIP3    H134289   4.082   5.635   6.889
11450TIP3    H234290   3.978   5.537   6.840
11451TIP3   OH234291   4.471   5.589   6.889
11451TIP3    H134292   4.567   5.582   6.894
11451TIP3    H234293   4.451   5.529   6.814
11452TIP3   OH234294   4.461   5.170   5.014
11452TIP3    H134295   4.406   5.096   5.049
11452TIP3    H234296   4.534   5.120   4.971
11453TIP3   OH234297   5.115   5.498   6.618
11453TIP3    H134298   5.108   5.430   6.689
11453TIP3    H234299   5.191   5.551   6.647
11454TIP3   OH234300   4.893   5.207   4.924
11454TIP3    H134301   4.940   5.146   4.984
11454TIP3    H234302   4.950   5.207   4.845
11455TIP3   OH234303   4.125   5.034   7.043
11455TIP3    H134304   4.141   4.938   7.043
11455TIP3    H234305   4.038   5.039   6.997
11456TIP3   OH234306   4.090   4.693   5.221
11456TIP3    H134307   4.131   4.629   5.281
11456TIP3    H234308   4.159   4.698   5.151
11457TIP3   OH234309   4.731   5.120   6.816
11457TIP3    H134310   4.693   5.142   6.728
11457TIP3    H234311   4.764   5.029   6.803
11458TIP3   OH234312   4.627   4.880   5.047
11458TIP3    H134313   4.623   4.899   5.143
11458TIP3    H234314   4.604   4.786   5.045
11459TIP3   OH234315   5.223   5.130   6.420
11459TIP3    H134316   5.301   5.171   6.377
11459TIP3    H234317   5.157   5.202   6.407
11460TIP3   OH234318   4.241   4.767   7.026
11460TIP3    H134319   4.326   4.738   6.992
11460TIP3    H234320   4.267   4.801   7.115
11461TIP3   OH234321   4.576   4.648   6.681
11461TIP3    H134322   4.502   4.713   6.684
11461TIP3    H234323   4.630   4.684   6.607
11462TIP3   OH234324   5.093   5.052   6.817
11462TIP3    H134325   5.176   5.032   6.772
11462TIP3    H234326   5.094   4.989   6.891
11463TIP3   OH234327   5.230   4.712   4.962
11463TIP3    H134328   5.213   4.666   4.877
11463TIP3    H234329   5.198   4.802   4.939
11464TIP3   OH234330   4.699   4.441   6.810
11464TIP3    H134331   4.705   4.363   6.750
11464TIP3    H234332   4.659   4.508   6.751
11465TIP3   OH234333   4.705   4.229   6.619
11465TIP3    H134334   4.735   4.271   6.536
11465TIP3    H234335   4.612   4.206   6.598
11466TIP3   OH234336   4.729   4.762   6.493
11466TIP3    H134337   4.815   4.776   6.452
11466TIP3    H234338   4.674   4.829   6.447
11467TIP3   OH234339   5.312   4.730   6.870
11467TIP3    H134340   5.364   4.649   6.881
11467TIP3    H234341   5.379   4.792   6.836
11468TIP3   OH234342   5.353   4.982   6.604
11468TIP3    H134343   5.296   5.038   6.547
11468TIP3    H234344   5.441   5.005   6.566
11469TIP3   OH234345   4.588   4.549   7.042
11469TIP3    H134346   4.502   4.507   7.037
11469TIP3    H234347   4.628   4.525   6.956
11470TIP3   OH234348   4.837   3.991   6.686
11470TIP3    H134349   4.788   4.072   6.662
11470TIP3    H234350   4.769   3.922   6.673
11471TIP3   OH234351   4.965   4.493   6.902
11471TIP3    H134352   4.957   4.482   6.998
11471TIP3    H234353   4.874   4.469   6.874
11472TIP3   OH234354   5.202   4.443   6.755
11472TIP3    H134355   5.128   4.446   6.819
11472TIP3    H234356   5.277   4.415   6.811
11473TIP3   OH234357   5.429   4.386   6.906
11473TIP3    H134358   5.443   4.290   6.923
11473TIP3    H234359   5.426   4.424   6.996
11474TIP3   OH234360   4.928   4.002   6.943
11474TIP3    H134361   4.997   3.932   6.939
11474TIP3    H234362   4.892   3.995   6.852
11475TIP3   OH234363   4.999   4.215   7.103
11475TIP3    H134364   4.977   4.144   7.039
11475TIP3    H234365   4.921   4.274   7.097
11476TIP3   OH234366   4.219   5.442   5.202
11476TIP3    H134367   4.315   5.437   5.184
11476TIP3    H234368   4.191   5.494   5.124
11477TIP3   OH234369   3.697   4.827   5.419
11477TIP3    H134370   3.792   4.848   5.404
11477TIP3    H234371   3.691   4.738   5.377
11478TIP3   OH234372   3.615   5.439   5.832
11478TIP3    H134373   3.547   5.378   5.794
11478TIP3    H234374   3.659   5.380   5.896
11479TIP3   OH234375   3.751   5.287   6.016
11479TIP3    H134376   3.732   5.218   6.082
11479TIP3    H234377   3.802   5.350   6.070
11480TIP3   OH234378   5.474   5.689   5.819
11480TIP3    H134379   5.501   5.735   5.900
11480TIP3    H234380   5.540   5.723   5.755
11481TIP3   OH234381   5.499   5.712   6.105
11481TIP3    H134382   5.463   5.621   6.097
11481TIP3    H234383   5.581   5.694   6.154
11482TIP3   OH234384   5.553   5.385   6.676
11482TIP3    H134385   5.479   5.396   6.739
11482TIP3    H234386   5.594   5.474   6.677
11483TIP3   OH234387   5.367   4.900   5.293
11483TIP3    H134388   5.434   4.965   5.262
11483TIP3    H234389   5.413   4.862   5.371
11484TIP3   OH234390   5.496   4.767   5.496
11484TIP3    H134391   5.430   4.726   5.557
11484TIP3    H234392   5.562   4.804   5.558
11485TIP3   OH234393   5.551   5.160   5.930
11485TIP3    H134394   5.603   5.096   5.878
11485TIP3    H234395   5.550   5.238   5.870
11486TIP3   OH234396   5.380   5.455   6.126
11486TIP3    H134397   5.310   5.505   6.174
11486TIP3    H234398   5.330   5.413   6.053
11487TIP3   OH234399   5.433   4.675   5.143
11487TIP3    H134400   5.362   4.677   5.075
11487TIP3    H234401   5.405   4.752   5.197
11488TIP3   OH234402   5.302   4.350   5.100
11488TIP3    H134403   5.266   4.387   5.018
11488TIP3    H234404   5.278   4.255   5.090
11489TIP3   OH234405   5.310   4.625   5.644
11489TIP3    H134406   5.319   4.528   5.637
11489TIP3    H234407   5.296   4.637   5.741
11490TIP3   OH234408   3.935   4.691   6.396
11490TIP3    H134409   3.932   4.663   6.302
11490TIP3    H234410   4.032   4.697   6.409
11491TIP3   OH234411   5.598   5.049   6.501
11491TIP3    H134412   5.671   4.984   6.489
11491TIP3    H234413   5.624   5.120   6.440
11492TIP3   OH234414   5.782   4.851   6.511
11492TIP3    H134415   5.708   4.802   6.554
11492TIP3    H234416   5.855   4.788   6.528
11493TIP3   OH234417   5.247   4.084   5.087
11493TIP3    H134418   5.322   4.050   5.138
11493TIP3    H234419   5.176   4.020   5.104
11494TIP3   OH234420   5.305   4.341   5.536
11494TIP3    H134421   5.347   4.252   5.550
11494TIP3    H234422   5.363   4.374   5.465
11495TIP3   OH234423   5.467   4.513   6.033
11495TIP3    H134424   5.553   4.537   5.992
11495TIP3    H234425   5.481   4.551   6.122
11496TIP3   OH234426   5.537   4.658   6.264
11496TIP3    H134427   5.460   4.693   6.312
11496TIP3    H234428   5.570   4.739   6.219
11497TIP3   OH234429   4.149   4.381   7.074
11497TIP3    H134430   4.240   4.368   7.045
11497TIP3    H234431   4.127   4.294   7.113
11498TIP3   OH234432   5.988   4.250   6.820
11498TIP3    H134433   6.048   4.185   6.777
11498TIP3    H234434   5.958   4.303   6.743
11499TIP3   OH234435   5.414   4.091   5.577
11499TIP3    H134436   5.463   4.074   5.659
11499TIP3    H234437   5.354   4.014   5.575
11500TIP3   OH234438   4.115   4.077   6.401
11500TIP3    H134439   4.176   4.001   6.405
11500TIP3    H234440   4.178   4.150   6.388
11501TIP3   OH234441   3.920   4.351   6.470
11501TIP3    H134442   3.966   4.340   6.384
11501TIP3    H234443   3.947   4.440   6.494
11502TIP3   OH234444   5.857   4.387   6.626
11502TIP3    H134445   5.772   4.430   6.647
11502TIP3    H234446   5.825   4.315   6.567
11503TIP3   OH234447   5.495   4.022   5.210
11503TIP3    H134448   5.534   3.953   5.154
11503TIP3    H234449   5.560   4.094   5.204
11504TIP3   OH234450   3.901   3.859   5.973
11504TIP3    H134451   3.807   3.849   5.996
11504TIP3    H234452   3.896   3.914   5.892
11505TIP3   OH234453   5.057   5.555   5.474
11505TIP3    H134454   5.112   5.548   5.393
11505TIP3    H234455   5.106   5.623   5.525
11506TIP3   OH234456   4.125   3.948   6.792
11506TIP3    H134457   4.067   3.931   6.868
11506TIP3    H234458   4.060   3.977   6.725
11507TIP3   OH234459   4.162   5.354   6.858
11507TIP3    H134460   4.067   5.335   6.846
11507TIP3    H234461   4.171   5.352   6.954
11508TIP3   OH234462   4.340   5.394   6.406
11508TIP3    H134463   4.293   5.471   6.368
11508TIP3    H234464   4.427   5.409   6.362
11509TIP3   OH234465   4.782   5.637   6.543
11509TIP3    H134466   4.823   5.639   6.632
11509TIP3    H234467   4.847   5.689   6.492
11510TIP3   OH234468   4.962   5.790   6.406
11510TIP3    H134469   5.035   5.744   6.363
11510TIP3    H234470   5.012   5.848   6.467
11511TIP3   OH234471   5.757   4.151   6.505
11511TIP3    H134472   5.667   4.143   6.469
11511TIP3    H234473   5.790   4.058   6.494
11512TIP3   OH234474   4.013   5.647   6.435
11512TIP3    H134475   3.923   5.679   6.412
11512TIP3    H234476   4.029   5.699   6.516
11513TIP3   OH234477   4.249   5.626   6.290
11513TIP3    H134478   4.162   5.640   6.334
11513TIP3    H234479   4.232   5.661   6.200
11514TIP3   OH234480   4.676   5.655   6.089
11514TIP3    H134481   4.609   5.677   6.022
11514TIP3    H234482   4.690   5.743   6.131
11515TIP3   OH234483   4.947   5.592   6.139
11515TIP3    H134484   4.854   5.615   6.121
11515TIP3    H234485   4.994   5.667   6.098
11516TIP3   OH234486   5.145   5.784   6.052
11516TIP3    H134487   5.136   5.871   6.007
11516TIP3    H234488   5.178   5.728   5.978
11517TIP3   OH234489   3.926   5.443   6.174
11517TIP3    H134490   3.952   5.418   6.265
11517TIP3    H234491   4.000   5.400   6.124
11518TIP3   OH234492   4.122   5.315   6.034
11518TIP3    H134493   4.138   5.232   6.085
11518TIP3    H234494   4.212   5.353   6.031
11519TIP3   OH234495   4.386   5.409   6.040
11519TIP3    H134496   4.420   5.318   6.029
11519TIP3    H234497   4.433   5.434   6.122
11520TIP3   OH234498   4.957   4.063   6.116
11520TIP3    H134499   4.919   3.993   6.172
11520TIP3    H234500   5.036   4.020   6.079
11521TIP3   OH234501   5.483   3.947   6.029
11521TIP3    H134502   5.520   3.998   5.954
11521TIP3    H234503   5.388   3.968   6.022
11522TIP3   OH234504   5.579   4.045   5.793
11522TIP3    H134505   5.652   3.993   5.754
11522TIP3    H234506   5.613   4.136   5.778
11523TIP3   OH234507   4.211   3.775   6.140
11523TIP3    H134508   4.118   3.743   6.141
11523TIP3    H234509   4.258   3.689   6.135
11524TIP3   OH234510   4.002   3.645   5.791
11524TIP3    H134511   4.028   3.701   5.716
11524TIP3    H234512   3.971   3.711   5.856
11525TIP3   OH234513   4.655   3.808   6.021
11525TIP3    H134514   4.712   3.855   5.958
11525TIP3    H234515   4.684   3.845   6.106
11526TIP3   OH234516   5.196   3.954   6.005
11526TIP3    H134517   5.203   3.915   5.917
11526TIP3    H234518   5.186   3.874   6.061
11527TIP3   OH234519   5.232   3.878   5.568
11527TIP3    H134520   5.144   3.918   5.578
11527TIP3    H234521   5.218   3.791   5.613
11528TIP3   OH234522   3.715   5.218   5.566
11528TIP3    H134523   3.629   5.185   5.534
11528TIP3    H234524   3.706   5.312   5.544
11529TIP3   OH234525   4.116   3.802   5.551
11529TIP3    H134526   4.162   3.738   5.493
11529TIP3    H234527   4.192   3.854   5.586
11530TIP3   OH234528   4.626   3.981   5.653
11530TIP3    H134529   4.687   3.933   5.711
11530TIP3    H234530   4.650   4.073   5.677
11531TIP3   OH234531   4.487   5.403   5.151
11531TIP3    H134532   4.575   5.426   5.115
11531TIP3    H234533   4.466   5.329   5.091
11532TIP3   OH234534   5.204   5.523   5.243
11532TIP3    H134535   5.195   5.426   5.230
11532TIP3    H234536   5.161   5.557   5.162
11533TIP3   OH234537   4.652   4.039   7.154
11533TIP3    H134538   4.709   4.069   7.082
11533TIP3    H234539   4.707   3.967   7.190
11534TIP3   OH234540   3.791   5.240   5.204
11534TIP3    H134541   3.794   5.264   5.297
11534TIP3    H234542   3.879   5.197   5.190
11535TIP3   OH234543   5.494   4.115   6.937
11535TIP3    H134544   5.513   4.084   7.029
11535TIP3    H234545   5.583   4.111   6.896
11536TIP3   OH234546   5.431   5.666   6.430
11536TIP3    H134547   5.353   5.638   6.378
11536TIP3    H234548   5.415   5.763   6.433
11537TIP3   OH234549   6.699   5.041   5.192
11537TIP3    H134550   6.669   5.132   5.172
11537TIP3    H234551   6.623   4.990   5.160
11538TIP3   OH234552   6.704   5.037   5.576
11538TIP3    H134553   6.732   5.013   5.666
11538TIP3    H234554   6.656   4.958   5.547
11539TIP3   OH234555   5.997   4.933   5.942
11539TIP3    H134556   6.028   4.865   6.004
11539TIP3    H234557   6.073   4.993   5.938
11540TIP3   OH234558   6.946   5.341   5.259
11540TIP3    H134559   6.922   5.276   5.327
11540TIP3    H234560   6.970   5.419   5.312
11541TIP3   OH234561   5.970   5.344   5.665
11541TIP3    H134562   5.961   5.247   5.668
11541TIP3    H234563   6.067   5.354   5.658
11542TIP3   OH234564   5.675   4.544   5.450
11542TIP3    H134565   5.628   4.628   5.467
11542TIP3    H234566   5.604   4.494   5.406
11543TIP3   OH234567   5.732   4.834   5.626
11543TIP3    H134568   5.783   4.757   5.660
11543TIP3    H234569   5.792   4.870   5.560
11544TIP3   OH234570   6.591   5.806   5.274
11544TIP3    H134571   6.637   5.732   5.229
11544TIP3    H234572   6.576   5.770   5.362
11545TIP3   OH234573   6.495   5.265   5.626
11545TIP3    H134574   6.535   5.191   5.577
11545TIP3    H234575   6.578   5.311   5.652
11546TIP3   OH234576   7.514   4.586   5.625
11546TIP3    H134577   7.541   4.668   5.671
11546TIP3    H234578   7.523   4.612   5.532
11547TIP3   OH234579   6.913   4.766   5.655
11547TIP3    H134580   6.950   4.678   5.676
11547TIP3    H234581   6.876   4.751   5.566
11548TIP3   OH234582   6.250   4.426   5.621
11548TIP3    H134583   6.228   4.498   5.559
11548TIP3    H234584   6.201   4.352   5.578
11549TIP3   OH234585   6.942   4.518   5.246
11549TIP3    H134586   7.015   4.502   5.310
11549TIP3    H234587   6.993   4.553   5.171
11550TIP3   OH234588   5.880   4.627   5.730
11550TIP3    H134589   5.963   4.609   5.778
11550TIP3    H234590   5.893   4.572   5.650
11551TIP3   OH234591   6.320   4.825   5.523
11551TIP3    H134592   6.414   4.800   5.536
11551TIP3    H234593   6.281   4.741   5.491
11552TIP3   OH234594   7.584   4.795   5.792
11552TIP3    H134595   7.499   4.841   5.773
11552TIP3    H234596   7.597   4.822   5.884
11553TIP3   OH234597   6.243   4.410   6.057
11553TIP3    H134598   6.184   4.447   5.989
11553TIP3    H234599   6.190   4.428   6.138
11554TIP3   OH234600   6.594   5.264   5.060
11554TIP3    H134601   6.546   5.243   4.979
11554TIP3    H234602   6.547   5.346   5.088
11555TIP3   OH234603   6.350   5.185   5.851
11555TIP3    H134604   6.288   5.253   5.888
11555TIP3    H234605   6.391   5.234   5.777
11556TIP3   OH234606   7.154   4.520   5.419
11556TIP3    H134607   7.129   4.476   5.501
11556TIP3    H234608   7.199   4.600   5.451
11557TIP3   OH234609   6.115   4.524   5.840
11557TIP3    H134610   6.177   4.597   5.864
11557TIP3    H234611   6.164   4.484   5.765
11558TIP3   OH234612   6.180   5.380   5.949
11558TIP3    H134613   6.154   5.467   5.911
11558TIP3    H234614   6.100   5.364   6.004
11559TIP3   OH234615   5.569   5.067   5.185
11559TIP3    H134616   5.530   5.097   5.101
11559TIP3    H234617   5.600   5.153   5.223
11560TIP3   OH234618   7.013   5.585   5.423
11560TIP3    H134619   6.924   5.576   5.465
11560TIP3    H234620   7.003   5.672   5.379
11561TIP3   OH234621   7.303   4.486   5.790
11561TIP3    H134622   7.214   4.511   5.759
11561TIP3    H234623   7.360   4.517   5.717
11562TIP3   OH234624   6.598   4.127   5.773
11562TIP3    H134625   6.582   4.032   5.789
11562TIP3    H234626   6.521   4.166   5.819
11563TIP3   OH234627   6.716   5.629   5.101
11563TIP3    H134628   6.765   5.547   5.080
11563TIP3    H234629   6.776   5.695   5.060
11564TIP3   OH234630   6.859   5.413   5.007
11564TIP3    H134631   6.804   5.339   4.978
11564TIP3    H234632   6.897   5.379   5.091
11565TIP3   OH234633   7.237   5.496   5.770
11565TIP3    H134634   7.223   5.420   5.710
11565TIP3    H234635   7.217   5.572   5.710
11566TIP3   OH234636   6.530   4.892   5.029
11566TIP3    H134637   6.448   4.943   5.010
11566TIP3    H234638   6.570   4.887   4.941
11567TIP3   OH234639   6.488   4.674   4.748
11567TIP3    H134640   6.556   4.729   4.789
11567TIP3    H234641   6.543   4.613   4.696
11568TIP3   OH234642   7.432   5.133   5.613
11568TIP3    H134643   7.348   5.185   5.619
11568TIP3    H234644   7.462   5.162   5.524
11569TIP3   OH234645   6.878   4.975   4.998
11569TIP3    H134646   6.821   4.999   5.074
11569TIP3    H234647   6.961   4.952   5.044
11570TIP3   OH234648   7.111   5.012   5.911
11570TIP3    H134649   7.108   5.096   5.961
11570TIP3    H234650   7.024   5.015   5.867
11571TIP3   OH234651   6.108   4.971   5.416
11571TIP3    H134652   6.066   4.913   5.348
11571TIP3    H234653   6.185   4.917   5.444
11572TIP3   OH234654   6.238   5.381   5.564
11572TIP3    H134655   6.217   5.346   5.476
11572TIP3    H234656   6.327   5.346   5.580
11573TIP3   OH234657   6.247   4.941   5.770
11573TIP3    H134658   6.278   4.921   5.680
11573TIP3    H234659   6.288   5.029   5.788
11574TIP3   OH234660   6.775   5.579   5.548
11574TIP3    H134661   6.757   5.661   5.596
11574TIP3    H234662   6.754   5.509   5.612
11575TIP3   OH234663   6.384   5.497   6.096
11575TIP3    H134664   6.323   5.560   6.140
11575TIP3    H234665   6.319   5.445   6.043
11576TIP3   OH234666   6.718   4.829   4.825
11576TIP3    H134667   6.774   4.893   4.875
11576TIP3    H234668   6.743   4.851   4.732
11577TIP3   OH234669   6.139   5.051   6.198
11577TIP3    H134670   6.144   5.141   6.239
11577TIP3    H234671   6.043   5.033   6.209
11578TIP3   OH234672   6.463   5.507   5.099
11578TIP3    H134673   6.540   5.565   5.115
11578TIP3    H234674   6.399   5.568   5.061
11579TIP3   OH234675   6.179   5.664   6.181
11579TIP3    H134676   6.142   5.669   6.091
11579TIP3    H234677   6.099   5.641   6.234
11580TIP3   OH234678   7.233   4.072   4.874
11580TIP3    H134679   7.150   4.085   4.924
11580TIP3    H234680   7.248   4.161   4.838
11581TIP3   OH234681   5.975   4.814   5.220
11581TIP3    H134682   5.908   4.861   5.165
11581TIP3    H234683   5.934   4.727   5.229
11582TIP3   OH234684   7.031   5.440   4.421
11582TIP3    H134685   7.039   5.536   4.407
11582TIP3    H234686   7.124   5.411   4.409
11583TIP3   OH234687   5.755   5.198   6.129
11583TIP3    H134688   5.689   5.179   6.059
11583TIP3    H234689   5.792   5.110   6.148
11584TIP3   OH234690   5.610   5.388   5.768
11584TIP3    H134691   5.705   5.392   5.752
11584TIP3    H234692   5.595   5.473   5.812
11585TIP3   OH234693   7.478   5.846   5.818
11585TIP3    H134694   7.476   5.750   5.834
11585TIP3    H234695   7.393   5.872   5.862
11586TIP3   OH234696   6.582   5.625   5.953
11586TIP3    H134697   6.580   5.718   5.983
11586TIP3    H234698   6.509   5.586   6.006
11587TIP3   OH234699   6.346   5.759   4.901
11587TIP3    H134700   6.294   5.741   4.821
11587TIP3    H234701   6.309   5.844   4.932
11588TIP3   OH234702   5.782   5.605   5.289
11588TIP3    H134703   5.830   5.598   5.375
11588TIP3    H234704   5.711   5.542   5.304
11589TIP3   OH234705   6.543   5.660   4.541
11589TIP3    H134706   6.602   5.589   4.506
11589TIP3    H234707   6.576   5.669   4.633
11590TIP3   OH234708   6.595   5.706   4.810
11590TIP3    H134709   6.506   5.719   4.849
11590TIP3    H234710   6.643   5.667   4.885
11591TIP3   OH234711   7.365   4.973   6.091
11591TIP3    H134712   7.281   4.987   6.045
11591TIP3    H234713   7.378   4.877   6.079
11592TIP3   OH234714   5.962   5.378   6.112
11592TIP3    H134715   6.008   5.366   6.197
11592TIP3    H234716   5.886   5.317   6.121
11593TIP3   OH234717   6.360   4.204   5.901
11593TIP3    H134718   6.272   4.173   5.873
11593TIP3    H234719   6.334   4.285   5.949
11594TIP3   OH234720   6.894   4.319   6.095
11594TIP3    H134721   6.961   4.291   6.160
11594TIP3    H234722   6.810   4.299   6.142
11595TIP3   OH234723   7.135   4.751   6.016
11595TIP3    H134724   7.082   4.747   6.099
11595TIP3    H234725   7.108   4.837   5.978
11596TIP3   OH234726   6.800   4.875   4.573
11596TIP3    H134727   6.758   4.852   4.488
11596TIP3    H234728   6.876   4.928   4.543
11597TIP3   OH234729   6.509   4.248   4.873
11597TIP3    H134730   6.470   4.247   4.963
11597TIP3    H234731   6.465   4.169   4.835
11598TIP3   OH234732   6.293   4.719   5.919
11598TIP3    H134733   6.241   4.740   6.000
11598TIP3    H234734   6.277   4.801   5.866
11599TIP3   OH234735   6.176   4.606   5.433
11599TIP3    H134736   6.083   4.581   5.450
11599TIP3    H234737   6.188   4.566   5.343
11600TIP3   OH234738   6.667   4.693   5.163
11600TIP3    H134739   6.614   4.764   5.120
11600TIP3    H234740   6.719   4.659   5.087
11601TIP3   OH234741   6.841   4.967   6.245
11601TIP3    H134742   6.818   4.896   6.308
11601TIP3    H234743   6.934   4.983   6.268
11602TIP3   OH234744   6.823   4.720   5.399
11602TIP3    H134745   6.760   4.750   5.330
11602TIP3    H234746   6.855   4.639   5.355
11603TIP3   OH234747   6.113   4.748   6.127
11603TIP3    H134748   6.134   4.815   6.194
11603TIP3    H234749   6.101   4.668   6.181
11604TIP3   OH234750   6.164   4.229   4.837
11604TIP3    H134751   6.150   4.226   4.934
11604TIP3    H234752   6.085   4.279   4.808
11605TIP3   OH234753   5.703   4.268   5.711
11605TIP3    H134754   5.779   4.302   5.763
11605TIP3    H234755   5.743   4.241   5.627
11606TIP3   OH234756   5.672   4.251   5.229
11606TIP3    H134757   5.716   4.288   5.149
11606TIP3    H234758   5.611   4.325   5.248
11607TIP3   OH234759   6.837   4.964   5.822
11607TIP3    H134760   6.869   4.893   5.762
11607TIP3    H234761   6.804   4.911   5.897
11608TIP3   OH234762   6.507   4.427   5.494
11608TIP3    H134763   6.423   4.426   5.544
11608TIP3    H234764   6.572   4.426   5.566
11609TIP3   OH234765   5.937   4.485   5.502
11609TIP3    H134766   5.842   4.493   5.474
11609TIP3    H234767   5.959   4.393   5.477
11610TIP3   OH234768   6.205   4.480   5.191
11610TIP3    H134769   6.297   4.495   5.165
11610TIP3    H234770   6.155   4.502   5.108
11611TIP3   OH234771   6.995   4.502   5.693
11611TIP3    H134772   6.965   4.516   5.786
11611TIP3    H234773   6.925   4.441   5.661
11612TIP3   OH234774   6.052   4.514   4.969
11612TIP3    H134775   5.982   4.467   4.920
11612TIP3    H234776   6.103   4.551   4.895
11613TIP3   OH234777   7.166   6.190   5.914
11613TIP3    H134778   7.163   6.220   5.822
11613TIP3    H234779   7.235   6.247   5.952
11614TIP3   OH234780   6.123   5.299   6.337
11614TIP3    H134781   6.202   5.333   6.384
11614TIP3    H234782   6.057   5.304   6.408
11615TIP3   OH234783   6.585   4.757   5.593
11615TIP3    H134784   6.657   4.716   5.544
11615TIP3    H234785   6.590   4.714   5.680
11616TIP3   OH234786   6.108   4.243   5.472
11616TIP3    H134787   6.072   4.165   5.519
11616TIP3    H234788   6.150   4.203   5.395
11617TIP3   OH234789   6.562   4.656   5.880
11617TIP3    H134790   6.471   4.690   5.894
11617TIP3    H234791   6.618   4.718   5.931
11618TIP3   OH234792   6.300   5.042   4.978
11618TIP3    H134793   6.227   4.978   4.965
11618TIP3    H234794   6.279   5.077   5.068
11619TIP3   OH234795   7.199   5.278   5.604
11619TIP3    H134796   7.220   5.330   5.524
11619TIP3    H234797   7.113   5.237   5.580
11620TIP3   OH234798   6.757   4.353   4.844
11620TIP3    H134799   6.661   4.332   4.850
11620TIP3    H234800   6.760   4.449   4.864
11621TIP3   OH234801   6.699   5.363   5.974
11621TIP3    H134802   6.721   5.346   6.066
11621TIP3    H234803   6.659   5.452   5.977
11622TIP3   OH234804   6.824   4.604   4.945
11622TIP3    H134805   6.920   4.615   4.958
11622TIP3    H234806   6.800   4.684   4.893
11623TIP3   OH234807   5.991   5.064   5.652
11623TIP3    H134808   6.029   5.037   5.566
11623TIP3    H234809   6.035   5.003   5.713
11624TIP3   OH234810   6.445   5.194   4.802
11624TIP3    H134811   6.396   5.280   4.804
11624TIP3    H234812   6.389   5.139   4.861
11625TIP3   OH234813   5.875   4.983   6.264
11625TIP3    H134814   5.891   4.971   6.360
11625TIP3    H234815   5.803   4.920   6.249
11626TIP3   OH234816   6.598   5.101   6.285
11626TIP3    H134817   6.536   5.042   6.239
11626TIP3    H234818   6.684   5.066   6.254
11627TIP3   OH234819   6.859   5.618   5.872
11627TIP3    H134820   6.763   5.619   5.884
11627TIP3    H234821   6.888   5.672   5.949
11628TIP3   OH234822   7.295   4.685   4.760
11628TIP3    H134823   7.230   4.638   4.702
11628TIP3    H234824   7.275   4.776   4.727
11629TIP3   OH234825   7.487   5.551   5.858
11629TIP3    H134826   7.389   5.548   5.850
11629TIP3    H234827   7.512   5.522   5.768
11630TIP3   OH234828   6.978   5.513   4.690
11630TIP3    H134829   6.938   5.449   4.751
11630TIP3    H234830   6.980   5.465   4.605
11631TIP3   OH234831   6.966   5.142   5.522
11631TIP3    H134832   6.872   5.118   5.537
11631TIP3    H234833   6.997   5.062   5.476
11632TIP3   OH234834   6.093   5.370   5.275
11632TIP3    H134835   6.090   5.452   5.221
11632TIP3    H234836   5.999   5.357   5.293
11633TIP3   OH234837   5.660   4.674   4.984
11633TIP3    H134838   5.703   4.759   5.004
11633TIP3    H234839   5.581   4.678   5.042
11634TIP3   OH234840   6.229   5.135   5.221
11634TIP3    H134841   6.193   5.225   5.237
11634TIP3    H234842   6.191   5.086   5.296
11635TIP3   OH234843   6.362   5.714   5.746
11635TIP3    H134844   6.401   5.788   5.695
11635TIP3    H234845   6.440   5.681   5.794
11636TIP3   OH234846   6.013   5.607   5.129
11636TIP3    H134847   5.927   5.616   5.175
11636TIP3    H234848   6.045   5.700   5.131
11637TIP3   OH234849   6.747   5.346   5.706
11637TIP3    H134850   6.737   5.347   5.804
11637TIP3    H234851   6.829   5.295   5.696
11638TIP3   OH234852   6.725   5.244   4.585
11638TIP3    H134853   6.776   5.216   4.665
11638TIP3    H234854   6.636   5.214   4.610
11639TIP3   OH234855   6.999   5.877   5.752
11639TIP3    H134856   6.917   5.825   5.746
11639TIP3    H234857   6.983   5.944   5.682
11640TIP3   OH234858   7.064   5.715   4.406
11640TIP3    H134859   7.096   5.789   4.352
11640TIP3    H234860   6.984   5.758   4.444
11641TIP3   OH234861   6.082   4.491   6.272
11641TIP3    H134862   5.986   4.494   6.285
11641TIP3    H234863   6.110   4.433   6.345
11642TIP3   OH234864   6.886   5.171   4.798
11642TIP3    H134865   6.874   5.109   4.873
11642TIP3    H234866   6.983   5.170   4.790
11643TIP3   OH234867   5.803   5.574   5.910
11643TIP3    H134868   5.859   5.507   5.952
11643TIP3    H234869   5.827   5.654   5.960
11644TIP3   OH234870   6.091   5.220   4.587
11644TIP3    H134871   6.102   5.127   4.560
11644TIP3    H234872   6.070   5.210   4.682
11645TIP3   OH234873   6.035   5.227   4.858
11645TIP3    H134874   6.105   5.201   4.919
11645TIP3    H234875   6.037   5.325   4.866
11646TIP3   OH234876   5.770   4.920   5.065
11646TIP3    H134877   5.703   4.965   5.121
11646TIP3    H234878   5.782   4.988   4.996
11647TIP3   OH234879   6.926   4.553   5.953
11647TIP3    H134880   7.002   4.592   5.998
11647TIP3    H234881   6.908   4.474   6.007
11648TIP3   OH234882   6.805   4.303   5.122
11648TIP3    H134883   6.785   4.325   5.029
11648TIP3    H234884   6.839   4.389   5.157
11649TIP3   OH234885   6.302   5.424   4.808
11649TIP3    H134886   6.215   5.447   4.844
11649TIP3    H234887   6.316   5.499   4.748
11650TIP3   OH234888   6.493   4.486   5.223
11650TIP3    H134889   6.554   4.561   5.207
11650TIP3    H234890   6.495   4.481   5.321
11651TIP3   OH234891   6.759   4.805   6.028
11651TIP3    H134892   6.780   4.860   6.107
11651TIP3    H234893   6.812   4.725   6.045
11652TIP3   OH234894   6.632   4.213   5.326
11652TIP3    H134895   6.618   4.293   5.379
11652TIP3    H234896   6.694   4.246   5.257
11653TIP3   OH234897   6.047   5.499   4.877
11653TIP3    H134898   6.016   5.568   4.815
11653TIP3    H234899   6.030   5.541   4.964
11654TIP3   OH234900   6.144   4.213   5.115
11654TIP3    H134901   6.143   4.304   5.150
11654TIP3    H234902   6.240   4.194   5.120
11655TIP3   OH234903   7.400   4.704   6.010
11655TIP3    H134904   7.302   4.705   6.021
11655TIP3    H234905   7.406   4.659   5.924
11656TIP3   OH234906   7.051   4.897   5.397
11656TIP3    H134907   6.972   4.842   5.411
11656TIP3    H234908   7.119   4.849   5.448
11657TIP3   OH234909   5.763   5.125   4.868
11657TIP3    H134910   5.828   5.196   4.877
11657TIP3    H234911   5.809   5.070   4.801
11658TIP3   OH234912   5.705   4.403   5.005
11658TIP3    H134913   5.707   4.501   5.002
11658TIP3    H234914   5.630   4.383   4.948
11659TIP3   OH234915   7.020   5.855   5.346
11659TIP3    H134916   6.977   5.902   5.271
11659TIP3    H234917   7.114   5.873   5.324
11660TIP3   OH234918   6.096   4.124   5.874
11660TIP3    H134919   6.064   4.091   5.787
11660TIP3    H234920   6.084   4.046   5.931
11661TIP3   OH234921   5.626   5.328   5.254
11661TIP3    H134922   5.569   5.369   5.319
11661TIP3    H234923   5.601   5.377   5.172
11662TIP3   OH234924   5.793   5.886   6.326
11662TIP3    H134925   5.879   5.889   6.375
11662TIP3    H234926   5.773   5.791   6.327
11663TIP3   OH234927   6.271   5.844   6.377
11663TIP3    H134928   6.367   5.833   6.376
11663TIP3    H234929   6.244   5.786   6.303
11664TIP3   OH234930   6.253   5.424   4.498
11664TIP3    H134931   6.197   5.352   4.536
11664TIP3    H234932   6.328   5.371   4.464
11665TIP3   OH234933   6.914   5.754   6.104
11665TIP3    H134934   6.905   5.686   6.175
11665TIP3    H234935   6.991   5.806   6.135
11666TIP3   OH234936   6.691   5.465   4.413
11666TIP3    H134937   6.729   5.396   4.471
11666TIP3    H234938   6.747   5.459   4.334
11667TIP3   OH234939   5.921   5.290   6.528
11667TIP3    H134940   5.936   5.194   6.531
11667TIP3    H234941   5.834   5.295   6.483
11668TIP3   OH234942   5.899   4.941   4.721
11668TIP3    H134943   5.955   4.908   4.793
11668TIP3    H234944   5.966   4.944   4.648
11669TIP3   OH234945   6.529   5.378   6.301
11669TIP3    H134946   6.485   5.399   6.215
11669TIP3    H234947   6.557   5.285   6.289
11670TIP3   OH234948   6.415   5.143   4.532
11670TIP3    H134949   6.413   5.153   4.629
11670TIP3    H234950   6.416   5.045   4.524
11671TIP3   OH234951   7.021   5.385   5.908
11671TIP3    H134952   7.095   5.432   5.865
11671TIP3    H234953   6.950   5.451   5.896
11672TIP3   OH234954   6.039   5.024   6.513
11672TIP3    H134955   6.118   4.976   6.486
11672TIP3    H234956   6.067   5.060   6.600
11673TIP3   OH234957   6.107   4.846   4.943
11673TIP3    H134958   6.078   4.803   5.024
11673TIP3    H234959   6.143   4.771   4.891
11674TIP3   OH234960   6.378   4.911   6.173
11674TIP3    H134961   6.298   4.968   6.173
11674TIP3    H234962   6.426   4.945   6.094
11675TIP3   OH234963   6.207   4.641   4.783
11675TIP3    H134964   6.180   4.644   4.689
11675TIP3    H234965   6.305   4.643   4.775
11676TIP3   OH234966   6.891   5.312   6.306
11676TIP3    H134967   6.970   5.285   6.257
11676TIP3    H234968   6.887   5.245   6.377
11677TIP3   OH234969   7.035   4.969   4.447
11677TIP3    H134970   7.010   4.924   4.364
11677TIP3    H234971   7.000   5.059   4.427
11678TIP3   OH234972   6.501   4.700   6.295
11678TIP3    H134973   6.499   4.621   6.237
11678TIP3    H234974   6.456   4.767   6.239
11679TIP3   OH234975   6.502   4.485   6.104
11679TIP3    H134976   6.529   4.527   6.020
11679TIP3    H234977   6.408   4.462   6.086
11680TIP3   OH234978   6.527   5.020   5.978
11680TIP3    H134979   6.611   5.035   5.933
11680TIP3    H234980   6.468   5.086   5.934
11681TIP3   OH234981   7.109   4.986   6.358
11681TIP3    H134982   7.160   4.904   6.365
11681TIP3    H234983   7.175   5.048   6.322
11682TIP3   OH234984   7.151   5.239   6.094
11682TIP3    H134985   7.092   5.294   6.036
11682TIP3    H234986   7.238   5.262   6.055
11683TIP3   OH234987   6.380   4.806   6.530
11683TIP3    H134988   6.310   4.739   6.544
11683TIP3    H234989   6.411   4.783   6.441
11684TIP3   OH234990   6.633   4.248   6.173
11684TIP3    H134991   6.584   4.329   6.150
11684TIP3    H234992   6.565   4.179   6.161
11685TIP3   OH234993   6.760   4.750   6.388
11685TIP3    H134994   6.743   4.737   6.483
11685TIP3    H234995   6.671   4.727   6.353
11686TIP3   OH234996   6.998   4.700   6.243
11686TIP3    H134997   6.922   4.703   6.304
11686TIP3    H234998   7.071   4.670   6.301
11687TIP3   OH234999   7.234   4.645   6.394
11687TIP3    H135000   7.242   4.549   6.410
11687TIP3    H235001   7.225   4.681   6.484
11688TIP3   OH235002   6.215   4.588   6.582
11688TIP3    H135003   6.220   4.496   6.549
11688TIP3    H235004   6.252   4.576   6.672
11689TIP3   OH235005   6.728   4.258   6.431
11689TIP3    H135006   6.793   4.186   6.424
11689TIP3    H235007   6.687   4.253   6.342
11690TIP3   OH235008   6.795   4.473   6.589
11690TIP3    H135009   6.772   4.402   6.525
11690TIP3    H235010   6.716   4.531   6.583
11691TIP3   OH235011   6.015   5.700   4.687
11691TIP3    H135012   6.111   5.694   4.668
11691TIP3    H235013   5.986   5.752   4.611
11692TIP3   OH235014   5.494   5.083   4.903
11692TIP3    H135015   5.589   5.104   4.890
11692TIP3    H235016   5.489   4.993   4.863
11693TIP3   OH235017   5.409   5.694   5.320
11693TIP3    H135018   5.342   5.633   5.284
11693TIP3    H235019   5.455   5.636   5.384
11694TIP3   OH235020   5.551   5.538   5.497
11694TIP3    H135021   5.534   5.475   5.569
11694TIP3    H235022   5.601   5.606   5.548
11695TIP3   OH235023   7.278   5.938   5.306
11695TIP3    H135024   7.295   5.971   5.396
11695TIP3    H235025   7.328   6.000   5.252
11696TIP3   OH235026   7.301   5.964   5.584
11696TIP3    H135027   7.257   5.876   5.584
11696TIP3    H235028   7.372   5.947   5.647
11697TIP3   OH235029   7.352   5.644   6.163
11697TIP3    H135030   7.276   5.653   6.225
11697TIP3    H235031   7.391   5.733   6.168
11698TIP3   OH235032   7.168   5.151   4.781
11698TIP3    H135033   7.231   5.220   4.753
11698TIP3    H235034   7.212   5.115   4.860
11699TIP3   OH235035   7.300   5.011   4.981
11699TIP3    H135036   7.229   4.975   5.038
11699TIP3    H235037   7.357   5.057   5.045
11700TIP3   OH235038   7.350   5.418   5.419
11700TIP3    H135039   7.399   5.353   5.366
11700TIP3    H235040   7.339   5.492   5.356
11701TIP3   OH235041   7.176   5.716   5.611
11701TIP3    H135042   7.106   5.760   5.662
11701TIP3    H235043   7.125   5.671   5.541
11702TIP3   OH235044   7.233   4.928   4.630
11702TIP3    H135045   7.162   4.931   4.561
11702TIP3    H235046   7.203   5.004   4.685
11703TIP3   OH235047   7.112   4.596   4.582
11703TIP3    H135048   7.060   4.645   4.517
11703TIP3    H235049   7.078   4.505   4.570
11704TIP3   OH235050   7.109   4.879   5.130
11704TIP3    H135051   7.107   4.783   5.125
11704TIP3    H235052   7.092   4.895   5.225
11705TIP3   OH235053   5.731   4.949   5.880
11705TIP3    H135054   5.728   4.920   5.786
11705TIP3    H235055   5.829   4.953   5.894
11706TIP3   OH235056   7.395   5.306   5.988
11706TIP3    H135057   7.468   5.241   5.976
11706TIP3    H235058   7.419   5.376   5.926
11707TIP3   OH235059   7.579   5.108   5.996
11707TIP3    H135060   7.505   5.060   6.038
11707TIP3    H235061   7.652   5.044   6.014
11708TIP3   OH235062   7.048   4.329   4.578
11708TIP3    H135063   7.088   4.286   4.654
11708TIP3    H235064   6.959   4.287   4.576
11709TIP3   OH235065   7.105   4.595   5.028
11709TIP3    H135066   7.143   4.506   5.043
11709TIP3    H235067   7.159   4.625   4.954
11710TIP3   OH235068   7.264   4.765   5.521
11710TIP3    H135069   7.349   4.794   5.481
11710TIP3    H235070   7.274   4.805   5.610
11711TIP3   OH235071   7.332   4.914   5.750
11711TIP3    H135072   7.255   4.947   5.800
11711TIP3    H235073   7.364   4.997   5.706
11712TIP3   OH235074   5.948   4.638   6.549
11712TIP3    H135075   6.046   4.634   6.553
11712TIP3    H235076   5.925   4.552   6.590
11713TIP3   OH235077   7.787   4.509   6.307
11713TIP3    H135078   7.845   4.443   6.264
11713TIP3    H235079   7.755   4.560   6.230
11714TIP3   OH235080   7.216   4.343   5.060
11714TIP3    H135081   7.256   4.328   5.149
11714TIP3    H235082   7.150   4.270   5.059
11715TIP3   OH235083   5.911   4.333   5.884
11715TIP3    H135084   5.973   4.258   5.892
11715TIP3    H235085   5.973   4.407   5.875
11716TIP3   OH235086   5.712   4.605   5.955
11716TIP3    H135087   5.762   4.602   5.871
11716TIP3    H235088   5.737   4.693   5.988
11717TIP3   OH235089   7.653   4.643   6.113
11717TIP3    H135090   7.568   4.687   6.134
11717TIP3    H235091   7.620   4.572   6.054
11718TIP3   OH235092   7.333   4.290   4.698
11718TIP3    H135093   7.346   4.205   4.651
11718TIP3    H235094   7.311   4.348   4.623
11719TIP3   OH235095   5.698   4.110   5.457
11719TIP3    H135096   5.604   4.106   5.482
11719TIP3    H235097   5.694   4.168   5.378
11720TIP3   OH235098   6.859   5.810   4.962
11720TIP3    H135099   6.912   5.803   4.880
11720TIP3    H235100   6.904   5.882   5.010
11721TIP3   OH235101   5.918   4.189   6.270
11721TIP3    H135102   5.866   4.185   6.352
11721TIP3    H235103   5.852   4.228   6.209
11722TIP3   OH235104   5.960   5.609   6.346
11722TIP3    H135105   5.865   5.591   6.330
11722TIP3    H235106   5.964   5.608   6.442
11723TIP3   OH235107   6.137   5.651   5.894
11723TIP3    H135108   6.086   5.726   5.856
11723TIP3    H235109   6.222   5.667   5.848
11724TIP3   OH235110   6.579   5.891   6.030
11724TIP3    H135111   6.619   5.895   6.120
11724TIP3    H235112   6.644   5.945   5.979
11725TIP3   OH235113   6.759   6.047   5.894
11725TIP3    H135114   6.832   5.998   5.854
11725TIP3    H235115   6.808   6.107   5.954
11726TIP3   OH235116   7.555   4.407   5.990
11726TIP3    H135117   7.463   4.399   5.957
11726TIP3    H235118   7.585   4.314   5.980
11727TIP3   OH235119   5.815   5.901   5.925
11727TIP3    H135120   5.726   5.930   5.894
11727TIP3    H235121   5.823   5.959   6.002
11728TIP3   OH235122   6.046   5.885   5.774
11728TIP3    H135123   5.961   5.897   5.822
11728TIP3    H235124   6.022   5.921   5.685
11729TIP3   OH235125   6.474   5.912   5.573
11729TIP3    H135126   6.401   5.931   5.511
11729TIP3    H235127   6.485   6.000   5.616
11730TIP3   OH235128   6.742   5.851   5.625
11730TIP3    H135129   6.647   5.869   5.607
11730TIP3    H235130   6.783   5.930   5.586
11731TIP3   OH235131   6.952   6.045   5.541
11731TIP3    H135132   6.935   6.129   5.494
11731TIP3    H235133   6.974   5.985   5.466
11732TIP3   OH235134   5.713   5.683   5.668
11732TIP3    H135135   5.749   5.663   5.757
11732TIP3    H235136   5.790   5.663   5.612
11733TIP3   OH235137   5.919   5.574   5.522
11733TIP3    H135138   5.934   5.492   5.574
11733TIP3    H235139   6.010   5.611   5.518
11734TIP3   OH235140   6.185   5.665   5.524
11734TIP3    H135141   6.216   5.573   5.516
11734TIP3    H235142   6.228   5.690   5.608
11735TIP3   OH235143   6.763   4.324   5.618
11735TIP3    H135144   6.716   4.255   5.666
11735TIP3    H235145   6.829   4.273   5.568
11736TIP3   OH235146   7.281   4.204   5.515
11736TIP3    H135147   7.314   4.258   5.440
11736TIP3    H235148   7.185   4.219   5.509
11737TIP3   OH235149   7.377   4.307   5.280
11737TIP3    H135150   7.452   4.254   5.245
11737TIP3    H235151   7.410   4.398   5.267
11738TIP3   OH235152   6.006   4.031   5.626
11738TIP3    H135153   5.914   4.000   5.628
11738TIP3    H235154   6.054   3.946   5.622
11739TIP3   OH235155   5.798   3.902   5.277
11739TIP3    H135156   5.825   3.957   5.202
11739TIP3    H235157   5.768   3.969   5.342
11740TIP3   OH235158   6.453   4.063   5.507
11740TIP3    H135159   6.510   4.112   5.446
11740TIP3    H235160   6.475   4.103   5.592
11741TIP3   OH235161   7.002   4.210   5.488
11741TIP3    H135162   6.992   4.169   5.401
11741TIP3    H235163   6.988   4.132   5.548
11742TIP3   OH235164   7.029   4.136   5.053
11742TIP3    H135165   6.942   4.179   5.068
11742TIP3    H235166   7.013   4.050   5.099
11743TIP3   OH235167   5.513   5.474   5.055
11743TIP3    H135168   5.427   5.445   5.020
11743TIP3    H235169   5.506   5.570   5.041
11744TIP3   OH235170   5.912   4.057   5.040
11744TIP3    H135171   5.959   3.995   4.981
11744TIP3    H235172   5.985   4.112   5.073
11745TIP3   OH235173   6.421   4.238   5.135
11745TIP3    H135174   6.478   4.188   5.195
11745TIP3    H235175   6.445   4.330   5.162
11746TIP3   OH235176   6.283   5.658   4.636
11746TIP3    H135177   6.370   5.682   4.599
11746TIP3    H235178   6.261   5.583   4.576
11747TIP3   OH235179   7.007   5.782   4.729
11747TIP3    H135180   6.999   5.684   4.719
11747TIP3    H235181   6.956   5.812   4.651
11748TIP3   OH235182   6.214   4.312   6.518
11748TIP3    H135183   6.179   4.242   6.575
11748TIP3    H235184   6.308   4.312   6.546
11749TIP3   OH235185   6.464   4.310   6.637
11749TIP3    H135186   6.549   4.283   6.597
11749TIP3    H235187   6.451   4.240   6.704
11750TIP3   OH235188   5.585   5.497   4.691
11750TIP3    H135189   5.586   5.522   4.785
11750TIP3    H235190   5.674   5.456   4.680
11751TIP3   OH235191   7.290   4.372   6.424
11751TIP3    H135192   7.308   4.342   6.515
11751TIP3    H235193   7.379   4.366   6.383
11752TIP3   OH235194   7.230   5.923   5.911
11752TIP3    H135195   7.149   5.892   5.866
11752TIP3    H235196   7.209   6.018   5.919
11753TIP3   OH235197   8.492   5.294   4.683
11753TIP3    H135198   8.466   5.386   4.666
11753TIP3    H235199   8.414   5.247   4.649
11754TIP3   OH235200   8.487   5.298   5.064
11754TIP3    H135201   8.521   5.282   5.155
11754TIP3    H235202   8.449   5.212   5.042
11755TIP3   OH235203   7.795   5.188   5.426
11755TIP3    H135204   7.822   5.121   5.490
11755TIP3    H235205   7.867   5.252   5.435
11756TIP3   OH235206   8.735   5.594   4.748
11756TIP3    H135207   8.724   5.530   4.820
11756TIP3    H235208   8.767   5.672   4.796
11757TIP3   OH235209   7.766   5.600   5.148
11757TIP3    H135210   7.755   5.503   5.153
11757TIP3    H235211   7.863   5.608   5.151
11758TIP3   OH235212   7.490   4.804   4.914
11758TIP3    H135213   7.456   4.893   4.937
11758TIP3    H235214   7.405   4.757   4.917
11759TIP3   OH235215   7.532   5.095   5.109
11759TIP3    H135216   7.587   5.021   5.144
11759TIP3    H235217   7.594   5.142   5.052
11760TIP3   OH235218   8.377   6.056   4.758
11760TIP3    H135219   8.432   5.987   4.715
11760TIP3    H235220   8.379   6.028   4.851
11761TIP3   OH235221   8.292   5.521   5.111
11761TIP3    H135222   8.335   5.444   5.070
11761TIP3    H235223   8.374   5.569   5.138
11762TIP3   OH235224   8.688   5.025   5.149
11762TIP3    H135225   8.728   4.938   5.169
11762TIP3    H235226   8.658   5.010   5.058
11763TIP3   OH235227   8.044   4.678   5.109
11763TIP3    H135228   8.023   4.750   5.046
11763TIP3    H235229   7.997   4.604   5.064
11764TIP3   OH235230   8.735   4.775   4.744
11764TIP3    H135231   8.808   4.720   4.773
11764TIP3    H235232   8.777   4.822   4.671
11765TIP3   OH235233   7.672   4.881   5.209
11765TIP3    H135234   7.757   4.862   5.254
11765TIP3    H235235   7.653   4.797   5.167
11766TIP3   OH235236   8.119   5.081   5.006
11766TIP3    H135237   8.213   5.058   5.021
11766TIP3    H235238   8.082   4.994   4.978
11767TIP3   OH235239   8.040   4.665   5.543
11767TIP3    H135240   7.980   4.706   5.478
11767TIP3    H235241   7.988   4.681   5.625
11768TIP3   OH235242   8.389   5.514   4.546
11768TIP3    H135243   8.343   5.497   4.462
11768TIP3    H235244   8.346   5.598   4.573
11769TIP3   OH235245   8.145   5.441   5.336
11769TIP3    H135246   8.084   5.509   5.374
11769TIP3    H235247   8.190   5.492   5.266
11770TIP3   OH235248   7.909   4.782   5.325
11770TIP3    H135249   7.969   4.856   5.351
11770TIP3    H235250   7.963   4.741   5.254
11771TIP3   OH235251   7.974   5.637   5.434
11771TIP3    H135252   7.949   5.725   5.400
11771TIP3    H235253   7.896   5.619   5.491
11772TIP3   OH235254   7.369   5.326   4.672
11772TIP3    H135255   7.323   5.352   4.590
11772TIP3    H235256   7.397   5.413   4.707
11773TIP3   OH235257   8.806   5.842   4.909
11773TIP3    H135258   8.719   5.827   4.953
11773TIP3    H235259   8.791   5.931   4.871
11774TIP3   OH235260   8.400   4.377   5.283
11774TIP3    H135261   8.377   4.281   5.286
11774TIP3    H235262   8.315   4.416   5.313
11775TIP3   OH235263   8.515   5.887   4.595
11775TIP3    H135264   8.562   5.805   4.568
11775TIP3    H235265   8.563   5.952   4.539
11776TIP3   OH235266   8.647   5.668   4.495
11776TIP3    H135267   8.590   5.593   4.473
11776TIP3    H235268   8.689   5.637   4.578
11777TIP3   OH235269   9.028   5.750   5.271
11777TIP3    H135270   9.035   5.673   5.211
11777TIP3    H235271   9.033   5.824   5.208
11778TIP3   OH235272   8.323   5.147   4.514
11778TIP3    H135273   8.243   5.200   4.494
11778TIP3    H235274   8.366   5.143   4.427
11779TIP3   OH235275   8.282   4.929   4.233
11779TIP3    H135276   8.350   4.986   4.274
11779TIP3    H235277   8.340   4.867   4.183
11780TIP3   OH235278   8.666   5.227   4.486
11780TIP3    H135279   8.611   5.257   4.562
11780TIP3    H235280   8.740   5.184   4.534
11781TIP3   OH235281   8.887   5.245   5.394
11781TIP3    H135282   8.909   5.327   5.441
11781TIP3    H235283   8.803   5.271   5.352
11782TIP3   OH235284   7.906   5.226   4.903
11782TIP3    H135285   7.867   5.169   4.834
11782TIP3    H235286   7.985   5.174   4.932
11783TIP3   OH235287   8.040   5.644   5.048
11783TIP3    H135288   8.018   5.599   4.965
11783TIP3    H235289   8.128   5.607   5.068
11784TIP3   OH235290   8.045   5.198   5.254
11784TIP3    H135291   8.079   5.180   5.164
11784TIP3    H235292   8.086   5.285   5.276
11785TIP3   OH235293   8.568   5.835   5.034
11785TIP3    H135294   8.552   5.919   5.082
11785TIP3    H235295   8.547   5.767   5.100
11786TIP3   OH235296   8.177   5.764   5.574
11786TIP3    H135297   8.113   5.819   5.622
11786TIP3    H235298   8.115   5.706   5.524
11787TIP3   OH235299   8.511   5.082   4.310
11787TIP3    H135300   8.567   5.146   4.359
11787TIP3    H235301   8.537   5.103   4.217
11788TIP3   OH235302   7.932   5.310   5.680
11788TIP3    H135303   7.939   5.397   5.724
11788TIP3    H235304   7.838   5.290   5.697
11789TIP3   OH235305   8.268   5.756   4.589
11789TIP3    H135306   8.345   5.814   4.600
11789TIP3    H235307   8.193   5.814   4.601
11790TIP3   OH235308   7.970   5.923   5.669
11790TIP3    H135309   7.935   5.923   5.577
11790TIP3    H235310   7.892   5.893   5.720
11791TIP3   OH235311   7.769   5.069   4.708
11791TIP3    H135312   7.716   5.127   4.648
11791TIP3    H235313   7.707   4.997   4.718
11792TIP3   OH235314   8.828   5.701   3.914
11792TIP3    H135315   8.827   5.791   3.878
11792TIP3    H235316   8.909   5.665   3.874
11793TIP3   OH235317   7.552   5.455   5.614
11793TIP3    H135318   7.482   5.436   5.548
11793TIP3    H235319   7.587   5.366   5.635
11794TIP3   OH235320   7.405   5.649   5.246
11794TIP3    H135321   7.502   5.653   5.245
11794TIP3    H235322   7.383   5.729   5.297
11795TIP3   OH235323   8.368   5.899   5.433
11795TIP3    H135324   8.406   5.948   5.507
11795TIP3    H235325   8.300   5.845   5.480
11796TIP3   OH235326   7.579   5.862   4.773
11796TIP3    H135327   7.622   5.852   4.860
11796TIP3    H235328   7.519   5.785   4.774
11797TIP3   OH235329   8.369   5.919   4.071
11797TIP3    H135330   8.402   5.862   3.998
11797TIP3    H235331   8.397   5.863   4.145
11798TIP3   OH235332   7.757   5.635   5.598
11798TIP3    H135333   7.802   5.625   5.684
11798TIP3    H235334   7.682   5.574   5.607
11799TIP3   OH235335   8.159   4.461   5.387
11799TIP3    H135336   8.071   4.430   5.358
11799TIP3    H235337   8.132   4.543   5.433
11800TIP3   OH235338   8.659   4.572   5.552
11800TIP3    H135339   8.732   4.558   5.617
11800TIP3    H235340   8.581   4.572   5.612
11801TIP3   OH235341   8.957   4.996   5.502
11801TIP3    H135342   8.903   5.002   5.583
11801TIP3    H235343   8.936   5.082   5.459
11802TIP3   OH235344   8.591   5.134   4.057
11802TIP3    H135345   8.559   5.108   3.968
11802TIP3    H235346   8.661   5.196   4.034
11803TIP3   OH235347   8.312   4.508   4.361
11803TIP3    H135348   8.271   4.504   4.450
11803TIP3    H235349   8.271   4.428   4.321
11804TIP3   OH235350   8.087   4.977   5.404
11804TIP3    H135351   8.038   4.999   5.487
11804TIP3    H235352   8.072   5.059   5.352
11805TIP3   OH235353   7.974   4.857   4.920
11805TIP3    H135354   7.880   4.871   4.912
11805TIP3    H235355   7.993   4.815   4.832
11806TIP3   OH235356   8.461   4.946   4.645
11806TIP3    H135357   8.409   5.018   4.605
11806TIP3    H235358   8.520   4.921   4.572
11807TIP3   OH235359   8.624   5.223   5.720
11807TIP3    H135360   8.619   5.150   5.786
11807TIP3    H235361   8.719   5.247   5.724
11808TIP3   OH235362   8.603   4.975   4.891
11808TIP3    H135363   8.546   5.000   4.815
11808TIP3    H235364   8.644   4.895   4.851
11809TIP3   OH235365   7.907   5.004   5.614
11809TIP3    H135366   7.931   5.071   5.680
11809TIP3    H235367   7.895   4.924   5.668
11810TIP3   OH235368   7.960   4.486   4.324
11810TIP3    H135369   7.947   4.485   4.421
11810TIP3    H235370   7.880   4.533   4.295
11811TIP3   OH235371   7.502   4.531   5.189
11811TIP3    H135372   7.576   4.554   5.250
11811TIP3    H235373   7.548   4.504   5.109
11812TIP3   OH235374   8.602   5.228   5.307
11812TIP3    H135375   8.644   5.157   5.253
11812TIP3    H235376   8.588   5.178   5.390
11813TIP3   OH235377   8.303   4.679   4.983
11813TIP3    H135378   8.218   4.679   5.032
11813TIP3    H235379   8.366   4.701   5.054
11814TIP3   OH235380   8.000   4.739   4.676
11814TIP3    H135381   8.095   4.749   4.658
11814TIP3    H235382   7.957   4.760   4.590
11815TIP3   OH235383   8.760   4.760   5.171
11815TIP3    H135384   8.747   4.776   5.267
11815TIP3    H235385   8.683   4.704   5.150
11816TIP3   OH235386   7.840   4.768   4.452
11816TIP3    H135387   7.779   4.719   4.394
11816TIP3    H235388   7.896   4.811   4.385
11817TIP3   OH235389   7.923   5.558   5.823
11817TIP3    H135390   7.997   5.595   5.873
11817TIP3    H235391   7.854   5.556   5.893
11818TIP3   OH235392   8.378   5.009   5.075
11818TIP3    H135393   8.457   4.981   5.025
11818TIP3    H235394   8.396   4.976   5.164
11819TIP3   OH235395   7.913   4.496   4.955
11819TIP3    H135396   7.867   4.423   5.002
11819TIP3    H235397   7.960   4.449   4.885
11820TIP3   OH235398   8.359   4.907   5.376
11820TIP3    H135399   8.271   4.950   5.384
11820TIP3    H235400   8.418   4.971   5.421
11821TIP3   OH235401   8.096   5.303   4.462
11821TIP3    H135402   8.024   5.236   4.450
11821TIP3    H235403   8.076   5.335   4.554
11822TIP3   OH235404   8.987   5.550   5.087
11822TIP3    H135405   9.023   5.539   4.999
11822TIP3    H235406   8.902   5.504   5.080
11823TIP3   OH235407   8.565   4.606   4.331
11823TIP3    H135408   8.469   4.580   4.334
11823TIP3    H235409   8.559   4.703   4.333
11824TIP3   OH235410   8.484   5.603   5.470
11824TIP3    H135411   8.545   5.579   5.543
11824TIP3    H235412   8.477   5.699   5.481
11825TIP3   OH235413   8.650   4.872   4.418
11825TIP3    H135414   8.737   4.915   4.414
11825TIP3    H235415   8.596   4.938   4.370
11826TIP3   OH235416   7.785   5.319   5.138
11826TIP3    H135417   7.829   5.291   5.055
11826TIP3    H235418   7.831   5.264   5.204
11827TIP3   OH235419   8.238   5.461   4.288
11827TIP3    H135420   8.195   5.549   4.294
11827TIP3    H235421   8.181   5.406   4.347
11828TIP3   OH235422   7.670   5.239   5.748
11828TIP3    H135423   7.690   5.228   5.844
11828TIP3    H235424   7.598   5.176   5.736
11829TIP3   OH235425   8.389   5.348   5.768
11829TIP3    H135426   8.332   5.289   5.715
11829TIP3    H235427   8.478   5.322   5.735
11830TIP3   OH235428   8.652   5.860   5.384
11830TIP3    H135429   8.562   5.890   5.364
11830TIP3    H235430   8.672   5.909   5.465
11831TIP3   OH235431   8.740   5.776   4.172
11831TIP3    H135432   8.759   5.720   4.248
11831TIP3    H235433   8.778   5.727   4.096
11832TIP3   OH235434   8.754   5.405   5.008
11832TIP3    H135435   8.660   5.387   5.024
11832TIP3    H235436   8.786   5.317   4.980
11833TIP3   OH235437   7.887   5.626   4.759
11833TIP3    H135438   7.879   5.709   4.707
11833TIP3    H235439   7.795   5.609   4.781
11834TIP3   OH235440   7.460   4.926   4.475
11834TIP3    H135441   7.499   5.016   4.488
11834TIP3    H235442   7.377   4.934   4.527
11835TIP3   OH235443   8.022   5.391   4.706
11835TIP3    H135444   7.987   5.481   4.723
11835TIP3    H235445   7.989   5.342   4.783
11836TIP3   OH235446   8.161   5.971   5.231
11836TIP3    H135447   8.205   6.038   5.176
11836TIP3    H235448   8.237   5.936   5.282
11837TIP3   OH235449   7.808   5.865   4.615
11837TIP3    H135450   7.722   5.871   4.662
11837TIP3    H235451   7.839   5.958   4.619
11838TIP3   OH235452   8.541   5.604   5.196
11838TIP3    H135453   8.527   5.597   5.293
11838TIP3    H235454   8.632   5.573   5.191
11839TIP3   OH235455   8.502   5.504   4.087
11839TIP3    H135456   8.559   5.477   4.162
11839TIP3    H235457   8.416   5.471   4.116
11840TIP3   OH235458   7.879   4.745   5.758
11840TIP3    H135459   7.782   4.752   5.772
11840TIP3    H235460   7.906   4.690   5.833
11841TIP3   OH235461   8.671   5.424   4.292
11841TIP3    H135462   8.663   5.356   4.362
11841TIP3    H235463   8.754   5.466   4.316
11842TIP3   OH235464   7.601   5.831   5.388
11842TIP3    H135465   7.652   5.761   5.432
11842TIP3    H235466   7.613   5.904   5.449
11843TIP3   OH235467   7.884   5.477   4.074
11843TIP3    H135468   7.897   5.386   4.043
11843TIP3    H235469   7.864   5.463   4.168
11844TIP3   OH235470   7.835   5.482   4.346
11844TIP3    H135471   7.900   5.454   4.411
11844TIP3    H235472   7.837   5.580   4.355
11845TIP3   OH235473   7.568   5.179   4.551
11845TIP3    H135474   7.500   5.223   4.606
11845TIP3    H235475   7.578   5.246   4.481
11846TIP3   OH235476   8.729   4.812   5.434
11846TIP3    H135477   8.797   4.858   5.486
11846TIP3    H235478   8.702   4.740   5.493
11847TIP3   OH235479   8.568   4.580   4.618
11847TIP3    H135480   8.572   4.584   4.520
11847TIP3    H235481   8.622   4.657   4.645
11848TIP3   OH235482   8.105   5.704   4.276
11848TIP3    H135483   8.016   5.722   4.312
11848TIP3    H235484   8.088   5.707   4.180
11849TIP3   OH235485   8.278   4.746   4.712
11849TIP3    H135486   8.345   4.815   4.691
11849TIP3    H235487   8.289   4.738   4.809
11850TIP3   OH235488   8.552   5.056   5.516
11850TIP3    H135489   8.566   5.118   5.591
11850TIP3    H235490   8.617   4.988   5.536
11851TIP3   OH235491   8.424   4.468   4.819
11851TIP3    H135492   8.409   4.550   4.869
11851TIP3    H235493   8.481   4.502   4.746
11852TIP3   OH235494   7.847   5.754   4.364
11852TIP3    H135495   7.821   5.825   4.301
11852TIP3    H235496   7.825   5.794   4.450
11853TIP3   OH235497   7.940   4.472   4.602
11853TIP3    H135498   7.948   4.562   4.637
11853TIP3    H235499   8.034   4.444   4.607
11854TIP3   OH235500   8.833   5.143   4.925
11854TIP3    H135501   8.748   5.101   4.900
11854TIP3    H235502   8.860   5.088   5.000
11855TIP3   OH235503   7.559   5.381   4.356
11855TIP3    H135504   7.624   5.454   4.362
11855TIP3    H235505   7.604   5.325   4.288
11856TIP3   OH235506   7.503   4.664   4.531
11856TIP3    H135507   7.499   4.757   4.500
11856TIP3    H235508   7.451   4.619   4.463
11857TIP3   OH235509   8.827   6.123   4.839
11857TIP3    H135510   8.780   6.166   4.764
11857TIP3    H235511   8.914   6.109   4.801
11858TIP3   OH235512   7.896   4.379   5.359
11858TIP3    H135513   7.863   4.345   5.274
11858TIP3    H235514   7.884   4.303   5.419
11859TIP3   OH235515   7.426   5.596   4.739
11859TIP3    H135516   7.364   5.627   4.806
11859TIP3    H235517   7.391   5.640   4.658
11860TIP3   OH235518   7.572   6.125   5.788
11860TIP3    H135519   7.653   6.128   5.845
11860TIP3    H235520   7.547   6.032   5.798
11861TIP3   OH235521   8.042   6.124   5.843
11861TIP3    H135522   8.118   6.167   5.801
11861TIP3    H235523   8.024   6.048   5.783
11862TIP3   OH235524   8.056   5.678   4.005
11862TIP3    H135525   7.997   5.601   4.023
11862TIP3    H235526   8.129   5.634   3.957
11863TIP3   OH235527   8.471   5.732   3.896
11863TIP3    H135528   8.517   5.670   3.955
11863TIP3    H235529   8.523   5.727   3.814
11864TIP3   OH235530   7.719   5.543   6.008
11864TIP3    H135531   7.731   5.447   6.018
11864TIP3    H235532   7.629   5.548   5.967
11865TIP3   OH235533   7.696   5.198   4.208
11865TIP3    H135534   7.753   5.167   4.280
11865TIP3    H235535   7.760   5.202   4.134
11866TIP3   OH235536   8.310   5.608   5.775
11866TIP3    H135537   8.284   5.613   5.681
11866TIP3    H235538   8.355   5.520   5.777
11867TIP3   OH235539   8.205   5.396   4.018
11867TIP3    H135540   8.206   5.408   4.115
11867TIP3    H235541   8.210   5.298   4.011
11868TIP3   OH235542   8.792   5.632   5.345
11868TIP3    H135543   8.877   5.672   5.316
11868TIP3    H235544   8.738   5.713   5.358
11869TIP3   OH235545   7.837   5.276   5.988
11869TIP3    H135546   7.916   5.224   5.969
11869TIP3    H235547   7.855   5.305   6.080
11870TIP3   OH235548   7.904   5.104   4.431
11870TIP3    H135549   7.875   5.058   4.511
11870TIP3    H235550   7.941   5.030   4.378
11871TIP3   OH235551   8.171   5.164   5.654
11871TIP3    H135552   8.094   5.225   5.656
11871TIP3    H235553   8.222   5.199   5.576
11872TIP3   OH235554   8.003   4.896   4.275
11872TIP3    H135555   7.976   4.900   4.180
11872TIP3    H235556   8.100   4.897   4.266
11873TIP3   OH235557   8.651   5.536   5.711
11873TIP3    H135558   8.746   5.541   5.690
11873TIP3    H235559   8.654   5.502   5.802
11874TIP3   OH235560   8.291   4.956   5.785
11874TIP3    H135561   8.294   4.878   5.726
11874TIP3    H235562   8.250   5.024   5.727
11875TIP3   OH235563   8.301   4.733   5.589
11875TIP3    H135564   8.326   4.786   5.511
11875TIP3    H235565   8.205   4.718   5.573
11876TIP3   OH235566   8.323   5.271   5.459
11876TIP3    H135567   8.411   5.288   5.422
11876TIP3    H235568   8.269   5.341   5.417
11877TIP3   OH235569   8.894   5.254   5.766
11877TIP3    H135570   8.936   5.173   5.800
11877TIP3    H235571   8.952   5.322   5.802
11878TIP3   OH235572   8.900   5.492   5.548
11878TIP3    H135573   8.848   5.548   5.487
11878TIP3    H235574   8.990   5.509   5.516
11879TIP3   OH235575   8.175   5.065   6.018
11879TIP3    H135576   8.106   4.997   6.033
11879TIP3    H235577   8.208   5.039   5.929
11880TIP3   OH235578   8.417   4.490   5.643
11880TIP3    H135579   8.371   4.577   5.633
11880TIP3    H235580   8.341   4.429   5.648
11881TIP3   OH235581   8.558   5.002   5.865
11881TIP3    H135582   8.566   4.988   5.961
11881TIP3    H235583   8.463   4.981   5.851
11882TIP3   OH235584   8.790   4.944   5.719
11882TIP3    H135585   8.716   4.957   5.782
11882TIP3    H235586   8.860   4.914   5.782
11883TIP3   OH235587   8.991   4.879   5.892
11883TIP3    H135588   9.048   4.818   5.939
11883TIP3    H235589   8.980   4.951   5.958
11884TIP3   OH235590   8.012   4.844   6.068
11884TIP3    H135591   8.018   4.752   6.036
11884TIP3    H235592   8.048   4.834   6.159
11885TIP3   OH235593   8.521   4.516   5.905
11885TIP3    H135594   8.583   4.441   5.910
11885TIP3    H235595   8.480   4.502   5.818
11886TIP3   OH235596   8.577   4.718   6.083
11886TIP3    H135597   8.559   4.656   6.010
11886TIP3    H235598   8.505   4.785   6.072
11887TIP3   OH235599   7.838   5.960   4.176
11887TIP3    H135600   7.897   5.943   4.101
11887TIP3    H235601   7.764   5.999   4.128
11888TIP3   OH235602   7.290   5.339   4.391
11888TIP3    H135603   7.385   5.359   4.376
11888TIP3    H235604   7.282   5.251   4.349
11889TIP3   OH235605   7.211   5.952   4.804
11889TIP3    H135606   7.142   5.893   4.767
11889TIP3    H235607   7.252   5.893   4.870
11890TIP3   OH235608   7.345   5.799   4.991
11890TIP3    H135609   7.326   5.731   5.057
11890TIP3    H235610   7.393   5.863   5.047
11891TIP3   OH235611   8.997   5.960   5.085
11891TIP3    H135612   8.934   6.002   5.146
11891TIP3    H235613   8.936   5.913   5.024
11892TIP3   OH235614   8.879   5.104   4.613
11892TIP3    H135615   8.967   5.060   4.621
11892TIP3    H235616   8.884   5.159   4.693
11893TIP3   OH235617   7.529   5.206   5.365
11893TIP3    H135618   7.525   5.179   5.271
11893TIP3    H235619   7.626   5.209   5.380
11894TIP3   OH235620   7.746   4.895   6.038
11894TIP3    H135621   7.843   4.889   6.041
11894TIP3    H235622   7.722   4.809   6.078
11895TIP3   OH235623   7.711   4.588   5.356
11895TIP3    H135624   7.771   4.513   5.373
11895TIP3    H235625   7.773   4.662   5.364
11896TIP3   OH235626   7.511   4.863   5.443
11896TIP3    H135627   7.561   4.872   5.360
11896TIP3    H235628   7.527   4.948   5.485
11897TIP3   OH235629   7.460   4.413   4.907
11897TIP3    H135630   7.406   4.388   4.985
11897TIP3    H235631   7.406   4.370   4.837
11898TIP3   OH235632   8.627   6.085   4.441
11898TIP3    H135633   8.682   6.067   4.361
11898TIP3    H235634   8.691   6.133   4.496
11899TIP3   OH235635   7.716   4.443   5.755
11899TIP3    H135636   7.666   4.438   5.838
11899TIP3    H235637   7.649   4.483   5.696
11900TIP3   OH235638   7.757   5.857   5.831
11900TIP3    H135639   7.662   5.844   5.816
11900TIP3    H235640   7.760   5.869   5.927
11901TIP3   OH235641   7.935   5.908   5.383
11901TIP3    H135642   7.882   5.981   5.344
11901TIP3    H235643   8.019   5.925   5.336
11902TIP3   OH235644   7.609   6.164   5.406
11902TIP3    H135645   7.518   6.193   5.383
11902TIP3    H235646   7.618   6.207   5.492
11903TIP3   OH235647   7.845   6.144   5.265
11903TIP3    H135648   7.758   6.155   5.310
11903TIP3    H235649   7.824   6.177   5.175
11904TIP3   OH235650   8.262   6.166   5.053
11904TIP3    H135651   8.190   6.187   4.991
11904TIP3    H235652   8.279   6.254   5.094
11905TIP3   OH235653   8.523   6.095   5.114
11905TIP3    H135654   8.433   6.123   5.088
11905TIP3    H235655   8.576   6.171   5.081
11906TIP3   OH235656   8.661   6.300   4.997
11906TIP3    H135657   8.709   6.382   5.015
11906TIP3    H235658   8.730   6.242   4.959
11907TIP3   OH235659   7.523   5.959   5.147
11907TIP3    H135660   7.544   5.931   5.238
11907TIP3    H235661   7.594   5.912   5.098
11908TIP3   OH235662   7.716   5.827   5.006
11908TIP3    H135663   7.728   5.744   5.058
11908TIP3    H235664   7.807   5.863   5.005
11909TIP3   OH235665   7.983   5.922   5.011
11909TIP3    H135666   8.012   5.829   5.005
11909TIP3    H235667   8.026   5.947   5.094
11910TIP3   OH235668   8.562   4.572   5.117
11910TIP3    H135669   8.504   4.496   5.130
11910TIP3    H235670   8.628   4.537   5.052
11911TIP3   OH235671   7.802   4.288   5.111
11911TIP3    H135672   7.711   4.251   5.118
11911TIP3    H235673   7.853   4.205   5.107
11912TIP3   OH235674   7.605   4.149   4.764
11912TIP3    H135675   7.630   4.202   4.686
11912TIP3    H235676   7.556   4.212   4.817
11913TIP3   OH235677   8.243   4.320   4.988
11913TIP3    H135678   8.303   4.364   4.926
11913TIP3    H235679   8.252   4.374   5.067
11914TIP3   OH235680   8.776   4.463   4.980
11914TIP3    H135681   8.797   4.438   4.889
11914TIP3    H235682   8.772   4.374   5.022
11915TIP3   OH235683   7.309   5.731   4.537
11915TIP3    H135684   7.223   5.698   4.506
11915TIP3    H235685   7.297   5.826   4.517
11916TIP3   OH235686   7.709   4.319   4.531
11916TIP3    H135687   7.751   4.252   4.474
11916TIP3    H235688   7.787   4.370   4.562
11917TIP3   OH235689   8.217   4.494   4.623
11917TIP3    H135690   8.277   4.442   4.678
11917TIP3    H235691   8.243   4.585   4.649
11918TIP3   OH235692   8.778   6.041   4.219
11918TIP3    H135693   8.777   5.943   4.208
11918TIP3    H235694   8.764   6.068   4.126
11919TIP3   OH235695   8.011   4.569   6.004
11919TIP3    H135696   7.974   4.499   6.061
11919TIP3    H235697   8.105   4.568   6.034
11920TIP3   OH235698   8.259   4.565   6.124
11920TIP3    H135699   8.348   4.542   6.094
11920TIP3    H235700   8.245   4.495   6.192
11921TIP3   OH235701   7.384   5.756   4.177
11921TIP3    H135702   7.376   5.776   4.272
11921TIP3    H235703   7.472   5.711   4.171
11922TIP3   OH235704   0.945   6.096   6.381
11922TIP3    H135705   0.905   6.183   6.365
11922TIP3    H235706   0.882   6.040   6.331
11923TIP3   OH235707   1.187   6.396   6.428
11923TIP3    H135708   1.205   6.329   6.493
11923TIP3    H235709   1.213   6.478   6.477
11924TIP3   OH235710   0.889   6.874   6.433
11924TIP3    H135711   0.932   6.790   6.411
11924TIP3    H235712   0.847   6.854   6.518
11925TIP3   OH235713   0.812   6.201   6.792
11925TIP3    H135714   0.734   6.188   6.735
11925TIP3    H235715   0.808   6.297   6.806
11926TIP3   OH235716   1.755   5.630   6.797
11926TIP3    H135717   1.789   5.711   6.839
11926TIP3    H235718   1.788   5.642   6.706
11927TIP3   OH235719   1.141   5.846   6.836
11927TIP3    H135720   1.187   5.768   6.870
11927TIP3    H235721   1.116   5.813   6.747
11928TIP3   OH235722   1.190   5.569   6.420
11928TIP3    H135723   1.261   5.550   6.487
11928TIP3    H235724   1.246   5.597   6.345
11929TIP3   OH235725   1.835   5.835   6.970
11929TIP3    H135726   1.750   5.880   6.952
11929TIP3    H235727   1.853   5.865   7.060
11930TIP3   OH235728   0.812   6.318   6.255
11930TIP3    H135729   0.799   6.271   6.171
11930TIP3    H235730   0.891   6.372   6.234
11931TIP3   OH235731   1.395   5.569   6.596
11931TIP3    H135732   1.408   5.503   6.665
11931TIP3    H235733   1.456   5.639   6.622
11932TIP3   OH235734   1.243   6.617   6.584
11932TIP3    H135735   1.157   6.621   6.632
11932TIP3    H235736   1.251   6.709   6.551
11933TIP3   OH235737   1.551   5.533   6.966
11933TIP3    H135738   1.465   5.561   6.930
11933TIP3    H235739   1.613   5.562   6.896
11934TIP3   OH235740   0.856   5.158   6.937
11934TIP3    H135741   0.854   5.061   6.952
11934TIP3    H235742   0.803   5.188   7.012
11935TIP3   OH235743   0.955   6.655   6.262
11935TIP3    H135744   1.002   6.572   6.238
11935TIP3    H235745   1.019   6.722   6.227
11936TIP3   OH235746   1.068   6.421   6.184
11936TIP3    H135747   1.108   6.362   6.118
11936TIP3    H235748   1.126   6.407   6.263
11937TIP3   OH235749   1.484   6.532   6.958
11937TIP3    H135750   1.483   6.461   6.890
11937TIP3    H235751   1.464   6.611   6.902
11938TIP3   OH235752   0.781   5.962   6.205
11938TIP3    H135753   0.701   5.907   6.221
11938TIP3    H235754   0.811   5.935   6.117
11939TIP3   OH235755   0.752   5.725   5.920
11939TIP3    H135756   0.827   5.776   5.957
11939TIP3    H235757   0.801   5.658   5.869
11940TIP3   OH235758   1.681   6.177   6.791
11940TIP3    H135759   1.600   6.232   6.794
11940TIP3    H235760   1.714   6.200   6.702
11941TIP3   OH235761   1.124   6.020   6.177
11941TIP3    H135762   1.074   6.041   6.259
11941TIP3    H235763   1.209   5.989   6.215
11942TIP3   OH235764   1.378   6.055   7.100
11942TIP3    H135765   1.373   6.133   7.160
11942TIP3    H235766   1.313   6.079   7.033
11943TIP3   OH235767   1.008   6.623   6.724
11943TIP3    H135768   0.991   6.718   6.744
11943TIP3    H235769   0.995   6.581   6.809
11944TIP3   OH235770   0.963   5.880   6.001
11944TIP3    H135771   1.023   5.937   6.054
11944TIP3    H235772   0.992   5.902   5.909
11945TIP3   OH235773   1.485   5.119   6.052
11945TIP3    H135774   1.400   5.133   6.098
11945TIP3    H235775   1.494   5.200   5.999
11946TIP3   OH235776   1.283   6.485   5.603
11946TIP3    H135777   1.291   6.581   5.582
11946TIP3    H235778   1.375   6.454   5.588
11947TIP3   OH235779   1.743   6.884   7.005
11947TIP3    H135780   1.711   6.794   7.022
11947TIP3    H235781   1.664   6.932   6.974
11948TIP3   OH235782   0.793   6.706   5.716
11948TIP3    H135783   0.852   6.635   5.683
11948TIP3    H235784   0.813   6.709   5.811
11949TIP3   OH235785   0.838   6.754   5.996
11949TIP3    H135786   0.776   6.757   6.071
11949TIP3    H235787   0.921   6.734   6.043
11950TIP3   OH235788   1.612   6.015   7.272
11950TIP3    H135789   1.532   6.024   7.217
11950TIP3    H235790   1.632   5.919   7.261
11951TIP3   OH235791   1.151   5.368   7.270
11951TIP3    H135792   1.223   5.337   7.329
11951TIP3    H235793   1.071   5.343   7.320
11952TIP3   OH235794   1.373   5.786   7.186
11952TIP3    H135795   1.330   5.783   7.275
11952TIP3    H235796   1.361   5.879   7.159
11953TIP3   OH235797   1.040   5.929   5.748
11953TIP3    H135798   1.004   5.900   5.662
11953TIP3    H235799   1.127   5.965   5.720
11954TIP3   OH235800   0.743   5.309   6.022
11954TIP3    H135801   0.730   5.307   6.120
11954TIP3    H235802   0.716   5.216   6.003
11955TIP3   OH235803   0.924   5.747   6.341
11955TIP3    H135804   0.866   5.811   6.296
11955TIP3    H235805   0.975   5.709   6.266
11956TIP3   OH235806   1.112   6.002   7.408
11956TIP3    H135807   1.088   5.931   7.471
11956TIP3    H235808   1.206   6.015   7.431
11957TIP3   OH235809   1.071   5.767   6.575
11957TIP3    H135810   1.010   5.785   6.500
11957TIP3    H235811   1.112   5.686   6.538
11958TIP3   OH235812   0.765   5.494   6.667
11958TIP3    H135813   0.678   5.463   6.695
11958TIP3    H235814   0.826   5.459   6.734
11959TIP3   OH235815   1.236   5.569   6.880
11959TIP3    H135816   1.198   5.568   6.969
11959TIP3    H235817   1.188   5.497   6.836
11960TIP3   OH235818   0.845   5.801   6.778
11960TIP3    H135819   0.910   5.765   6.716
11960TIP3    H235820   0.859   5.746   6.857
11961TIP3   OH235821   0.805   5.717   7.068
11961TIP3    H135822   0.748   5.783   7.108
11961TIP3    H235823   0.892   5.749   7.100
11962TIP3   OH235824   1.449   6.326   6.777
11962TIP3    H135825   1.483   6.379   6.701
11962TIP3    H235826   1.361   6.299   6.747
11963TIP3   OH235827   1.002   5.399   6.018
11963TIP3    H135828   0.905   5.381   6.021
11963TIP3    H235829   1.009   5.493   6.045
11964TIP3   OH235830   0.923   6.391   7.156
11964TIP3    H135831   0.972   6.401   7.239
11964TIP3    H235832   0.876   6.477   7.152
11965TIP3   OH235833   1.073   5.650   6.123
11965TIP3    H135834   1.170   5.648   6.137
11965TIP3    H235835   1.062   5.726   6.063
11966TIP3   OH235836   0.687   6.240   5.987
11966TIP3    H135837   0.621   6.309   5.982
11966TIP3    H235838   0.638   6.168   6.029
11967TIP3   OH235839   0.891   6.119   7.521
11967TIP3    H135840   0.866   6.027   7.512
11967TIP3    H235841   0.983   6.115   7.488
11968TIP3   OH235842   1.090   6.639   7.054
11968TIP3    H135843   1.001   6.677   7.056
11968TIP3    H235844   1.134   6.699   7.119
11969TIP3   OH235845   1.513   5.741   5.956
11969TIP3    H135846   1.451   5.696   5.893
11969TIP3    H235847   1.513   5.829   5.913
11970TIP3   OH235848   1.735   6.584   7.041
11970TIP3    H135849   1.638   6.584   7.030
11970TIP3    H235850   1.762   6.564   6.948
11971TIP3   OH235851   1.215   6.556   5.863
11971TIP3    H135852   1.196   6.475   5.912
11971TIP3    H235853   1.231   6.522   5.773
11972TIP3   OH235854   1.191   6.152   6.699
11972TIP3    H135855   1.148   6.156   6.612
11972TIP3    H235856   1.253   6.078   6.682
11973TIP3   OH235857   1.047   6.343   6.911
11973TIP3    H135858   1.008   6.377   6.995
11973TIP3    H235859   1.130   6.393   6.910
11974TIP3   OH235860   0.981   6.289   5.764
11974TIP3    H135861   1.025   6.263   5.848
11974TIP3    H235862   0.893   6.250   5.774
11975TIP3   OH235863   1.246   6.908   6.915
11975TIP3    H135864   1.159   6.882   6.881
11975TIP3    H235865   1.259   6.994   6.870
11976TIP3   OH235866   1.313   6.759   5.582
11976TIP3    H135867   1.351   6.832   5.530
11976TIP3    H235868   1.233   6.805   5.616
11977TIP3   OH235869   1.139   6.230   5.996
11977TIP3    H135870   1.128   6.153   6.056
11977TIP3    H235871   1.234   6.219   5.972
11978TIP3   OH235872   1.152   5.613   7.142
11978TIP3    H135873   1.241   5.647   7.163
11978TIP3    H235874   1.152   5.528   7.192
11979TIP3   OH235875   1.042   5.356   6.304
11979TIP3    H135876   1.032   5.371   6.208
11979TIP3    H235877   1.088   5.436   6.334
11980TIP3   OH235878   0.724   5.556   6.404
11980TIP3    H135879   0.805   5.607   6.387
11980TIP3    H235880   0.732   5.539   6.500
11981TIP3   OH235881   1.002   5.853   7.198
11981TIP3    H135882   1.043   5.902   7.273
11981TIP3    H235883   1.060   5.774   7.193
11982TIP3   OH235884   0.887   5.260   6.512
11982TIP3    H135885   0.891   5.342   6.562
11982TIP3    H235886   0.938   5.286   6.432
11983TIP3   OH235887   1.644   5.752   7.187
11983TIP3    H135888   1.546   5.745   7.191
11983TIP3    H235889   1.661   5.702   7.106
11984TIP3   OH235890   1.300   5.941   6.575
11984TIP3    H135891   1.229   5.875   6.581
11984TIP3    H235892   1.375   5.894   6.619
11985TIP3   OH235893   1.275   6.884   6.520
11985TIP3    H135894   1.233   6.937   6.448
11985TIP3    H235895   1.368   6.910   6.507
11986TIP3   OH235896   1.152   6.798   7.270
11986TIP3    H135897   1.148   6.737   7.348
11986TIP3    H235898   1.235   6.847   7.287
11987TIP3   OH235899   0.940   6.511   5.590
11987TIP3    H135900   0.983   6.443   5.646
11987TIP3    H235901   0.993   6.506   5.507
11988TIP3   OH235902   0.675   6.190   5.710
11988TIP3    H135903   0.673   6.197   5.806
11988TIP3    H235904   0.674   6.093   5.697
11989TIP3   OH235905   1.263   6.428   7.071
11989TIP3    H135906   1.346   6.469   7.036
11989TIP3    H235907   1.204   6.507   7.072
11990TIP3   OH235908   0.490   5.708   6.009
11990TIP3    H135909   0.467   5.702   5.914
11990TIP3    H235910   0.587   5.702   6.002
11991TIP3   OH235911   1.135   6.355   7.481
11991TIP3    H135912   1.222   6.343   7.441
11991TIP3    H235913   1.136   6.285   7.549
11992TIP3   OH235914   1.274   6.013   5.627
11992TIP3    H135915   1.257   5.968   5.542
11992TIP3    H235916   1.242   6.103   5.603
11993TIP3   OH235917   0.725   5.483   7.205
11993TIP3    H135918   0.770   5.554   7.155
11993TIP3    H235919   0.681   5.534   7.275
11994TIP3   OH235920   0.762   6.059   7.101
11994TIP3    H135921   0.850   6.021   7.115
11994TIP3    H235922   0.780   6.147   7.063
11995TIP3   OH235923   1.372   6.022   7.523
11995TIP3    H135924   1.418   5.940   7.546
11995TIP3    H235925   1.446   6.078   7.493
11996TIP3   OH235926   1.396   6.282   7.254
11996TIP3    H135927   1.340   6.340   7.198
11996TIP3    H235928   1.485   6.307   7.220
11997TIP3   OH235929   0.892   5.294   7.338
11997TIP3    H135930   0.834   5.364   7.303
11997TIP3    H235931   0.836   5.216   7.322
11998TIP3   OH235932   1.003   5.809   7.577
11998TIP3    H135933   1.046   5.800   7.664
11998TIP3    H235934   0.931   5.745   7.586
11999TIP3   OH235935   1.252   5.744   7.423
11999TIP3    H135936   1.181   5.731   7.488
11999TIP3    H235937   1.331   5.715   7.474
12000TIP3   OH235938   1.476   5.686   7.569
12000TIP3    H135939   1.490   5.591   7.586
12000TIP3    H235940   1.471   5.723   7.660
12001TIP3   OH235941   0.985   5.310   7.597
12001TIP3    H135942   1.046   5.234   7.602
12001TIP3    H235943   0.946   5.297   7.509
12002TIP3   OH235944   1.058   5.527   7.740
12002TIP3    H135945   1.040   5.445   7.689
12002TIP3    H235946   0.967   5.562   7.751
12003TIP3   OH235947   1.525   6.991   6.492
12003TIP3    H135948   1.547   7.046   6.569
12003TIP3    H235949   1.581   7.031   6.424
12004TIP3   OH235950   1.600   6.685   7.331
12004TIP3    H135951   1.524   6.705   7.389
12004TIP3    H235952   1.647   6.772   7.331
12005TIP3   OH235953   1.410   6.204   5.958
12005TIP3    H135954   1.478   6.266   5.925
12005TIP3    H235955   1.457   6.164   6.035
12006TIP3   OH235956   1.538   6.072   6.161
12006TIP3    H135957   1.476   6.026   6.222
12006TIP3    H235958   1.609   6.103   6.221
12007TIP3   OH235959   1.587   6.456   6.585
12007TIP3    H135960   1.648   6.394   6.540
12007TIP3    H235961   1.592   6.535   6.527
12008TIP3   OH235962   1.425   6.736   6.797
12008TIP3    H135963   1.378   6.810   6.840
12008TIP3    H235964   1.373   6.722   6.717
12009TIP3   OH235965   1.478   5.978   5.808
12009TIP3    H135966   1.407   5.978   5.740
12009TIP3    H235967   1.449   6.054   5.861
12010TIP3   OH235968   1.342   5.653   5.764
12010TIP3    H135969   1.310   5.681   5.678
12010TIP3    H235970   1.321   5.557   5.761
12011TIP3   OH235971   1.350   5.924   6.305
12011TIP3    H135972   1.362   5.828   6.293
12011TIP3    H235973   1.343   5.932   6.402
12012TIP3   OH235974   1.643   6.348   7.164
12012TIP3    H135975   1.716   6.283   7.155
12012TIP3    H235976   1.674   6.421   7.107
12013TIP3   OH235977   1.826   6.153   7.180
12013TIP3    H135978   1.753   6.101   7.220
12013TIP3    H235979   1.901   6.091   7.194
12014TIP3   OH235980   1.289   5.387   5.754
12014TIP3    H135981   1.368   5.354   5.801
12014TIP3    H235982   1.223   5.317   5.770
12015TIP3   OH235983   1.352   5.643   6.198
12015TIP3    H135984   1.390   5.554   6.216
12015TIP3    H235985   1.410   5.672   6.126
12016TIP3   OH235986   1.512   5.821   6.694
12016TIP3    H135987   1.598   5.844   6.652
12016TIP3    H235988   1.531   5.851   6.785
12017TIP3   OH235989   1.587   5.956   6.927
12017TIP3    H135990   1.518   5.993   6.984
12017TIP3    H235991   1.621   6.037   6.881
12018TIP3   OH235992   2.031   5.551   7.483
12018TIP3    H135993   2.092   5.485   7.443
12018TIP3    H235994   2.005   5.604   7.405
12019TIP3   OH235995   1.454   5.394   6.242
12019TIP3    H135996   1.506   5.374   6.323
12019TIP3    H235997   1.396   5.314   6.238
12020TIP3   OH235998   1.902   5.689   7.286
12020TIP3    H135999   1.814   5.728   7.305
12020TIP3    H236000   1.874   5.614   7.229
12021TIP3   OH236001   1.538   5.327   5.870
12021TIP3    H136002   1.576   5.254   5.817
12021TIP3    H236003   1.608   5.395   5.866
12022TIP3   OH236004   1.102   6.843   6.139
12022TIP3    H136005   1.158   6.843   6.058
12022TIP3    H236006   1.142   6.915   6.191
12023TIP3   OH236007   1.021   7.055   7.013
12023TIP3    H136008   1.109   7.017   7.024
12023TIP3    H236009   1.033   7.144   7.052
12024TIP3   OH236010   1.801   5.449   7.169
12024TIP3    H136011   1.711   5.434   7.136
12024TIP3    H236012   1.839   5.358   7.160
12025TIP3   OH236013   0.975   6.891   6.777
12025TIP3    H136014   0.922   6.941   6.841
12025TIP3    H236015   1.034   6.962   6.745
12026TIP3   OH236016   1.171   7.080   6.708
12026TIP3    H136017   1.189   7.173   6.688
12026TIP3    H236018   1.220   7.032   6.639
12027TIP3   OH236019   1.000   5.365   6.787
12027TIP3    H136020   0.964   5.287   6.832
12027TIP3    H236021   1.075   5.328   6.737
12028TIP3   OH236022   1.526   5.264   6.700
12028TIP3    H136023   1.565   5.303   6.619
12028TIP3    H236024   1.431   5.263   6.680
12029TIP3   OH236025   1.623   5.348   6.458
12029TIP3    H136026   1.695   5.294   6.419
12029TIP3    H236027   1.659   5.438   6.442
12030TIP3   OH236028   0.714   5.111   6.692
12030TIP3    H136029   0.763   5.152   6.619
12030TIP3    H236030   0.768   5.133   6.769
12031TIP3   OH236031   1.240   5.255   6.666
12031TIP3    H136032   1.244   5.213   6.579
12031TIP3    H236033   1.230   5.177   6.725
12032TIP3   OH236034   1.278   5.178   6.233
12032TIP3    H136035   1.185   5.207   6.234
12032TIP3    H236036   1.268   5.091   6.279
12033TIP3   OH236037   0.710   5.297   6.289
12033TIP3    H136038   0.720   5.239   6.365
12033TIP3    H236039   0.696   5.384   6.331
12034TIP3   OH236040   1.249   6.824   5.908
12034TIP3    H136041   1.241   6.727   5.893
12034TIP3    H236042   1.207   6.858   5.826
12035TIP3   OH236043   1.539   5.418   7.601
12035TIP3    H136044   1.559   5.385   7.691
12035TIP3    H236045   1.628   5.412   7.559
12036TIP3   OH236046   2.745   6.343   5.856
12036TIP3    H136047   2.714   6.433   5.836
12036TIP3    H236048   2.668   6.291   5.826
12037TIP3   OH236049   2.740   6.341   6.245
12037TIP3    H136050   2.776   6.315   6.331
12037TIP3    H236051   2.701   6.258   6.214
12038TIP3   OH236052   2.038   6.235   6.611
12038TIP3    H136053   2.070   6.166   6.672
12038TIP3    H236054   2.120   6.285   6.595
12039TIP3   OH236055   2.986   6.647   5.922
12039TIP3    H136056   2.971   6.575   5.985
12039TIP3    H236057   3.017   6.719   5.980
12040TIP3   OH236058   2.012   6.644   6.326
12040TIP3    H136059   2.005   6.546   6.328
12040TIP3    H236060   2.109   6.654   6.325
12041TIP3   OH236061   1.718   5.847   6.113
12041TIP3    H136062   1.670   5.930   6.126
12041TIP3    H236063   1.648   5.793   6.072
12042TIP3   OH236064   1.775   6.133   6.289
12042TIP3    H136065   1.825   6.056   6.324
12042TIP3    H236066   1.838   6.169   6.225
12043TIP3   OH236067   2.638   7.106   5.940
12043TIP3    H136068   2.681   7.034   5.889
12043TIP3    H236069   2.629   7.065   6.027
12044TIP3   OH236070   2.541   6.567   6.289
12044TIP3    H136071   2.580   6.488   6.248
12044TIP3    H236072   2.624   6.614   6.313
12045TIP3   OH236073   3.556   5.886   6.286
12045TIP3    H136074   3.585   5.969   6.330
12045TIP3    H236075   3.579   5.904   6.193
12046TIP3   OH236076   2.955   6.069   6.319
12046TIP3    H136077   2.995   5.983   6.342
12046TIP3    H236078   2.921   6.051   6.229
12047TIP3   OH236079   2.290   5.728   6.287
12047TIP3    H136080   2.273   5.799   6.221
12047TIP3    H236081   2.244   5.653   6.242
12048TIP3   OH236082   2.987   5.819   5.906
12048TIP3    H136083   3.057   5.803   5.973
12048TIP3    H236084   3.041   5.854   5.833
12049TIP3   OH236085   1.925   5.929   6.392
12049TIP3    H136086   2.008   5.909   6.440
12049TIP3    H236087   1.939   5.873   6.312
12050TIP3   OH236088   2.364   6.127   6.191
12050TIP3    H136089   2.459   6.103   6.202
12050TIP3    H236090   2.327   6.042   6.157
12051TIP3   OH236091   3.629   6.095   6.456
12051TIP3    H136092   3.544   6.140   6.438
12051TIP3    H236093   3.645   6.123   6.547
12052TIP3   OH236094   2.288   5.713   6.721
12052TIP3    H136095   2.227   5.748   6.653
12052TIP3    H236096   2.235   5.730   6.802
12053TIP3   OH236097   2.635   6.564   5.726
12053TIP3    H136098   2.590   6.543   5.643
12053TIP3    H236099   2.588   6.646   5.753
12054TIP3   OH236100   2.395   6.486   6.512
12054TIP3    H136101   2.335   6.554   6.549
12054TIP3    H236102   2.438   6.535   6.439
12055TIP3   OH236103   3.193   5.823   6.082
12055TIP3    H136104   3.179   5.775   6.164
12055TIP3    H236105   3.246   5.900   6.111
12056TIP3   OH236106   2.158   5.826   6.504
12056TIP3    H136107   2.222   5.897   6.528
12056TIP3    H236108   2.207   5.784   6.429
12057TIP3   OH236109   2.225   6.682   6.611
12057TIP3    H136110   2.199   6.770   6.577
12057TIP3    H236111   2.146   6.663   6.667
12058TIP3   OH236112   1.612   6.371   5.849
12058TIP3    H136113   1.576   6.398   5.762
12058TIP3    H236114   1.646   6.456   5.884
12059TIP3   OH236115   3.055   6.888   6.089
12059TIP3    H136116   2.965   6.878   6.128
12059TIP3    H236117   3.046   6.974   6.044
12060TIP3   OH236118   3.346   5.790   6.455
12060TIP3    H136119   3.258   5.814   6.422
12060TIP3    H236120   3.405   5.820   6.383
12061TIP3   OH236121   2.628   5.440   6.404
12061TIP3    H136122   2.678   5.369   6.448
12061TIP3    H236123   2.558   5.459   6.470
12062TIP3   OH236124   2.755   6.932   5.759
12062TIP3    H136125   2.805   6.849   5.743
12062TIP3    H236126   2.818   6.997   5.720
12063TIP3   OH236127   2.901   6.718   5.670
12063TIP3    H136128   2.857   6.638   5.638
12063TIP3    H236129   2.939   6.686   5.755
12064TIP3   OH236130   3.281   6.799   6.433
12064TIP3    H136131   3.270   6.721   6.374
12064TIP3    H236132   3.265   6.873   6.370
12065TIP3   OH236133   2.574   6.193   5.691
12065TIP3    H136134   2.493   6.244   5.668
12065TIP3    H236135   2.620   6.189   5.605
12066TIP3   OH236136   2.531   5.979   5.404
12066TIP3    H136137   2.599   6.029   5.453
12066TIP3    H236138   2.588   5.915   5.357
12067TIP3   OH236139   3.476   6.436   6.277
12067TIP3    H136140   3.393   6.488   6.282
12067TIP3    H236141   3.507   6.460   6.188
12068TIP3   OH236142   2.922   6.277   5.660
12068TIP3    H136143   2.867   6.300   5.738
12068TIP3    H236144   3.006   6.250   5.704
12069TIP3   OH236145   3.155   6.314   6.575
12069TIP3    H136146   3.152   6.397   6.626
12069TIP3    H236147   3.069   6.317   6.530
12070TIP3   OH236148   2.155   6.273   6.079
12070TIP3    H136149   2.113   6.214   6.013
12070TIP3    H236150   2.230   6.218   6.110
12071TIP3   OH236151   2.285   6.686   6.226
12071TIP3    H136152   2.264   6.645   6.141
12071TIP3    H236153   2.374   6.650   6.245
12072TIP3   OH236154   2.282   6.246   6.433
12072TIP3    H136155   2.319   6.218   6.347
12072TIP3    H236156   2.331   6.329   6.451
12073TIP3   OH236157   2.814   6.882   6.210
12073TIP3    H136158   2.802   6.961   6.266
12073TIP3    H236159   2.799   6.808   6.272
12074TIP3   OH236160   2.428   6.801   6.757
12074TIP3    H136161   2.366   6.863   6.803
12074TIP3    H236162   2.364   6.748   6.706
12075TIP3   OH236163   2.760   6.135   5.488
12075TIP3    H136164   2.820   6.194   5.539
12075TIP3    H236165   2.787   6.157   5.395
12076TIP3   OH236166   2.185   6.357   6.862
12076TIP3    H136167   2.187   6.445   6.904
12076TIP3    H236168   2.089   6.337   6.868
12077TIP3   OH236169   2.505   6.811   5.763
12077TIP3    H136170   2.587   6.863   5.775
12077TIP3    H236171   2.445   6.874   5.723
12078TIP3   OH236172   2.223   6.969   6.846
12078TIP3    H136173   2.185   6.972   6.756
12078TIP3    H236174   2.145   6.943   6.900
12079TIP3   OH236175   3.277   5.373   5.537
12079TIP3    H136176   3.195   5.393   5.587
12079TIP3    H236177   3.291   5.456   5.487
12080TIP3   OH236178   2.019   6.117   5.885
12080TIP3    H136179   1.950   6.157   5.828
12080TIP3    H236180   1.987   6.027   5.894
12081TIP3   OH236181   3.075   6.742   5.085
12081TIP3    H136182   3.078   6.838   5.070
12081TIP3    H236183   3.165   6.715   5.063
12082TIP3   OH236184   1.799   6.498   6.792
12082TIP3    H136185   1.741   6.473   6.718
12082TIP3    H236186   1.841   6.413   6.818
12083TIP3   OH236187   1.655   6.690   6.429
12083TIP3    H136188   1.751   6.688   6.419
12083TIP3    H236189   1.644   6.768   6.485
12084TIP3   OH236190   3.517   7.143   6.479
12084TIP3    H136191   3.517   7.047   6.494
12084TIP3    H236192   3.434   7.168   6.526
12085TIP3   OH236193   2.624   6.929   6.614
12085TIP3    H136194   2.622   7.021   6.647
12085TIP3    H236195   2.552   6.888   6.668
12086TIP3   OH236196   2.388   7.059   5.565
12086TIP3    H136197   2.340   7.039   5.483
12086TIP3    H236198   2.353   7.146   5.591
12087TIP3   OH236199   1.824   6.907   5.952
12087TIP3    H136200   1.872   6.898   6.037
12087TIP3    H236201   1.771   6.825   5.953
12088TIP3   OH236202   2.587   6.961   5.205
12088TIP3    H136203   2.646   6.890   5.170
12088TIP3    H236204   2.620   6.970   5.297
12089TIP3   OH236205   2.639   7.007   5.475
12089TIP3    H136206   2.550   7.018   5.516
12089TIP3    H236207   2.688   6.967   5.548
12090TIP3   OH236208   3.406   6.273   6.755
12090TIP3    H136209   3.325   6.282   6.703
12090TIP3    H236210   3.424   6.177   6.745
12091TIP3   OH236211   2.006   6.679   6.774
12091TIP3    H136212   2.052   6.671   6.860
12091TIP3    H236213   1.930   6.619   6.786
12092TIP3   OH236214   2.402   5.503   6.570
12092TIP3    H136215   2.314   5.473   6.539
12092TIP3    H236216   2.376   5.584   6.618
12093TIP3   OH236217   2.939   5.645   6.776
12093TIP3    H136218   3.006   5.586   6.815
12093TIP3    H236219   2.857   5.595   6.791
12094TIP3   OH236220   3.179   6.052   6.678
12094TIP3    H136221   3.127   6.048   6.762
12094TIP3    H236222   3.152   6.137   6.640
12095TIP3   OH236223   2.838   6.181   5.233
12095TIP3    H136224   2.803   6.155   5.146
12095TIP3    H236225   2.923   6.222   5.207
12096TIP3   OH236226   2.550   5.554   5.536
12096TIP3    H136227   2.516   5.550   5.628
12096TIP3    H236228   2.511   5.472   5.501
12097TIP3   OH236229   2.335   6.023   6.582
12097TIP3    H136230   2.287   6.044   6.664
12097TIP3    H236231   2.319   6.103   6.529
12098TIP3   OH236232   2.219   5.909   6.096
12098TIP3    H136233   2.127   5.880   6.115
12098TIP3    H236234   2.233   5.867   6.008
12099TIP3   OH236235   2.712   5.994   5.826
12099TIP3    H136236   2.660   6.064   5.781
12099TIP3    H236237   2.766   5.960   5.752
12100TIP3   OH236238   2.886   6.272   6.912
12100TIP3    H136239   2.863   6.197   6.972
12100TIP3    H236240   2.981   6.281   6.931
12101TIP3   OH236241   2.869   6.020   6.061
12101TIP3    H136242   2.806   6.046   5.991
12101TIP3    H236243   2.903   5.939   6.019
12102TIP3   OH236244   2.153   6.050   6.792
12102TIP3    H136245   2.193   6.110   6.857
12102TIP3    H236246   2.145   5.967   6.843
12103TIP3   OH236247   2.206   5.529   5.500
12103TIP3    H136248   2.198   5.526   5.597
12103TIP3    H236249   2.126   5.579   5.476
12104TIP3   OH236250   1.746   5.573   6.375
12104TIP3    H136251   1.825   5.603   6.425
12104TIP3    H236252   1.783   5.539   6.292
12105TIP3   OH236253   1.718   5.551   5.892
12105TIP3    H136254   1.764   5.587   5.813
12105TIP3    H236255   1.658   5.625   5.910
12106TIP3   OH236256   2.878   6.267   6.484
12106TIP3    H136257   2.911   6.195   6.425
12106TIP3    H236258   2.848   6.212   6.561
12107TIP3   OH236259   2.550   5.738   6.159
12107TIP3    H136260   2.472   5.728   6.216
12107TIP3    H236261   2.622   5.715   6.219
12108TIP3   OH236262   1.982   5.785   6.165
12108TIP3    H136263   1.888   5.789   6.137
12108TIP3    H236264   2.008   5.693   6.143
12109TIP3   OH236265   2.248   5.782   5.855
12109TIP3    H136266   2.343   5.794   5.836
12109TIP3    H236267   2.203   5.803   5.770
12110TIP3   OH236268   3.039   5.807   6.362
12110TIP3    H136269   3.005   5.818   6.453
12110TIP3    H236270   2.977   5.742   6.326
12111TIP3   OH236271   2.093   5.819   5.632
12111TIP3    H136272   2.023   5.771   5.584
12111TIP3    H236273   2.146   5.854   5.557
12112TIP3   OH236274   3.212   7.495   6.580
12112TIP3    H136275   3.211   7.518   6.485
12112TIP3    H236276   3.293   7.540   6.610
12113TIP3   OH236277   2.167   6.602   7.001
12113TIP3    H136278   2.247   6.634   7.048
12113TIP3    H236279   2.101   6.609   7.072
12114TIP3   OH236280   2.630   6.062   6.257
12114TIP3    H136281   2.698   6.014   6.207
12114TIP3    H236282   2.632   6.015   6.343
12115TIP3   OH236283   2.149   5.545   6.135
12115TIP3    H136284   2.115   5.468   6.184
12115TIP3    H236285   2.206   5.503   6.069
12116TIP3   OH236286   2.607   5.961   6.536
12116TIP3    H136287   2.517   5.992   6.558
12116TIP3    H236288   2.664   6.017   6.592
12117TIP3   OH236289   2.342   6.346   5.638
12117TIP3    H136290   2.271   6.279   5.627
12117TIP3    H236291   2.323   6.379   5.729
12118TIP3   OH236292   3.243   6.582   6.267
12118TIP3    H136293   3.267   6.632   6.186
12118TIP3    H236294   3.159   6.539   6.241
12119TIP3   OH236295   2.800   5.657   5.502
12119TIP3    H136296   2.704   5.637   5.513
12119TIP3    H236297   2.808   5.751   5.529
12120TIP3   OH236298   2.743   6.664   6.635
12120TIP3    H136299   2.770   6.642   6.725
12120TIP3    H236300   2.703   6.752   6.646
12121TIP3   OH236301   2.870   5.905   5.607
12121TIP3    H136302   2.966   5.910   5.623
12121TIP3    H236303   2.853   5.985   5.555
12122TIP3   OH236304   2.034   6.365   6.313
12122TIP3    H136305   2.073   6.339   6.227
12122TIP3    H236306   2.085   6.309   6.375
12123TIP3   OH236307   2.488   6.494   5.461
12123TIP3    H136308   2.440   6.580   5.466
12123TIP3    H236309   2.434   6.439   5.521
12124TIP3   OH236310   1.918   6.290   6.930
12124TIP3    H136311   1.943   6.278   7.024
12124TIP3    H236312   1.854   6.218   6.917
12125TIP3   OH236313   2.644   6.403   6.949
12125TIP3    H136314   2.585   6.345   6.899
12125TIP3    H236315   2.732   6.368   6.922
12126TIP3   OH236316   2.902   6.928   6.532
12126TIP3    H136317   2.806   6.922   6.546
12126TIP3    H236318   2.929   6.978   6.612
12127TIP3   OH236319   3.311   5.996   5.442
12127TIP3    H136320   3.249   5.952   5.379
12127TIP3    H236321   3.309   6.085   5.401
12128TIP3   OH236322   3.531   6.855   6.521
12128TIP3    H136323   3.434   6.848   6.513
12128TIP3    H236324   3.558   6.824   6.432
12129TIP3   OH236325   3.018   6.813   5.354
12129TIP3    H136326   2.985   6.750   5.419
12129TIP3    H236327   3.019   6.762   5.272
12130TIP3   OH236328   3.009   6.444   6.184
12130TIP3    H136329   2.916   6.418   6.198
12130TIP3    H236330   3.043   6.363   6.141
12131TIP3   OH236331   2.138   6.672   5.940
12131TIP3    H136332   2.136   6.753   5.886
12131TIP3    H236333   2.044   6.654   5.952
12132TIP3   OH236334   1.701   5.975   5.645
12132TIP3    H136335   1.747   6.059   5.666
12132TIP3    H236336   1.625   5.979   5.706
12133TIP3   OH236337   2.272   6.436   5.882
12133TIP3    H136338   2.238   6.525   5.903
12133TIP3    H236339   2.239   6.384   5.958
12134TIP3   OH236340   2.407   7.015   6.408
12134TIP3    H136341   2.451   7.087   6.358
12134TIP3    H236342   2.483   6.977   6.456
12135TIP3   OH236343   2.055   6.912   5.791
12135TIP3    H136344   1.970   6.920   5.839
12135TIP3    H236345   2.087   7.004   5.795
12136TIP3   OH236346   2.794   6.650   6.367
12136TIP3    H136347   2.783   6.648   6.465
12136TIP3    H236348   2.872   6.594   6.355
12137TIP3   OH236349   2.770   6.546   5.251
12137TIP3    H136350   2.824   6.519   5.329
12137TIP3    H236351   2.683   6.514   5.278
12138TIP3   OH236352   3.042   7.182   6.420
12138TIP3    H136353   2.964   7.124   6.414
12138TIP3    H236354   3.025   7.245   6.347
12139TIP3   OH236355   3.109   7.021   5.064
12139TIP3    H136356   3.149   7.104   5.030
12139TIP3    H236357   3.026   7.059   5.100
12140TIP3   OH236358   2.128   5.796   6.936
12140TIP3    H136359   2.031   5.793   6.947
12140TIP3    H236360   2.157   5.734   7.006
12141TIP3   OH236361   2.931   6.475   5.464
12141TIP3    H136362   2.919   6.410   5.536
12141TIP3    H236363   3.029   6.472   5.455
12142TIP3   OH236364   1.846   6.878   6.566
12142TIP3    H136365   1.904   6.810   6.605
12142TIP3    H236366   1.853   6.948   6.632
12143TIP3   OH236367   2.134   6.523   5.251
12143TIP3    H136368   2.147   6.430   5.224
12143TIP3    H236369   2.114   6.511   5.347
12144TIP3   OH236370   2.078   6.528   5.524
12144TIP3    H136371   2.152   6.499   5.579
12144TIP3    H236372   2.084   6.626   5.532
12145TIP3   OH236373   1.813   6.219   5.727
12145TIP3    H136374   1.747   6.265   5.784
12145TIP3    H236375   1.828   6.288   5.660
12146TIP3   OH236376   2.963   5.866   6.622
12146TIP3    H136377   3.049   5.895   6.656
12146TIP3    H236378   2.946   5.786   6.677
12147TIP3   OH236379   2.848   5.607   5.785
12147TIP3    H136380   2.835   5.630   5.691
12147TIP3    H236381   2.887   5.689   5.822
12148TIP3   OH236382   2.346   6.724   5.471
12148TIP3    H136383   2.259   6.750   5.508
12148TIP3    H236384   2.361   6.798   5.410
12149TIP3   OH236385   2.531   5.791   5.888
12149TIP3    H136386   2.597   5.862   5.872
12149TIP3    H236387   2.538   5.780   5.985
12150TIP3   OH236388   2.804   6.105   6.692
12150TIP3    H136389   2.831   6.152   6.773
12150TIP3    H236390   2.857   6.023   6.696
12151TIP3   OH236391   2.678   5.511   5.985
12151TIP3    H136392   2.686   5.580   6.053
12151TIP3    H236393   2.739   5.546   5.916
12152TIP3   OH236394   2.092   6.801   5.540
12152TIP3    H136395   2.061   6.871   5.478
12152TIP3    H236396   2.075   6.843   5.627
12153TIP3   OH236397   2.191   5.515   5.776
12153TIP3    H136398   2.188   5.603   5.817
12153TIP3    H236399   2.286   5.495   5.785
12154TIP3   OH236400   3.445   6.006   6.675
12154TIP3    H136401   3.346   6.006   6.683
12154TIP3    H236402   3.454   5.959   6.591
12155TIP3   OH236403   3.095   6.202   6.062
12155TIP3    H136404   3.019   6.142   6.074
12155TIP3    H236405   3.166   6.154   6.110
12156TIP3   OH236406   1.809   6.428   5.531
12156TIP3    H136407   1.879   6.494   5.540
12156TIP3    H236408   1.852   6.370   5.464
12157TIP3   OH236409   1.750   5.705   5.668
12157TIP3    H136410   1.749   5.803   5.662
12157TIP3    H236411   1.676   5.680   5.613
12158TIP3   OH236412   3.063   7.160   6.011
12158TIP3    H136413   3.021   7.206   5.935
12158TIP3    H236414   3.158   7.179   5.991
12159TIP3   OH236415   2.133   5.427   6.539
12159TIP3    H136416   2.108   5.391   6.451
12159TIP3    H236417   2.128   5.347   6.596
12160TIP3   OH236418   1.677   6.642   5.916
12160TIP3    H136419   1.611   6.675   5.979
12160TIP3    H236420   1.646   6.685   5.833
12161TIP3   OH236421   1.884   7.189   6.935
12161TIP3    H136422   1.937   7.177   7.016
12161TIP3    H236423   1.805   7.134   6.952
12162TIP3   OH236424   2.327   7.147   7.033
12162TIP3    H136425   2.418   7.114   7.036
12162TIP3    H236426   2.290   7.091   6.962
12163TIP3   OH236427   2.298   6.725   5.162
12163TIP3    H136428   2.241   6.654   5.201
12163TIP3    H236429   2.373   6.672   5.130
12164TIP3   OH236430   2.952   7.059   6.771
12164TIP3    H136431   2.946   6.987   6.838
12164TIP3    H236432   3.032   7.107   6.800
12165TIP3   OH236433   2.734   6.766   5.079
12165TIP3    H136434   2.771   6.696   5.136
12165TIP3    H236435   2.787   6.758   4.997
12166TIP3   OH236436   1.965   6.593   7.194
12166TIP3    H136437   1.982   6.497   7.195
12166TIP3    H236438   1.879   6.597   7.146
12167TIP3   OH236439   1.944   6.241   5.386
12167TIP3    H136440   2.000   6.208   5.459
12167TIP3    H236441   2.010   6.246   5.314
12168TIP3   OH236442   2.571   6.678   6.965
12168TIP3    H136443   2.531   6.696   6.878
12168TIP3    H236444   2.603   6.586   6.956
12169TIP3   OH236445   2.457   6.442   5.192
12169TIP3    H136446   2.458   6.453   5.289
12169TIP3    H236447   2.458   6.344   5.186
12170TIP3   OH236448   3.066   6.689   6.572
12170TIP3    H136449   3.142   6.731   6.528
12170TIP3    H236450   2.996   6.754   6.555
12171TIP3   OH236451   2.084   6.325   7.173
12171TIP3    H136452   2.163   6.278   7.144
12171TIP3    H236453   2.112   6.359   7.260
12172TIP3   OH236454   2.150   6.147   5.605
12172TIP3    H136455   2.125   6.105   5.688
12172TIP3    H236456   2.187   6.072   5.554
12173TIP3   OH236457   2.417   6.208   6.834
12173TIP3    H136458   2.341   6.271   6.835
12173TIP3    H236459   2.470   6.244   6.759
12174TIP3   OH236460   2.253   5.943   5.446
12174TIP3    H136461   2.228   5.947   5.351
12174TIP3    H236462   2.351   5.945   5.439
12175TIP3   OH236463   2.939   6.614   6.968
12175TIP3    H136464   3.016   6.584   6.918
12175TIP3    H236465   2.933   6.547   7.038
12176TIP3   OH236466   3.072   6.271   5.112
12176TIP3    H136467   3.054   6.224   5.028
12176TIP3    H236468   3.037   6.360   5.088
12177TIP3   OH236469   2.541   6.000   6.961
12177TIP3    H136470   2.545   5.920   6.904
12177TIP3    H236471   2.498   6.065   6.902
12178TIP3   OH236472   2.545   5.793   6.769
12178TIP3    H136473   2.577   5.824   6.682
12178TIP3    H236474   2.453   5.765   6.749
12179TIP3   OH236475   2.570   6.322   6.646
12179TIP3    H136476   2.655   6.326   6.600
12179TIP3    H236477   2.516   6.387   6.596
12180TIP3   OH236478   3.155   6.289   7.023
12180TIP3    H136479   3.197   6.201   7.027
12180TIP3    H236480   3.226   6.343   6.985
12181TIP3   OH236481   3.195   6.543   6.760
12181TIP3    H136482   3.138   6.597   6.700
12181TIP3    H236483   3.283   6.562   6.720
12182TIP3   OH236484   2.420   6.109   7.193
12182TIP3    H136485   2.353   6.039   7.206
12182TIP3    H236486   2.456   6.085   7.105
12183TIP3   OH236487   2.676   5.551   6.840
12183TIP3    H136488   2.628   5.632   6.813
12183TIP3    H236489   2.610   5.481   6.822
12184TIP3   OH236490   2.802   6.053   7.052
12184TIP3    H136491   2.789   6.038   7.147
12184TIP3    H236492   2.713   6.028   7.019
12185TIP3   OH236493   3.047   6.013   6.910
12185TIP3    H136494   2.969   6.002   6.968
12185TIP3    H236495   3.119   5.975   6.963
12186TIP3   OH236496   3.275   5.946   7.058
12186TIP3    H136497   3.287   5.849   7.073
12186TIP3    H236498   3.271   5.981   7.149
12187TIP3   OH236499   2.260   5.890   7.247
12187TIP3    H136500   2.265   5.799   7.212
12187TIP3    H236501   2.299   5.876   7.336
12188TIP3   OH236502   2.768   5.558   7.098
12188TIP3    H136503   2.836   5.488   7.089
12188TIP3    H236504   2.733   5.558   7.006
12189TIP3   OH236505   2.839   5.773   7.253
12189TIP3    H136506   2.819   5.701   7.189
12189TIP3    H236507   2.760   5.831   7.244
12190TIP3   OH236508   2.061   7.005   5.353
12190TIP3    H136509   2.156   6.996   5.333
12190TIP3    H236510   2.032   7.054   5.274
12191TIP3   OH236511   1.540   6.384   5.568
12191TIP3    H136512   1.634   6.405   5.553
12191TIP3    H236513   1.533   6.295   5.527
12192TIP3   OH236514   1.454   6.997   5.984
12192TIP3    H136515   1.388   6.935   5.946
12192TIP3    H236516   1.499   6.938   6.049
12193TIP3   OH236517   1.589   6.845   6.170
12193TIP3    H136518   1.580   6.774   6.236
12193TIP3    H236519   1.643   6.908   6.221
12194TIP3   OH236520   3.316   7.254   5.968
12194TIP3    H136521   3.345   7.280   6.058
12194TIP3    H236522   3.387   7.288   5.913
12195TIP3   OH236523   3.347   7.268   6.251
12195TIP3    H136524   3.302   7.180   6.248
12195TIP3    H236525   3.423   7.244   6.307
12196TIP3   OH236526   3.391   6.946   6.824
12196TIP3    H136527   3.320   6.955   6.890
12196TIP3    H236528   3.435   7.033   6.829
12197TIP3   OH236529   3.212   6.459   5.444
12197TIP3    H136530   3.285   6.519   5.420
12197TIP3    H236531   3.250   6.417   5.525
12198TIP3   OH236532   3.335   6.326   5.648
12198TIP3    H136533   3.271   6.283   5.708
12198TIP3    H236534   3.403   6.360   5.710
12199TIP3   OH236535   3.391   6.718   6.077
12199TIP3    H136536   3.446   6.650   6.032
12199TIP3    H236537   3.386   6.788   6.010
12200TIP3   OH236538   3.221   7.019   6.272
12200TIP3    H136539   3.149   7.057   6.326
12200TIP3    H236540   3.172   6.970   6.203
12201TIP3   OH236541   3.274   6.234   5.294
12201TIP3    H136542   3.202   6.235   5.227
12201TIP3    H236543   3.245   6.308   5.350
12202TIP3   OH236544   3.144   5.907   5.246
12202TIP3    H136545   3.101   5.939   5.166
12202TIP3    H236546   3.122   5.811   5.242
12203TIP3   OH236547   3.149   6.182   5.793
12203TIP3    H136548   3.157   6.086   5.786
12203TIP3    H236549   3.135   6.195   5.889
12204TIP3   OH236550   1.775   6.258   6.541
12204TIP3    H136551   1.775   6.224   6.450
12204TIP3    H236552   1.873   6.259   6.559
12205TIP3   OH236553   3.440   6.608   6.651
12205TIP3    H136554   3.511   6.540   6.642
12205TIP3    H236555   3.468   6.675   6.587
12206TIP3   OH236556   3.622   6.410   6.666
12206TIP3    H136557   3.548   6.358   6.704
12206TIP3    H236558   3.696   6.346   6.680
12207TIP3   OH236559   3.088   5.641   5.233
12207TIP3    H136560   3.163   5.608   5.288
12207TIP3    H236561   3.015   5.581   5.255
12208TIP3   OH236562   3.147   5.898   5.686
12208TIP3    H136563   3.187   5.809   5.702
12208TIP3    H236564   3.206   5.930   5.615
12209TIP3   OH236565   3.307   6.071   6.183
12209TIP3    H136566   3.393   6.096   6.142
12209TIP3    H236567   3.321   6.107   6.272
12210TIP3   OH236568   3.378   6.215   6.414
12210TIP3    H136569   3.301   6.249   6.463
12210TIP3    H236570   3.411   6.296   6.369
12211TIP3   OH236571   1.994   5.942   7.218
12211TIP3    H136572   2.092   5.936   7.218
12211TIP3    H236573   1.971   5.855   7.255
12212TIP3   OH236574   3.827   5.807   6.970
12212TIP3    H136575   3.889   5.744   6.928
12212TIP3    H236576   3.798   5.862   6.894
12213TIP3   OH236577   3.255   5.649   5.726
12213TIP3    H136578   3.303   5.633   5.810
12213TIP3    H236579   3.194   5.572   5.725
12214TIP3   OH236580   1.953   5.636   6.553
12214TIP3    H136581   2.013   5.559   6.558
12214TIP3    H236582   2.018   5.708   6.540
12215TIP3   OH236583   1.755   5.910   6.614
12215TIP3    H136584   1.806   5.899   6.531
12215TIP3    H236585   1.796   5.990   6.651
12216TIP3   OH236586   3.698   5.945   6.775
12216TIP3    H136587   3.612   5.987   6.792
12216TIP3    H236588   3.668   5.871   6.717
12217TIP3   OH236589   3.334   5.581   5.359
12217TIP3    H136590   3.374   5.510   5.305
12217TIP3    H236591   3.403   5.651   5.355
12218TIP3   OH236592   1.741   5.420   6.126
12218TIP3    H136593   1.647   5.406   6.145
12218TIP3    H236594   1.739   5.473   6.044
12219TIP3   OH236595   2.901   7.116   5.624
12219TIP3    H136596   2.955   7.105   5.543
12219TIP3    H236597   2.954   7.180   5.675
12220TIP3   OH236598   1.962   5.499   6.937
12220TIP3    H136599   1.909   5.486   7.017
12220TIP3    H236600   1.895   5.528   6.873
12221TIP3   OH236601   2.014   6.902   7.013
12221TIP3    H136602   1.918   6.896   6.994
12221TIP3    H236603   2.014   6.904   7.109
12222TIP3   OH236604   2.182   6.952   6.558
12222TIP3    H136605   2.131   7.027   6.522
12222TIP3    H236606   2.267   6.968   6.512
12223TIP3   OH236607   2.625   7.194   6.696
12223TIP3    H136608   2.668   7.194   6.785
12223TIP3    H236609   2.691   7.246   6.644
12224TIP3   OH236610   2.803   7.349   6.555
12224TIP3    H136611   2.872   7.296   6.513
12224TIP3    H236612   2.856   7.405   6.616
12225TIP3   OH236613   3.600   5.709   6.655
12225TIP3    H136614   3.509   5.698   6.621
12225TIP3    H236615   3.633   5.617   6.645
12226TIP3   OH236616   1.857   7.210   6.582
12226TIP3    H136617   1.765   7.239   6.566
12226TIP3    H236618   1.866   7.231   6.677
12227TIP3   OH236619   2.093   7.189   6.442
12227TIP3    H136620   2.006   7.201   6.489
12227TIP3    H236621   2.071   7.220   6.352
12228TIP3   OH236622   2.519   7.215   6.237
12228TIP3    H136623   2.447   7.234   6.173
12228TIP3    H236624   2.530   7.303   6.280
12229TIP3   OH236625   2.787   7.155   6.291
12229TIP3    H136626   2.693   7.172   6.270
12229TIP3    H236627   2.832   7.229   6.247
12230TIP3   OH236628   2.993   7.346   6.204
12230TIP3    H136629   2.980   7.430   6.155
12230TIP3    H236630   3.021   7.285   6.132
12231TIP3   OH236631   1.766   7.000   6.324
12231TIP3    H136632   1.792   6.976   6.416
12231TIP3    H236633   1.840   6.957   6.275
12232TIP3   OH236634   1.963   6.873   6.184
12232TIP3    H136635   1.977   6.789   6.234
12232TIP3    H236636   2.054   6.909   6.181
12233TIP3   OH236637   2.230   6.967   6.188
12233TIP3    H136638   2.260   6.875   6.178
12233TIP3    H236639   2.275   6.989   6.272
12234TIP3   OH236640   2.794   5.621   6.261
12234TIP3    H136641   2.750   5.557   6.322
12234TIP3    H236642   2.874   5.572   6.236
12235TIP3   OH236643   3.327   5.499   6.179
12235TIP3    H136644   3.361   5.554   6.105
12235TIP3    H236645   3.231   5.518   6.176
12236TIP3   OH236646   3.421   5.604   5.943
12236TIP3    H136647   3.494   5.553   5.903
12236TIP3    H236648   3.454   5.696   5.928
12237TIP3   OH236649   2.051   5.332   6.290
12237TIP3    H136650   1.959   5.299   6.292
12237TIP3    H236651   2.101   5.247   6.286
12238TIP3   OH236652   1.843   5.203   5.940
12238TIP3    H136653   1.871   5.259   5.866
12238TIP3    H236654   1.816   5.269   6.007
12239TIP3   OH236655   2.495   5.367   6.173
12239TIP3    H136656   2.552   5.415   6.112
12239TIP3    H236657   2.534   5.392   6.259
12240TIP3   OH236658   3.045   5.511   6.159
12240TIP3    H136659   3.038   5.467   6.073
12240TIP3    H236660   3.031   5.434   6.220
12241TIP3   OH236661   3.072   5.436   5.717
12241TIP3    H136662   2.986   5.479   5.733
12241TIP3    H236663   3.058   5.350   5.763
12242TIP3   OH236664   1.555   6.777   5.717
12242TIP3    H136665   1.470   6.744   5.682
12242TIP3    H236666   1.546   6.871   5.694
12243TIP3   OH236667   1.957   5.363   5.700
12243TIP3    H136668   2.004   5.298   5.644
12243TIP3    H236669   2.032   5.415   5.736
12244TIP3   OH236670   2.468   5.540   5.800
12244TIP3    H136671   2.527   5.492   5.861
12244TIP3    H236672   2.490   5.632   5.826
12245TIP3   OH236673   2.327   6.960   5.299
12245TIP3    H136674   2.416   6.983   5.263
12245TIP3    H236675   2.305   6.885   5.239
12246TIP3   OH236676   3.050   7.081   5.391
12246TIP3    H136677   3.040   6.983   5.383
12246TIP3    H236678   3.000   7.111   5.313
12247TIP3   OH236679   2.258   5.616   7.184
12247TIP3    H136680   2.225   5.542   7.239
12247TIP3    H236681   2.354   5.614   7.209
12248TIP3   OH236682   2.510   5.613   7.300
12248TIP3    H136683   2.593   5.587   7.255
12248TIP3    H236684   2.500   5.541   7.366
12249TIP3   OH236685   1.632   6.799   5.355
12249TIP3    H136686   1.635   6.820   5.449
12249TIP3    H236687   1.720   6.756   5.341
12250TIP3   OH236688   3.336   5.675   7.088
12250TIP3    H136689   3.353   5.644   7.179
12250TIP3    H236690   3.424   5.669   7.047
12251TIP3   OH236691   3.270   7.225   6.581
12251TIP3    H136692   3.192   7.194   6.531
12251TIP3    H236693   3.252   7.321   6.586
12252TIP3   OH236694   4.540   6.589   5.348
12252TIP3    H136695   4.521   6.684   5.332
12252TIP3    H236696   4.458   6.550   5.314
12253TIP3   OH236697   4.522   6.596   5.732
12253TIP3    H136698   4.568   6.581   5.816
12253TIP3    H236699   4.494   6.507   5.707
12254TIP3   OH236700   3.835   6.492   6.096
12254TIP3    H136701   3.865   6.424   6.158
12254TIP3    H236702   3.917   6.542   6.083
12255TIP3   OH236703   3.808   6.901   5.813
12255TIP3    H136704   3.801   6.803   5.816
12255TIP3    H236705   3.905   6.911   5.810
12256TIP3   OH236706   3.516   6.104   5.598
12256TIP3    H136707   3.468   6.187   5.617
12256TIP3    H236708   3.444   6.051   5.560
12257TIP3   OH236709   3.573   6.390   5.774
12257TIP3    H136710   3.621   6.313   5.811
12257TIP3    H236711   3.640   6.428   5.716
12258TIP3   OH236712   4.436   7.360   5.423
12258TIP3    H136713   4.492   7.285   5.389
12258TIP3    H236714   4.418   7.324   5.511
12259TIP3   OH236715   4.330   6.822   5.775
12259TIP3    H136716   4.375   6.745   5.735
12259TIP3    H236717   4.412   6.870   5.802
12260TIP3   OH236718   5.354   6.141   5.774
12260TIP3    H136719   5.382   6.224   5.818
12260TIP3    H236720   5.392   6.154   5.685
12261TIP3   OH236721   4.745   6.322   5.808
12261TIP3    H136722   4.792   6.240   5.829
12261TIP3    H236723   4.717   6.305   5.716
12262TIP3   OH236724   4.087   5.984   5.773
12262TIP3    H136725   4.070   6.057   5.711
12262TIP3    H236726   4.039   5.911   5.728
12263TIP3   OH236727   4.783   6.075   5.394
12263TIP3    H136728   4.854   6.061   5.461
12263TIP3    H236729   4.837   6.111   5.321
12264TIP3   OH236730   3.721   6.186   5.879
12264TIP3    H136731   3.804   6.168   5.928
12264TIP3    H236732   3.736   6.130   5.800
12265TIP3   OH236733   4.161   6.383   5.676
12265TIP3    H136734   4.256   6.360   5.686
12265TIP3    H236735   4.124   6.298   5.642
12266TIP3   OH236736   5.421   6.347   5.950
12266TIP3    H136737   5.340   6.398   5.931
12266TIP3    H236738   5.454   6.392   6.030
12267TIP3   OH236739   4.083   5.967   6.207
12267TIP3    H136740   4.024   6.005   6.139
12267TIP3    H236741   4.031   5.986   6.288
12268TIP3   OH236742   4.443   6.812   5.204
12268TIP3    H136743   4.386   6.816   5.127
12268TIP3    H236744   4.426   6.899   5.245
12269TIP3   OH236745   4.190   6.742   6.000
12269TIP3    H136746   4.132   6.813   6.036
12269TIP3    H236747   4.237   6.789   5.928
12270TIP3   OH236748   4.989   6.080   5.571
12270TIP3    H136749   4.976   6.041   5.659
12270TIP3    H236750   5.044   6.157   5.592
12271TIP3   OH236751   3.954   6.083   5.991
12271TIP3    H136752   4.016   6.156   6.015
12271TIP3    H236753   4.004   6.042   5.917
12272TIP3   OH236754   4.018   6.940   6.099
12272TIP3    H136755   3.994   7.027   6.063
12272TIP3    H236756   3.939   6.923   6.156
12273TIP3   OH236757   3.419   6.632   5.333
12273TIP3    H136758   3.352   6.671   5.276
12273TIP3    H236759   3.452   6.711   5.380
12274TIP3   OH236760   5.146   6.034   5.935
12274TIP3    H136761   5.062   6.073   5.908
12274TIP3    H236762   5.209   6.072   5.869
12275TIP3   OH236763   4.437   5.685   5.921
12275TIP3    H136764   4.423   5.590   5.940
12275TIP3    H236765   4.361   5.724   5.969
12276TIP3   OH236766   4.719   6.959   5.126
12276TIP3    H136767   4.649   6.895   5.138
12276TIP3    H236768   4.699   7.016   5.203
12277TIP3   OH236769   5.077   7.057   5.918
12277TIP3    H136770   5.068   6.978   5.861
12277TIP3    H236771   5.056   7.130   5.856
12278TIP3   OH236772   4.365   6.446   5.175
12278TIP3    H136773   4.290   6.503   5.151
12278TIP3    H236774   4.419   6.448   5.094
12279TIP3   OH236775   4.327   6.236   4.890
12279TIP3    H136776   4.393   6.286   4.942
12279TIP3    H236777   4.386   6.174   4.844
12280TIP3   OH236778   5.272   6.692   5.766
12280TIP3    H136779   5.190   6.745   5.771
12280TIP3    H236780   5.302   6.713   5.676
12281TIP3   OH236781   4.716   6.527   5.149
12281TIP3    H136782   4.663   6.553   5.228
12281TIP3    H236783   4.802   6.506   5.192
12282TIP3   OH236784   4.951   6.569   6.064
12282TIP3    H136785   4.950   6.651   6.118
12282TIP3    H236786   4.869   6.581   6.012
12283TIP3   OH236787   3.950   6.528   5.568
12283TIP3    H136788   3.912   6.469   5.500
12283TIP3    H236789   4.027   6.476   5.599
12284TIP3   OH236790   4.080   6.941   5.715
12284TIP3    H136791   4.066   6.898   5.629
12284TIP3    H236792   4.170   6.908   5.738
12285TIP3   OH236793   4.079   6.504   5.919
12285TIP3    H136794   4.118   6.477   5.833
12285TIP3    H236795   4.128   6.587   5.939
12286TIP3   OH236796   4.223   7.060   6.245
12286TIP3    H136797   4.161   7.120   6.292
12286TIP3    H236798   4.161   7.004   6.195
12287TIP3   OH236799   4.555   6.392   4.975
12287TIP3    H136800   4.616   6.450   5.027
12287TIP3    H236801   4.582   6.415   4.883
12288TIP3   OH236802   3.979   6.613   6.349
12288TIP3    H136803   3.984   6.701   6.391
12288TIP3    H236804   3.884   6.593   6.358
12289TIP3   OH236805   4.298   7.071   5.239
12289TIP3    H136806   4.383   7.087   5.285
12289TIP3    H236807   4.263   7.160   5.229
12290TIP3   OH236808   4.016   7.226   6.331
12290TIP3    H136809   3.982   7.225   6.239
12290TIP3    H236810   3.935   7.205   6.383
12291TIP3   OH236811   5.073   5.630   5.023
12291TIP3    H136812   4.992   5.652   5.074
12291TIP3    H236813   5.088   5.713   4.974
12292TIP3   OH236814   3.816   6.370   5.370
12292TIP3    H136815   3.744   6.405   5.314
12292TIP3    H236816   3.785   6.280   5.387
12293TIP3   OH236817   3.596   6.757   6.278
12293TIP3    H136818   3.531   6.732   6.209
12293TIP3    H236819   3.635   6.670   6.304
12294TIP3   OH236820   3.453   6.952   5.904
12294TIP3    H136821   3.548   6.937   5.898
12294TIP3    H236822   3.449   7.025   5.968
12295TIP3   OH236823   5.309   7.401   5.962
12295TIP3    H136824   5.313   7.304   5.978
12295TIP3    H236825   5.228   7.424   6.012
12296TIP3   OH236826   4.415   7.189   6.098
12296TIP3    H136827   4.415   7.280   6.134
12296TIP3    H236828   4.349   7.145   6.155
12297TIP3   OH236829   4.179   7.314   5.052
12297TIP3    H136830   4.139   7.301   4.964
12297TIP3    H236831   4.151   7.404   5.075
12298TIP3   OH236832   3.618   7.162   5.442
12298TIP3    H136833   3.674   7.158   5.523
12298TIP3    H236834   3.562   7.084   5.456
12299TIP3   OH236835   4.380   7.219   4.696
12299TIP3    H136836   4.439   7.149   4.661
12299TIP3    H236837   4.413   7.229   4.787
12300TIP3   OH236838   4.435   7.261   4.966
12300TIP3    H136839   4.349   7.264   5.011
12300TIP3    H236840   4.494   7.237   5.039
12301TIP3   OH236841   5.206   6.528   6.242
12301TIP3    H136842   5.123   6.538   6.192
12301TIP3    H236843   5.221   6.432   6.236
12302TIP3   OH236844   3.800   6.941   6.266
12302TIP3    H136845   3.852   6.922   6.347
12302TIP3    H236846   3.727   6.876   6.273
12303TIP3   OH236847   4.201   5.760   6.053
12303TIP3    H136848   4.111   5.732   6.025
12303TIP3    H236849   4.177   5.843   6.099
12304TIP3   OH236850   4.737   5.874   6.245
12304TIP3    H136851   4.806   5.851   6.310
12304TIP3    H236852   4.654   5.858   6.294
12305TIP3   OH236853   4.967   6.303   6.158
12305TIP3    H136854   4.922   6.302   6.245
12305TIP3    H236855   4.950   6.394   6.126
12306TIP3   OH236856   4.630   6.433   4.718
12306TIP3    H136857   4.601   6.410   4.628
12306TIP3    H236858   4.715   6.477   4.700
12307TIP3   OH236859   4.344   5.811   5.022
12307TIP3    H136860   4.312   5.807   5.115
12307TIP3    H236861   4.306   5.728   4.988
12308TIP3   OH236862   4.129   6.280   6.067
12308TIP3    H136863   4.085   6.303   6.150
12308TIP3    H236864   4.114   6.361   6.014
12309TIP3   OH236865   4.016   6.164   5.583
12309TIP3    H136866   3.924   6.136   5.602
12309TIP3    H236867   4.029   6.122   5.495
12310TIP3   OH236868   4.505   6.246   5.309
12310TIP3    H136869   4.455   6.320   5.268
12310TIP3    H236870   4.562   6.217   5.236
12311TIP3   OH236871   4.683   6.526   6.395
12311TIP3    H136872   4.662   6.454   6.458
12311TIP3    H236873   4.776   6.543   6.416
12312TIP3   OH236874   4.660   6.275   5.551
12312TIP3    H136875   4.603   6.309   5.480
12312TIP3    H236876   4.695   6.195   5.506
12313TIP3   OH236877   3.949   6.308   6.279
12313TIP3    H136878   3.990   6.369   6.342
12313TIP3    H236879   3.941   6.226   6.331
12314TIP3   OH236880   4.000   5.784   4.987
12314TIP3    H136881   3.993   5.782   5.085
12314TIP3    H236882   3.922   5.837   4.963
12315TIP3   OH236883   3.545   5.828   5.858
12315TIP3    H136884   3.620   5.860   5.913
12315TIP3    H236885   3.588   5.796   5.777
12316TIP3   OH236886   3.513   5.808   5.378
12316TIP3    H136887   3.560   5.845   5.300
12316TIP3    H236888   3.453   5.882   5.398
12317TIP3   OH236889   4.661   6.521   5.970
12317TIP3    H136890   4.700   6.452   5.912
12317TIP3    H236891   4.639   6.466   6.049
12318TIP3   OH236892   4.343   5.983   5.643
12318TIP3    H136893   4.265   5.984   5.701
12318TIP3    H236894   4.416   5.984   5.707
12319TIP3   OH236895   3.778   6.042   5.651
12319TIP3    H136896   3.683   6.048   5.624
12319TIP3    H236897   3.802   5.950   5.629
12320TIP3   OH236898   4.044   6.036   5.341
12320TIP3    H136899   4.139   6.051   5.324
12320TIP3    H236900   4.001   6.060   5.257
12321TIP3   OH236901   4.836   6.061   5.844
12321TIP3    H136902   4.805   6.075   5.937
12321TIP3    H236903   4.767   6.003   5.810
12322TIP3   OH236904   3.889   6.075   5.117
12322TIP3    H136905   3.820   6.028   5.068
12322TIP3    H236906   3.942   6.111   5.043
12323TIP3   OH236907   5.006   7.752   6.066
12323TIP3    H136908   5.005   7.773   5.970
12323TIP3    H236909   5.089   7.795   6.094
12324TIP3   OH236910   3.962   6.863   6.486
12324TIP3    H136911   4.044   6.890   6.532
12324TIP3    H236912   3.900   6.860   6.561
12325TIP3   OH236913   4.426   6.310   5.737
12325TIP3    H136914   4.503   6.279   5.687
12325TIP3    H236915   4.440   6.272   5.825
12326TIP3   OH236916   3.946   5.803   5.622
12326TIP3    H136917   3.912   5.724   5.670
12326TIP3    H236918   3.998   5.762   5.551
12327TIP3   OH236919   4.403   6.209   6.038
12327TIP3    H136920   4.315   6.251   6.048
12327TIP3    H236921   4.463   6.272   6.084
12328TIP3   OH236922   4.134   6.603   5.120
12328TIP3    H136923   4.064   6.535   5.113
12328TIP3    H236924   4.119   6.636   5.212
12329TIP3   OH236925   5.042   6.840   5.756
12329TIP3    H136926   5.061   6.885   5.672
12329TIP3    H236927   4.959   6.791   5.735
12330TIP3   OH236928   4.597   5.913   4.989
12330TIP3    H136929   4.500   5.897   4.999
12330TIP3    H236930   4.607   6.007   5.015
12331TIP3   OH236931   4.528   6.915   6.135
12331TIP3    H136932   4.578   6.908   6.218
12331TIP3    H236933   4.506   7.009   6.129
12332TIP3   OH236934   4.667   6.161   5.091
12332TIP3    H136935   4.763   6.167   5.110
12332TIP3    H236936   4.650   6.243   5.041
12333TIP3   OH236937   3.829   6.621   5.800
12333TIP3    H136938   3.870   6.595   5.715
12333TIP3    H236939   3.881   6.568   5.863
12334TIP3   OH236940   4.281   6.749   4.941
12334TIP3    H136941   4.232   6.835   4.948
12334TIP3    H236942   4.233   6.695   5.006
12335TIP3   OH236943   3.712   6.548   6.418
12335TIP3    H136944   3.736   6.533   6.512
12335TIP3    H236945   3.647   6.477   6.403
12336TIP3   OH236946   4.443   6.659   6.436
12336TIP3    H136947   4.387   6.602   6.381
12336TIP3    H236948   4.532   6.627   6.410
12337TIP3   OH236949   4.706   7.169   6.031
12337TIP3    H136950   4.610   7.178   6.017
12337TIP3    H236951   4.721   7.229   6.107
12338TIP3   OH236952   5.105   6.253   4.929
12338TIP3    H136953   5.043   6.209   4.866
12338TIP3    H236954   5.104   6.342   4.889
12339TIP3   OH236955   5.328   7.113   6.008
12339TIP3    H136956   5.230   7.105   5.999
12339TIP3    H236957   5.355   7.082   5.918
12340TIP3   OH236958   4.817   6.690   5.695
12340TIP3    H136959   4.720   6.685   5.690
12340TIP3    H236960   4.842   6.617   5.634
12341TIP3   OH236961   3.935   6.928   5.425
12341TIP3    H136962   3.938   7.009   5.371
12341TIP3    H236963   3.841   6.918   5.441
12342TIP3   OH236964   3.496   6.230   5.131
12342TIP3    H136965   3.542   6.313   5.154
12342TIP3    H236966   3.420   6.233   5.194
12343TIP3   OH236967   4.063   6.689   5.365
12343TIP3    H136968   4.035   6.780   5.387
12343TIP3    H236969   4.036   6.640   5.445
12344TIP3   OH236970   4.204   7.270   5.895
12344TIP3    H136971   4.249   7.340   5.844
12344TIP3    H236972   4.280   7.231   5.942
12345TIP3   OH236973   3.849   7.170   5.276
12345TIP3    H136974   3.766   7.179   5.326
12345TIP3    H236975   3.884   7.262   5.282
12346TIP3   OH236976   4.577   6.892   5.860
12346TIP3    H136977   4.579   6.889   5.958
12346TIP3    H236978   4.669   6.876   5.836
12347TIP3   OH236979   4.563   6.801   4.731
12347TIP3    H136980   4.622   6.772   4.805
12347TIP3    H236981   4.478   6.775   4.769
12348TIP3   OH236982   4.842   7.438   5.904
12348TIP3    H136983   4.758   7.388   5.895
12348TIP3    H236984   4.827   7.508   5.837
12349TIP3   OH236985   4.890   7.271   4.552
12349TIP3    H136986   4.911   7.331   4.479
12349TIP3    H236987   4.812   7.318   4.589
12350TIP3   OH236988   3.924   6.050   6.422
12350TIP3    H136989   3.827   6.053   6.435
12350TIP3    H236990   3.952   5.993   6.496
12351TIP3   OH236991   4.719   6.705   4.931
12351TIP3    H136992   4.707   6.658   5.016
12351TIP3    H236993   4.814   6.726   4.937
12352TIP3   OH236994   3.639   7.132   6.055
12352TIP3    H136995   3.694   7.059   6.087
12352TIP3    H236996   3.670   7.205   6.111
12353TIP3   OH236997   3.924   6.778   4.740
12353TIP3    H136998   3.947   6.688   4.711
12353TIP3    H236999   3.914   6.766   4.836
12354TIP3   OH237000   3.875   6.785   5.021
12354TIP3    H137001   3.956   6.756   5.067
12354TIP3    H237002   3.883   6.883   5.026
12355TIP3   OH237003   3.610   6.472   5.211
12355TIP3    H137004   3.546   6.523   5.266
12355TIP3    H237005   3.657   6.543   5.164
12356TIP3   OH237006   4.763   6.111   6.103
12356TIP3    H137007   4.841   6.157   6.140
12356TIP3    H237008   4.754   6.033   6.161
12357TIP3   OH237009   4.644   5.863   5.272
12357TIP3    H137010   4.631   5.888   5.179
12357TIP3    H237011   4.684   5.945   5.310
12358TIP3   OH237012   4.132   6.974   4.952
12358TIP3    H137013   4.054   7.009   4.997
12358TIP3    H237014   4.166   7.054   4.910
12359TIP3   OH237015   4.325   6.046   5.373
12359TIP3    H137016   4.390   6.117   5.355
12359TIP3    H237017   4.334   6.036   5.470
12360TIP3   OH237018   4.600   6.360   6.183
12360TIP3    H137019   4.624   6.416   6.259
12360TIP3    H237020   4.657   6.283   6.196
12361TIP3   OH237021   4.474   5.766   5.472
12361TIP3    H137022   4.472   5.840   5.536
12361TIP3    H237023   4.535   5.802   5.405
12362TIP3   OH237024   3.876   7.057   5.027
12362TIP3    H137025   3.855   7.131   4.966
12362TIP3    H237026   3.868   7.101   5.114
12363TIP3   OH237027   3.987   5.771   5.264
12363TIP3    H137028   3.985   5.861   5.302
12363TIP3    H237029   4.083   5.753   5.272
12364TIP3   OH237030   5.237   6.261   6.167
12364TIP3    H137031   5.139   6.256   6.165
12364TIP3    H237032   5.260   6.241   6.076
12365TIP3   OH237033   4.891   6.456   5.545
12365TIP3    H137034   4.816   6.397   5.563
12365TIP3    H237035   4.964   6.413   5.594
12366TIP3   OH237036   3.619   6.714   4.993
12366TIP3    H137037   3.708   6.750   5.016
12366TIP3    H237038   3.651   6.637   4.940
12367TIP3   OH237039   3.547   5.961   5.153
12367TIP3    H137040   3.547   6.058   5.149
12367TIP3    H237041   3.466   5.938   5.107
12368TIP3   OH237042   4.864   7.437   5.517
12368TIP3    H137043   4.815   7.459   5.435
12368TIP3    H237044   4.956   7.446   5.483
12369TIP3   OH237045   3.935   5.682   6.024
12369TIP3    H137046   3.905   5.649   5.937
12369TIP3    H237047   3.925   5.603   6.081
12370TIP3   OH237048   3.467   6.896   5.404
12370TIP3    H137049   3.404   6.932   5.468
12370TIP3    H237050   3.439   6.939   5.320
12371TIP3   OH237051   3.633   7.445   6.479
12371TIP3    H137052   3.720   7.446   6.524
12371TIP3    H237053   3.616   7.350   6.475
12372TIP3   OH237054   4.111   7.406   6.521
12372TIP3    H137055   4.205   7.385   6.531
12372TIP3    H237056   4.086   7.346   6.448
12373TIP3   OH237057   4.091   6.982   4.647
12373TIP3    H137058   4.038   6.911   4.690
12373TIP3    H237059   4.168   6.931   4.617
12374TIP3   OH237060   4.742   7.320   6.263
12374TIP3    H137061   4.738   7.246   6.327
12374TIP3    H237062   4.826   7.364   6.288
12375TIP3   OH237063   4.524   7.023   4.570
12375TIP3    H137064   4.558   6.948   4.624
12375TIP3    H237065   4.575   7.018   4.487
12376TIP3   OH237066   3.761   6.850   6.679
12376TIP3    H137067   3.779   6.754   6.685
12376TIP3    H237068   3.675   6.851   6.632
12377TIP3   OH237069   3.738   6.502   4.879
12377TIP3    H137070   3.795   6.464   4.949
12377TIP3    H237071   3.803   6.505   4.805
12378TIP3   OH237072   4.366   6.933   6.453
12378TIP3    H137073   4.334   6.953   6.363
12378TIP3    H237074   4.402   6.843   6.444
12379TIP3   OH237075   4.244   6.696   4.676
12379TIP3    H137076   4.253   6.710   4.773
12379TIP3    H237077   4.251   6.598   4.672
12380TIP3   OH237078   4.863   6.945   6.058
12380TIP3    H137079   4.941   6.985   6.014
12380TIP3    H237080   4.798   7.018   6.046
12381TIP3   OH237081   3.881   6.584   6.659
12381TIP3    H137082   3.960   6.535   6.632
12381TIP3    H237083   3.908   6.615   6.748
12382TIP3   OH237084   3.936   6.404   5.089
12382TIP3    H137085   3.922   6.363   5.175
12382TIP3    H237086   3.980   6.332   5.039
12383TIP3   OH237087   4.211   6.461   6.314
12383TIP3    H137088   4.139   6.528   6.318
12383TIP3    H237089   4.267   6.498   6.242
12384TIP3   OH237090   4.049   6.201   4.933
12384TIP3    H137091   4.026   6.204   4.838
12384TIP3    H237092   4.147   6.202   4.928
12385TIP3   OH237093   4.733   6.868   6.454
12385TIP3    H137094   4.815   6.844   6.410
12385TIP3    H237095   4.733   6.806   6.529
12386TIP3   OH237096   4.868   6.524   4.601
12386TIP3    H137097   4.846   6.484   4.514
12386TIP3    H237098   4.844   6.618   4.582
12387TIP3   OH237099   4.336   6.257   6.448
12387TIP3    H137100   4.342   6.178   6.391
12387TIP3    H237101   4.295   6.323   6.389
12388TIP3   OH237102   4.343   6.041   6.257
12388TIP3    H137103   4.372   6.086   6.175
12388TIP3    H237104   4.249   6.020   6.236
12389TIP3   OH237105   4.368   6.575   6.128
12389TIP3    H137106   4.455   6.587   6.088
12389TIP3    H237107   4.315   6.644   6.082
12390TIP3   OH237108   4.947   6.544   6.505
12390TIP3    H137109   4.999   6.465   6.529
12390TIP3    H237110   5.016   6.606   6.480
12391TIP3   OH237111   4.992   6.797   6.243
12391TIP3    H137112   4.935   6.851   6.184
12391TIP3    H237113   5.080   6.818   6.204
12392TIP3   OH237114   4.215   6.367   6.679
12392TIP3    H137115   4.149   6.297   6.694
12392TIP3    H237116   4.252   6.341   6.592
12393TIP3   OH237117   4.474   5.805   6.324
12393TIP3    H137118   4.426   5.887   6.301
12393TIP3    H237119   4.404   5.737   6.311
12394TIP3   OH237120   4.602   6.309   6.539
12394TIP3    H137121   4.598   6.298   6.635
12394TIP3    H237122   4.511   6.284   6.514
12395TIP3   OH237123   4.835   6.254   6.388
12395TIP3    H137124   4.764   6.261   6.455
12395TIP3    H237125   4.912   6.228   6.443
12396TIP3   OH237126   5.058   6.194   6.537
12396TIP3    H137127   5.077   6.101   6.559
12396TIP3    H237128   5.057   6.237   6.626
12397TIP3   OH237129   4.055   6.145   6.734
12397TIP3    H137130   4.065   6.055   6.699
12397TIP3    H237131   4.094   6.135   6.823
12398TIP3   OH237132   4.565   5.812   6.583
12398TIP3    H137133   4.635   5.743   6.575
12398TIP3    H237134   4.527   5.809   6.492
12399TIP3   OH237135   4.631   6.027   6.743
12399TIP3    H137136   4.610   5.958   6.676
12399TIP3    H237137   4.554   6.088   6.734
12400TIP3   OH237138   3.852   7.253   4.833
12400TIP3    H137139   3.949   7.246   4.821
12400TIP3    H237140   3.832   7.311   4.757
12401TIP3   OH237141   3.343   6.660   5.023
12401TIP3    H137142   3.433   6.634   5.051
12401TIP3    H237143   3.313   6.573   4.987
12402TIP3   OH237144   3.254   7.251   5.470
12402TIP3    H137145   3.185   7.191   5.434
12402TIP3    H237146   3.296   7.193   5.537
12403TIP3   OH237147   3.389   7.098   5.655
12403TIP3    H137148   3.377   7.029   5.723
12403TIP3    H237149   3.441   7.162   5.706
12404TIP3   OH237150   5.120   7.504   5.453
12404TIP3    H137151   5.145   7.535   5.542
12404TIP3    H237152   5.189   7.543   5.397
12405TIP3   OH237153   5.143   7.524   5.738
12405TIP3    H137154   5.096   7.438   5.733
12405TIP3    H237155   5.218   7.497   5.795
12406TIP3   OH237156   5.185   7.205   6.309
12406TIP3    H137157   5.115   7.212   6.378
12406TIP3    H237158   5.230   7.291   6.317
12407TIP3   OH237159   5.003   6.717   4.930
12407TIP3    H137160   5.071   6.779   4.899
12407TIP3    H237161   5.045   6.679   5.011
12408TIP3   OH237162   5.133   6.587   5.134
12408TIP3    H137163   5.068   6.542   5.193
12408TIP3    H237164   5.202   6.616   5.197
12409TIP3   OH237165   5.185   6.975   5.560
12409TIP3    H137166   5.242   6.906   5.520
12409TIP3    H237167   5.187   7.046   5.493
12410TIP3   OH237168   5.008   7.276   5.756
12410TIP3    H137169   4.944   7.320   5.816
12410TIP3    H237170   4.954   7.259   5.678
12411TIP3   OH237171   5.071   6.491   4.782
12411TIP3    H137172   4.999   6.491   4.715
12411TIP3    H237173   5.040   6.564   4.838
12412TIP3   OH237174   4.940   6.163   4.733
12412TIP3    H137175   4.897   6.198   4.654
12412TIP3    H237176   4.917   6.068   4.725
12413TIP3   OH237177   4.948   6.440   5.278
12413TIP3    H137178   4.957   6.343   5.274
12413TIP3    H237179   4.932   6.455   5.374
12414TIP3   OH237180   3.572   6.515   6.026
12414TIP3    H137181   3.571   6.481   5.935
12414TIP3    H237182   3.669   6.516   6.045
12415TIP3   OH237183   5.236   6.864   6.136
12415TIP3    H137184   5.308   6.797   6.128
12415TIP3    H237185   5.265   6.932   6.073
12416TIP3   OH237186   5.419   6.666   6.150
12416TIP3    H137187   5.345   6.615   6.190
12416TIP3    H237188   5.493   6.604   6.166
12417TIP3   OH237189   4.886   5.896   4.716
12417TIP3    H137190   4.962   5.867   4.771
12417TIP3    H237191   4.814   5.837   4.744
12418TIP3   OH237192   4.941   6.154   5.173
12418TIP3    H137193   4.983   6.066   5.188
12418TIP3    H237194   5.000   6.188   5.103
12419TIP3   OH237195   5.101   6.328   5.670
12419TIP3    H137196   5.186   6.354   5.627
12419TIP3    H237197   5.117   6.364   5.759
12420TIP3   OH237198   5.173   6.472   5.902
12420TIP3    H137199   5.096   6.508   5.949
12420TIP3    H237200   5.207   6.551   5.856
12421TIP3   OH237201   3.789   6.197   6.702
12421TIP3    H137202   3.887   6.193   6.705
12421TIP3    H237203   3.766   6.111   6.742
12422TIP3   OH237204   5.625   6.060   6.458
12422TIP3    H137205   5.685   5.998   6.411
12422TIP3    H237206   5.594   6.117   6.384
12423TIP3   OH237207   5.052   5.906   5.213
12423TIP3    H137208   5.103   5.892   5.295
12423TIP3    H237209   4.993   5.828   5.214
12424TIP3   OH237210   3.751   5.891   6.033
12424TIP3    H137211   3.813   5.816   6.042
12424TIP3    H237212   3.814   5.965   6.025
12425TIP3   OH237213   3.553   6.164   6.104
12425TIP3    H137214   3.603   6.159   6.020
12425TIP3    H237215   3.586   6.246   6.142
12426TIP3   OH237216   5.495   6.201   6.267
12426TIP3    H137217   5.412   6.246   6.295
12426TIP3    H237218   5.458   6.134   6.207
12427TIP3   OH237219   5.129   5.839   4.844
12427TIP3    H137220   5.174   5.768   4.795
12427TIP3    H237221   5.197   5.909   4.846
12428TIP3   OH237222   3.538   5.666   5.606
12428TIP3    H137223   3.445   5.662   5.634
12428TIP3    H237224   3.534   5.725   5.528
12429TIP3   OH237225   4.679   7.397   5.087
12429TIP3    H137226   4.750   7.340   5.058
12429TIP3    H237227   4.713   7.426   5.174
12430TIP3   OH237228   3.757   5.744   6.419
12430TIP3    H137229   3.707   5.742   6.502
12430TIP3    H237230   3.691   5.785   6.359
12431TIP3   OH237231   3.795   7.182   6.496
12431TIP3    H137232   3.704   7.149   6.481
12431TIP3    H237233   3.812   7.155   6.587
12432TIP3   OH237234   3.976   7.211   6.044
12432TIP3    H137235   3.933   7.289   6.004
12432TIP3    H237236   4.064   7.221   6.002
12433TIP3   OH237237   4.417   7.455   6.188
12433TIP3    H137238   4.463   7.453   6.274
12433TIP3    H237239   4.482   7.505   6.134
12434TIP3   OH237240   4.590   7.611   6.045
12434TIP3    H137241   4.650   7.559   5.989
12434TIP3    H237242   4.654   7.660   6.102
12435TIP3   OH237243   5.392   5.968   6.144
12435TIP3    H137244   5.303   5.964   6.104
12435TIP3    H237245   5.423   5.875   6.130
12436TIP3   OH237246   3.649   7.465   6.067
12436TIP3    H137247   3.560   7.500   6.048
12436TIP3    H237248   3.666   7.504   6.154
12437TIP3   OH237249   3.888   7.445   5.928
12437TIP3    H137250   3.800   7.456   5.970
12437TIP3    H237251   3.870   7.476   5.837
12438TIP3   OH237252   4.312   7.469   5.723
12438TIP3    H137253   4.243   7.496   5.660
12438TIP3    H237254   4.332   7.554   5.768
12439TIP3   OH237255   4.587   7.434   5.795
12439TIP3    H137256   4.497   7.422   5.760
12439TIP3    H237257   4.629   7.488   5.727
12440TIP3   OH237258   4.798   7.620   5.701
12440TIP3    H137259   4.778   7.698   5.646
12440TIP3    H237260   4.823   7.554   5.632
12441TIP3   OH237261   3.563   7.257   5.813
12441TIP3    H137262   3.590   7.231   5.903
12441TIP3    H237263   3.636   7.214   5.763
12442TIP3   OH237264   3.760   7.130   5.671
12442TIP3    H137265   3.775   7.046   5.720
12442TIP3    H237266   3.852   7.166   5.670
12443TIP3   OH237267   4.025   7.223   5.678
12443TIP3    H137268   4.057   7.131   5.666
12443TIP3    H237269   4.074   7.246   5.759
12444TIP3   OH237270   4.595   5.879   5.755
12444TIP3    H137271   4.557   5.808   5.809
12444TIP3    H237272   4.675   5.836   5.716
12445TIP3   OH237273   5.120   5.754   5.660
12445TIP3    H137274   5.161   5.811   5.591
12445TIP3    H237275   5.028   5.786   5.660
12446TIP3   OH237276   5.219   5.864   5.428
12446TIP3    H137277   5.293   5.811   5.390
12446TIP3    H237278   5.259   5.954   5.419
12447TIP3   OH237279   3.848   5.589   5.776
12447TIP3    H137280   3.755   5.556   5.779
12447TIP3    H237281   3.896   5.504   5.772
12448TIP3   OH237282   3.636   5.460   5.426
12448TIP3    H137283   3.665   5.517   5.353
12448TIP3    H237284   3.608   5.526   5.493
12449TIP3   OH237285   4.293   5.620   5.659
12449TIP3    H137286   4.347   5.669   5.595
12449TIP3    H237287   4.320   5.661   5.743
12450TIP3   OH237288   4.830   5.769   5.643
12450TIP3    H137289   4.840   5.733   5.555
12450TIP3    H237290   4.820   5.688   5.698
12451TIP3   OH237291   4.868   5.692   5.204
12451TIP3    H137292   4.783   5.737   5.219
12451TIP3    H237293   4.853   5.606   5.249
12452TIP3   OH237294   3.360   7.011   5.177
12452TIP3    H137295   3.263   7.000   5.166
12452TIP3    H237296   3.364   7.108   5.176
12453TIP3   OH237297   3.754   5.619   5.187
12453TIP3    H137298   3.801   5.555   5.130
12453TIP3    H237299   3.828   5.672   5.223
12454TIP3   OH237300   4.264   5.794   5.288
12454TIP3    H137301   4.326   5.750   5.347
12454TIP3    H237302   4.284   5.888   5.312
12455TIP3   OH237303   4.121   7.218   4.786
12455TIP3    H137304   4.209   7.241   4.751
12455TIP3    H237305   4.101   7.140   4.729
12456TIP3   OH237306   4.849   7.287   4.854
12456TIP3    H137307   4.761   7.247   4.867
12456TIP3    H237308   4.823   7.362   4.796
12457TIP3   OH237309   4.055   5.867   6.665
12457TIP3    H137310   4.020   5.799   6.724
12457TIP3    H237311   4.149   5.868   6.693
12458TIP3   OH237312   4.303   5.866   6.786
12458TIP3    H137313   4.390   5.849   6.746
12458TIP3    H237314   4.296   5.794   6.851
12459TIP3   OH237315   5.131   5.926   6.574
12459TIP3    H137316   5.151   5.899   6.666
12459TIP3    H237317   5.221   5.926   6.533
12460TIP3   OH237318   5.065   7.482   6.069
12460TIP3    H137319   4.988   7.449   6.018
12460TIP3    H237320   5.045   7.577   6.073
12461TIP3   OH237321   6.339   6.856   4.828
12461TIP3    H137322   6.308   6.947   4.809
12461TIP3    H237323   6.259   6.806   4.806
12462TIP3   OH237324   6.340   6.850   5.214
12462TIP3    H137325   6.372   6.830   5.304
12462TIP3    H237326   6.292   6.768   5.192
12463TIP3   OH237327   5.629   6.753   5.584
12463TIP3    H137328   5.659   6.678   5.639
12463TIP3    H237329   5.711   6.804   5.579
12464TIP3   OH237330   6.581   7.156   4.897
12464TIP3    H137331   6.560   7.088   4.962
12464TIP3    H237332   6.606   7.231   4.953
12465TIP3   OH237333   5.597   7.156   5.295
12465TIP3    H137334   5.593   7.058   5.296
12465TIP3    H237335   5.681   7.169   5.342
12466TIP3   OH237336   5.311   6.358   5.085
12466TIP3    H137337   5.268   6.442   5.107
12466TIP3    H237338   5.237   6.309   5.047
12467TIP3   OH237339   5.373   6.642   5.262
12467TIP3    H137340   5.422   6.566   5.302
12467TIP3    H237341   5.444   6.683   5.210
12468TIP3   OH237342   6.231   7.620   4.914
12468TIP3    H137343   6.277   7.546   4.869
12468TIP3    H237344   6.215   7.582   5.002
12469TIP3   OH237345   6.135   7.082   5.258
12469TIP3    H137346   6.174   7.004   5.216
12469TIP3    H237347   6.218   7.127   5.285
12470TIP3   OH237348   7.151   6.400   5.262
12470TIP3    H137349   7.178   6.483   5.306
12470TIP3    H237350   7.161   6.425   5.168
12471TIP3   OH237351   6.554   6.582   5.292
12471TIP3    H137352   6.589   6.493   5.313
12471TIP3    H237353   6.515   6.565   5.204
12472TIP3   OH237354   5.909   6.229   5.244
12472TIP3    H137355   5.868   6.314   5.224
12472TIP3    H237356   5.831   6.171   5.246
12473TIP3   OH237357   6.581   6.329   4.881
12473TIP3    H137358   6.651   6.314   4.947
12473TIP3    H237359   6.633   6.367   4.808
12474TIP3   OH237360   5.530   6.443   5.364
12474TIP3    H137361   5.573   6.382   5.428
12474TIP3    H237362   5.547   6.392   5.283
12475TIP3   OH237363   5.959   6.643   5.157
12475TIP3    H137364   6.051   6.614   5.175
12475TIP3    H237365   5.916   6.559   5.128
12476TIP3   OH237366   7.221   6.611   5.425
12476TIP3    H137367   7.135   6.655   5.411
12476TIP3    H237368   7.234   6.630   5.520
12477TIP3   OH237369   5.869   6.225   5.685
12477TIP3    H137370   5.790   6.219   5.626
12477TIP3    H237371   5.823   6.255   5.766
12478TIP3   OH237372   6.234   7.080   4.695
12478TIP3    H137373   6.181   7.055   4.618
12478TIP3    H237374   6.186   7.162   4.723
12479TIP3   OH237375   5.986   6.997   5.492
12479TIP3    H137376   5.919   7.058   5.530
12479TIP3    H237377   6.029   7.056   5.427
12480TIP3   OH237378   6.788   6.333   5.058
12480TIP3    H137379   6.758   6.296   5.142
12480TIP3    H237380   6.836   6.413   5.087
12481TIP3   OH237381   5.782   7.177   5.551
12481TIP3    H137382   5.791   7.274   5.545
12481TIP3    H237383   5.725   7.171   5.630
12482TIP3   OH237384   5.182   6.913   4.791
12482TIP3    H137385   5.238   6.911   4.711
12482TIP3    H237386   5.232   6.974   4.850
12483TIP3   OH237387   6.651   7.402   5.063
12483TIP3    H137388   6.562   7.391   5.106
12483TIP3    H237389   6.638   7.487   5.018
12484TIP3   OH237390   6.941   6.298   5.427
12484TIP3    H137391   6.852   6.325   5.398
12484TIP3    H237392   6.997   6.331   5.354
12485TIP3   OH237393   6.236   5.945   5.417
12485TIP3    H137394   6.215   5.850   5.427
12485TIP3    H237395   6.156   5.984   5.458
12486TIP3   OH237396   6.353   7.445   4.738
12486TIP3    H137397   6.403   7.363   4.718
12486TIP3    H237398   6.412   7.510   4.695
12487TIP3   OH237399   6.496   7.228   4.644
12487TIP3    H137400   6.436   7.155   4.622
12487TIP3    H237401   6.535   7.195   4.729
12488TIP3   OH237402   6.859   7.314   5.399
12488TIP3    H137403   6.844   7.233   5.345
12488TIP3    H237404   6.839   7.386   5.336
12489TIP3   OH237405   6.164   6.703   4.664
12489TIP3    H137406   6.083   6.755   4.646
12489TIP3    H237407   6.209   6.705   4.578
12490TIP3   OH237408   6.123   6.493   4.376
12490TIP3    H137409   6.189   6.542   4.429
12490TIP3    H237410   6.181   6.429   4.330
12491TIP3   OH237411   7.074   6.958   5.251
12491TIP3    H137412   6.986   7.003   5.260
12491TIP3    H237413   7.093   6.976   5.157
12492TIP3   OH237414   6.516   6.788   4.633
12492TIP3    H137415   6.459   6.813   4.710
12492TIP3    H237416   6.599   6.764   4.680
12493TIP3   OH237417   6.745   6.812   5.534
12493TIP3    H137418   6.749   6.891   5.593
12493TIP3    H237419   6.655   6.824   5.497
12494TIP3   OH237420   5.749   6.787   5.049
12494TIP3    H137421   5.709   6.725   4.984
12494TIP3    H237422   5.824   6.734   5.083
12495TIP3   OH237423   5.890   7.214   5.187
12495TIP3    H137424   5.856   7.150   5.123
12495TIP3    H237425   5.974   7.172   5.215
12496TIP3   OH237426   5.873   6.760   5.402
12496TIP3    H137427   5.913   6.736   5.317
12496TIP3    H237428   5.921   6.842   5.426
12497TIP3   OH237429   6.412   7.393   5.185
12497TIP3    H137430   6.395   7.471   5.241
12497TIP3    H237431   6.392   7.319   5.247
12498TIP3   OH237432   6.356   6.644   4.462
12498TIP3    H137433   6.413   6.706   4.513
12498TIP3    H237434   6.381   6.668   4.369
12499TIP3   OH237435   5.776   6.867   5.833
12499TIP3    H137436   5.781   6.956   5.874
12499TIP3    H237437   5.680   6.848   5.845
12500TIP3   OH237438   6.102   7.321   4.731
12500TIP3    H137439   6.177   7.378   4.753
12500TIP3    H237440   6.034   7.383   4.703
12501TIP3   OH237441   5.785   7.530   5.821
12501TIP3    H137442   5.803   7.473   5.745
12501TIP3    H237443   5.720   7.480   5.873
12502TIP3   OH237444   6.869   5.885   4.512
12502TIP3    H137445   6.787   5.905   4.561
12502TIP3    H237446   6.882   5.969   4.463
12503TIP3   OH237447   5.617   6.627   4.851
12503TIP3    H137448   5.547   6.657   4.791
12503TIP3    H237449   5.585   6.540   4.879
12504TIP3   OH237450   6.668   7.252   4.057
12504TIP3    H137451   6.676   7.349   4.044
12504TIP3    H237452   6.762   7.224   4.047
12505TIP3   OH237453   5.394   7.014   5.764
12505TIP3    H137454   5.329   6.987   5.696
12505TIP3    H237455   5.433   6.928   5.791
12506TIP3   OH237456   5.249   7.208   5.389
12506TIP3    H137457   5.345   7.198   5.389
12506TIP3    H237458   5.239   7.283   5.450
12507TIP3   OH237459   6.203   7.460   5.563
12507TIP3    H137460   6.205   7.547   5.607
12507TIP3    H237461   6.167   7.404   5.636
12508TIP3   OH237462   5.984   7.578   4.534
12508TIP3    H137463   5.928   7.555   4.458
12508TIP3    H237464   5.942   7.659   4.568
12509TIP3   OH237465   5.413   7.384   4.919
12509TIP3    H137466   5.467   7.383   5.001
12509TIP3    H237467   5.333   7.428   4.950
12510TIP3   OH237468   6.181   7.477   4.179
12510TIP3    H137469   6.238   7.406   4.142
12510TIP3    H237470   6.214   7.481   4.271
12511TIP3   OH237471   6.233   7.518   4.448
12511TIP3    H137472   6.144   7.531   4.488
12511TIP3    H237473   6.280   7.476   4.523
12512TIP3   OH237474   7.017   6.795   5.721
12512TIP3    H137475   6.930   6.812   5.684
12512TIP3    H237476   7.025   6.698   5.712
12513TIP3   OH237477   5.596   7.202   5.755
12513TIP3    H137478   5.651   7.179   5.833
12513TIP3    H237479   5.525   7.135   5.761
12514TIP3   OH237480   5.986   6.020   5.535
12514TIP3    H137481   5.900   6.003   5.493
12514TIP3    H237482   5.965   6.104   5.580
12515TIP3   OH237483   6.529   6.131   5.732
12515TIP3    H137484   6.595   6.107   5.800
12515TIP3    H237485   6.444   6.115   5.778
12516TIP3   OH237486   6.777   6.568   5.659
12516TIP3    H137487   6.719   6.562   5.738
12516TIP3    H237488   6.746   6.649   5.614
12517TIP3   OH237489   6.430   6.687   4.205
12517TIP3    H137490   6.396   6.665   4.116
12517TIP3    H237491   6.508   6.740   4.183
12518TIP3   OH237492   6.145   6.066   4.510
12518TIP3    H137493   6.110   6.063   4.601
12518TIP3    H237494   6.103   5.984   4.475
12519TIP3   OH237495   5.949   6.544   5.560
12519TIP3    H137496   5.876   6.535   5.624
12519TIP3    H237497   5.913   6.614   5.502
12520TIP3   OH237498   5.810   6.430   5.066
12520TIP3    H137499   5.721   6.397   5.092
12520TIP3    H237500   5.823   6.378   4.983
12521TIP3   OH237501   6.305   6.508   4.799
12521TIP3    H137502   6.251   6.578   4.757
12521TIP3    H237503   6.357   6.474   4.724
12522TIP3   OH237504   6.489   6.780   5.876
12522TIP3    H137505   6.454   6.715   5.941
12522TIP3    H237506   6.579   6.794   5.910
12523TIP3   OH237507   6.463   6.534   5.035
12523TIP3    H137508   6.398   6.563   4.969
12523TIP3    H237509   6.493   6.452   4.991
12524TIP3   OH237510   5.743   6.561   5.758
12524TIP3    H137511   5.784   6.622   5.820
12524TIP3    H237512   5.737   6.479   5.811
12525TIP3   OH237513   5.799   6.043   4.472
12525TIP3    H137514   5.791   6.039   4.570
12525TIP3    H237515   5.720   6.095   4.449
12526TIP3   OH237516   5.363   6.081   5.353
12526TIP3    H137517   5.437   6.120   5.405
12526TIP3    H237518   5.408   6.053   5.273
12527TIP3   OH237519   5.307   6.064   4.862
12527TIP3    H137520   5.357   6.102   4.787
12527TIP3    H237521   5.250   6.140   4.885
12528TIP3   OH237522   6.471   6.781   5.454
12528TIP3    H137523   6.505   6.708   5.398
12528TIP3    H237524   6.440   6.729   5.532
12529TIP3   OH237525   6.152   6.236   5.123
12529TIP3    H137526   6.062   6.235   5.163
12529TIP3    H237527   6.207   6.246   5.203
12530TIP3   OH237528   5.578   6.304   5.131
12530TIP3    H137529   5.482   6.303   5.109
12530TIP3    H237530   5.605   6.210   5.117
12531TIP3   OH237531   5.843   6.291   4.828
12531TIP3    H137532   5.936   6.311   4.805
12531TIP3    H237533   5.794   6.314   4.746
12532TIP3   OH237534   6.632   6.314   5.325
12532TIP3    H137535   6.607   6.328   5.419
12532TIP3    H237536   6.559   6.255   5.297
12533TIP3   OH237537   5.687   6.331   4.606
12533TIP3    H137538   5.614   6.285   4.561
12533TIP3    H237539   5.737   6.366   4.530
12534TIP3   OH237540   5.752   7.116   5.969
12534TIP3    H137541   5.836   7.151   6.006
12534TIP3    H237542   5.696   7.113   6.049
12535TIP3   OH237543   6.222   6.573   5.234
12535TIP3    H137544   6.293   6.524   5.190
12535TIP3    H237545   6.220   6.533   5.323
12536TIP3   OH237546   5.721   6.063   5.098
12536TIP3    H137547   5.686   5.985   5.147
12536TIP3    H237548   5.794   6.023   5.050
12537TIP3   OH237549   6.205   6.474   5.509
12537TIP3    H137550   6.112   6.502   5.527
12537TIP3    H237551   6.257   6.535   5.565
12538TIP3   OH237552   5.937   6.856   4.612
12538TIP3    H137553   5.864   6.792   4.601
12538TIP3    H237554   5.918   6.891   4.703
12539TIP3   OH237555   6.835   7.090   5.239
12539TIP3    H137556   6.854   7.142   5.158
12539TIP3    H237557   6.749   7.047   5.217
12540TIP3   OH237558   6.391   6.174   4.468
12540TIP3    H137559   6.296   6.151   4.484
12540TIP3    H237560   6.399   6.265   4.502
12541TIP3   OH237561   6.349   7.186   5.610
12541TIP3    H137562   6.357   7.135   5.692
12541TIP3    H237563   6.271   7.239   5.636
12542TIP3   OH237564   6.463   6.416   4.580
12542TIP3    H137565   6.558   6.425   4.598
12542TIP3    H237566   6.442   6.499   4.531
12543TIP3   OH237567   5.622   6.874   5.285
12543TIP3    H137568   5.668   6.846   5.203
12543TIP3    H237569   5.669   6.823   5.352
12544TIP3   OH237570   6.080   7.007   4.434
12544TIP3    H137571   6.032   7.093   4.439
12544TIP3    H237572   6.025   6.952   4.495
12545TIP3   OH237573   5.509   6.806   5.905
12545TIP3    H137574   5.533   6.792   5.999
12545TIP3    H237575   5.444   6.734   5.890
12546TIP3   OH237576   6.234   6.885   5.942
12546TIP3    H137577   6.163   6.864   5.879
12546TIP3    H237578   6.313   6.879   5.887
12547TIP3   OH237579   6.492   7.452   5.491
12547TIP3    H137580   6.397   7.434   5.506
12547TIP3    H237581   6.517   7.487   5.579
12548TIP3   OH237582   6.907   6.509   4.414
12548TIP3    H137583   6.845   6.465   4.351
12548TIP3    H237584   6.902   6.600   4.375
12549TIP3   OH237585   7.112   7.338   5.486
12549TIP3    H137586   7.016   7.342   5.465
12549TIP3    H237587   7.147   7.312   5.398
12550TIP3   OH237588   6.608   7.327   4.325
12550TIP3    H137589   6.578   7.261   4.388
12550TIP3    H237590   6.618   7.278   4.242
12551TIP3   OH237591   6.603   6.957   5.156
12551TIP3    H137592   6.509   6.933   5.173
12551TIP3    H237593   6.634   6.875   5.113
12552TIP3   OH237594   5.726   7.180   4.900
12552TIP3    H137595   5.726   7.265   4.852
12552TIP3    H237596   5.638   7.180   4.939
12553TIP3   OH237597   5.293   6.485   4.617
12553TIP3    H137598   5.338   6.570   4.635
12553TIP3    H237599   5.216   6.491   4.679
12554TIP3   OH237600   5.868   6.949   4.854
12554TIP3    H137601   5.829   7.037   4.872
12554TIP3    H237602   5.834   6.898   4.930
12555TIP3   OH237603   6.001   7.527   5.380
12555TIP3    H137604   6.050   7.597   5.334
12555TIP3    H237605   6.071   7.490   5.438
12556TIP3   OH237606   5.650   7.419   4.762
12556TIP3    H137607   5.563   7.426   4.806
12556TIP3    H237608   5.683   7.511   4.767
12557TIP3   OH237609   6.387   7.162   5.343
12557TIP3    H137610   6.374   7.169   5.440
12557TIP3    H237611   6.466   7.106   5.339
12558TIP3   OH237612   6.362   7.056   4.223
12558TIP3    H137613   6.415   7.030   4.302
12558TIP3    H237614   6.274   7.029   4.252
12559TIP3   OH237615   6.625   7.701   5.400
12559TIP3    H137616   6.555   7.633   5.396
12559TIP3    H237617   6.606   7.755   5.321
12560TIP3   OH237618   6.701   7.528   4.044
12560TIP3    H137619   6.739   7.600   3.992
12560TIP3    H237620   6.621   7.573   4.078
12561TIP3   OH237621   5.724   6.309   5.912
12561TIP3    H137622   5.627   6.307   5.917
12561TIP3    H237623   5.750   6.248   5.983
12562TIP3   OH237624   6.524   6.982   4.433
12562TIP3    H137625   6.512   6.923   4.510
12562TIP3    H237626   6.621   6.983   4.427
12563TIP3   OH237627   5.441   7.388   5.542
12563TIP3    H137628   5.496   7.315   5.573
12563TIP3    H237629   5.473   7.459   5.599
12564TIP3   OH237630   5.729   7.035   4.225
12564TIP3    H137631   5.739   6.942   4.198
12564TIP3    H237632   5.708   7.026   4.320
12565TIP3   OH237633   5.672   7.042   4.496
12565TIP3    H137634   5.741   7.014   4.558
12565TIP3    H237635   5.676   7.140   4.504
12566TIP3   OH237636   5.409   6.725   4.698
12566TIP3    H137637   5.370   6.771   4.773
12566TIP3    H237638   5.415   6.797   4.631
12567TIP3   OH237639   6.572   6.361   5.586
12567TIP3    H137640   6.637   6.406   5.642
12567TIP3    H237641   6.547   6.284   5.641
12568TIP3   OH237642   6.445   6.117   4.757
12568TIP3    H137643   6.425   6.144   4.666
12568TIP3    H237644   6.481   6.200   4.796
12569TIP3   OH237645   5.939   7.238   4.443
12569TIP3    H137646   5.852   7.260   4.481
12569TIP3    H237647   5.952   7.314   4.384
12570TIP3   OH237648   6.129   6.301   4.857
12570TIP3    H137649   6.191   6.376   4.844
12570TIP3    H237650   6.132   6.292   4.955
12571TIP3   OH237651   6.400   6.622   5.664
12571TIP3    H137652   6.415   6.683   5.740
12571TIP3    H237653   6.448   6.543   5.692
12572TIP3   OH237654   6.270   6.027   4.964
12572TIP3    H137655   6.251   6.107   5.018
12572TIP3    H237656   6.332   6.064   4.897
12573TIP3   OH237657   5.685   7.314   4.512
12573TIP3    H137658   5.653   7.384   4.451
12573TIP3    H237659   5.669   7.355   4.600
12574TIP3   OH237660   5.783   6.026   4.746
12574TIP3    H137661   5.776   6.112   4.793
12574TIP3    H237662   5.879   6.009   4.758
12575TIP3   OH237663   7.040   6.517   5.640
12575TIP3    H137664   6.943   6.522   5.658
12575TIP3    H237665   7.037   6.469   5.556
12576TIP3   OH237666   6.689   6.712   5.034
12576TIP3    H137667   6.610   6.657   5.049
12576TIP3    H237668   6.757   6.664   5.086
12577TIP3   OH237669   5.404   6.941   4.528
12577TIP3    H137670   5.473   7.009   4.522
12577TIP3    H237671   5.432   6.886   4.451
12578TIP3   OH237672   5.346   6.217   4.635
12578TIP3    H137673   5.347   6.314   4.634
12578TIP3    H237674   5.260   6.197   4.599
12579TIP3   OH237675   6.658   7.671   4.982
12579TIP3    H137676   6.614   7.717   4.907
12579TIP3    H237677   6.752   7.689   4.959
12580TIP3   OH237678   5.246   7.144   4.916
12580TIP3    H137679   5.242   7.196   4.998
12580TIP3    H237680   5.312   7.198   4.868
12581TIP3   OH237681   5.431   7.699   5.963
12581TIP3    H137682   5.519   7.693   6.005
12581TIP3    H237683   5.407   7.604   5.959
12582TIP3   OH237684   5.919   7.663   6.014
12582TIP3    H137685   6.007   7.624   6.004
12582TIP3    H237686   5.872   7.619   5.938
12583TIP3   OH237687   5.890   7.238   4.134
12583TIP3    H137688   5.833   7.168   4.174
12583TIP3    H237689   5.965   7.183   4.104
12584TIP3   OH237690   6.551   7.548   5.743
12584TIP3    H137691   6.523   7.480   5.807
12584TIP3    H237692   6.636   7.574   5.781
12585TIP3   OH237693   6.326   7.280   4.050
12585TIP3    H137694   6.367   7.214   4.109
12585TIP3    H237695   6.382   7.276   3.970
12586TIP3   OH237696   5.557   7.106   6.167
12586TIP3    H137697   5.575   7.011   6.173
12586TIP3    H237698   5.471   7.107   6.120
12587TIP3   OH237699   5.534   6.758   4.361
12587TIP3    H137700   5.589   6.726   4.434
12587TIP3    H237701   5.601   6.762   4.289
12588TIP3   OH237702   6.051   6.956   4.165
12588TIP3    H137703   6.050   6.968   4.262
12588TIP3    H237704   6.048   6.858   4.159
12589TIP3   OH237705   6.650   7.195   5.542
12589TIP3    H137706   6.712   7.256   5.499
12589TIP3    H237707   6.567   7.246   5.543
12590TIP3   OH237708   5.675   6.843   6.147
12590TIP3    H137709   5.748   6.784   6.125
12590TIP3    H237710   5.702   6.872   6.237
12591TIP3   OH237711   5.743   6.661   4.580
12591TIP3    H137712   5.717   6.623   4.665
12591TIP3    H237713   5.777   6.583   4.532
12592TIP3   OH237714   6.008   6.721   5.812
12592TIP3    H137715   5.931   6.782   5.811
12592TIP3    H237716   6.058   6.751   5.733
12593TIP3   OH237717   5.844   6.455   4.419
12593TIP3    H137718   5.819   6.461   4.324
12593TIP3    H237719   5.942   6.459   4.412
12594TIP3   OH237720   6.537   7.130   5.948
12594TIP3    H137721   6.633   7.123   5.931
12594TIP3    H237722   6.524   7.060   6.014
12595TIP3   OH237723   6.667   6.782   4.081
12595TIP3    H137724   6.641   6.738   3.998
12595TIP3    H237725   6.634   6.873   4.062
12596TIP3   OH237726   6.143   6.513   5.927
12596TIP3    H137727   6.133   6.435   5.869
12596TIP3    H237728   6.094   6.582   5.876
12597TIP3   OH237729   6.134   6.296   5.733
12597TIP3    H137730   6.162   6.342   5.652
12597TIP3    H237731   6.039   6.280   5.714
12598TIP3   OH237732   6.166   6.836   5.620
12598TIP3    H137733   6.244   6.849   5.566
12598TIP3    H237734   6.102   6.900   5.581
12599TIP3   OH237735   6.746   6.795   6.007
12599TIP3    H137736   6.801   6.719   5.985
12599TIP3    H237737   6.803   6.870   5.983
12600TIP3   OH237738   6.789   7.024   5.693
12600TIP3    H137739   6.726   7.085   5.648
12600TIP3    H237740   6.875   7.056   5.654
12601TIP3   OH237741   6.023   6.619   6.168
12601TIP3    H137742   5.948   6.557   6.182
12601TIP3    H237743   6.048   6.598   6.076
12602TIP3   OH237744   6.268   6.063   5.810
12602TIP3    H137745   6.219   6.144   5.784
12602TIP3    H237746   6.199   5.995   5.798
12603TIP3   OH237747   6.398   6.566   6.023
12603TIP3    H137748   6.378   6.554   6.118
12603TIP3    H237749   6.309   6.547   5.986
12604TIP3   OH237750   6.633   6.507   5.879
12604TIP3    H137751   6.556   6.518   5.938
12604TIP3    H237752   6.704   6.483   5.941
12605TIP3   OH237753   6.862   6.464   6.043
12605TIP3    H137754   6.875   6.368   6.055
12605TIP3    H237755   6.860   6.497   6.135
12606TIP3   OH237756   5.850   6.403   6.217
12606TIP3    H137757   5.856   6.312   6.184
12606TIP3    H237758   5.883   6.394   6.308
12607TIP3   OH237759   6.364   6.070   6.068
12607TIP3    H137760   6.430   5.999   6.059
12607TIP3    H237761   6.322   6.068   5.979
12608TIP3   OH237762   6.432   6.287   6.227
12608TIP3    H137763   6.407   6.218   6.162
12608TIP3    H237764   6.355   6.348   6.222
12609TIP3   OH237765   5.653   7.517   4.324
12609TIP3    H137766   5.748   7.510   4.302
12609TIP3    H237767   5.622   7.568   4.248
12610TIP3   OH237768   5.022   7.490   4.972
12610TIP3    H137769   4.974   7.419   4.927
12610TIP3    H237770   5.081   7.440   5.032
12611TIP3   OH237771   5.196   7.346   5.134
12611TIP3    H137772   5.175   7.284   5.207
12611TIP3    H237773   5.242   7.414   5.187
12612TIP3   OH237774   6.916   7.752   4.939
12612TIP3    H137775   6.936   7.783   5.029
12612TIP3    H237776   6.965   7.815   4.884
12613TIP3   OH237777   6.957   7.763   5.219
12613TIP3    H137778   6.907   7.678   5.219
12613TIP3    H237779   6.955   7.787   5.312
12614TIP3   OH237780   6.804   6.968   4.416
12614TIP3    H137781   6.870   7.035   4.388
12614TIP3    H237782   6.847   6.932   4.497
12615TIP3   OH237783   6.931   6.836   4.622
12615TIP3    H137784   6.862   6.794   4.678
12615TIP3    H237785   6.990   6.877   4.688
12616TIP3   OH237786   6.984   7.233   5.051
12616TIP3    H137787   7.032   7.166   4.999
12616TIP3    H237788   6.976   7.307   4.988
12617TIP3   OH237789   6.807   7.539   5.248
12617TIP3    H137790   6.737   7.575   5.306
12617TIP3    H237791   6.756   7.493   5.178
12618TIP3   OH237792   6.867   6.746   4.265
12618TIP3    H137793   6.795   6.749   4.198
12618TIP3    H237794   6.839   6.821   4.322
12619TIP3   OH237795   6.743   6.416   4.218
12619TIP3    H137796   6.689   6.457   4.149
12619TIP3    H237797   6.718   6.321   4.208
12620TIP3   OH237798   6.744   6.696   4.766
12620TIP3    H137799   6.748   6.599   4.761
12620TIP3    H237800   6.728   6.709   4.863
12621TIP3   OH237801   5.367   6.774   5.513
12621TIP3    H137802   5.368   6.735   5.423
12621TIP3    H237803   5.463   6.774   5.533
12622TIP3   OH237804   7.029   7.103   5.604
12622TIP3    H137805   7.112   7.066   5.637
12622TIP3    H237806   7.059   7.186   5.563
12623TIP3   OH237807   7.241   6.931   5.653
12623TIP3    H137808   7.157   6.886   5.678
12623TIP3    H237809   7.302   6.854   5.658
12624TIP3   OH237810   6.682   6.149   4.199
12624TIP3    H137811   6.752   6.120   4.262
12624TIP3    H237812   6.605   6.096   4.225
12625TIP3   OH237813   6.740   6.412   4.661
12625TIP3    H137814   6.779   6.323   4.676
12625TIP3    H237815   6.798   6.444   4.591
12626TIP3   OH237816   6.901   6.579   5.158
12626TIP3    H137817   6.986   6.607   5.118
12626TIP3    H237818   6.911   6.619   5.246
12627TIP3   OH237819   6.971   6.729   5.385
12627TIP3    H137820   6.891   6.755   5.435
12627TIP3    H237821   6.999   6.815   5.347
12628TIP3   OH237822   5.581   6.450   6.179
12628TIP3    H137823   5.679   6.451   6.185
12628TIP3    H237824   5.561   6.367   6.226
12629TIP3   OH237825   7.445   6.311   5.941
12629TIP3    H137826   7.484   6.243   5.883
12629TIP3    H237827   7.398   6.367   5.875
12630TIP3   OH237828   6.850   6.161   4.697
12630TIP3    H137829   6.895   6.146   4.783
12630TIP3    H237830   6.787   6.086   4.696
12631TIP3   OH237831   5.341   6.426   5.588
12631TIP3    H137832   5.403   6.396   5.519
12631TIP3    H237833   5.388   6.503   5.622
12632TIP3   OH237834   7.291   6.447   5.763
12632TIP3    H137835   7.216   6.497   5.801
12632TIP3    H237836   7.245   6.391   5.698
12633TIP3   OH237837   6.927   6.095   4.334
12633TIP3    H137838   6.966   6.024   4.278
12633TIP3    H237839   6.994   6.166   4.328
12634TIP3   OH237840   5.329   5.911   5.084
12634TIP3    H137841   5.239   5.920   5.121
12634TIP3    H237842   5.329   5.978   5.013
12635TIP3   OH237843   6.490   7.631   4.595
12635TIP3    H137844   6.547   7.619   4.516
12635TIP3    H237845   6.541   7.694   4.649
12636TIP3   OH237846   5.557   5.997   5.910
12636TIP3    H137847   5.502   6.006   5.989
12636TIP3    H237848   5.501   6.039   5.842
12637TIP3   OH237849   5.588   7.438   5.999
12637TIP3    H137850   5.502   7.402   5.971
12637TIP3    H237851   5.598   7.400   6.087
12638TIP3   OH237852   5.776   7.455   5.524
12638TIP3    H137853   5.731   7.538   5.497
12638TIP3    H237854   5.862   7.470   5.482
12639TIP3   OH237855   6.219   7.716   5.673
12639TIP3    H137856   6.258   7.712   5.763
12639TIP3    H237857   6.289   7.764   5.624
12640TIP3   OH237858   6.411   7.857   5.534
12640TIP3    H137859   6.470   7.798   5.484
12640TIP3    H237860   6.466   7.935   5.547
12641TIP3   OH237861   7.189   6.222   5.625
12641TIP3    H137862   7.098   6.217   5.591
12641TIP3    H237863   7.218   6.128   5.615
12642TIP3   OH237864   5.447   7.723   5.550
12642TIP3    H137865   5.359   7.761   5.531
12642TIP3    H237866   5.459   7.748   5.642
12643TIP3   OH237867   5.686   7.704   5.413
12643TIP3    H137868   5.600   7.714   5.459
12643TIP3    H237869   5.664   7.733   5.323
12644TIP3   OH237870   6.115   7.732   5.206
12644TIP3    H137871   6.037   7.747   5.150
12644TIP3    H237872   6.122   7.818   5.252
12645TIP3   OH237873   6.379   7.669   5.260
12645TIP3    H137874   6.284   7.685   5.240
12645TIP3    H237875   6.421   7.744   5.216
12646TIP3   OH237876   6.581   7.854   5.175
12646TIP3    H137877   6.568   7.938   5.126
12646TIP3    H237878   6.609   7.793   5.103
12647TIP3   OH237879   5.359   7.508   5.294
12647TIP3    H137880   5.386   7.487   5.387
12647TIP3    H237881   5.436   7.468   5.248
12648TIP3   OH237882   5.558   7.385   5.151
12648TIP3    H137883   5.572   7.302   5.203
12648TIP3    H237884   5.648   7.423   5.154
12649TIP3   OH237885   5.822   7.480   5.163
12649TIP3    H137886   5.852   7.386   5.156
12649TIP3    H237887   5.869   7.503   5.246
12650TIP3   OH237888   6.407   6.139   5.260
12650TIP3    H137889   6.353   6.073   5.307
12650TIP3    H237890   6.468   6.083   5.208
12651TIP3   OH237891   6.921   6.013   5.150
12651TIP3    H137892   6.954   6.070   5.076
12651TIP3    H237893   6.825   6.033   5.147
12652TIP3   OH237894   7.015   6.117   4.914
12652TIP3    H137895   7.090   6.068   4.875
12652TIP3    H237896   7.045   6.210   4.901
12653TIP3   OH237897   5.643   5.840   5.227
12653TIP3    H137898   5.554   5.814   5.256
12653TIP3    H237899   5.695   5.761   5.250
12654TIP3   OH237900   5.424   5.715   4.908
12654TIP3    H137901   5.459   5.776   4.841
12654TIP3    H237902   5.400   5.778   4.980
12655TIP3   OH237903   6.093   5.873   5.142
12655TIP3    H137904   6.151   5.928   5.087
12655TIP3    H237905   6.090   5.922   5.225
12656TIP3   OH237906   6.642   6.023   5.124
12656TIP3    H137907   6.626   5.986   5.037
12656TIP3    H237908   6.626   5.946   5.182
12657TIP3   OH237909   6.665   5.950   4.691
12657TIP3    H137910   6.580   5.995   4.708
12657TIP3    H237911   6.649   5.864   4.736
12658TIP3   OH237912   5.123   7.276   4.688
12658TIP3    H137913   5.047   7.294   4.627
12658TIP3    H237914   5.157   7.366   4.697
12659TIP3   OH237915   5.549   5.877   4.672
12659TIP3    H137916   5.599   5.814   4.617
12659TIP3    H237917   5.621   5.931   4.710
12660TIP3   OH237918   6.062   6.050   4.773
12660TIP3    H137919   6.119   6.004   4.837
12660TIP3    H237920   6.081   6.143   4.798
12661TIP3   OH237921   5.920   7.473   4.270
12661TIP3    H137922   6.009   7.493   4.235
12661TIP3    H237923   5.897   7.397   4.211
12662TIP3   OH237924   6.641   7.594   4.367
12662TIP3    H137925   6.634   7.497   4.357
12662TIP3    H237926   6.597   7.625   4.286
12663TIP3   OH237927   5.852   6.122   6.152
12663TIP3    H137928   5.816   6.054   6.211
12663TIP3    H237929   5.945   6.125   6.182
12664TIP3   OH237930   6.101   6.122   6.273
12664TIP3    H137931   6.187   6.098   6.233
12664TIP3    H237932   6.089   6.051   6.338
12665TIP3   OH237933   5.223   7.311   4.327
12665TIP3    H137934   5.228   7.346   4.417
12665TIP3    H237935   5.311   7.268   4.315
12666TIP3   OH237936   6.926   6.191   6.060
12666TIP3    H137937   6.943   6.158   6.151
12666TIP3    H237938   7.015   6.184   6.020
12667TIP3   OH237939   8.123   7.105   4.327
12667TIP3    H137940   8.089   7.194   4.305
12667TIP3    H237941   8.052   7.051   4.286
12668TIP3   OH237942   8.091   7.113   4.715
12668TIP3    H137943   8.153   7.063   4.768
12668TIP3    H237944   8.069   7.051   4.644
12669TIP3   OH237945   7.428   6.987   5.049
12669TIP3    H137946   7.453   6.921   5.117
12669TIP3    H237947   7.512   7.033   5.038
12670TIP3   OH237948   7.404   7.418   4.788
12670TIP3    H137949   7.394   7.320   4.790
12670TIP3    H237950   7.500   7.426   4.780
12671TIP3   OH237951   7.111   6.620   4.573
12671TIP3    H137952   7.060   6.701   4.592
12671TIP3    H237953   7.040   6.565   4.535
12672TIP3   OH237954   7.169   6.907   4.749
12672TIP3    H137955   7.217   6.829   4.784
12672TIP3    H237956   7.222   6.931   4.672
12673TIP3   OH237957   7.914   7.321   4.734
12673TIP3    H137958   7.979   7.248   4.716
12673TIP3    H237959   7.971   7.390   4.771
12674TIP3   OH237960   8.362   6.830   4.753
12674TIP3    H137961   8.384   6.737   4.773
12674TIP3    H237962   8.314   6.818   4.669
12675TIP3   OH237963   7.683   6.497   4.745
12675TIP3    H137964   7.659   6.570   4.683
12675TIP3    H237965   7.634   6.423   4.703
12676TIP3   OH237966   8.371   6.571   4.366
12676TIP3    H137967   8.444   6.558   4.431
12676TIP3    H237968   8.420   6.618   4.295
12677TIP3   OH237969   7.313   6.699   4.853
12677TIP3    H137970   7.395   6.679   4.902
12677TIP3    H237971   7.326   6.642   4.774
12678TIP3   OH237972   7.754   6.894   4.642
12678TIP3    H137973   7.847   6.868   4.657
12678TIP3    H237974   7.714   6.810   4.610
12679TIP3   OH237975   7.674   6.479   5.181
12679TIP3    H137976   7.613   6.517   5.115
12679TIP3    H237977   7.622   6.495   5.263
12680TIP3   OH237978   7.999   7.315   4.194
12680TIP3    H137979   7.959   7.306   4.106
12680TIP3    H237980   7.970   7.405   4.219
12681TIP3   OH237981   7.774   7.244   4.955
12681TIP3    H137982   7.705   7.312   4.952
12681TIP3    H237983   7.832   7.274   4.881
12682TIP3   OH237984   8.578   6.568   4.552
12682TIP3    H137985   8.536   6.545   4.637
12682TIP3    H237986   8.633   6.643   4.575
12683TIP3   OH237987   7.548   6.596   4.964
12683TIP3    H137988   7.611   6.667   4.990
12683TIP3    H237989   7.598   6.555   4.889
12684TIP3   OH237990   7.006   7.141   4.309
12684TIP3    H137991   6.963   7.167   4.226
12684TIP3    H237992   7.035   7.227   4.345
12685TIP3   OH237993   8.028   6.199   4.896
12685TIP3    H137994   8.014   6.104   4.916
12685TIP3    H237995   7.951   6.238   4.943
12686TIP3   OH237996   8.237   7.478   4.151
12686TIP3    H137997   8.198   7.405   4.102
12686TIP3    H237998   8.308   7.436   4.200
12687TIP3   OH237999   7.962   6.962   4.152
12687TIP3    H138000   7.882   7.016   4.134
12687TIP3    H238001   8.003   6.959   4.064
12688TIP3   OH238002   7.923   6.741   3.868
12688TIP3    H138003   7.988   6.799   3.911
12688TIP3    H238004   7.983   6.681   3.819
12689TIP3   OH238005   8.301   7.027   4.133
12689TIP3    H138006   8.251   7.051   4.215
12689TIP3    H238007   8.389   7.006   4.172
12690TIP3   OH238008   7.539   7.040   4.540
12690TIP3    H138009   7.499   6.984   4.471
12690TIP3    H238010   7.618   6.988   4.567
12691TIP3   OH238011   7.674   7.451   4.688
12691TIP3    H138012   7.642   7.423   4.600
12691TIP3    H238013   7.759   7.401   4.694
12692TIP3   OH238014   7.685   6.996   4.892
12692TIP3    H138015   7.709   6.975   4.799
12692TIP3    H238016   7.726   7.084   4.905
12693TIP3   OH238017   8.145   6.898   3.947
12693TIP3    H138018   8.205   6.953   4.002
12693TIP3    H238019   8.176   6.921   3.856
12694TIP3   OH238020   7.514   7.154   5.280
12694TIP3    H138021   7.459   7.188   5.208
12694TIP3    H238022   7.447   7.103   5.330
12695TIP3   OH238023   7.898   7.583   4.223
12695TIP3    H138024   7.947   7.660   4.253
12695TIP3    H238025   7.828   7.623   4.169
12696TIP3   OH238026   8.670   6.147   3.981
12696TIP3    H138027   8.596   6.163   4.042
12696TIP3    H238028   8.697   6.236   3.957
12697TIP3   OH238029   7.408   6.883   4.342
12697TIP3    H138030   7.343   6.931   4.287
12697TIP3    H238031   7.362   6.800   4.357
12698TIP3   OH238032   7.191   7.243   5.237
12698TIP3    H138033   7.115   7.238   5.175
12698TIP3    H238034   7.198   7.151   5.268
12699TIP3   OH238035   7.041   7.463   4.884
12699TIP3    H138036   7.137   7.469   4.877
12699TIP3    H238037   7.017   7.547   4.926
12700TIP3   OH238038   7.739   7.833   4.040
12700TIP3    H138039   7.721   7.801   3.951
12700TIP3    H238040   7.806   7.903   4.026
12701TIP3   OH238041   7.211   7.677   4.408
12701TIP3    H138042   7.257   7.668   4.495
12701TIP3    H238043   7.155   7.598   4.409
12702TIP3   OH238044   7.356   7.456   5.213
12702TIP3    H138045   7.441   7.426   5.246
12702TIP3    H238046   7.300   7.376   5.223
12703TIP3   OH238047   7.794   6.277   5.024
12703TIP3    H138048   7.704   6.245   4.998
12703TIP3    H238049   7.767   6.356   5.074
12704TIP3   OH238050   8.307   6.389   5.204
12704TIP3    H138051   8.376   6.390   5.272
12704TIP3    H238052   8.226   6.367   5.254
12705TIP3   OH238053   8.232   6.951   3.698
12705TIP3    H138054   8.185   6.924   3.617
12705TIP3    H238055   8.299   7.010   3.663
12706TIP3   OH238056   7.944   6.312   4.000
12706TIP3    H138057   7.897   6.314   4.085
12706TIP3    H238058   7.896   6.239   3.955
12707TIP3   OH238059   7.731   6.783   5.048
12707TIP3    H138060   7.678   6.805   5.128
12707TIP3    H238061   7.712   6.862   4.991
12708TIP3   OH238062   7.610   6.675   4.554
12708TIP3    H138063   7.516   6.652   4.573
12708TIP3    H238064   7.620   6.634   4.465
12709TIP3   OH238065   8.097   6.761   4.280
12709TIP3    H138066   8.045   6.833   4.237
12709TIP3    H238067   8.152   6.731   4.205
12710TIP3   OH238068   8.241   6.785   4.514
12710TIP3    H138069   8.181   6.811   4.441
12710TIP3    H238070   8.281   6.707   4.471
12711TIP3   OH238071   7.543   6.813   5.248
12711TIP3    H138072   7.580   6.870   5.317
12711TIP3    H238073   7.525   6.731   5.298
12712TIP3   OH238074   7.598   6.301   3.963
12712TIP3    H138075   7.580   6.298   4.059
12712TIP3    H238076   7.520   6.351   3.932
12713TIP3   OH238077   7.137   6.342   4.829
12713TIP3    H138078   7.212   6.372   4.884
12713TIP3    H238079   7.179   6.307   4.749
12714TIP3   OH238080   7.108   6.323   4.351
12714TIP3    H138081   7.151   6.362   4.272
12714TIP3    H238082   7.045   6.395   4.373
12715TIP3   OH238083   7.933   6.483   4.618
12715TIP3    H138084   7.849   6.490   4.668
12715TIP3    H238085   7.998   6.497   4.688
12716TIP3   OH238086   7.371   6.557   4.623
12716TIP3    H138087   7.276   6.569   4.598
12716TIP3    H238088   7.387   6.463   4.604
12717TIP3   OH238089   7.643   6.548   4.311
12717TIP3    H138090   7.732   6.575   4.283
12717TIP3    H238091   7.587   6.571   4.233
12718TIP3   OH238092   8.392   6.563   4.797
12718TIP3    H138093   8.369   6.577   4.892
12718TIP3    H238094   8.322   6.501   4.770
12719TIP3   OH238095   7.486   6.581   4.095
12719TIP3    H138096   7.413   6.539   4.046
12719TIP3    H238097   7.536   6.620   4.020
12720TIP3   OH238098   8.011   6.811   4.710
12720TIP3    H138099   8.094   6.786   4.666
12720TIP3    H238100   8.022   6.777   4.801
12721TIP3   OH238101   7.545   6.311   4.598
12721TIP3    H138102   7.504   6.236   4.648
12721TIP3    H238103   7.569   6.268   4.515
12722TIP3   OH238104   7.996   6.724   4.995
12722TIP3    H138105   7.903   6.750   5.012
12722TIP3    H238106   8.043   6.758   5.072
12723TIP3   OH238107   7.734   7.114   4.101
12723TIP3    H138108   7.661   7.050   4.089
12723TIP3    H238109   7.713   7.149   4.191
12724TIP3   OH238110   8.194   6.417   3.976
12724TIP3    H138111   8.096   6.406   3.970
12724TIP3    H238112   8.204   6.514   3.982
12725TIP3   OH238113   8.258   6.674   4.067
12725TIP3    H138114   8.354   6.684   4.080
12725TIP3    H238115   8.236   6.750   4.009
12726TIP3   OH238116   7.436   7.144   4.778
12726TIP3    H138117   7.467   7.112   4.692
12726TIP3    H238118   7.452   7.068   4.836
12727TIP3   OH238119   7.879   7.264   3.927
12727TIP3    H138120   7.830   7.350   3.929
12727TIP3    H238121   7.823   7.209   3.985
12728TIP3   OH238122   7.295   7.028   5.400
12728TIP3    H138123   7.282   7.004   5.494
12728TIP3    H238124   7.220   6.981   5.359
12729TIP3   OH238125   7.528   7.444   4.408
12729TIP3    H138126   7.526   7.524   4.353
12729TIP3    H238127   7.434   7.423   4.413
12730TIP3   OH238128   7.089   6.745   4.102
12730TIP3    H138129   7.134   6.829   4.123
12730TIP3    H238130   7.013   6.749   4.164
12731TIP3   OH238131   7.659   7.206   4.344
12731TIP3    H138132   7.628   7.296   4.363
12731TIP3    H238133   7.622   7.156   4.420
12732TIP3   OH238134   7.448   7.674   4.254
12732TIP3    H138135   7.361   7.688   4.298
12732TIP3    H238136   7.483   7.766   4.255
12733TIP3   OH238137   8.097   7.302   3.706
12733TIP3    H138138   8.136   7.284   3.792
12733TIP3    H238139   8.007   7.269   3.718
12734TIP3   OH238140   7.512   6.559   5.394
12734TIP3    H138141   7.417   6.571   5.411
12734TIP3    H238142   7.538   6.501   5.467
12735TIP3   OH238143   8.322   7.225   3.943
12735TIP3    H138144   8.287   7.169   4.016
12735TIP3    H238145   8.406   7.178   3.928
12736TIP3   OH238146   7.257   7.646   5.029
12736TIP3    H138147   7.285   7.565   5.078
12736TIP3    H238148   7.231   7.703   5.102
12737TIP3   OH238149   7.523   7.291   3.712
12737TIP3    H138150   7.533   7.199   3.681
12737TIP3    H238151   7.501   7.278   3.806
12738TIP3   OH238152   7.468   7.296   3.985
12738TIP3    H138153   7.542   7.274   4.043
12738TIP3    H238154   7.468   7.394   3.989
12739TIP3   OH238155   7.204   6.990   4.188
12739TIP3    H138156   7.137   7.035   4.244
12739TIP3    H238157   7.216   7.058   4.119
12740TIP3   OH238158   8.343   6.621   5.059
12740TIP3    H138159   8.349   6.678   5.138
12740TIP3    H238160   8.318   6.538   5.103
12741TIP3   OH238161   8.245   6.348   4.232
12741TIP3    H138162   8.227   6.383   4.141
12741TIP3    H238163   8.286   6.428   4.273
12742TIP3   OH238164   7.736   7.492   3.943
12742TIP3    H138165   7.646   7.514   3.975
12742TIP3    H238166   7.746   7.564   3.879
12743TIP3   OH238167   7.936   6.549   4.345
12743TIP3    H138168   7.991   6.629   4.328
12743TIP3    H238169   7.932   6.548   4.443
12744TIP3   OH238170   8.079   6.299   4.456
12744TIP3    H138171   8.069   6.350   4.539
12744TIP3    H238172   8.115   6.370   4.400
12745TIP3   OH238173   7.478   7.567   4.001
12745TIP3    H138174   7.447   7.638   3.939
12745TIP3    H238175   7.466   7.612   4.087
12746TIP3   OH238176   7.581   6.282   4.241
12746TIP3    H138177   7.576   6.374   4.273
12746TIP3    H238178   7.677   6.268   4.245
12747TIP3   OH238179   8.509   6.931   4.517
12747TIP3    H138180   8.413   6.917   4.527
12747TIP3    H238181   8.533   6.953   4.608
12748TIP3   OH238182   7.196   7.196   3.993
12748TIP3    H138183   7.261   7.268   4.000
12748TIP3    H238184   7.240   7.141   3.924
12749TIP3   OH238185   7.140   6.475   4.126
12749TIP3    H138186   7.140   6.573   4.122
12749TIP3    H238187   7.057   6.454   4.083
12750TIP3   OH238188   7.533   6.194   4.995
12750TIP3    H138189   7.497   6.160   4.911
12750TIP3    H238190   7.520   6.117   5.055
12751TIP3   OH238191   7.064   7.410   4.377
12751TIP3    H138192   7.001   7.443   4.442
12751TIP3    H238193   7.032   7.454   4.295
12752TIP3   OH238194   7.685   7.497   3.627
12752TIP3    H138195   7.632   7.420   3.658
12752TIP3    H238196   7.756   7.452   3.577
12753TIP3   OH238197   7.331   7.011   3.844
12753TIP3    H138198   7.389   6.983   3.916
12753TIP3    H238199   7.396   7.016   3.770
12754TIP3   OH238200   7.831   7.201   3.659
12754TIP3    H138201   7.821   7.213   3.755
12754TIP3    H238202   7.840   7.104   3.653
12755TIP3   OH238203   7.542   6.917   4.068
12755TIP3    H138204   7.510   6.875   4.149
12755TIP3    H238205   7.576   6.841   4.016
12756TIP3   OH238206   7.797   6.973   5.289
12756TIP3    H138207   7.757   7.049   5.334
12756TIP3    H238208   7.829   7.013   5.207
12757TIP3   OH238209   7.642   6.709   3.908
12757TIP3    H138210   7.614   6.716   3.814
12757TIP3    H238211   7.739   6.714   3.898
12758TIP3   OH238212   7.903   6.763   5.448
12758TIP3    H138213   7.928   6.696   5.383
12758TIP3    H238214   7.873   6.837   5.391
12759TIP3   OH238215   7.936   6.544   5.221
12759TIP3    H138216   7.958   6.584   5.135
12759TIP3    H238217   7.839   6.528   5.211
12760TIP3   OH238218   8.065   6.320   5.315
12760TIP3    H138219   8.016   6.400   5.284
12760TIP3    H238220   7.998   6.250   5.298
12761TIP3   OH238221   7.643   6.656   5.710
12761TIP3    H138222   7.647   6.574   5.658
12761TIP3    H238223   7.692   6.630   5.789
12762TIP3   OH238224   8.164   6.320   5.574
12762TIP3    H138225   8.233   6.258   5.546
12762TIP3    H238226   8.116   6.332   5.490
12763TIP3   OH238227   7.441   7.775   3.822
12763TIP3    H138228   7.536   7.759   3.807
12763TIP3    H238229   7.419   7.819   3.737
12764TIP3   OH238230   6.928   7.155   4.030
12764TIP3    H138231   7.022   7.177   4.015
12764TIP3    H238232   6.922   7.067   3.987
12765TIP3   OH238233   6.844   7.768   4.443
12765TIP3    H138234   6.778   7.706   4.405
12765TIP3    H238235   6.889   7.709   4.507
12766TIP3   OH238236   6.979   7.614   4.627
12766TIP3    H138237   6.963   7.545   4.693
12766TIP3    H238238   7.028   7.679   4.682
12767TIP3   OH238239   8.512   6.688   3.719
12767TIP3    H138240   8.488   6.713   3.629
12767TIP3    H238241   8.494   6.592   3.718
12768TIP3   OH238242   8.537   6.945   4.246
12768TIP3    H138243   8.545   6.850   4.230
12768TIP3    H238244   8.539   6.949   4.344
12769TIP3   OH238245   7.161   7.021   4.998
12769TIP3    H138246   7.155   6.990   4.905
12769TIP3    H238247   7.258   7.017   5.011
12770TIP3   OH238248   8.466   6.415   3.727
12770TIP3    H138249   8.535   6.349   3.738
12770TIP3    H238250   8.390   6.361   3.699
12771TIP3   OH238251   8.532   6.672   4.155
12771TIP3    H138252   8.572   6.583   4.171
12771TIP3    H238253   8.581   6.697   4.074
12772TIP3   OH238254   7.375   6.696   5.664
12772TIP3    H138255   7.471   6.698   5.679
12772TIP3    H238256   7.350   6.618   5.718
12773TIP3   OH238257   8.633   6.427   4.203
12773TIP3    H138258   8.696   6.400   4.273
12773TIP3    H238259   8.583   6.343   4.191
12774TIP3   OH238260   7.346   6.402   4.997
12774TIP3    H138261   7.409   6.328   5.013
12774TIP3    H238262   7.407   6.478   4.997
12775TIP3   OH238263   7.147   6.675   5.079
12775TIP3    H138264   7.195   6.675   4.994
12775TIP3    H238265   7.172   6.760   5.116
12776TIP3   OH238266   7.131   6.179   4.579
12776TIP3    H138267   7.039   6.174   4.609
12776TIP3    H238268   7.124   6.239   4.502
12777TIP3   OH238269   7.351   6.254   5.390
12777TIP3    H138270   7.303   6.254   5.475
12777TIP3    H238271   7.284   6.299   5.333
12778TIP3   OH238272   7.160   7.769   4.786
12778TIP3    H138273   7.189   7.741   4.875
12778TIP3    H238274   7.228   7.726   4.731
12779TIP3   OH238275   7.342   7.637   4.641
12779TIP3    H138276   7.360   7.555   4.693
12779TIP3    H238277   7.434   7.672   4.629
12780TIP3   OH238278   7.602   7.716   4.641
12780TIP3    H138279   7.644   7.628   4.643
12780TIP3    H238280   7.634   7.757   4.721
12781TIP3   OH238281   8.187   6.379   4.727
12781TIP3    H138282   8.146   6.312   4.785
12781TIP3    H238283   8.266   6.333   4.693
12782TIP3   OH238284   8.721   6.267   4.633
12782TIP3    H138285   8.753   6.321   4.558
12782TIP3    H238286   8.632   6.303   4.647
12783TIP3   OH238287   8.826   6.372   4.396
12783TIP3    H138288   8.894   6.311   4.363
12783TIP3    H238289   8.870   6.458   4.389
12784TIP3   OH238290   7.440   6.101   4.747
12784TIP3    H138291   7.348   6.069   4.751
12784TIP3    H238292   7.488   6.015   4.745
12785TIP3   OH238293   7.234   5.974   4.401
12785TIP3    H138294   7.255   6.032   4.326
12785TIP3    H238295   7.200   6.038   4.467
12786TIP3   OH238296   7.891   6.131   4.629
12786TIP3    H138297   7.943   6.201   4.588
12786TIP3    H238298   7.888   6.161   4.721
12787TIP3   OH238299   8.426   6.276   4.612
12787TIP3    H138300   8.467   6.234   4.535
12787TIP3    H238301   8.415   6.198   4.672
12788TIP3   OH238302   8.476   6.206   4.164
12788TIP3    H138303   8.390   6.250   4.173
12788TIP3    H238304   8.457   6.113   4.185
12789TIP3   OH238305   6.944   7.546   4.178
12789TIP3    H138306   6.858   7.513   4.144
12789TIP3    H238307   6.935   7.640   4.154
12790TIP3   OH238308   7.344   6.131   4.161
12790TIP3    H138309   7.391   6.068   4.103
12790TIP3    H238310   7.417   6.184   4.197
12791TIP3   OH238311   7.864   6.301   4.266
12791TIP3    H138312   7.881   6.269   4.355
12791TIP3    H238313   7.882   6.397   4.280
12792TIP3   OH238314   7.708   7.720   3.781
12792TIP3    H138315   7.775   7.778   3.737
12792TIP3    H238316   7.697   7.650   3.713
12793TIP3   OH238317   7.646   6.381   5.633
12793TIP3    H138318   7.604   6.312   5.688
12793TIP3    H238319   7.737   6.379   5.670
12794TIP3   OH238320   7.892   6.360   5.748
12794TIP3    H138321   7.979   6.359   5.706
12794TIP3    H238322   7.896   6.281   5.805
12795TIP3   OH238323   7.019   7.563   3.816
12795TIP3    H138324   7.024   7.593   3.907
12795TIP3    H238325   7.108   7.523   3.801
12796TIP3   OH238326   1.389   7.438   6.423
12796TIP3    H138327   1.426   7.519   6.463
12796TIP3    H238328   1.426   7.443   6.333
12797TIP3   OH238329   0.823   7.348   6.049
12797TIP3    H138330   0.883   7.360   6.125
12797TIP3    H238331   0.870   7.400   5.981
12798TIP3   OH238332   1.475   7.635   6.599
12798TIP3    H138333   1.398   7.693   6.588
12798TIP3    H238334   1.457   7.595   6.686
12799TIP3   OH238335   1.020   7.393   6.238
12799TIP3    H138336   1.043   7.307   6.275
12799TIP3    H238337   1.096   7.450   6.258
12800TIP3   OH238338   1.195   7.354   6.604
12800TIP3    H138339   1.111   7.380   6.564
12800TIP3    H238340   1.259   7.374   6.533
12801TIP3   OH238341   1.123   6.931   5.685
12801TIP3    H138342   1.043   6.952   5.736
12801TIP3    H238343   1.136   7.014   5.634
12802TIP3   OH238344   1.157   7.554   5.586
12802TIP3    H138345   1.091   7.513   5.526
12802TIP3    H238346   1.152   7.645   5.550
12803TIP3   OH238347   1.271   7.542   6.793
12803TIP3    H138348   1.194   7.529   6.850
12803TIP3    H238349   1.261   7.464   6.734
12804TIP3   OH238350   0.919   7.741   6.218
12804TIP3    H138351   0.875   7.656   6.217
12804TIP3    H238352   1.006   7.716   6.257
12805TIP3   OH238353   0.927   7.828   5.254
12805TIP3    H138354   0.879   7.780   5.183
12805TIP3    H238355   0.912   7.920   5.230
12806TIP3   OH238356   1.054   8.007   5.593
12806TIP3    H138357   1.128   8.066   5.569
12806TIP3    H238358   1.088   7.966   5.674
12807TIP3   OH238359   1.179   7.881   5.796
12807TIP3    H138360   1.118   7.834   5.858
12807TIP3    H238361   1.248   7.916   5.856
12808TIP3   OH238362   1.118   7.788   5.443
12808TIP3    H138363   1.046   7.789   5.375
12808TIP3    H238364   1.088   7.863   5.499
12809TIP3   OH238365   0.983   7.468   5.395
12809TIP3    H138366   0.935   7.504   5.320
12809TIP3    H238367   0.966   7.372   5.383
12810TIP3   OH238368   1.014   7.734   5.953
12810TIP3    H138369   0.998   7.641   5.929
12810TIP3    H238370   0.979   7.740   6.044
12811TIP3   OH238371   0.943   7.200   5.382
12811TIP3    H138372   1.021   7.174   5.436
12811TIP3    H238373   0.874   7.138   5.415
12812TIP3   OH238374   0.996   7.462   5.858
12812TIP3    H138375   1.035   7.373   5.866
12812TIP3    H238376   1.031   7.489   5.772
12813TIP3   OH238377   1.148   7.646   6.336
12813TIP3    H138378   1.235   7.671   6.298
12813TIP3    H238379   1.162   7.661   6.430
12814TIP3   OH238380   1.715   7.372   7.107
12814TIP3    H138381   1.688   7.300   7.045
12814TIP3    H238382   1.663   7.445   7.073
12815TIP3   OH238383   1.104   7.204   5.872
12815TIP3    H138384   1.148   7.192   5.958
12815TIP3    H238385   1.039   7.131   5.874
12816TIP3   OH238386   1.585   7.453   6.836
12816TIP3    H138387   1.532   7.488   6.910
12816TIP3    H238388   1.585   7.358   6.858
12817TIP3   OH238389   1.181   7.140   5.510
12817TIP3    H138390   1.221   7.069   5.455
12817TIP3    H238391   1.249   7.210   5.506
12818TIP3   OH238392   1.186   7.050   6.327
12818TIP3    H138393   1.222   7.103   6.252
12818TIP3    H238394   1.091   7.076   6.322
12819TIP3   OH238395   1.262   7.164   6.094
12819TIP3    H138396   1.334   7.110   6.054
12819TIP3    H238397   1.298   7.254   6.076
12820TIP3   OH238398   0.926   7.103   6.293
12820TIP3    H138399   0.858   7.103   6.225
12820TIP3    H238400   0.902   7.022   6.345
12821TIP3   OH238401   0.921   6.987   5.865
12821TIP3    H138402   0.833   7.013   5.835
12821TIP3    H238403   0.901   6.905   5.914
12822TIP3   OH238404   2.383   8.143   5.505
12822TIP3    H138405   2.345   8.228   5.474
12822TIP3    H238406   2.313   8.083   5.471
12823TIP3   OH238407   2.383   8.158   5.882
12823TIP3    H138408   2.416   8.126   5.968
12823TIP3    H238409   2.343   8.078   5.845
12824TIP3   OH238410   1.707   8.075   6.257
12824TIP3    H138411   1.710   7.993   6.311
12824TIP3    H238412   1.785   8.063   6.199
12825TIP3   OH238413   2.597   8.451   5.569
12825TIP3    H138414   2.593   8.373   5.627
12825TIP3    H238415   2.651   8.511   5.621
12826TIP3   OH238416   1.727   8.383   6.054
12826TIP3    H138417   1.687   8.307   6.008
12826TIP3    H238418   1.802   8.405   5.994
12827TIP3   OH238419   1.359   7.660   5.750
12827TIP3    H138420   1.313   7.744   5.768
12827TIP3    H238421   1.285   7.609   5.712
12828TIP3   OH238422   1.414   7.947   5.918
12828TIP3    H138423   1.461   7.871   5.959
12828TIP3    H238424   1.486   7.992   5.872
12829TIP3   OH238425   2.198   8.376   5.917
12829TIP3    H138426   2.243   8.294   5.888
12829TIP3    H238427   2.277   8.428   5.942
12830TIP3   OH238428   3.190   7.701   5.923
12830TIP3    H138429   3.222   7.783   5.966
12830TIP3    H238430   3.219   7.716   5.831
12831TIP3   OH238431   2.591   7.885   5.956
12831TIP3    H138432   2.633   7.799   5.979
12831TIP3    H238433   2.559   7.865   5.866
12832TIP3   OH238434   1.930   7.542   5.921
12832TIP3    H138435   1.908   7.614   5.858
12832TIP3    H238436   1.882   7.468   5.879
12833TIP3   OH238437   2.624   7.634   5.543
12833TIP3    H138438   2.695   7.618   5.610
12833TIP3    H238439   2.678   7.668   5.469
12834TIP3   OH238440   1.563   7.745   6.031
12834TIP3    H138441   1.644   7.719   6.079
12834TIP3    H238442   1.573   7.689   5.951
12835TIP3   OH238443   1.999   7.941   5.833
12835TIP3    H138444   2.094   7.917   5.842
12835TIP3    H238445   1.961   7.857   5.798
12836TIP3   OH238446   3.266   7.908   6.093
12836TIP3    H138447   3.180   7.953   6.077
12836TIP3    H238448   3.283   7.934   6.185
12837TIP3   OH238449   1.927   7.524   6.358
12837TIP3    H138450   1.863   7.559   6.293
12837TIP3    H238451   1.876   7.536   6.441
12838TIP3   OH238452   2.264   8.343   5.363
12838TIP3    H138453   2.217   8.334   5.279
12838TIP3    H238454   2.278   8.439   5.370
12839TIP3   OH238455   2.033   8.307   6.152
12839TIP3    H138456   1.982   8.378   6.198
12839TIP3    H238457   2.067   8.358   6.076
12840TIP3   OH238458   2.831   7.637   5.719
12840TIP3    H138459   2.819   7.590   5.802
12840TIP3    H238460   2.885   7.714   5.746
12841TIP3   OH238461   1.796   7.639   6.141
12841TIP3    H138462   1.860   7.709   6.166
12841TIP3    H238463   1.845   7.598   6.066
12842TIP3   OH238464   1.263   8.155   5.496
12842TIP3    H138465   1.219   8.162   5.408
12842TIP3    H238466   1.271   8.250   5.515
12843TIP3   OH238467   2.985   7.601   6.089
12843TIP3    H138468   2.898   7.630   6.058
12843TIP3    H238469   3.045   7.633   6.019
12844TIP3   OH238470   2.278   7.242   6.072
12844TIP3    H138471   2.265   7.147   6.091
12844TIP3    H238472   2.201   7.281   6.120
12845TIP3   OH238473   2.625   8.471   5.287
12845TIP3    H138474   2.600   8.391   5.237
12845TIP3    H238475   2.635   8.438   5.378
12846TIP3   OH238476   2.901   8.661   6.008
12846TIP3    H138477   2.879   8.565   6.001
12846TIP3    H238478   2.985   8.660   5.959
12847TIP3   OH238479   2.215   8.003   5.333
12847TIP3    H138480   2.132   8.053   5.314
12847TIP3    H238481   2.257   8.000   5.245
12848TIP3   OH238482   2.170   7.792   5.043
12848TIP3    H138483   2.238   7.844   5.090
12848TIP3    H238484   2.227   7.728   4.995
12849TIP3   OH238485   3.112   8.251   5.916
12849TIP3    H138486   3.031   8.305   5.923
12849TIP3    H238487   3.142   8.273   5.826
12850TIP3   OH238488   2.560   8.082   5.304
12850TIP3    H138489   2.505   8.103   5.383
12850TIP3    H238490   2.644   8.056   5.347
12851TIP3   OH238491   2.792   8.126   6.212
12851TIP3    H138492   2.791   8.203   6.272
12851TIP3    H238493   2.704   8.133   6.171
12852TIP3   OH238494   1.799   8.087   5.706
12852TIP3    H138495   1.754   8.027   5.642
12852TIP3    H238496   1.872   8.031   5.740
12853TIP3   OH238497   1.937   8.466   5.904
12853TIP3    H138498   1.895   8.456   5.817
12853TIP3    H238499   2.031   8.442   5.887
12854TIP3   OH238500   1.915   8.063   6.075
12854TIP3    H138501   1.951   8.035   5.988
12854TIP3    H238502   1.961   8.148   6.091
12855TIP3   OH238503   2.395   7.947   5.126
12855TIP3    H138504   2.456   8.006   5.176
12855TIP3    H238505   2.424   7.963   5.033
12856TIP3   OH238506   2.912   7.185   5.172
12856TIP3    H138507   2.832   7.206   5.223
12856TIP3    H238508   2.929   7.269   5.125
12857TIP3   OH238509   1.659   7.929   5.522
12857TIP3    H138510   1.592   7.971   5.463
12857TIP3    H238511   1.618   7.844   5.539
12858TIP3   OH238512   3.047   8.087   6.391
12858TIP3    H138513   2.960   8.095   6.348
12858TIP3    H238514   3.063   7.991   6.382
12859TIP3   OH238515   2.041   7.321   6.201
12859TIP3    H138516   1.953   7.289   6.174
12859TIP3    H238517   2.015   7.400   6.252
12860TIP3   OH238518   2.576   7.435   6.396
12860TIP3    H138519   2.645   7.407   6.459
12860TIP3    H238520   2.493   7.414   6.444
12861TIP3   OH238521   2.815   7.865   6.312
12861TIP3    H138522   2.764   7.859   6.396
12861TIP3    H238523   2.789   7.953   6.278
12862TIP3   OH238524   2.477   7.976   4.872
12862TIP3    H138525   2.443   7.956   4.783
12862TIP3    H238526   2.541   8.047   4.850
12863TIP3   OH238527   2.188   7.367   5.173
12863TIP3    H138528   2.153   7.364   5.264
12863TIP3    H238529   2.147   7.286   5.137
12864TIP3   OH238530   1.974   7.837   6.219
12864TIP3    H138531   1.933   7.860   6.305
12864TIP3    H238532   1.958   7.919   6.168
12865TIP3   OH238533   1.856   7.724   5.733
12865TIP3    H138534   1.764   7.696   5.752
12865TIP3    H238535   1.869   7.682   5.645
12866TIP3   OH238536   2.351   7.806   5.464
12866TIP3    H138537   2.298   7.874   5.418
12866TIP3    H238538   2.406   7.772   5.390
12867TIP3   OH238539   2.524   8.082   6.532
12867TIP3    H138540   2.504   8.014   6.600
12867TIP3    H238541   2.614   8.108   6.557
12868TIP3   OH238542   2.507   7.836   5.698
12868TIP3    H138543   2.443   7.860   5.627
12868TIP3    H238544   2.542   7.754   5.656
12869TIP3   OH238545   1.792   7.861   6.433
12869TIP3    H138546   1.835   7.898   6.511
12869TIP3    H238547   1.767   7.773   6.466
12870TIP3   OH238548   1.843   7.343   5.137
12870TIP3    H138549   1.833   7.340   5.235
12870TIP3    H238550   1.765   7.395   5.112
12871TIP3   OH238551   1.387   7.384   6.011
12871TIP3    H138552   1.463   7.418   6.063
12871TIP3    H238553   1.427   7.357   5.927
12872TIP3   OH238554   1.356   7.366   5.527
12872TIP3    H138555   1.402   7.405   5.449
12872TIP3    H238556   1.294   7.439   5.548
12873TIP3   OH238557   2.516   8.083   6.121
12873TIP3    H138558   2.550   8.010   6.063
12873TIP3    H238559   2.487   8.030   6.198
12874TIP3   OH238560   2.187   7.548   5.795
12874TIP3    H138561   2.106   7.544   5.848
12874TIP3    H238562   2.257   7.536   5.862
12875TIP3   OH238563   1.619   7.601   5.802
12875TIP3    H138564   1.525   7.610   5.774
12875TIP3    H238565   1.640   7.509   5.779
12876TIP3   OH238566   1.886   7.596   5.493
12876TIP3    H138567   1.980   7.610   5.470
12876TIP3    H238568   1.838   7.617   5.409
12877TIP3   OH238569   2.676   7.622   5.996
12877TIP3    H138570   2.644   7.633   6.089
12877TIP3    H238571   2.610   7.559   5.962
12878TIP3   OH238572   1.732   7.631   5.270
12878TIP3    H138573   1.660   7.585   5.224
12878TIP3    H238574   1.784   7.666   5.194
12879TIP3   OH238575   2.267   7.876   5.894
12879TIP3    H138576   2.337   7.831   5.845
12879TIP3    H238577   2.270   7.831   5.981
12880TIP3   OH238578   1.790   7.358   5.773
12880TIP3    H138579   1.753   7.281   5.822
12880TIP3    H238580   1.837   7.315   5.701
12881TIP3   OH238581   2.244   7.774   6.174
12881TIP3    H138582   2.154   7.805   6.195
12881TIP3    H238583   2.302   7.830   6.230
12882TIP3   OH238584   1.983   8.145   5.285
12882TIP3    H138585   1.906   8.085   5.271
12882TIP3    H238586   1.959   8.189   5.370
12883TIP3   OH238587   2.878   8.404   5.910
12883TIP3    H138588   2.906   8.443   5.825
12883TIP3    H238589   2.799   8.351   5.884
12884TIP3   OH238590   2.438   7.470   5.142
12884TIP3    H138591   2.342   7.451   5.150
12884TIP3    H238592   2.445   7.565   5.166
12885TIP3   OH238593   2.428   8.484   6.271
12885TIP3    H138594   2.457   8.435   6.351
12885TIP3    H238595   2.345   8.524   6.307
12886TIP3   OH238596   2.507   7.720   5.245
12886TIP3    H138597   2.604   7.725   5.259
12886TIP3    H238598   2.489   7.799   5.191
12887TIP3   OH238599   1.655   8.143   5.934
12887TIP3    H138600   1.705   8.128   5.851
12887TIP3    H238601   1.709   8.096   5.999
12888TIP3   OH238602   2.093   8.329   5.117
12888TIP3    H138603   2.052   8.400   5.171
12888TIP3    H238604   2.057   8.250   5.163
12889TIP3   OH238605   2.282   8.213   6.581
12889TIP3    H138606   2.251   8.181   6.496
12889TIP3    H238607   2.375   8.187   6.578
12890TIP3   OH238608   2.947   7.812   5.079
12890TIP3    H138609   2.886   7.767   5.016
12890TIP3    H238610   2.945   7.901   5.037
12891TIP3   OH238611   3.163   8.657   6.174
12891TIP3    H138612   3.069   8.680   6.162
12891TIP3    H238613   3.190   8.637   6.082
12892TIP3   OH238614   2.647   8.262   5.814
12892TIP3    H138615   2.556   8.232   5.834
12892TIP3    H238616   2.683   8.179   5.776
12893TIP3   OH238617   1.341   7.788   5.283
12893TIP3    H138618   1.385   7.873   5.304
12893TIP3    H238619   1.262   7.793   5.342
12894TIP3   OH238620   1.912   8.266   5.524
12894TIP3    H138621   1.862   8.342   5.555
12894TIP3    H238622   1.887   8.200   5.592
12895TIP3   OH238623   2.446   8.474   5.995
12895TIP3    H138624   2.434   8.477   6.092
12895TIP3    H238625   2.512   8.404   5.986
12896TIP3   OH238626   2.441   8.292   4.861
12896TIP3    H138627   2.472   8.282   4.953
12896TIP3    H238628   2.359   8.344   4.873
12897TIP3   OH238629   1.768   7.598   6.576
12897TIP3    H138630   1.672   7.597   6.594
12897TIP3    H238631   1.800   7.544   6.651
12898TIP3   OH238632   2.565   8.269   5.108
12898TIP3    H138633   2.560   8.197   5.174
12898TIP3    H238634   2.661   8.269   5.087
12899TIP3   OH238635   1.759   8.289   4.934
12899TIP3    H138636   1.795   8.202   4.909
12899TIP3    H238637   1.783   8.295   5.026
12900TIP3   OH238638   1.461   8.030   5.359
12900TIP3    H138639   1.395   8.067   5.422
12900TIP3    H238640   1.465   8.104   5.294
12901TIP3   OH238641   2.603   7.671   6.256
12901TIP3    H138642   2.682   7.709   6.298
12901TIP3    H238643   2.589   7.590   6.310
12902TIP3   OH238644   2.485   7.421   5.423
12902TIP3    H138645   2.470   7.443   5.329
12902TIP3    H238646   2.523   7.504   5.458
12903TIP3   OH238647   2.170   7.604   5.524
12903TIP3    H138648   2.236   7.675   5.508
12903TIP3    H238649   2.175   7.595   5.622
12904TIP3   OH238650   2.439   7.920   6.325
12904TIP3    H138651   2.464   7.975   6.402
12904TIP3    H238652   2.493   7.840   6.339
12905TIP3   OH238653   2.314   7.326   5.624
12905TIP3    H138654   2.312   7.403   5.685
12905TIP3    H238655   2.376   7.360   5.555
12906TIP3   OH238656   1.827   7.329   5.414
12906TIP3    H138657   1.824   7.418   5.453
12906TIP3    H238658   1.923   7.311   5.422
12907TIP3   OH238659   3.080   7.821   6.311
12907TIP3    H138660   2.982   7.821   6.318
12907TIP3    H238661   3.092   7.773   6.229
12908TIP3   OH238662   2.731   8.019   5.702
12908TIP3    H138663   2.656   7.957   5.712
12908TIP3    H238664   2.803   7.970   5.748
12909TIP3   OH238665   1.450   8.246   5.175
12909TIP3    H138666   1.476   8.339   5.162
12909TIP3    H238667   1.505   8.200   5.108
12910TIP3   OH238668   1.390   7.519   5.301
12910TIP3    H138669   1.389   7.617   5.301
12910TIP3    H238670   1.304   7.499   5.263
12911TIP3   OH238671   1.776   7.241   6.175
12911TIP3    H138672   1.746   7.205   6.088
12911TIP3    H238673   1.766   7.163   6.234
12912TIP3   OH238674   1.577   8.051   5.026
12912TIP3    H138675   1.625   8.013   5.102
12912TIP3    H238676   1.649   8.052   4.959
12913TIP3   OH238677   2.033   8.230   4.839
12913TIP3    H138678   2.064   8.246   4.929
12913TIP3    H238679   2.063   8.138   4.824
12914TIP3   OH238680   2.707   8.489   6.208
12914TIP3    H138681   2.733   8.567   6.159
12914TIP3    H238682   2.612   8.504   6.225
12915TIP3   OH238683   1.782   7.959   5.242
12915TIP3    H138684   1.753   7.915   5.323
12915TIP3    H238685   1.821   7.885   5.191
12916TIP3   OH238686   2.059   8.009   6.462
12916TIP3    H138687   2.041   8.090   6.513
12916TIP3    H238688   2.114   8.046   6.390
12917TIP3   OH238689   1.891   7.757   5.085
12917TIP3    H138690   1.865   7.757   4.990
12917TIP3    H238691   1.988   7.759   5.077
12918TIP3   OH238692   2.579   8.408   6.555
12918TIP3    H138693   2.672   8.429   6.567
12918TIP3    H238694   2.558   8.370   6.641
12919TIP3   OH238695   2.709   8.095   4.744
12919TIP3    H138696   2.686   8.041   4.666
12919TIP3    H238697   2.687   8.184   4.710
12920TIP3   OH238698   2.191   7.809   6.585
12920TIP3    H138699   2.190   7.727   6.531
12920TIP3    H238700   2.144   7.872   6.526
12921TIP3   OH238701   2.185   7.600   6.402
12921TIP3    H138702   2.211   7.637   6.315
12921TIP3    H238703   2.091   7.576   6.386
12922TIP3   OH238704   2.209   8.141   6.284
12922TIP3    H138705   2.290   8.141   6.232
12922TIP3    H238706   2.152   8.205   6.236
12923TIP3   OH238707   2.802   8.093   6.633
12923TIP3    H138708   2.848   8.008   6.640
12923TIP3    H238709   2.877   8.154   6.633
12924TIP3   OH238710   2.843   8.342   6.388
12924TIP3    H138711   2.782   8.398   6.335
12924TIP3    H238712   2.929   8.366   6.347
12925TIP3   OH238713   2.046   7.913   6.801
12925TIP3    H138714   1.990   7.833   6.813
12925TIP3    H238715   2.091   7.894   6.716
12926TIP3   OH238716   2.315   7.363   6.474
12926TIP3    H138717   2.265   7.444   6.451
12926TIP3    H238718   2.246   7.294   6.464
12927TIP3   OH238719   2.447   7.864   6.677
12927TIP3    H138720   2.425   7.843   6.770
12927TIP3    H238721   2.359   7.845   6.637
12928TIP3   OH238722   2.681   7.809   6.537
12928TIP3    H138723   2.606   7.819   6.599
12928TIP3    H238724   2.753   7.781   6.597
12929TIP3   OH238725   2.906   7.753   6.692
12929TIP3    H138726   2.923   7.657   6.702
12929TIP3    H238727   2.906   7.783   6.785
12930TIP3   OH238728   1.897   7.703   6.881
12930TIP3    H138729   1.878   7.616   6.839
12930TIP3    H238730   1.944   7.672   6.961
12931TIP3   OH238731   2.413   7.370   6.731
12931TIP3    H138732   2.478   7.298   6.723
12931TIP3    H238733   2.370   7.366   6.643
12932TIP3   OH238734   2.482   7.585   6.887
12932TIP3    H138735   2.464   7.511   6.826
12932TIP3    H238736   2.401   7.639   6.877
12933TIP3   OH238737   1.188   8.157   5.208
12933TIP3    H138738   1.274   8.194   5.178
12933TIP3    H238739   1.177   8.080   5.148
12934TIP3   OH238740   2.837   8.265   5.087
12934TIP3    H138741   2.908   8.324   5.053
12934TIP3    H238742   2.884   8.226   5.164
12935TIP3   OH238743   2.971   8.138   5.286
12935TIP3    H138744   2.910   8.094   5.349
12935TIP3    H238745   3.043   8.171   5.345
12936TIP3   OH238746   3.013   8.529   5.705
12936TIP3    H138747   3.077   8.462   5.673
12936TIP3    H238748   3.022   8.598   5.639
12937TIP3   OH238749   2.908   8.047   4.929
12937TIP3    H138750   2.838   8.053   4.860
12937TIP3    H238751   2.881   8.122   4.985
12938TIP3   OH238752   2.782   7.718   4.885
12938TIP3    H138753   2.738   7.758   4.810
12938TIP3    H238754   2.758   7.624   4.873
12939TIP3   OH238755   2.787   7.994   5.433
12939TIP3    H138756   2.796   7.898   5.424
12939TIP3    H238757   2.774   8.005   5.530
12940TIP3   OH238758   1.419   8.051   6.182
12940TIP3    H138759   1.415   8.045   6.085
12940TIP3    H238760   1.510   8.080   6.199
12941TIP3   OH238761   3.081   8.420   6.287
12941TIP3    H138762   3.147   8.347   6.283
12941TIP3    H238763   3.122   8.485   6.227
12942TIP3   OH238764   3.261   8.224   6.303
12942TIP3    H138765   3.189   8.171   6.342
12942TIP3    H238766   3.336   8.163   6.320
12943TIP3   OH238767   2.727   7.452   4.866
12943TIP3    H138768   2.799   7.423   4.925
12943TIP3    H238769   2.651   7.397   4.893
12944TIP3   OH238770   2.785   7.714   5.323
12944TIP3    H138771   2.825   7.625   5.339
12944TIP3    H238772   2.843   7.745   5.252
12945TIP3   OH238773   2.943   7.887   5.818
12945TIP3    H138774   3.030   7.912   5.778
12945TIP3    H238775   2.959   7.920   5.909
12946TIP3   OH238776   3.015   8.028   6.051
12946TIP3    H138777   2.938   8.062   6.102
12946TIP3    H238778   3.048   8.110   6.007
12947TIP3   OH238779   3.464   7.621   6.607
12947TIP3    H138780   3.525   7.556   6.566
12947TIP3    H238781   3.438   7.675   6.529
12948TIP3   OH238782   2.892   7.463   5.362
12948TIP3    H138783   2.941   7.447   5.446
12948TIP3    H238784   2.831   7.386   5.362
12949TIP3   OH238785   1.591   7.448   6.187
12949TIP3    H138786   1.653   7.373   6.195
12949TIP3    H238787   1.654   7.522   6.178
12950TIP3   OH238788   1.393   7.740   6.258
12950TIP3    H138789   1.442   7.727   6.175
12950TIP3    H238790   1.405   7.836   6.270
12951TIP3   OH238791   3.337   7.761   6.410
12951TIP3    H138792   3.250   7.801   6.431
12951TIP3    H238793   3.307   7.687   6.354
12952TIP3   OH238794   2.974   7.395   4.995
12952TIP3    H138795   3.025   7.329   4.943
12952TIP3    H238796   3.036   7.470   4.996
12953TIP3   OH238797   1.379   7.225   5.757
12953TIP3    H138798   1.285   7.221   5.784
12953TIP3    H238799   1.374   7.284   5.679
12954TIP3   OH238800   1.589   7.275   6.573
12954TIP3    H138801   1.566   7.280   6.667
12954TIP3    H238802   1.520   7.329   6.532
12955TIP3   OH238803   3.236   7.521   6.293
12955TIP3    H138804   3.145   7.509   6.260
12955TIP3    H238805   3.271   7.430   6.283
12956TIP3   OH238806   2.436   7.436   5.908
12956TIP3    H138807   2.396   7.366   5.963
12956TIP3    H238808   2.512   7.390   5.868
12957TIP3   OH238809   2.961   7.317   5.813
12957TIP3    H138810   2.998   7.370   5.739
12957TIP3    H238811   2.866   7.338   5.808
12958TIP3   OH238812   3.058   7.418   5.578
12958TIP3    H138813   3.133   7.366   5.540
12958TIP3    H238814   3.092   7.509   5.564
12959TIP3   OH238815   1.688   7.147   5.926
12959TIP3    H138816   1.596   7.114   5.929
12959TIP3    H238817   1.737   7.061   5.923
12960TIP3   OH238818   1.477   7.018   5.578
12960TIP3    H138819   1.506   7.075   5.504
12960TIP3    H238820   1.448   7.084   5.644
12961TIP3   OH238821   2.133   7.179   5.809
12961TIP3    H138822   2.191   7.227   5.747
12961TIP3    H238823   2.160   7.216   5.894
12962TIP3   OH238824   2.677   7.327   5.791
12962TIP3    H138825   2.678   7.285   5.704
12962TIP3    H238826   2.666   7.248   5.850
12963TIP3   OH238827   2.710   7.249   5.354
12963TIP3    H138828   2.624   7.292   5.368
12963TIP3    H238829   2.696   7.164   5.400
12964TIP3   OH238830   1.594   7.176   5.337
12964TIP3    H138831   1.642   7.112   5.280
12964TIP3    H238832   1.668   7.229   5.373
12965TIP3   OH238833   2.104   7.354   5.437
12965TIP3    H138834   2.163   7.305   5.497
12965TIP3    H238835   2.127   7.446   5.463
12966TIP3   OH238836   1.904   7.439   6.807
12966TIP3    H138837   1.863   7.365   6.856
12966TIP3    H238838   1.997   7.428   6.838
12967TIP3   OH238839   2.151   7.414   6.934
12967TIP3    H138840   2.233   7.383   6.893
12967TIP3    H238841   2.132   7.340   6.997
12968TIP3   OH238842   2.974   7.487   6.724
12968TIP3    H138843   2.991   7.455   6.815
12968TIP3    H238844   3.063   7.481   6.683
12969TIP3   OH238845   4.177   8.398   4.990
12969TIP3    H138846   4.138   8.484   4.967
12969TIP3    H238847   4.107   8.340   4.956
12970TIP3   OH238848   4.175   8.411   5.367
12970TIP3    H138849   4.210   8.386   5.454
12970TIP3    H238850   4.137   8.328   5.335
12971TIP3   OH238851   3.467   8.309   5.739
12971TIP3    H138852   3.502   8.240   5.799
12971TIP3    H238853   3.549   8.355   5.715
12972TIP3   OH238854   4.394   8.714   5.055
12972TIP3    H138855   4.394   8.640   5.119
12972TIP3    H238856   4.452   8.777   5.099
12973TIP3   OH238857   3.505   8.650   5.540
12973TIP3    H138858   3.473   8.568   5.499
12973TIP3    H238859   3.585   8.669   5.485
12974TIP3   OH238860   3.152   7.915   5.237
12974TIP3    H138861   3.109   8.000   5.252
12974TIP3    H238862   3.079   7.865   5.194
12975TIP3   OH238863   3.206   8.205   5.416
12975TIP3    H138864   3.256   8.127   5.448
12975TIP3    H238865   3.276   8.256   5.372
12976TIP3   OH238866   3.990   8.627   5.409
12976TIP3    H138867   4.038   8.550   5.375
12976TIP3    H238868   4.067   8.682   5.435
12977TIP3   OH238869   4.988   7.957   5.407
12977TIP3    H138870   5.019   8.040   5.448
12977TIP3    H238871   5.030   7.964   5.318
12978TIP3   OH238872   4.384   8.139   5.444
12978TIP3    H138873   4.430   8.056   5.466
12978TIP3    H238874   4.355   8.121   5.353
12979TIP3   OH238875   3.723   7.799   5.411
12979TIP3    H138876   3.707   7.871   5.347
12979TIP3    H238877   3.675   7.726   5.366
12980TIP3   OH238878   4.419   7.890   5.029
12980TIP3    H138879   4.489   7.875   5.097
12980TIP3    H238880   4.474   7.924   4.956
12981TIP3   OH238881   3.358   8.000   5.517
12981TIP3    H138882   3.441   7.981   5.564
12981TIP3    H238883   3.373   7.946   5.436
12982TIP3   OH238884   3.796   8.198   5.316
12982TIP3    H138885   3.891   8.175   5.326
12982TIP3    H238886   3.759   8.114   5.282
12983TIP3   OH238887   5.063   8.165   5.578
12983TIP3    H138888   4.977   8.209   5.562
12983TIP3    H238889   5.077   8.187   5.671
12984TIP3   OH238890   3.721   7.782   5.844
12984TIP3    H138891   3.661   7.818   5.776
12984TIP3    H238892   3.669   7.799   5.925
12985TIP3   OH238893   4.051   8.602   4.856
12985TIP3    H138894   4.018   8.599   4.765
12985TIP3    H238895   4.086   8.692   4.863
12986TIP3   OH238896   3.826   8.561   5.637
12986TIP3    H138897   3.761   8.627   5.667
12986TIP3    H238898   3.863   8.605   5.558
12987TIP3   OH238899   4.622   7.897   5.206
12987TIP3    H138900   4.630   7.840   5.283
12987TIP3    H238901   4.682   7.971   5.229
12988TIP3   OH238902   3.591   7.897   5.629
12988TIP3    H138903   3.654   7.969   5.652
12988TIP3    H238904   3.640   7.856   5.554
12989TIP3   OH238905   3.654   8.780   5.743
12989TIP3    H138906   3.613   8.772   5.655
12989TIP3    H238907   3.575   8.770   5.799
12990TIP3   OH238908   3.047   8.407   4.980
12990TIP3    H138909   3.015   8.418   4.888
12990TIP3    H238910   3.065   8.500   5.001
12991TIP3   OH238911   4.780   7.865   5.574
12991TIP3    H138912   4.693   7.891   5.539
12991TIP3    H238913   4.842   7.895   5.504
12992TIP3   OH238914   4.071   7.499   5.553
12992TIP3    H138915   4.064   7.404   5.577
12992TIP3    H238916   3.995   7.536   5.603
12993TIP3   OH238917   4.423   8.729   4.774
12993TIP3    H138918   4.397   8.647   4.727
12993TIP3    H238919   4.434   8.699   4.866
12994TIP3   OH238920   4.710   8.867   5.560
12994TIP3    H138921   4.697   8.790   5.501
12994TIP3    H238922   4.738   8.936   5.496
12995TIP3   OH238923   4.009   8.258   4.819
12995TIP3    H138924   3.929   8.310   4.799
12995TIP3    H238925   4.054   8.257   4.732
12996TIP3   OH238926   3.966   8.048   4.530
12996TIP3    H138927   4.032   8.100   4.578
12996TIP3    H238928   4.024   7.985   4.482
12997TIP3   OH238929   4.913   8.509   5.403
12997TIP3    H138930   4.827   8.558   5.407
12997TIP3    H238931   4.939   8.528   5.310
12998TIP3   OH238932   4.355   8.338   4.791
12998TIP3    H138933   4.302   8.359   4.871
12998TIP3    H238934   4.440   8.312   4.833
12999TIP3   OH238935   4.589   8.385   5.700
12999TIP3    H138936   4.586   8.468   5.751
12999TIP3    H238937   4.502   8.389   5.655
13000TIP3   OH238938   3.592   8.345   5.196
13000TIP3    H138939   3.550   8.284   5.131
13000TIP3    H238940   3.667   8.291   5.229
13001TIP3   OH238941   3.726   8.710   5.403
13001TIP3    H138942   3.691   8.708   5.313
13001TIP3    H238943   3.823   8.713   5.389
13002TIP3   OH238944   3.709   8.321   5.556
13002TIP3    H138945   3.749   8.293   5.471
13002TIP3    H238946   3.759   8.404   5.575
13003TIP3   OH238947   3.900   8.773   5.881
13003TIP3    H138948   3.866   8.862   5.904
13003TIP3    H238949   3.827   8.743   5.824
13004TIP3   OH238950   4.189   8.205   4.613
13004TIP3    H138951   4.252   8.262   4.664
13004TIP3    H238952   4.219   8.221   4.520
13005TIP3   OH238953   3.619   8.429   5.987
13005TIP3    H138954   3.623   8.517   6.031
13005TIP3    H238955   3.524   8.410   5.992
13006TIP3   OH238956   4.712   7.448   4.667
13006TIP3    H138957   4.629   7.470   4.714
13006TIP3    H238958   4.727   7.530   4.615
13007TIP3   OH238959   3.454   8.186   5.009
13007TIP3    H138960   3.389   8.228   4.949
13007TIP3    H238961   3.417   8.098   5.021
13008TIP3   OH238962   3.219   8.573   5.925
13008TIP3    H138963   3.190   8.545   5.837
13008TIP3    H238964   3.267   8.493   5.956
13009TIP3   OH238965   4.847   8.349   5.872
13009TIP3    H138966   4.763   8.356   5.825
13009TIP3    H238967   4.864   8.252   5.865
13010TIP3   OH238968   3.438   8.764   5.914
13010TIP3    H138969   3.493   8.733   5.989
13010TIP3    H238970   3.365   8.700   5.914
13011TIP3   OH238971   3.836   7.576   5.689
13011TIP3    H138972   3.747   7.547   5.662
13011TIP3    H238973   3.812   7.657   5.737
13012TIP3   OH238974   4.374   7.689   5.880
13012TIP3    H138975   4.445   7.661   5.941
13012TIP3    H238976   4.293   7.668   5.930
13013TIP3   OH238977   4.608   8.120   5.799
13013TIP3    H138978   4.559   8.117   5.885
13013TIP3    H238979   4.586   8.208   5.765
13014TIP3   OH238980   4.271   8.234   4.358
13014TIP3    H138981   4.239   8.213   4.268
13014TIP3    H238982   4.338   8.301   4.338
13015TIP3   OH238983   3.979   7.628   4.659
13015TIP3    H138984   3.949   7.623   4.752
13015TIP3    H238985   3.945   7.542   4.626
13016TIP3   OH238986   3.767   8.096   5.703
13016TIP3    H138987   3.723   8.118   5.787
13016TIP3    H238988   3.750   8.178   5.651
13017TIP3   OH238989   3.653   7.979   5.220
13017TIP3    H138990   3.561   7.952   5.238
13017TIP3    H238991   3.666   7.937   5.132
13018TIP3   OH238992   4.146   8.060   4.949
13018TIP3    H138993   4.094   8.129   4.904
13018TIP3    H238994   4.203   8.027   4.876
13019TIP3   OH238995   4.323   8.339   6.032
13019TIP3    H138996   4.300   8.267   6.094
13019TIP3    H238997   4.416   8.353   6.054
13020TIP3   OH238998   4.300   8.090   5.186
13020TIP3    H138999   4.239   8.117   5.114
13020TIP3    H239000   4.337   8.010   5.144
13021TIP3   OH239001   3.585   8.122   5.917
13021TIP3    H139002   3.635   8.178   5.979
13021TIP3    H239003   3.578   8.039   5.967
13022TIP3   OH239004   3.633   7.594   4.624
13022TIP3    H139005   3.628   7.597   4.722
13022TIP3    H239006   3.560   7.654   4.600
13023TIP3   OH239007   3.184   7.641   5.496
13023TIP3    H139008   3.256   7.676   5.552
13023TIP3    H239009   3.229   7.614   5.415
13024TIP3   OH239010   3.148   7.622   5.015
13024TIP3    H139011   3.194   7.659   4.937
13024TIP3    H239012   3.089   7.698   5.036
13025TIP3   OH239013   4.308   8.338   5.609
13025TIP3    H139014   4.342   8.266   5.550
13025TIP3    H239015   4.281   8.283   5.686
13026TIP3   OH239016   3.981   7.806   5.281
13026TIP3    H139017   3.904   7.801   5.341
13026TIP3    H239018   4.055   7.791   5.342
13027TIP3   OH239019   3.415   7.856   5.290
13027TIP3    H139020   3.321   7.862   5.261
13027TIP3    H239021   3.441   7.766   5.265
13028TIP3   OH239022   3.681   7.850   4.980
13028TIP3    H139023   3.776   7.866   4.962
13028TIP3    H239024   3.638   7.874   4.894
13029TIP3   OH239025   4.474   7.881   5.489
13029TIP3    H139026   4.436   7.890   5.579
13029TIP3    H239027   4.414   7.816   5.449
13030TIP3   OH239028   3.528   7.886   4.754
13030TIP3    H139029   3.458   7.842   4.703
13030TIP3    H239030   3.581   7.926   4.682
13031TIP3   OH239031   3.599   8.677   6.126
13031TIP3    H139032   3.683   8.703   6.170
13031TIP3    H239033   3.540   8.673   6.204
13032TIP3   OH239034   4.063   8.131   5.378
13032TIP3    H139035   4.136   8.092   5.326
13032TIP3    H239036   4.071   8.085   5.463
13033TIP3   OH239037   3.582   7.617   5.258
13033TIP3    H139038   3.550   7.538   5.307
13033TIP3    H239039   3.641   7.578   5.192
13034TIP3   OH239040   4.040   8.026   5.669
13034TIP3    H139041   3.951   8.065   5.683
13034TIP3    H239042   4.099   8.086   5.718
13035TIP3   OH239043   3.778   8.401   4.768
13035TIP3    H139044   3.700   8.343   4.755
13035TIP3    H239045   3.755   8.445   4.853
13036TIP3   OH239046   4.677   8.649   5.394
13036TIP3    H139047   4.705   8.697   5.313
13036TIP3    H239048   4.593   8.607   5.365
13037TIP3   OH239049   4.234   7.727   4.629
13037TIP3    H139050   4.137   7.712   4.636
13037TIP3    H239051   4.245   7.821   4.652
13038TIP3   OH239052   4.188   8.755   5.761
13038TIP3    H139053   4.218   8.703   5.836
13038TIP3    H239054   4.107   8.796   5.796
13039TIP3   OH239055   4.305   7.976   4.731
13039TIP3    H139056   4.401   7.980   4.746
13039TIP3    H239057   4.289   8.055   4.677
13040TIP3   OH239058   3.451   8.393   5.428
13040TIP3    H139059   3.498   8.387   5.343
13040TIP3    H239060   3.517   8.355   5.489
13041TIP3   OH239061   3.888   8.589   4.605
13041TIP3    H139062   3.846   8.658   4.661
13041TIP3    H239063   3.854   8.509   4.651
13042TIP3   OH239064   3.345   8.370   6.058
13042TIP3    H139065   3.376   8.350   6.149
13042TIP3    H239066   3.289   8.293   6.039
13043TIP3   OH239067   4.082   8.462   6.077
13043TIP3    H139068   4.024   8.413   6.017
13043TIP3    H239069   4.170   8.429   6.048
13044TIP3   OH239070   4.744   8.068   4.568
13044TIP3    H139071   4.682   8.025   4.505
13044TIP3    H239072   4.743   8.158   4.529
13045TIP3   OH239073   4.968   8.910   5.650
13045TIP3    H139074   4.871   8.921   5.639
13045TIP3    H239075   4.993   8.894   5.556
13046TIP3   OH239076   4.441   8.520   5.299
13046TIP3    H139077   4.350   8.492   5.320
13046TIP3    H239078   4.476   8.436   5.261
13047TIP3   OH239079   3.136   8.044   4.770
13047TIP3    H139080   3.182   8.129   4.788
13047TIP3    H239081   3.059   8.052   4.829
13048TIP3   OH239082   3.704   8.517   5.006
13048TIP3    H139083   3.675   8.601   5.042
13048TIP3    H239084   3.678   8.456   5.078
13049TIP3   OH239085   4.231   8.719   5.489
13049TIP3    H139086   4.221   8.729   5.586
13049TIP3    H239087   4.316   8.674   5.482
13050TIP3   OH239088   4.236   8.550   4.347
13050TIP3    H139089   4.269   8.539   4.439
13050TIP3    H239090   4.155   8.602   4.361
13051TIP3   OH239091   3.562   7.866   6.059
13051TIP3    H139092   3.465   7.865   6.072
13051TIP3    H239093   3.592   7.808   6.131
13052TIP3   OH239094   4.360   8.525   4.595
13052TIP3    H139095   4.357   8.453   4.661
13052TIP3    H239096   4.456   8.528   4.574
13053TIP3   OH239097   3.548   8.543   4.424
13053TIP3    H139098   3.590   8.458   4.397
13053TIP3    H239099   3.591   8.559   4.508
13054TIP3   OH239100   3.255   8.286   4.847
13054TIP3    H139101   3.188   8.324   4.907
13054TIP3    H239102   3.260   8.358   4.781
13055TIP3   OH239103   4.394   7.932   5.748
13055TIP3    H139104   4.480   7.966   5.778
13055TIP3    H239105   4.386   7.849   5.800
13056TIP3   OH239106   4.278   7.678   4.910
13056TIP3    H139107   4.269   7.701   4.815
13056TIP3    H239108   4.320   7.759   4.946
13057TIP3   OH239109   3.961   7.862   5.010
13057TIP3    H139110   4.029   7.931   4.993
13057TIP3    H239111   3.971   7.850   5.107
13058TIP3   OH239112   4.237   8.175   5.816
13058TIP3    H139113   4.265   8.225   5.896
13058TIP3    H239114   4.292   8.094   5.821
13059TIP3   OH239115   4.111   7.581   5.108
13059TIP3    H139116   4.121   7.650   5.177
13059TIP3    H239117   4.172   7.616   5.039
13060TIP3   OH239118   3.624   7.586   4.901
13060TIP3    H139119   3.621   7.676   4.939
13060TIP3    H239120   3.720   7.568   4.909
13061TIP3   OH239121   4.876   8.080   5.796
13061TIP3    H139122   4.778   8.078   5.804
13061TIP3    H239123   4.887   8.026   5.716
13062TIP3   OH239124   4.526   8.275   5.189
13062TIP3    H139125   4.453   8.212   5.199
13062TIP3    H239126   4.600   8.228   5.235
13063TIP3   OH239127   3.245   8.503   4.662
13063TIP3    H139128   3.273   8.595   4.650
13063TIP3    H239129   3.301   8.456   4.596
13064TIP3   OH239130   3.182   7.774   4.792
13064TIP3    H139131   3.187   7.872   4.789
13064TIP3    H239132   3.102   7.758   4.741
13065TIP3   OH239133   3.569   7.498   5.663
13065TIP3    H139134   3.542   7.462   5.576
13065TIP3    H239135   3.562   7.419   5.721
13066TIP3   OH239136   3.398   8.650   6.317
13066TIP3    H139137   3.428   8.556   6.316
13066TIP3    H239138   3.315   8.644   6.266
13067TIP3   OH239139   3.372   8.304   4.515
13067TIP3    H139140   3.424   8.270   4.590
13067TIP3    H239141   3.443   8.310   4.447
13068TIP3   OH239142   4.019   8.725   6.120
13068TIP3    H139143   3.987   8.739   6.028
13068TIP3    H239144   4.056   8.635   6.112
13069TIP3   OH239145   3.820   8.484   4.330
13069TIP3    H139146   3.863   8.505   4.414
13069TIP3    H239147   3.854   8.394   4.312
13070TIP3   OH239148   4.497   8.750   5.693
13070TIP3    H139149   4.567   8.804   5.649
13070TIP3    H239150   4.421   8.810   5.685
13071TIP3   OH239151   3.520   8.398   6.293
13071TIP3    H139152   3.595   8.344   6.264
13071TIP3    H239153   3.551   8.427   6.381
13072TIP3   OH239154   3.573   8.215   4.725
13072TIP3    H139155   3.553   8.172   4.810
13072TIP3    H239156   3.617   8.143   4.675
13073TIP3   OH239157   3.846   8.274   5.951
13073TIP3    H139158   3.775   8.342   5.957
13073TIP3    H239159   3.903   8.312   5.880
13074TIP3   OH239160   3.688   8.013   4.572
13074TIP3    H139161   3.663   8.014   4.477
13074TIP3    H239162   3.786   8.016   4.565
13075TIP3   OH239163   4.377   8.674   6.090
13075TIP3    H139164   4.457   8.648   6.042
13075TIP3    H239165   4.375   8.610   6.163
13076TIP3   OH239166   4.502   8.352   4.232
13076TIP3    H139167   4.481   8.298   4.153
13076TIP3    H239168   4.481   8.441   4.196
13077TIP3   OH239169   3.974   8.071   6.085
13077TIP3    H139170   3.979   7.991   6.029
13077TIP3    H239171   3.932   8.136   6.025
13078TIP3   OH239172   3.979   7.859   5.894
13078TIP3    H139173   4.009   7.898   5.809
13078TIP3    H239174   3.886   7.835   5.873
13079TIP3   OH239175   4.001   8.395   5.768
13079TIP3    H139176   4.086   8.398   5.721
13079TIP3    H239177   3.948   8.462   5.721
13080TIP3   OH239178   4.589   8.359   6.146
13080TIP3    H139179   4.635   8.274   6.156
13080TIP3    H239180   4.661   8.417   6.116
13081TIP3   OH239181   4.628   8.611   5.882
13081TIP3    H139182   4.572   8.665   5.822
13081TIP3    H239183   4.717   8.631   5.845
13082TIP3   OH239184   3.849   8.182   6.314
13082TIP3    H139185   3.785   8.110   6.330
13082TIP3    H239186   3.888   8.155   6.228
13083TIP3   OH239187   4.112   7.621   5.962
13083TIP3    H139188   4.062   7.702   5.939
13083TIP3    H239189   4.044   7.551   5.950
13084TIP3   OH239190   4.236   8.125   6.176
13084TIP3    H139191   4.227   8.110   6.272
13084TIP3    H239192   4.146   8.099   6.147
13085TIP3   OH239193   4.477   8.079   6.032
13085TIP3    H139194   4.403   8.075   6.095
13085TIP3    H239195   4.552   8.045   6.085
13086TIP3   OH239196   4.702   8.012   6.179
13086TIP3    H139197   4.717   7.916   6.194
13086TIP3    H239198   4.701   8.049   6.269
13087TIP3   OH239199   3.694   7.960   6.371
13087TIP3    H139200   3.700   7.868   6.337
13087TIP3    H239201   3.732   7.948   6.460
13088TIP3   OH239202   4.203   7.630   6.220
13088TIP3    H139203   4.272   7.560   6.216
13088TIP3    H239204   4.166   7.624   6.130
13089TIP3   OH239205   4.271   7.845   6.377
13089TIP3    H139206   4.252   7.773   6.313
13089TIP3    H239207   4.192   7.902   6.369
13090TIP3   OH239208   2.982   8.408   4.706
13090TIP3    H139209   3.061   8.453   4.671
13090TIP3    H239210   2.970   8.335   4.642
13091TIP3   OH239211   4.853   9.050   5.939
13091TIP3    H139212   4.776   9.017   5.989
13091TIP3    H239213   4.902   9.093   6.013
13092TIP3   OH239214   4.632   8.523   4.572
13092TIP3    H139215   4.704   8.581   4.539
13092TIP3    H239216   4.676   8.486   4.652
13093TIP3   OH239217   4.762   8.403   4.776
13093TIP3    H139218   4.704   8.355   4.838
13093TIP3    H239219   4.836   8.432   4.833
13094TIP3   OH239220   4.810   8.782   5.198
13094TIP3    H139221   4.873   8.723   5.153
13094TIP3    H239222   4.816   8.864   5.147
13095TIP3   OH239223   4.704   8.305   4.416
13095TIP3    H139224   4.633   8.310   4.348
13095TIP3    H239225   4.677   8.380   4.473
13096TIP3   OH239226   4.576   7.979   4.373
13096TIP3    H139227   4.534   8.013   4.293
13096TIP3    H239228   4.554   7.883   4.365
13097TIP3   OH239229   4.582   8.251   4.920
13097TIP3    H139230   4.594   8.155   4.911
13097TIP3    H239231   4.570   8.262   5.017
13098TIP3   OH239232   3.206   8.340   5.664
13098TIP3    H139233   3.205   8.301   5.574
13098TIP3    H239234   3.303   8.337   5.683
13099TIP3   OH239235   4.874   8.676   5.782
13099TIP3    H139236   4.947   8.613   5.771
13099TIP3    H239237   4.898   8.745   5.717
13100TIP3   OH239238   5.070   8.485   5.802
13100TIP3    H139239   4.990   8.436   5.832
13100TIP3    H239240   5.136   8.413   5.812
13101TIP3   OH239241   4.521   7.713   4.357
13101TIP3    H139242   4.600   7.683   4.407
13101TIP3    H239243   4.453   7.650   4.382
13102TIP3   OH239244   4.580   7.971   4.809
13102TIP3    H139245   4.619   7.882   4.825
13102TIP3    H239246   4.640   8.002   4.739
13103TIP3   OH239247   4.740   8.146   5.306
13103TIP3    H139248   4.826   8.170   5.265
13103TIP3    H239249   4.757   8.178   5.396
13104TIP3   OH239250   4.812   8.287   5.539
13104TIP3    H139251   4.734   8.322   5.587
13104TIP3    H239252   4.845   8.367   5.492
13105TIP3   OH239253   3.429   8.014   6.338
13105TIP3    H139254   3.526   8.007   6.342
13105TIP3    H239255   3.404   7.928   6.378
13106TIP3   OH239256   5.258   7.872   6.088
13106TIP3    H139257   5.322   7.808   6.051
13106TIP3    H239258   5.234   7.925   6.009
13107TIP3   OH239259   4.682   7.722   4.854
13107TIP3    H139260   4.735   7.707   4.936
13107TIP3    H239261   4.626   7.642   4.854
13108TIP3   OH239262   3.386   7.707   5.673
13108TIP3    H139263   3.447   7.631   5.681
13108TIP3    H239264   3.450   7.780   5.663
13109TIP3   OH239265   3.188   7.981   5.738
13109TIP3    H139266   3.238   7.973   5.655
13109TIP3    H239267   3.232   8.056   5.779
13110TIP3   OH239268   5.131   8.015   5.895
13110TIP3    H139269   5.044   8.056   5.912
13110TIP3    H239270   5.104   7.940   5.839
13111TIP3   OH239271   4.765   7.653   4.480
13111TIP3    H139272   4.814   7.583   4.432
13111TIP3    H239273   4.832   7.724   4.486
13112TIP3   OH239274   3.174   7.476   5.240
13112TIP3    H139275   3.082   7.477   5.272
13112TIP3    H239276   3.171   7.538   5.165
13113TIP3   OH239277   3.395   7.566   6.059
13113TIP3    H139278   3.344   7.557   6.141
13113TIP3    H239279   3.327   7.600   5.998
13114TIP3   OH239280   5.032   7.776   5.780
13114TIP3    H139281   4.941   7.758   5.750
13114TIP3    H239282   5.070   7.686   5.770
13115TIP3   OH239283   4.227   7.688   5.383
13115TIP3    H139284   4.192   7.619   5.442
13115TIP3    H239285   4.309   7.647   5.348
13116TIP3   OH239286   4.754   7.569   5.296
13116TIP3    H139287   4.792   7.620   5.221
13116TIP3    H239288   4.660   7.595   5.293
13117TIP3   OH239289   4.854   7.687   5.066
13117TIP3    H139290   4.920   7.623   5.030
13117TIP3    H239291   4.899   7.772   5.044
13118TIP3   OH239292   3.486   7.403   5.413
13118TIP3    H139293   3.394   7.369   5.417
13118TIP3    H239294   3.535   7.318   5.411
13119TIP3   OH239295   3.262   7.272   5.061
13119TIP3    H139296   3.296   7.329   4.990
13119TIP3    H239297   3.239   7.338   5.130
13120TIP3   OH239298   3.927   7.439   5.298
13120TIP3    H139299   3.983   7.483   5.233
13120TIP3    H239300   3.964   7.471   5.382
13121TIP3   OH239301   4.468   7.579   5.276
13121TIP3    H139302   4.487   7.539   5.190
13121TIP3    H239303   4.460   7.498   5.332
13122TIP3   OH239304   4.502   7.505   4.838
13122TIP3    H139305   4.416   7.548   4.856
13122TIP3    H239306   4.494   7.425   4.894
13123TIP3   OH239307   3.392   7.431   4.822
13123TIP3    H139308   3.446   7.368   4.770
13123TIP3    H239309   3.462   7.488   4.860
13124TIP3   OH239310   3.901   7.609   4.925
13124TIP3    H139311   3.964   7.565   4.985
13124TIP3    H239312   3.920   7.703   4.949
13125TIP3   OH239313   3.693   7.685   6.305
13125TIP3    H139314   3.659   7.614   6.362
13125TIP3    H239315   3.788   7.684   6.332
13126TIP3   OH239316   3.943   7.682   6.423
13126TIP3    H139317   4.028   7.658   6.382
13126TIP3    H239318   3.933   7.611   6.489
13127TIP3   OH239319   4.770   7.745   6.211
13127TIP3    H139320   4.788   7.712   6.301
13127TIP3    H239321   4.858   7.740   6.169
13128TIP3   OH239322   5.974   8.644   4.479
13128TIP3    H139323   5.941   8.734   4.457
13128TIP3    H239324   5.903   8.592   4.437
13129TIP3   OH239325   5.966   8.658   4.855
13129TIP3    H139326   6.001   8.637   4.943
13129TIP3    H239327   5.920   8.574   4.834
13130TIP3   OH239328   5.279   8.580   5.236
13130TIP3    H139329   5.300   8.494   5.278
13130TIP3    H239330   5.357   8.593   5.180
13131TIP3   OH239331   6.192   8.962   4.544
13131TIP3    H139332   6.188   8.894   4.615
13131TIP3    H239333   6.244   9.030   4.589
13132TIP3   OH239334   5.232   8.889   4.925
13132TIP3    H139335   5.247   8.806   4.944
13132TIP3    H239336   5.319   8.938   4.974
13133TIP3   OH239337   4.951   8.194   4.735
13133TIP3    H139338   4.891   8.270   4.735
13133TIP3    H239339   4.895   8.125   4.698
13134TIP3   OH239340   4.999   8.463   4.903
13134TIP3    H139341   5.045   8.380   4.929
13134TIP3    H239342   5.069   8.509   4.855
13135TIP3   OH239343   5.783   8.886   4.885
13135TIP3    H139344   5.827   8.804   4.854
13135TIP3    H239345   5.862   8.940   4.903
13136TIP3   OH239346   6.783   8.210   4.904
13136TIP3    H139347   6.797   8.293   4.952
13136TIP3    H239348   6.809   8.234   4.813
13137TIP3   OH239349   6.189   8.401   4.935
13137TIP3    H139350   6.228   8.315   4.958
13137TIP3    H239351   6.164   8.386   4.843
13138TIP3   OH239352   5.144   8.246   4.998
13138TIP3    H139353   5.232   8.224   5.034
13138TIP3    H239354   5.138   8.181   4.925
13139TIP3   OH239355   5.591   8.451   4.803
13139TIP3    H139356   5.684   8.421   4.812
13139TIP3    H239357   5.547   8.368   4.770
13140TIP3   OH239358   5.517   8.041   5.329
13140TIP3    H139359   5.454   8.073   5.261
13140TIP3    H239360   5.464   8.056   5.410
13141TIP3   OH239361   5.867   8.851   4.332
13141TIP3    H139362   5.805   8.848   4.258
13141TIP3    H239363   5.875   8.946   4.349
13142TIP3   OH239364   5.620   8.812   5.120
13142TIP3    H139365   5.591   8.871   5.179
13142TIP3    H239366   5.648   8.866   5.042
13143TIP3   OH239367   6.422   8.161   4.682
13143TIP3    H139368   6.396   8.108   4.759
13143TIP3    H239369   6.473   8.233   4.722
13144TIP3   OH239370   5.380   8.154   5.120
13144TIP3    H139371   5.460   8.210   5.114
13144TIP3    H239372   5.389   8.096   5.040
13145TIP3   OH239373   5.338   9.043   5.157
13145TIP3    H139374   5.438   9.036   5.153
13145TIP3    H239375   5.290   9.002   5.196
13146TIP3   OH239376   4.844   8.663   4.468
13146TIP3    H139377   4.811   8.680   4.377
13146TIP3    H239378   4.863   8.754   4.495
13147TIP3   OH239379   6.559   8.102   5.053
13147TIP3    H139380   6.477   8.133   5.011
13147TIP3    H239381   6.629   8.139   4.996
13148TIP3   OH239382   5.877   7.761   5.054
13148TIP3    H139383   5.860   7.665   5.063
13148TIP3    H239384   5.797   7.797   5.098
13149TIP3   OH239385   6.219   8.982   4.263
13149TIP3    H139386   6.179   8.904   4.221
13149TIP3    H239387   6.228   8.955   4.356
13150TIP3   OH239388   5.811   8.512   4.307
13150TIP3    H139389   5.726   8.561   4.302
13150TIP3    H239390   5.832   8.501   4.214
13151TIP3   OH239391   5.769   8.304   4.012
13151TIP3    H139392   5.836   8.347   4.067
13151TIP3    H239393   5.823   8.233   3.973
13152TIP3   OH239394   6.157   8.588   4.289
13152TIP3    H139395   6.093   8.618   4.359
13152TIP3    H239396   6.241   8.591   4.339
13153TIP3   OH239397   5.391   8.598   4.679
13153TIP3    H139398   5.346   8.539   4.614
13153TIP3    H239399   5.464   8.542   4.711
13154TIP3   OH239400   5.519   8.968   4.888
13154TIP3    H139401   5.471   8.965   4.803
13154TIP3    H239402   5.610   8.957   4.862
13155TIP3   OH239403   5.502   8.576   5.044
13155TIP3    H139404   5.540   8.547   4.958
13155TIP3    H239405   5.554   8.657   5.061
13156TIP3   OH239406   5.601   9.057   5.414
13156TIP3    H139407   5.539   9.005   5.509
13156TIP3    H239408   5.495   9.095   5.450
13157TIP3   OH239409   6.015   8.431   4.105
13157TIP3    H139410   6.031   8.522   4.136
13157TIP3    H239411   6.030   8.442   4.008
13158TIP3   OH239412   5.405   8.667   5.489
13158TIP3    H139413   5.349   8.658   5.569
13158TIP3    H239414   5.339   8.664   5.418
13159TIP3   OH239415   6.508   7.701   4.148
13159TIP3    H139416   6.426   7.723   4.197
13159TIP3    H239417   6.523   7.783   4.096
13160TIP3   OH239418   5.255   8.444   4.489
13160TIP3    H139419   5.181   8.480   4.435
13160TIP3    H239420   5.219   8.358   4.517
13161TIP3   OH239421   5.047   8.826   5.403
13161TIP3    H139422   4.980   8.804   5.336
13161TIP3    H239423   5.070   8.737   5.439
13162TIP3   OH239424   5.225   9.025   5.396
13162TIP3    H139425   5.274   8.988   5.468
13162TIP3    H239426   5.151   8.961   5.387
13163TIP3   OH239427   5.634   7.840   5.172
13163TIP3    H139428   5.546   7.810   5.143
13163TIP3    H239429   5.606   7.916   5.227
13164TIP3   OH239430   6.165   7.948   5.374
13164TIP3    H139431   6.226   7.914   5.441
13164TIP3    H239432   6.077   7.929   5.413
13165TIP3   OH239433   6.067   8.484   3.851
13165TIP3    H139434   6.033   8.467   3.760
13165TIP3    H239435   6.122   8.562   3.833
13166TIP3   OH239436   5.797   7.871   4.144
13166TIP3    H139437   5.756   7.872   4.234
13166TIP3    H239438   5.747   7.796   4.106
13167TIP3   OH239439   5.571   8.347   5.184
13167TIP3    H139440   5.516   8.355   5.264
13167TIP3    H239441   5.548   8.429   5.137
13168TIP3   OH239442   5.452   8.232   4.711
13168TIP3    H139443   5.407   8.159   4.759
13168TIP3    H239444   5.455   8.192   4.621
13169TIP3   OH239445   6.115   8.355   4.676
13169TIP3    H139446   6.036   8.390   4.633
13169TIP3    H239447   6.117   8.261   4.650
13170TIP3   OH239448   5.384   8.372   5.392
13170TIP3    H139449   5.424   8.433   5.456
13170TIP3    H239450   5.376   8.290   5.446
13171TIP3   OH239451   5.440   7.861   4.110
13171TIP3    H139452   5.429   7.856   4.207
13171TIP3    H239453   5.359   7.909   4.085
13172TIP3   OH239454   4.999   7.897   4.976
13172TIP3    H139455   5.061   7.935   5.041
13172TIP3    H239456   5.057   7.885   4.900
13173TIP3   OH239457   4.943   7.878   4.498
13173TIP3    H139458   4.996   7.916   4.424
13173TIP3    H239459   4.888   7.955   4.521
13174TIP3   OH239460   6.076   8.589   5.096
13174TIP3    H139461   6.128   8.524   5.042
13174TIP3    H239462   6.053   8.531   5.173
13175TIP3   OH239463   5.781   8.065   4.762
13175TIP3    H139464   5.690   8.056   4.797
13175TIP3    H239465   5.836   8.048   4.840
13176TIP3   OH239466   5.476   8.112   4.464
13176TIP3    H139467   5.567   8.124   4.435
13176TIP3    H239468   5.424   8.128   4.382
13177TIP3   OH239469   6.265   8.134   4.963
13177TIP3    H139470   6.242   8.145   5.059
13177TIP3    H239471   6.199   8.068   4.937
13178TIP3   OH239472   5.322   8.147   4.243
13178TIP3    H139473   5.249   8.099   4.199
13178TIP3    H239474   5.372   8.179   4.165
13179TIP3   OH239475   5.362   8.899   5.800
13179TIP3    H139476   5.351   8.890   5.688
13179TIP3    H239477   5.282   8.963   5.773
13180TIP3   OH239478   5.861   8.384   4.874
13180TIP3    H139479   5.926   8.317   4.847
13180TIP3    H239480   5.848   8.357   4.967
13181TIP3   OH239481   5.834   8.291   5.134
13181TIP3    H139482   5.744   8.317   5.162
13181TIP3    H239483   5.891   8.338   5.199
13182TIP3   OH239484   5.580   8.654   4.264
13182TIP3    H139485   5.501   8.597   4.248
13182TIP3    H239486   5.552   8.702   4.346
13183TIP3   OH239487   6.019   8.024   4.131
13183TIP3    H139488   5.934   7.974   4.134
13183TIP3    H239489   6.009   8.071   4.047
13184TIP3   OH239490   5.251   8.621   4.916
13184TIP3    H139491   5.295   8.628   4.828
13184TIP3    H239492   5.324   8.587   4.970
13185TIP3   OH239493   5.683   8.839   4.091
13185TIP3    H139494   5.645   8.912   4.146
13185TIP3    H239495   5.648   8.762   4.140
13186TIP3   OH239496   5.118   8.611   5.563
13186TIP3    H139497   5.122   8.567   5.651
13186TIP3    H239498   5.058   8.550   5.515
13187TIP3   OH239499   6.537   8.327   4.052
13187TIP3    H139500   6.478   8.281   3.987
13187TIP3    H239501   6.534   8.416   4.010
13188TIP3   OH239502   6.203   8.782   4.769
13188TIP3    H139503   6.122   8.732   4.788
13188TIP3    H239504   6.267   8.709   4.755
13189TIP3   OH239505   4.930   8.302   4.256
13189TIP3    H139506   4.977   8.385   4.276
13189TIP3    H239507   4.853   8.308   4.317
13190TIP3   OH239508   5.505   8.780   4.498
13190TIP3    H139509   5.453   8.854   4.536
13190TIP3    H239510   5.479   8.712   4.563
13191TIP3   OH239511   6.038   8.962   4.963
13191TIP3    H139512   6.017   8.931   5.051
13191TIP3    H239513   6.105   8.897   4.931
13192TIP3   OH239514   6.032   8.800   3.836
13192TIP3    H139515   6.062   8.794   3.929
13192TIP3    H239516   5.952   8.856   3.845
13193TIP3   OH239517   5.357   8.120   5.544
13193TIP3    H139518   5.260   8.122   5.555
13193TIP3    H239519   5.384   8.061   5.616
13194TIP3   OH239520   6.154   8.773   4.085
13194TIP3    H139521   6.159   8.704   4.153
13194TIP3    H239522   6.249   8.784   4.063
13195TIP3   OH239523   5.350   8.802   3.907
13195TIP3    H139524   5.387   8.715   3.883
13195TIP3    H239525   5.374   8.810   4.000
13196TIP3   OH239526   5.049   8.543   4.332
13196TIP3    H139527   4.983   8.579   4.395
13196TIP3    H239528   5.055   8.617   4.269
13197TIP3   OH239529   6.209   8.178   5.226
13197TIP3    H139530   6.252   8.234   5.292
13197TIP3    H239531   6.184   8.099   5.280
13198TIP3   OH239532   6.071   7.989   4.406
13198TIP3    H139533   6.045   8.000   4.312
13198TIP3    H239534   6.167   7.985   4.400
13199TIP3   OH239535   5.760   8.113   4.493
13199TIP3    H139536   5.827   8.181   4.483
13199TIP3    H239537   5.757   8.101   4.591
13200TIP3   OH239538   6.007   8.423   5.305
13200TIP3    H139539   5.987   8.445   5.398
13200TIP3    H239540   6.095   8.383   5.318
13201TIP3   OH239541   5.909   7.849   4.600
13201TIP3    H139542   5.906   7.917   4.669
13201TIP3    H239543   5.962   7.896   4.532
13202TIP3   OH239544   5.416   7.838   4.383
13202TIP3    H139545   5.407   7.918   4.438
13202TIP3    H239546   5.510   7.819   4.397
13203TIP3   OH239547   6.331   8.536   4.676
13203TIP3    H139548   6.257   8.473   4.689
13203TIP3    H239549   6.403   8.491   4.726
13204TIP3   OH239550   5.040   8.759   4.148
13204TIP3    H139551   5.068   8.852   4.138
13204TIP3    H239552   5.096   8.713   4.082
13205TIP3   OH239553   4.986   8.034   4.273
13205TIP3    H139554   4.983   8.131   4.272
13205TIP3    H239555   4.900   8.010   4.237
13206TIP3   OH239556   5.368   7.762   5.157
13206TIP3    H139557   5.350   7.757   5.062
13206TIP3    H239558   5.354   7.671   5.191
13207TIP3   OH239559   5.133   8.847   5.842
13207TIP3    H139560   5.194   8.778   5.793
13207TIP3    H239561   5.085   8.886   5.772
13208TIP3   OH239562   5.169   8.564   4.000
13208TIP3    H139563   5.217   8.526   4.076
13208TIP3    H239564   5.241   8.566   3.933
13209TIP3   OH239565   5.626   8.745   3.813
13209TIP3    H139566   5.655   8.761   3.904
13209TIP3    H239567   5.655   8.653   3.798
13210TIP3   OH239568   5.337   8.643   5.779
13210TIP3    H139569   5.404   8.575   5.775
13210TIP3    H239570   5.306   8.630   5.870
13211TIP3   OH239571   5.375   8.472   4.215
13211TIP3    H139572   5.345   8.433   4.299
13211TIP3    H239573   5.411   8.395   4.168
13212TIP3   OH239574   5.646   8.524   5.437
13212TIP3    H139575   5.575   8.590   5.449
13212TIP3    H239576   5.708   8.571   5.378
13213TIP3   OH239577   5.484   8.269   4.057
13213TIP3    H139578   5.455   8.270   3.963
13213TIP3    H239579   5.580   8.274   4.047
13214TIP3   OH239580   6.302   8.607   3.719
13214TIP3    H139581   6.279   8.555   3.639
13214TIP3    H239582   6.280   8.697   3.686
13215TIP3   OH239583   5.756   8.319   5.576
13215TIP3    H139584   5.764   8.242   5.515
13215TIP3    H239585   5.719   8.387   5.516
13216TIP3   OH239586   5.774   8.117   5.377
13216TIP3    H139587   5.802   8.152   5.290
13216TIP3    H239588   5.680   8.093   5.360
13217TIP3   OH239589   5.798   8.651   5.252
13217TIP3    H139590   5.878   8.646   5.198
13217TIP3    H239591   5.742   8.711   5.200
13218TIP3   OH239592   5.637   8.442   5.793
13218TIP3    H139593   5.569   8.373   5.813
13218TIP3    H239594   5.673   8.407   5.709
13219TIP3   OH239595   5.907   7.877   5.440
13219TIP3    H139596   5.854   7.957   5.421
13219TIP3    H239597   5.839   7.806   5.432
13220TIP3   OH239598   6.027   8.388   5.592
13220TIP3    H139599   6.063   8.394   5.682
13220TIP3    H239600   5.936   8.358   5.608
13221TIP3   OH239601   5.493   8.212   5.845
13221TIP3    H139602   5.493   8.119   5.815
13221TIP3    H239603   5.524   8.202   5.937
13222TIP3   OH239604   6.000   7.886   5.699
13222TIP3    H139605   6.067   7.815   5.697
13222TIP3    H239606   5.961   7.877   5.610
13223TIP3   OH239607   6.035   8.087   5.880
13223TIP3    H139608   6.027   8.013   5.816
13223TIP3    H239609   5.966   8.148   5.850
13224TIP3   OH239610   4.775   8.668   4.187
13224TIP3    H139611   4.859   8.709   4.155
13224TIP3    H239612   4.766   8.592   4.126
13225TIP3   OH239613   6.427   8.777   4.061
13225TIP3    H139614   6.495   8.839   4.028
13225TIP3    H239615   6.475   8.740   4.138
13226TIP3   OH239616   6.558   8.649   4.262
13226TIP3    H139617   6.505   8.609   4.333
13226TIP3    H239618   6.637   8.685   4.309
13227TIP3   OH239619   6.497   8.559   3.904
13227TIP3    H139620   6.428   8.566   3.834
13227TIP3    H239621   6.473   8.637   3.958
13228TIP3   OH239622   6.372   8.236   3.860
13228TIP3    H139623   6.332   8.272   3.780
13228TIP3    H239624   6.349   8.141   3.852
13229TIP3   OH239625   6.377   8.492   4.414
13229TIP3    H139626   6.425   8.408   4.423
13229TIP3    H239627   6.365   8.516   4.509
13230TIP3   OH239628   5.007   8.589   5.153
13230TIP3    H139629   5.003   8.552   5.062
13230TIP3    H239630   5.103   8.593   5.167
13231TIP3   OH239631   6.315   7.971   3.851
13231TIP3    H139632   6.392   7.935   3.899
13231TIP3    H239633   6.244   7.907   3.867
13232TIP3   OH239634   6.362   8.224   4.277
13232TIP3    H139635   6.394   8.140   4.317
13232TIP3    H239636   6.435   8.240   4.215
13233TIP3   OH239637   6.540   8.404   4.795
13233TIP3    H139638   6.626   8.430   4.754
13233TIP3    H239639   6.556   8.441   4.884
13234TIP3   OH239640   5.222   8.264   5.821
13234TIP3    H139641   5.320   8.268   5.831
13234TIP3    H239642   5.204   8.177   5.861
13235TIP3   OH239643   6.473   7.982   4.342
13235TIP3    H139644   6.527   7.970   4.423
13235TIP3    H239645   6.422   7.898   4.342
13236TIP3   OH239646   5.175   7.964   5.186
13236TIP3    H139647   5.236   7.889   5.183
13236TIP3    H239648   5.235   8.035   5.156
13237TIP3   OH239649   4.983   8.242   5.226
13237TIP3    H139650   5.033   8.227   5.143
13237TIP3    H239651   5.026   8.319   5.261
13238TIP3   OH239652   6.564   7.908   3.970
13238TIP3    H139653   6.603   7.837   3.915
13238TIP3    H239654   6.631   7.978   3.965
13239TIP3   OH239655   4.958   7.712   4.712
13239TIP3    H139656   4.875   7.734   4.758
13239TIP3    H239657   4.966   7.785   4.648
13240TIP3   OH239658   5.192   7.823   5.548
13240TIP3    H139659   5.137   7.814   5.628
13240TIP3    H239660   5.127   7.857   5.484
13241TIP3   OH239661   6.820   8.016   5.236
13241TIP3    H139662   6.724   8.010   5.247
13241TIP3    H239663   6.846   7.923   5.233
13242TIP3   OH239664   6.027   7.946   4.879
13242TIP3    H139665   5.988   7.880   4.939
13242TIP3    H239666   6.103   7.898   4.842
13243TIP3   OH239667   6.555   7.826   4.783
13243TIP3    H139668   6.591   7.882   4.711
13243TIP3    H239669   6.461   7.851   4.784
13244TIP3   OH239670   6.649   7.934   4.550
13244TIP3    H139671   6.724   7.882   4.512
13244TIP3    H239672   6.684   8.025   4.538
13245TIP3   OH239673   5.067   7.525   4.544
13245TIP3    H139674   5.096   7.588   4.476
13245TIP3    H239675   5.033   7.586   4.613
13246TIP3   OH239676   5.739   7.678   4.779
13246TIP3    H139677   5.796   7.739   4.728
13246TIP3    H239678   5.718   7.730   4.857
13247TIP3   OH239679   6.270   7.838   4.765
13247TIP3    H139680   6.276   7.792   4.680
13247TIP3    H239681   6.258   7.762   4.826
13248TIP3   OH239682   6.300   7.759   4.330
13248TIP3    H139683   6.205   7.761   4.312
13248TIP3    H239684   6.305   7.677   4.383
13249TIP3   OH239685   5.185   7.689   4.308
13249TIP3    H139686   5.234   7.626   4.253
13249TIP3    H239687   5.257   7.743   4.346
13250TIP3   OH239688   5.698   7.862   4.404
13250TIP3    H139689   5.745   7.813   4.473
13250TIP3    H239690   5.716   7.954   4.433
13251TIP3   OH239691   5.488   7.939   5.797
13251TIP3    H139692   5.455   7.863   5.849
13251TIP3    H239693   5.583   7.937   5.822
13252TIP3   OH239694   5.738   7.944   5.919
13252TIP3    H139695   5.822   7.917   5.878
13252TIP3    H239696   5.726   7.872   5.985
13253TIP3   OH239697   6.740   8.426   4.209
13253TIP3    H139698   6.699   8.512   4.228
13253TIP3    H239699   6.666   8.381   4.164
13254TIP3   OH239700   6.801   8.706   4.367
13254TIP3    H139701   6.851   8.645   4.424
13254TIP3    H239702   6.872   8.756   4.325
13255TIP3   OH239703   7.296   8.312   4.399
13255TIP3    H139704   7.289   8.384   4.335
13255TIP3    H239705   7.255   8.239   4.349
13256TIP3   OH239706   6.956   8.514   4.497
13256TIP3    H139707   7.050   8.517   4.517
13256TIP3    H239708   6.957   8.452   4.420
13257TIP3   OH239709   6.639   8.922   3.969
13257TIP3    H139710   6.619   8.944   3.876
13257TIP3    H239711   6.678   9.005   3.998
13258TIP3   OH239712   7.027   8.677   3.924
13258TIP3    H139713   7.025   8.767   3.959
13258TIP3    H239714   6.982   8.626   3.993
13259TIP3   OH239715   7.228   8.470   4.174
13259TIP3    H139716   7.143   8.444   4.215
13259TIP3    H239717   7.198   8.520   4.098
13260TIP3   OH239718   7.214   8.076   3.596
13260TIP3    H139719   7.207   8.083   3.693
13260TIP3    H239720   7.140   8.133   3.567
13261TIP3   OH239721   6.775   8.158   4.468
13261TIP3    H139722   6.850   8.190   4.522
13261TIP3    H239723   6.817   8.124   4.388
13262TIP3   OH239724   6.742   8.137   3.988
13262TIP3    H139725   6.788   8.171   3.908
13262TIP3    H239726   6.684   8.213   4.008
13263TIP3   OH239727   6.996   8.364   4.271
13263TIP3    H139728   6.903   8.371   4.241
13263TIP3    H239729   7.021   8.273   4.246
13264TIP3   OH239730   7.075   8.377   3.768
13264TIP3    H139731   7.006   8.339   3.710
13264TIP3    H239732   7.080   8.468   3.737
13265TIP3   OH239733   7.176   8.127   4.228
13265TIP3    H139734   7.140   8.052   4.280
13265TIP3    H239735   7.232   8.081   4.164
13266TIP3   OH239736   6.722   8.551   3.748
13266TIP3    H139737   6.756   8.641   3.757
13266TIP3    H239738   6.642   8.556   3.804
13267TIP3   OH239739   7.190   8.094   3.873
13267TIP3    H139740   7.173   8.187   3.894
13267TIP3    H239741   7.283   8.083   3.902
13268TIP3   OH239742   6.769   8.282   3.756
13268TIP3    H139743   6.767   8.380   3.761
13268TIP3    H239744   6.685   8.262   3.712
13269TIP3   OH239745   7.143   8.012   4.642
13269TIP3    H139746   7.136   7.976   4.552
13269TIP3    H239747   7.154   7.932   4.696
13270TIP3   OH239748   6.563   8.920   3.668
13270TIP3    H139749   6.630   8.974   3.624
13270TIP3    H239750   6.553   8.846   3.604
13271TIP3   OH239751   6.979   8.226   4.643
13271TIP3    H139752   7.034   8.145   4.647
13271TIP3    H239753   7.046   8.293   4.654
13272TIP3   OH239754   6.787   8.502   4.719
13272TIP3    H139755   6.838   8.479   4.639
13272TIP3    H239756   6.819   8.592   4.735
13273TIP3   OH239757   6.768   7.996   4.217
13273TIP3    H139758   6.674   7.993   4.243
13273TIP3    H239759   6.765   8.055   4.138
13274TIP3   OH239760   6.996   8.068   5.039
13274TIP3    H139761   6.934   8.068   5.115
13274TIP3    H239762   6.938   8.110   4.973
13275TIP3   OH239763   7.079   7.918   4.382
13275TIP3    H139764   6.987   7.886   4.388
13275TIP3    H239765   7.127   7.832   4.380
13276TIP3   OH239766   6.865   7.786   4.036
13276TIP3    H139767   6.895   7.841   3.961
13276TIP3    H239768   6.840   7.854   4.102
13277TIP3   OH239769   7.514   7.941   4.290
13277TIP3    H139770   7.585   7.995   4.251
13277TIP3    H239771   7.491   7.990   4.369
13278TIP3   OH239772   6.973   7.936   3.798
13278TIP3    H139773   7.022   7.876   3.739
13278TIP3    H239774   7.046   7.993   3.832
13279TIP3   OH239775   7.461   8.108   3.931
13279TIP3    H139776   7.499   8.033   3.882
13279TIP3    H239777   7.496   8.181   3.876
13280TIP3   OH239778   4.610   1.746   7.955
13280TIP3    H139779   4.623   1.840   7.929
13280TIP3    H239780   4.700   1.710   7.937
13281TIP3   OH239781   4.159   1.975   8.032
13281TIP3    H139782   4.210   1.894   8.015
13281TIP3    H239783   4.129   1.963   8.124
13282TIP3   OH239784   4.365   1.237   8.091
13282TIP3    H139785   4.331   1.201   8.007
13282TIP3    H239786   4.460   1.249   8.068
13283TIP3   OH239787   4.525   1.809   8.209
13283TIP3    H139788   4.531   1.718   8.242
13283TIP3    H239789   4.565   1.798   8.120
13284TIP3   OH239790   4.642   2.016   7.935
13284TIP3    H139791   4.686   2.084   7.882
13284TIP3    H239792   4.561   2.067   7.960
13285TIP3   OH239793   3.804   1.708   8.002
13285TIP3    H139794   3.831   1.630   8.054
13285TIP3    H239795   3.885   1.720   7.950
13286TIP3   OH239796   4.284   1.745   7.935
13286TIP3    H139797   4.370   1.745   7.978
13286TIP3    H239798   4.312   1.756   7.841
13287TIP3   OH239799   4.604   1.277   7.969
13287TIP3    H139800   4.596   1.220   7.890
13287TIP3    H239801   4.579   1.363   7.930
13288TIP3   OH239802   4.823   1.312   8.133
13288TIP3    H139803   4.741   1.286   8.087
13288TIP3    H239804   4.808   1.283   8.224
13289TIP3   OH239805   4.567   2.090   8.253
13289TIP3    H139806   4.565   1.994   8.238
13289TIP3    H239807   4.532   2.124   8.168
13290TIP3   OH239808   6.048   1.610   8.228
13290TIP3    H139809   6.025   1.699   8.193
13290TIP3    H239810   5.988   1.556   8.171
13291TIP3   OH239811   6.271   1.874   8.266
13291TIP3    H139812   6.208   1.836   8.329
13291TIP3    H239813   6.292   1.961   8.308
13292TIP3   OH239814   5.950   2.354   8.267
13292TIP3    H139815   6.010   2.282   8.240
13292TIP3    H239816   5.952   2.349   8.364
13293TIP3   OH239817   5.962   1.822   8.078
13293TIP3    H139818   5.921   1.804   7.991
13293TIP3    H239819   5.917   1.906   8.101
13294TIP3   OH239820   4.937   1.634   8.180
13294TIP3    H139821   4.892   1.631   8.093
13294TIP3    H239822   4.958   1.729   8.189
13295TIP3   OH239823   6.347   2.112   8.377
13295TIP3    H139824   6.272   2.129   8.436
13295TIP3    H239825   6.374   2.203   8.356
13296TIP3   OH239826   6.096   2.183   8.117
13296TIP3    H139827   6.145   2.103   8.086
13296TIP3    H239828   6.152   2.253   8.077
13297TIP3   OH239829   6.228   1.970   8.012
13297TIP3    H139830   6.193   1.898   7.958
13297TIP3    H239831   6.242   1.926   8.098
13298TIP3   OH239832   5.905   1.480   8.033
13298TIP3    H139833   5.819   1.523   8.012
13298TIP3    H239834   5.943   1.468   7.944
13299TIP3   OH239835   5.861   1.233   7.762
13299TIP3    H139836   5.931   1.286   7.802
13299TIP3    H239837   5.913   1.173   7.706
13300TIP3   OH239838   6.233   1.555   8.019
13300TIP3    H139839   6.171   1.588   8.086
13300TIP3    H239840   6.290   1.502   8.080
13301TIP3   OH239841   6.130   2.154   8.549
13301TIP3    H139842   6.198   2.214   8.587
13301TIP3    H239843   6.143   2.074   8.602
13302TIP3   OH239844   6.087   1.401   7.835
13302TIP3    H139845   6.145   1.464   7.883
13302TIP3    H239846   6.113   1.420   7.742
13303TIP3   OH239847   5.834   2.069   8.112
13303TIP3    H139848   5.912   2.122   8.138
13303TIP3    H239849   5.776   2.135   8.072
13304TIP3   OH239850   5.364   1.352   8.191
13304TIP3    H139851   5.286   1.400   8.157
13304TIP3    H239852   5.328   1.299   8.263
13305TIP3   OH239853   6.406   1.998   7.443
13305TIP3    H139854   6.414   2.094   7.423
13305TIP3    H239855   6.498   1.968   7.428
13306TIP3   OH239856   5.714   2.313   7.920
13306TIP3    H139857   5.671   2.298   7.834
13306TIP3    H239858   5.684   2.403   7.944
13307TIP3   OH239859   5.138   2.155   8.274
13307TIP3    H139860   5.154   2.100   8.353
13307TIP3    H239861   5.053   2.120   8.244
13308TIP3   OH239862   5.915   2.218   7.559
13308TIP3    H139863   5.974   2.148   7.521
13308TIP3    H239864   5.952   2.227   7.649
13309TIP3   OH239865   5.966   2.266   7.829
13309TIP3    H139866   5.878   2.275   7.872
13309TIP3    H239867   6.019   2.228   7.902
13310TIP3   OH239868   6.163   1.445   7.583
13310TIP3    H139869   6.129   1.411   7.498
13310TIP3    H239870   6.250   1.479   7.554
13311TIP3   OH239871   6.001   1.252   8.148
13311TIP3    H139872   5.965   1.338   8.114
13311TIP3    H239873   6.064   1.228   8.078
13312TIP3   OH239874   5.556   1.047   8.211
13312TIP3    H139875   5.647   1.034   8.179
13312TIP3    H239876   5.505   1.054   8.128
13313TIP3   OH239877   5.407   1.054   7.976
13313TIP3    H139878   5.345   1.031   7.904
13313TIP3    H239879   5.473   1.103   7.923
13314TIP3   OH239880   5.662   1.603   7.976
13314TIP3    H139881   5.593   1.535   7.962
13314TIP3    H239882   5.636   1.638   8.065
13315TIP3   OH239883   6.107   0.958   7.790
13315TIP3    H139884   6.048   0.906   7.848
13315TIP3    H239885   6.128   1.033   7.850
13316TIP3   OH239886   6.169   1.168   7.952
13316TIP3    H139887   6.261   1.178   7.983
13316TIP3    H239888   6.157   1.249   7.898
13317TIP3   OH239889   5.822   1.754   7.816
13317TIP3    H139890   5.772   1.839   7.819
13317TIP3    H239891   5.762   1.698   7.870
13318TIP3   OH239892   6.349   2.069   7.706
13318TIP3    H139893   6.310   1.998   7.759
13318TIP3    H239894   6.359   2.030   7.618
13319TIP3   OH239895   5.440   1.938   8.270
13319TIP3    H139896   5.499   2.010   8.241
13319TIP3    H239897   5.358   1.969   8.230
13320TIP3   OH239898   5.038   1.237   7.986
13320TIP3    H139899   5.095   1.313   8.009
13320TIP3    H239900   4.960   1.259   8.041
13321TIP3   OH239901   5.591   1.710   8.212
13321TIP3    H139902   5.550   1.794   8.239
13321TIP3    H239903   5.638   1.684   8.294
13322TIP3   OH239904   5.381   2.184   8.132
13322TIP3    H139905   5.292   2.193   8.172
13322TIP3    H239906   5.416   2.275   8.141
13323TIP3   OH239907   6.095   1.804   7.601
13323TIP3    H139908   6.147   1.779   7.680
13323TIP3    H239909   6.007   1.773   7.627
13324TIP3   OH239910   6.437   2.272   7.424
13324TIP3    H139911   6.472   2.339   7.363
13324TIP3    H239912   6.358   2.320   7.457
13325TIP3   OH239913   6.246   1.746   7.821
13325TIP3    H139914   6.238   1.677   7.891
13325TIP3    H239915   6.342   1.740   7.803
13326TIP3   OH239916   5.462   1.780   7.606
13326TIP3    H139917   5.478   1.689   7.578
13326TIP3    H239918   5.442   1.768   7.701
13327TIP3   OH239919   5.403   1.785   7.881
13327TIP3    H139920   5.479   1.755   7.933
13327TIP3    H239921   5.412   1.883   7.886
13328TIP3   OH239922   5.145   1.481   8.084
13328TIP3    H139923   5.070   1.522   8.132
13328TIP3    H239924   5.161   1.550   8.016
13329TIP3   OH239925   5.674   1.980   7.824
13329TIP3    H139926   5.588   2.008   7.859
13329TIP3    H239927   5.693   2.053   7.763
13330TIP3   OH239928   5.835   1.030   8.167
13330TIP3    H139929   5.885   1.112   8.147
13330TIP3    H239930   5.858   1.020   8.261
13331TIP3   OH239931   5.420   2.058   7.892
13331TIP3    H139932   5.391   2.127   7.828
13331TIP3    H239933   5.407   2.106   7.977
13332TIP3   OH239934   5.134   1.687   7.882
13332TIP3    H139935   5.207   1.751   7.892
13332TIP3    H239936   5.178   1.626   7.818
13333TIP3   OH239937   5.057   0.945   7.950
13333TIP3    H139938   5.066   1.039   7.976
13333TIP3    H239939   5.023   0.907   8.032
13334TIP3   OH239940   6.421   2.381   8.325
13334TIP3    H139941   6.359   2.436   8.273
13334TIP3    H239942   6.493   2.445   8.335
13335TIP3   OH239943   5.000   1.885   8.251
13335TIP3    H139944   4.968   1.933   8.330
13335TIP3    H239945   4.965   1.941   8.178
13336TIP3   OH239946   5.627   1.983   7.516
13336TIP3    H139947   5.573   1.910   7.554
13336TIP3    H239948   5.703   1.933   7.480
13337TIP3   OH239949   6.062   2.025   7.427
13337TIP3    H139950   6.105   1.959   7.484
13337TIP3    H239951   6.116   2.023   7.346
13338TIP3   OH239952   5.272   1.499   7.741
13338TIP3    H139953   5.330   1.466   7.813
13338TIP3    H239954   5.338   1.504   7.669
13339TIP3   OH239955   5.783   1.701   7.547
13339TIP3    H139956   5.786   1.712   7.644
13339TIP3    H239957   5.787   1.602   7.540
13340TIP3   OH239958   5.472   1.409   7.946
13340TIP3    H139959   5.448   1.380   8.037
13340TIP3    H239960   5.511   1.328   7.908
13341TIP3   OH239961   5.580   1.195   7.808
13341TIP3    H139962   5.554   1.200   7.714
13341TIP3    H239963   5.677   1.198   7.799
13342TIP3   OH239964   6.393   1.525   7.459
13342TIP3    H139965   6.374   1.481   7.373
13342TIP3    H239966   6.362   1.616   7.437
13343TIP3   OH239967   5.389   2.259   7.705
13343TIP3    H139968   5.485   2.253   7.687
13343TIP3    H239969   5.362   2.311   7.627
13344TIP3   OH239970   4.863   1.643   7.909
13344TIP3    H139971   4.958   1.665   7.898
13344TIP3    H239972   4.861   1.552   7.871
13345TIP3   OH239973   4.795   2.243   8.324
13345TIP3    H139974   4.714   2.204   8.285
13345TIP3    H239975   4.821   2.172   8.384
13346TIP3   OH239976   6.640   2.554   8.312
13346TIP3    H139977   6.651   2.623   8.382
13346TIP3    H239978   6.631   2.613   8.236
13347TIP3   OH239979   6.514   1.722   7.789
13347TIP3    H139980   6.575   1.787   7.750
13347TIP3    H239981   6.574   1.651   7.816
13348TIP3   OH239982   6.589   1.510   7.638
13348TIP3    H139983   6.526   1.481   7.569
13348TIP3    H239984   6.541   1.589   7.666
13349TIP3   OH239985   6.402   1.163   7.600
13349TIP3    H139986   6.445   1.224   7.541
13349TIP3    H239987   6.432   1.077   7.568
13350TIP3   OH239988   6.230   2.372   7.979
13350TIP3    H139989   6.281   2.361   7.896
13350TIP3    H239990   6.281   2.441   8.025
13351TIP3   OH239991   5.886   2.472   8.512
13351TIP3    H139992   5.797   2.486   8.477
13351TIP3    H239993   5.880   2.511   8.600
13352TIP3   OH239994   6.105   2.455   8.674
13352TIP3    H139995   6.060   2.454   8.588
13352TIP3    H239996   6.191   2.490   8.643
13353TIP3   OH239997   6.264   2.603   8.508
13353TIP3    H139998   6.279   2.698   8.497
13353TIP3    H239999   6.351   2.566   8.491
13354TIP3   OH240000   4.884   2.048   8.074
13354TIP3    H140001   4.802   2.012   8.035
13354TIP3    H240002   4.876   2.140   8.041
13355TIP3   OH240003   5.657   2.218   7.654
13355TIP3    H140004   5.745   2.241   7.617
13355TIP3    H240005   5.635   2.144   7.593
13356TIP3   OH240006   6.374   2.338   7.747
13356TIP3    H140007   6.369   2.240   7.735
13356TIP3    H240008   6.331   2.369   7.665
13357TIP3   OH240009   4.959   2.052   7.709
13357TIP3    H140010   4.970   2.085   7.799
13357TIP3    H240011   5.047   2.010   7.691
13358TIP3   OH240012   6.719   1.883   7.719
13358TIP3    H140013   6.703   1.899   7.624
13358TIP3    H240014   6.741   1.973   7.750
13359TIP3   OH240015   7.493   2.593   7.396
13359TIP3    H140016   7.453   2.557   7.315
13359TIP3    H240017   7.445   2.676   7.409
13360TIP3   OH240018   6.895   2.440   7.765
13360TIP3    H140019   6.975   2.406   7.811
13360TIP3    H240020   6.837   2.364   7.772
13361TIP3   OH240021   7.701   2.457   7.013
13361TIP3    H140022   7.763   2.389   6.987
13361TIP3    H240023   7.749   2.492   7.091
13362TIP3   OH240024   6.805   1.489   7.478
13362TIP3    H140025   6.841   1.580   7.489
13362TIP3    H240026   6.733   1.492   7.544
13363TIP3   OH240027   7.190   2.439   7.610
13363TIP3    H140028   7.123   2.413   7.676
13363TIP3    H240029   7.194   2.537   7.623
13364TIP3   OH240030   7.294   2.020   7.077
13364TIP3    H140031   7.264   1.932   7.050
13364TIP3    H240032   7.257   2.025   7.168
13365TIP3   OH240033   7.199   2.053   7.331
13365TIP3    H140034   7.216   2.021   7.421
13365TIP3    H240035   7.207   2.150   7.346
13366TIP3   OH240036   6.894   1.741   7.539
13366TIP3    H140037   6.872   1.789   7.620
13366TIP3    H240038   6.931   1.811   7.483
13367TIP3   OH240039   7.476   2.241   7.300
13367TIP3    H140040   7.394   2.266   7.346
13367TIP3    H240041   7.484   2.314   7.238
13368TIP3   OH240042   7.221   2.319   7.370
13368TIP3    H140043   7.185   2.390   7.312
13368TIP3    H240044   7.207   2.359   7.459
13369TIP3   OH240045   6.929   1.964   7.366
13369TIP3    H140046   6.996   2.035   7.364
13369TIP3    H240047   6.970   1.903   7.302
13370TIP3   OH240048   6.875   1.222   7.441
13370TIP3    H140049   6.855   1.312   7.475
13370TIP3    H240050   6.861   1.167   7.520
13371TIP3   OH240051   6.775   2.139   7.777
13371TIP3    H140052   6.700   2.196   7.751
13371TIP3    H240053   6.838   2.165   7.708
13372TIP3   OH240054   7.416   2.250   6.998
13372TIP3    H140055   7.370   2.169   7.031
13372TIP3    H240056   7.490   2.212   6.947
13373TIP3   OH240057   7.059   1.764   7.232
13373TIP3    H140058   7.108   1.725   7.306
13373TIP3    H240059   7.129   1.766   7.163
13374TIP3   OH240060   7.589   1.952   7.035
13374TIP3    H140061   7.526   1.990   7.099
13374TIP3    H240062   7.550   1.864   7.024
13375TIP3   OH240063   7.177   2.526   7.194
13375TIP3    H140064   7.272   2.520   7.172
13375TIP3    H240065   7.145   2.572   7.114
13376TIP3   OH240066   6.664   1.900   7.413
13376TIP3    H140067   6.756   1.927   7.394
13376TIP3    H240068   6.661   1.812   7.369
13377TIP3   OH240069   6.570   2.519   7.820
13377TIP3    H140070   6.510   2.452   7.781
13377TIP3    H240071   6.621   2.463   7.883
13378TIP3   OH240072   6.707   2.374   8.005
13378TIP3    H140073   6.717   2.288   8.048
13378TIP3    H240074   6.780   2.424   8.042
13379TIP3   OH240075   6.671   2.297   7.574
13379TIP3    H140076   6.591   2.263   7.531
13379TIP3    H240077   6.670   2.388   7.539
13380TIP3   OH240078   7.443   2.482   7.135
13380TIP3    H140079   7.528   2.503   7.092
13380TIP3    H240080   7.416   2.406   7.077
13381TIP3   OH240081   6.757   2.314   7.196
13381TIP3    H140082   6.761   2.337   7.290
13381TIP3    H240083   6.844   2.271   7.181
13382TIP3   OH240084   2.451   3.285   8.013
13382TIP3    H140085   2.435   3.378   8.034
13382TIP3    H240086   2.545   3.273   8.039
13383TIP3   OH240087   2.472   3.600   8.094
13383TIP3    H140088   2.487   3.665   8.022
13383TIP3    H240089   2.402   3.646   8.143
13384TIP3   OH240090   3.922   3.158   8.370
13384TIP3    H140091   3.891   3.249   8.353
13384TIP3    H240092   3.855   3.111   8.315
13385TIP3   OH240093   4.144   3.492   8.389
13385TIP3    H140094   4.152   3.407   8.437
13385TIP3    H240095   4.161   3.559   8.457
13386TIP3   OH240096   3.784   3.918   8.430
13386TIP3    H140097   3.836   3.855   8.377
13386TIP3    H240098   3.807   3.889   8.519
13387TIP3   OH240099   3.800   3.374   8.233
13387TIP3    H140100   3.764   3.360   8.145
13387TIP3    H240101   3.769   3.465   8.252
13388TIP3   OH240102   3.933   3.762   8.268
13388TIP3    H140103   3.973   3.675   8.247
13388TIP3    H240104   3.996   3.821   8.219
13389TIP3   OH240105   4.051   3.545   8.143
13389TIP3    H140106   4.026   3.458   8.110
13389TIP3    H240107   4.093   3.520   8.229
13390TIP3   OH240108   3.756   3.018   8.204
13390TIP3    H140109   3.671   3.062   8.183
13390TIP3    H240110   3.792   3.004   8.115
13391TIP3   OH240111   3.704   2.793   7.906
13391TIP3    H140112   3.771   2.846   7.953
13391TIP3    H240113   3.763   2.731   7.858
13392TIP3   OH240114   4.078   3.101   8.148
13392TIP3    H140115   4.034   3.110   8.234
13392TIP3    H240116   4.165   3.063   8.175
13393TIP3   OH240117   3.924   2.946   7.987
13393TIP3    H140118   3.981   3.008   8.038
13393TIP3    H240119   3.953   2.968   7.895
13394TIP3   OH240120   3.689   3.634   8.259
13394TIP3    H140121   3.756   3.705   8.254
13394TIP3    H240122   3.610   3.677   8.223
13395TIP3   OH240123   4.448   2.187   8.026
13395TIP3    H140124   4.361   2.204   8.067
13395TIP3    H240125   4.463   2.272   7.979
13396TIP3   OH240126   4.247   3.556   7.586
13396TIP3    H140127   4.257   3.652   7.572
13396TIP3    H240128   4.340   3.526   7.574
13397TIP3   OH240129   3.562   3.877   8.066
13397TIP3    H140130   3.507   3.854   7.989
13397TIP3    H240131   3.526   3.963   8.093
13398TIP3   OH240132   3.759   3.777   7.707
13398TIP3    H140133   3.818   3.706   7.673
13398TIP3    H240134   3.790   3.786   7.799
13399TIP3   OH240135   3.810   3.822   7.974
13399TIP3    H140136   3.721   3.835   8.015
13399TIP3    H240137   3.856   3.774   8.044
13400TIP3   OH240138   4.007   2.992   7.734
13400TIP3    H140139   3.974   2.969   7.645
13400TIP3    H240140   4.090   3.038   7.712
13401TIP3   OH240141   3.726   2.371   8.038
13401TIP3    H140142   3.677   2.391   8.118
13401TIP3    H240143   3.681   2.289   8.007
13402TIP3   OH240144   3.964   2.842   8.301
13402TIP3    H140145   3.876   2.878   8.278
13402TIP3    H240146   3.975   2.776   8.231
13403TIP3   OH240147   3.410   2.379   8.003
13403TIP3    H140148   3.387   2.335   8.086
13403TIP3    H240149   3.324   2.416   7.976
13404TIP3   OH240150   3.245   2.612   8.112
13404TIP3    H140151   3.190   2.617   8.032
13404TIP3    H240152   3.328   2.649   8.076
13405TIP3   OH240153   3.520   3.156   8.142
13405TIP3    H140154   3.447   3.105   8.101
13405TIP3    H240155   3.477   3.193   8.221
13406TIP3   OH240156   3.976   2.466   7.995
13406TIP3    H140157   3.879   2.453   8.008
13406TIP3    H240158   3.989   2.561   8.017
13407TIP3   OH240159   4.055   2.711   8.078
13407TIP3    H140160   4.150   2.715   8.100
13407TIP3    H240161   4.038   2.798   8.038
13408TIP3   OH240162   3.663   3.312   7.965
13408TIP3    H140163   3.614   3.398   7.968
13408TIP3    H240164   3.608   3.257   8.024
13409TIP3   OH240165   4.478   2.804   7.944
13409TIP3    H140166   4.416   2.769   7.875
13409TIP3    H240167   4.484   2.896   7.913
13410TIP3   OH240168   4.187   3.631   7.854
13410TIP3    H140169   4.154   3.568   7.919
13410TIP3    H240170   4.195   3.578   7.773
13411TIP3   OH240171   3.207   3.742   8.247
13411TIP3    H140172   3.152   3.733   8.326
13411TIP3    H240173   3.247   3.830   8.259
13412TIP3   OH240174   3.939   3.362   7.751
13412TIP3    H140175   3.993   3.338   7.830
13412TIP3    H240176   3.851   3.331   7.780
13413TIP3   OH240177   4.278   3.838   7.572
13413TIP3    H140178   4.308   3.913   7.518
13413TIP3    H240179   4.196   3.877   7.610
13414TIP3   OH240180   4.101   3.301   7.964
13414TIP3    H140181   4.087   3.232   8.032
13414TIP3    H240182   4.199   3.293   7.953
13415TIP3   OH240183   3.309   3.336   7.754
13415TIP3    H140184   3.318   3.243   7.726
13415TIP3    H240185   3.290   3.325   7.850
13416TIP3   OH240186   3.255   3.340   8.025
13416TIP3    H140187   3.292   3.328   8.113
13416TIP3    H240188   3.252   3.438   8.020
13417TIP3   OH240189   4.061   2.444   8.261
13417TIP3    H140190   4.028   2.451   8.169
13417TIP3    H240191   3.995   2.500   8.306
13418TIP3   OH240192   3.523   3.543   7.974
13418TIP3    H140193   3.431   3.558   8.005
13418TIP3    H240194   3.532   3.618   7.913
13419TIP3   OH240195   3.260   3.608   8.020
13419TIP3    H140196   3.230   3.679   7.959
13419TIP3    H240197   3.237   3.650   8.106
13420TIP3   OH240198   2.977   3.259   8.032
13420TIP3    H140199   3.050   3.322   8.042
13420TIP3    H240200   3.022   3.191   7.979
13421TIP3   OH240201   4.231   3.997   8.530
13421TIP3    H140202   4.198   4.043   8.450
13421TIP3    H240203   4.328   4.004   8.513
13422TIP3   OH240204   3.468   3.541   7.665
13422TIP3    H140205   3.410   3.471   7.704
13422TIP3    H240206   3.542   3.486   7.634
13423TIP3   OH240207   3.906   3.581   7.580
13423TIP3    H140208   3.942   3.512   7.640
13423TIP3    H240209   3.963   3.573   7.501
13424TIP3   OH240210   3.118   3.062   7.887
13424TIP3    H140211   3.181   3.035   7.957
13424TIP3    H240212   3.181   3.069   7.813
13425TIP3   OH240213   3.630   3.258   7.695
13425TIP3    H140214   3.629   3.270   7.792
13425TIP3    H240215   3.625   3.160   7.689
13426TIP3   OH240216   3.328   2.979   8.047
13426TIP3    H140217   3.298   2.958   8.138
13426TIP3    H240218   3.363   2.893   8.017
13427TIP3   OH240219   3.431   2.737   7.947
13427TIP3    H140220   3.405   2.749   7.853
13427TIP3    H240221   3.528   2.745   7.940
13428TIP3   OH240222   4.241   3.086   7.616
13428TIP3    H140223   4.222   3.041   7.531
13428TIP3    H240224   4.208   3.176   7.593
13429TIP3   OH240225   3.231   3.824   7.853
13429TIP3    H140226   3.326   3.819   7.832
13429TIP3    H240227   3.199   3.873   7.775
13430TIP3   OH240228   2.713   3.204   8.056
13430TIP3    H140229   2.810   3.219   8.047
13430TIP3    H240230   2.706   3.111   8.026
13431TIP3   OH240231   4.499   4.070   8.488
13431TIP3    H140232   4.526   4.134   8.556
13431TIP3    H240233   4.558   4.093   8.414
13432TIP3   OH240234   4.378   3.278   7.942
13432TIP3    H140235   4.446   3.340   7.911
13432TIP3    H240236   4.424   3.240   8.020
13433TIP3   OH240237   4.515   3.150   8.137
13433TIP3    H140238   4.447   3.101   8.187
13433TIP3    H240239   4.579   3.179   8.206
13434TIP3   OH240240   4.548   3.538   8.556
13434TIP3    H140241   4.620   3.473   8.546
13434TIP3    H240242   4.578   3.608   8.496
13435TIP3   OH240243   4.445   3.049   7.797
13435TIP3    H140244   4.372   3.052   7.730
13435TIP3    H240245   4.418   3.124   7.853
13436TIP3   OH240246   4.313   2.721   7.745
13436TIP3    H140247   4.268   2.759   7.669
13436TIP3    H240248   4.290   2.626   7.737
13437TIP3   OH240249   4.310   2.982   8.225
13437TIP3    H140250   4.315   2.886   8.204
13437TIP3    H240251   4.327   2.982   8.322
13438TIP3   OH240252   4.259   2.455   7.730
13438TIP3    H140253   4.333   2.426   7.787
13438TIP3    H240254   4.185   2.397   7.757
13439TIP3   OH240255   4.324   2.713   8.158
13439TIP3    H140256   4.360   2.631   8.196
13439TIP3    H240257   4.392   2.733   8.090
13440TIP3   OH240258   4.426   2.452   8.216
13440TIP3    H140259   4.449   2.428   8.307
13440TIP3    H240260   4.357   2.386   8.195
13441TIP3   OH240261   4.503   2.400   7.858
13441TIP3    H140262   4.548   2.331   7.806
13441TIP3    H240263   4.568   2.472   7.860
13442TIP3   OH240264   4.079   3.934   8.124
13442TIP3    H140265   4.132   3.923   8.042
13442TIP3    H240266   4.128   4.002   8.172
13443TIP3   OH240267   4.232   2.246   8.183
13443TIP3    H140268   4.158   2.309   8.196
13443TIP3    H240269   4.196   2.167   8.225
13444TIP3   OH240270   2.754   3.602   8.199
13444TIP3    H140271   2.681   3.620   8.137
13444TIP3    H240272   2.734   3.674   8.265
13445TIP3   OH240273   3.499   3.776   7.802
13445TIP3    H140274   3.586   3.799   7.765
13445TIP3    H240275   3.475   3.701   7.742
13446TIP3   OH240276   4.223   3.897   7.891
13446TIP3    H140277   4.212   3.799   7.884
13446TIP3    H240278   4.168   3.927   7.816
13447TIP3   OH240279   2.800   3.615   7.861
13447TIP3    H140280   2.795   3.645   7.952
13447TIP3    H240281   2.889   3.573   7.856
13448TIP3   OH240282   5.711   3.414   7.847
13448TIP3    H140283   5.681   3.505   7.827
13448TIP3    H240284   5.634   3.363   7.818
13449TIP3   OH240285   5.707   3.412   8.233
13449TIP3    H140286   5.742   3.387   8.321
13449TIP3    H240287   5.667   3.328   8.204
13450TIP3   OH240288   5.025   3.354   8.586
13450TIP3    H140289   5.040   3.280   8.648
13450TIP3    H240290   5.109   3.355   8.537
13451TIP3   OH240291   5.954   3.716   7.914
13451TIP3    H140292   5.937   3.648   7.980
13451TIP3    H240293   5.982   3.791   7.969
13452TIP3   OH240294   4.975   3.722   8.321
13452TIP3    H140295   4.966   3.624   8.315
13452TIP3    H240296   5.072   3.730   8.317
13453TIP3   OH240297   4.698   2.936   8.085
13453TIP3    H140298   4.642   3.015   8.098
13453TIP3    H240299   4.636   2.864   8.104
13454TIP3   OH240300   4.745   3.205   8.277
13454TIP3    H140301   4.792   3.129   8.319
13454TIP3    H240302   4.810   3.234   8.212
13455TIP3   OH240303   5.601   4.177   7.929
13455TIP3    H140304   5.646   4.105   7.881
13455TIP3    H240305   5.595   4.141   8.018
13456TIP3   OH240306   5.507   3.638   8.281
13456TIP3    H140307   5.547   3.560   8.237
13456TIP3    H240308   5.591   3.684   8.305
13457TIP3   OH240309   6.496   2.994   8.289
13457TIP3    H140310   6.537   3.073   8.332
13457TIP3    H240311   6.485   3.028   8.198
13458TIP3   OH240312   5.920   3.139   8.310
13458TIP3    H140313   5.963   3.052   8.326
13458TIP3    H240314   5.889   3.127   8.218
13459TIP3   OH240315   5.262   2.790   8.279
13459TIP3    H140316   5.241   2.870   8.227
13459TIP3    H240317   5.211   2.724   8.227
13460TIP3   OH240318   5.954   2.890   7.897
13460TIP3    H140319   6.026   2.873   7.962
13460TIP3    H240320   6.007   2.925   7.823
13461TIP3   OH240321   4.893   3.006   8.381
13461TIP3    H140322   4.952   2.965   8.448
13461TIP3    H240323   4.914   2.949   8.304
13462TIP3   OH240324   5.327   3.202   8.183
13462TIP3    H140325   5.422   3.181   8.188
13462TIP3    H240326   5.290   3.116   8.154
13463TIP3   OH240327   6.590   3.193   8.455
13463TIP3    H140328   6.506   3.241   8.440
13463TIP3    H240329   6.573   3.156   8.543
13464TIP3   OH240330   5.599   3.634   7.718
13464TIP3    H140331   5.558   3.617   7.633
13464TIP3    H240332   5.555   3.718   7.745
13465TIP3   OH240333   5.367   3.573   8.508
13465TIP3    H140334   5.301   3.640   8.537
13465TIP3    H240335   5.411   3.617   8.433
13466TIP3   OH240336   6.161   2.892   8.074
13466TIP3    H140337   6.133   2.856   8.160
13466TIP3    H240338   6.210   2.972   8.101
13467TIP3   OH240339   5.112   2.884   8.500
13467TIP3    H140340   5.177   2.958   8.500
13467TIP3    H240341   5.148   2.831   8.427
13468TIP3   OH240342   5.175   3.747   8.607
13468TIP3    H140343   5.148   3.834   8.569
13468TIP3    H240344   5.114   3.739   8.683
13469TIP3   OH240345   4.582   3.444   7.837
13469TIP3    H140346   4.542   3.475   7.754
13469TIP3    H240347   4.616   3.527   7.877
13470TIP3   OH240348   6.023   3.959   8.078
13470TIP3    H140349   5.933   3.950   8.118
13470TIP3    H240350   6.014   4.046   8.034
13471TIP3   OH240351   6.296   2.881   8.450
13471TIP3    H140352   6.206   2.884   8.413
13471TIP3    H240353   6.350   2.915   8.376
13472TIP3   OH240354   5.612   2.494   8.402
13472TIP3    H140355   5.622   2.402   8.431
13472TIP3    H240356   5.587   2.536   8.487
13473TIP3   OH240357   5.722   4.003   7.751
13473TIP3    H140358   5.772   3.921   7.732
13473TIP3    H240359   5.784   4.069   7.712
13474TIP3   OH240360   5.867   3.789   7.662
13474TIP3    H140361   5.829   3.708   7.624
13474TIP3    H240362   5.905   3.755   7.746
13475TIP3   OH240363   6.242   3.871   8.422
13475TIP3    H140364   6.233   3.792   8.364
13475TIP3    H240365   6.225   3.944   8.359
13476TIP3   OH240366   5.539   3.264   7.681
13476TIP3    H140367   5.460   3.317   7.660
13476TIP3    H240368   5.586   3.262   7.596
13477TIP3   OH240369   5.498   3.051   7.394
13477TIP3    H140370   5.565   3.102   7.444
13477TIP3    H240371   5.557   2.988   7.347
13478TIP3   OH240372   6.446   3.511   8.266
13478TIP3    H140373   6.362   3.561   8.274
13478TIP3    H240374   6.472   3.535   8.174
13479TIP3   OH240375   5.888   3.347   7.650
13479TIP3    H140376   5.833   3.371   7.729
13479TIP3    H240377   5.972   3.323   7.694
13480TIP3   OH240378   6.121   3.378   8.568
13480TIP3    H140379   6.124   3.459   8.623
13480TIP3    H240380   6.035   3.389   8.524
13481TIP3   OH240381   5.122   3.344   8.065
13481TIP3    H140382   5.082   3.284   7.999
13481TIP3    H240383   5.197   3.290   8.099
13482TIP3   OH240384   5.249   3.755   8.218
13482TIP3    H140385   5.229   3.715   8.132
13482TIP3    H240386   5.339   3.722   8.235
13483TIP3   OH240387   5.246   3.342   8.419
13483TIP3    H140388   5.279   3.312   8.332
13483TIP3    H240389   5.298   3.425   8.434
13484TIP3   OH240390   5.782   3.954   8.199
13484TIP3    H140391   5.767   4.034   8.252
13484TIP3    H240392   5.765   3.881   8.262
13485TIP3   OH240393   5.390   3.902   8.696
13485TIP3    H140394   5.355   3.956   8.768
13485TIP3    H240395   5.316   3.841   8.676
13486TIP3   OH240396   5.726   3.206   7.478
13486TIP3    H140397   5.786   3.266   7.529
13486TIP3    H240398   5.753   3.228   7.385
13487TIP3   OH240399   5.472   3.884   7.753
13487TIP3    H140400   5.554   3.935   7.766
13487TIP3    H240401   5.412   3.949   7.714
13488TIP3   OH240402   6.244   2.445   7.528
13488TIP3    H140403   6.163   2.468   7.577
13488TIP3    H240404   6.259   2.527   7.476
13489TIP3   OH240405   4.989   3.186   7.870
13489TIP3    H140406   4.918   3.227   7.816
13489TIP3    H240407   4.949   3.102   7.893
13490TIP3   OH240408   6.043   3.812   7.076
13490TIP3    H140409   6.052   3.909   7.061
13490TIP3    H240410   6.136   3.783   7.063
13491TIP3   OH240411   4.626   3.772   8.399
13491TIP3    H140412   4.721   3.756   8.392
13491TIP3    H240413   4.624   3.848   8.460
13492TIP3   OH240414   6.492   4.219   8.470
13492TIP3    H140415   6.491   4.122   8.483
13492TIP3    H240416   6.404   4.241   8.509
13493TIP3   OH240417   5.616   3.983   8.586
13493TIP3    H140418   5.617   4.077   8.617
13493TIP3    H240419   5.530   3.954   8.625
13494TIP3   OH240420   5.352   4.129   7.557
13494TIP3    H140421   5.308   4.114   7.472
13494TIP3    H240422   5.321   4.218   7.582
13495TIP3   OH240423   4.788   3.977   7.943
13495TIP3    H140424   4.840   3.971   8.026
13495TIP3    H240425   4.742   3.891   7.945
13496TIP3   OH240426   5.552   4.031   7.196
13496TIP3    H140427   5.612   3.962   7.160
13496TIP3    H240428   5.588   4.042   7.286
13497TIP3   OH240429   5.604   4.080   7.465
13497TIP3    H140430   5.516   4.089   7.509
13497TIP3    H240431   5.657   4.043   7.538
13498TIP3   OH240432   6.388   3.350   8.716
13498TIP3    H140433   6.295   3.370   8.699
13498TIP3    H240434   6.390   3.253   8.713
13499TIP3   OH240435   6.144   3.131   8.695
13499TIP3    H140436   6.114   3.158   8.782
13499TIP3    H240437   6.123   3.209   8.640
13500TIP3   OH240438   5.803   3.252   7.223
13500TIP3    H140439   5.770   3.226   7.135
13500TIP3    H240440   5.887   3.295   7.199
13501TIP3   OH240441   5.514   2.627   7.525
13501TIP3    H140442   5.481   2.623   7.617
13501TIP3    H240443   5.477   2.543   7.491
13502TIP3   OH240444   5.282   3.089   8.511
13502TIP3    H140445   5.338   3.089   8.590
13502TIP3    H240446   5.280   3.183   8.484
13503TIP3   OH240447   5.190   2.978   8.091
13503TIP3    H140448   5.098   2.952   8.111
13503TIP3    H240449   5.201   2.936   8.002
13504TIP3   OH240450   5.677   3.064   7.815
13504TIP3    H140451   5.626   3.136   7.772
13504TIP3    H240452   5.733   3.032   7.741
13505TIP3   OH240453   5.839   3.093   8.051
13505TIP3    H140454   5.772   3.121   7.985
13505TIP3    H240455   5.871   3.012   8.006
13506TIP3   OH240456   5.170   2.599   7.491
13506TIP3    H140457   5.162   2.599   7.588
13506TIP3    H240458   5.094   2.655   7.467
13507TIP3   OH240459   4.671   2.687   8.249
13507TIP3    H140460   4.722   2.705   8.331
13507TIP3    H240461   4.724   2.616   8.210
13508TIP3   OH240462   4.685   2.625   7.881
13508TIP3    H140463   4.730   2.665   7.804
13508TIP3    H240464   4.627   2.699   7.907
13509TIP3   OH240465   5.844   3.340   8.472
13509TIP3    H140466   5.877   3.266   8.416
13509TIP3    H240467   5.820   3.291   8.554
13510TIP3   OH240468   5.517   2.798   8.145
13510TIP3    H140469   5.433   2.795   8.195
13510TIP3    H240470   5.583   2.805   8.215
13511TIP3   OH240471   4.952   2.861   8.156
13511TIP3    H140472   4.859   2.873   8.124
13511TIP3    H240473   4.972   2.768   8.133
13512TIP3   OH240474   5.215   2.852   7.846
13512TIP3    H140475   5.309   2.869   7.825
13512TIP3    H240476   5.168   2.875   7.762
13513TIP3   OH240477   6.011   2.876   8.334
13513TIP3    H140478   5.993   2.882   8.431
13513TIP3    H240479   5.939   2.816   8.307
13514TIP3   OH240480   5.062   2.887   7.621
13514TIP3    H140481   4.990   2.843   7.572
13514TIP3    H240482   5.114   2.925   7.547
13515TIP3   OH240483   6.197   4.559   8.557
13515TIP3    H140484   6.189   4.583   8.463
13515TIP3    H240485   6.223   4.643   8.596
13516TIP3   OH240486   5.593   3.143   8.229
13516TIP3    H140487   5.671   3.092   8.200
13516TIP3    H240488   5.588   3.120   8.324
13517TIP3   OH240489   5.119   2.623   8.116
13517TIP3    H140490   5.078   2.546   8.161
13517TIP3    H240491   5.168   2.580   8.045
13518TIP3   OH240492   5.581   3.073   8.492
13518TIP3    H140493   5.501   3.028   8.522
13518TIP3    H240494   5.646   3.043   8.557
13519TIP3   OH240495   5.309   3.417   7.628
13519TIP3    H140496   5.237   3.351   7.618
13519TIP3    H240497   5.291   3.451   7.719
13520TIP3   OH240498   6.211   3.651   8.257
13520TIP3    H140499   6.233   3.703   8.177
13520TIP3    H240500   6.125   3.610   8.232
13521TIP3   OH240501   5.768   2.726   7.497
13521TIP3    H140502   5.671   2.711   7.503
13521TIP3    H240503   5.777   2.822   7.519
13522TIP3   OH240504   5.716   3.729   8.618
13522TIP3    H140505   5.710   3.702   8.710
13522TIP3    H240506   5.678   3.819   8.619
13523TIP3   OH240507   5.837   2.978   7.597
13523TIP3    H140508   5.933   2.983   7.612
13523TIP3    H240509   5.819   3.058   7.544
13524TIP3   OH240510   4.996   3.450   8.287
13524TIP3    H140511   5.040   3.415   8.207
13524TIP3    H240512   5.032   3.393   8.357
13525TIP3   OH240513   5.455   3.566   7.451
13525TIP3    H140514   5.406   3.652   7.456
13525TIP3    H240515   5.401   3.511   7.512
13526TIP3   OH240516   5.879   3.995   8.519
13526TIP3    H140517   5.782   3.984   8.527
13526TIP3    H240518   5.896   4.055   8.594
13527TIP3   OH240519   6.278   3.070   7.432
13527TIP3    H140520   6.216   3.025   7.370
13527TIP3    H240521   6.276   3.159   7.391
13528TIP3   OH240522   6.489   3.938   8.507
13528TIP3    H140523   6.393   3.921   8.491
13528TIP3    H240524   6.526   3.900   8.424
13529TIP3   OH240525   5.981   3.887   7.341
13529TIP3    H140526   5.954   3.817   7.402
13529TIP3    H240527   5.993   3.839   7.257
13530TIP3   OH240528   5.975   3.516   8.175
13530TIP3    H140529   5.881   3.491   8.189
13530TIP3    H240530   6.008   3.436   8.130
13531TIP3   OH240531   5.105   3.743   7.930
13531TIP3    H140532   5.103   3.825   7.876
13531TIP3    H240533   5.011   3.728   7.945
13532TIP3   OH240534   4.667   3.047   7.635
13532TIP3    H140535   4.714   3.130   7.658
13532TIP3    H240536   4.592   3.050   7.698
13533TIP3   OH240537   5.240   3.508   7.871
13533TIP3    H140538   5.205   3.597   7.892
13533TIP3    H240539   5.205   3.456   7.947
13534TIP3   OH240540   5.370   4.088   8.394
13534TIP3    H140541   5.412   4.164   8.348
13534TIP3    H240542   5.445   4.055   8.446
13535TIP3   OH240543   5.020   3.985   7.781
13535TIP3    H140544   4.936   3.994   7.830
13535TIP3    H240545   5.055   4.077   7.786
13536TIP3   OH240546   5.761   3.720   8.353
13536TIP3    H140547   5.752   3.718   8.452
13536TIP3    H240548   5.840   3.665   8.341
13537TIP3   OH240549   5.737   3.616   7.242
13537TIP3    H140550   5.791   3.590   7.320
13537TIP3    H240551   5.649   3.587   7.272
13538TIP3   OH240552   6.004   4.253   8.408
13538TIP3    H140553   5.924   4.199   8.394
13538TIP3    H240554   5.994   4.319   8.336
13539TIP3   OH240555   6.075   4.088   7.060
13539TIP3    H140556   6.111   4.161   7.008
13539TIP3    H240557   5.995   4.132   7.095
13540TIP3   OH240558   5.897   3.548   7.457
13540TIP3    H140559   5.887   3.482   7.528
13540TIP3    H240560   5.994   3.545   7.445
13541TIP3   OH240561   4.815   3.955   8.537
13541TIP3    H140562   4.872   3.880   8.556
13541TIP3    H240563   4.816   4.002   8.622
13542TIP3   OH240564   5.099   3.594   7.242
13542TIP3    H140565   5.115   3.502   7.215
13542TIP3    H240566   5.080   3.583   7.337
13543TIP3   OH240567   5.043   3.600   7.516
13543TIP3    H140568   5.119   3.571   7.569
13543TIP3    H240569   5.050   3.698   7.523
13544TIP3   OH240570   4.780   3.291   7.717
13544TIP3    H140571   4.714   3.335   7.774
13544TIP3    H240572   4.796   3.361   7.651
13545TIP3   OH240573   5.964   2.910   8.596
13545TIP3    H140574   6.020   2.959   8.659
13545TIP3    H240575   5.878   2.903   8.641
13546TIP3   OH240576   5.812   2.678   7.777
13546TIP3    H140577   5.799   2.700   7.683
13546TIP3    H240578   5.852   2.760   7.812
13547TIP3   OH240579   5.311   3.795   7.461
13547TIP3    H140580   5.225   3.822   7.498
13547TIP3    H240581   5.330   3.870   7.403
13548TIP3   OH240582   5.498   2.861   7.876
13548TIP3    H140583   5.563   2.933   7.858
13548TIP3    H240584   5.505   2.853   7.973
13549TIP3   OH240585   5.791   3.207   8.706
13549TIP3    H140586   5.811   3.261   8.786
13549TIP3    H240587   5.822   3.120   8.732
13550TIP3   OH240588   5.641   2.583   7.976
13550TIP3    H140589   5.631   2.661   8.034
13550TIP3    H240590   5.705   2.619   7.910
13551TIP3   OH240591   5.055   3.872   7.531
13551TIP3    H140592   5.028   3.944   7.469
13551TIP3    H240593   5.041   3.916   7.618
13552TIP3   OH240594   5.157   2.586   7.768
13552TIP3    H140595   5.154   2.676   7.806
13552TIP3    H240596   5.253   2.569   7.775
13553TIP3   OH240597   6.406   3.068   8.641
13553TIP3    H140598   6.311   3.080   8.664
13553TIP3    H240599   6.395   3.003   8.569
13554TIP3   OH240600   6.060   3.274   8.052
13554TIP3    H140601   5.983   3.215   8.062
13554TIP3    H240602   6.130   3.226   8.100
13555TIP3   OH240603   4.776   3.502   7.520
13555TIP3    H140604   4.850   3.564   7.532
13555TIP3    H240605   4.818   3.442   7.454
13556TIP3   OH240606   4.717   2.777   7.655
13556TIP3    H140607   4.721   2.874   7.654
13556TIP3    H240608   4.631   2.760   7.615
13557TIP3   OH240609   6.031   4.230   8.000
13557TIP3    H140610   5.988   4.276   7.925
13557TIP3    H240611   6.125   4.248   7.979
13558TIP3   OH240612   4.645   3.719   7.906
13558TIP3    H140613   4.575   3.746   7.967
13558TIP3    H240614   4.613   3.757   7.821
13559TIP3   OH240615   5.263   3.797   7.152
13559TIP3    H140616   5.208   3.725   7.191
13559TIP3    H240617   5.340   3.746   7.120
13560TIP3   OH240618   5.940   4.112   8.767
13560TIP3    H140619   5.979   4.028   8.791
13560TIP3    H240620   6.015   4.173   8.769
13561TIP3   OH240621   5.699   3.837   7.065
13561TIP3    H140622   5.742   3.773   7.125
13561TIP3    H240623   5.757   3.835   6.987
13562TIP3   OH240624   4.909   3.313   7.377
13562TIP3    H140625   4.966   3.281   7.450
13562TIP3    H240626   4.976   3.318   7.305
13563TIP3   OH240627   5.420   3.513   7.182
13563TIP3    H140628   5.424   3.525   7.279
13563TIP3    H240629   5.422   3.415   7.177
13564TIP3   OH240630   6.035   3.763   8.572
13564TIP3    H140631   6.110   3.801   8.522
13564TIP3    H240632   5.964   3.825   8.547
13565TIP3   OH240633   5.113   3.220   7.595
13565TIP3    H140634   5.089   3.181   7.680
13565TIP3    H240635   5.152   3.144   7.547
13566TIP3   OH240636   5.219   3.014   7.437
13566TIP3    H140637   5.195   3.020   7.342
13566TIP3    H240638   5.317   3.017   7.430
13567TIP3   OH240639   6.038   3.343   7.103
13567TIP3    H140640   6.019   3.297   7.018
13567TIP3    H240641   6.005   3.433   7.080
13568TIP3   OH240642   5.536   3.411   8.658
13568TIP3    H140643   5.616   3.380   8.613
13568TIP3    H240644   5.498   3.473   8.593
13569TIP3   OH240645   6.165   3.591   8.741
13569TIP3    H140646   6.105   3.653   8.693
13569TIP3    H240647   6.252   3.627   8.712
13570TIP3   OH240648   5.026   4.071   7.341
13570TIP3    H140649   5.122   4.065   7.324
13570TIP3    H240650   5.000   4.126   7.264
13571TIP3   OH240651   4.506   3.460   7.554
13571TIP3    H140652   4.602   3.480   7.542
13571TIP3    H240653   4.500   3.369   7.517
13572TIP3   OH240654   4.427   4.064   7.968
13572TIP3    H140655   4.354   4.005   7.938
13572TIP3    H240656   4.467   4.009   8.039
13573TIP3   OH240657   4.553   3.917   8.161
13573TIP3    H140658   4.548   3.846   8.227
13573TIP3    H240659   4.611   3.979   8.209
13574TIP3   OH240660   6.286   4.315   7.959
13574TIP3    H140661   6.307   4.348   8.048
13574TIP3    H240662   6.344   4.369   7.903
13575TIP3   OH240663   6.310   4.339   8.237
13575TIP3    H140664   6.267   4.250   8.236
13575TIP3    H240665   6.384   4.321   8.297
13576TIP3   OH240666   6.175   3.530   7.434
13576TIP3    H140667   6.243   3.594   7.404
13576TIP3    H240668   6.220   3.491   7.513
13577TIP3   OH240669   6.303   3.397   7.638
13577TIP3    H140670   6.236   3.355   7.696
13577TIP3    H240671   6.367   3.434   7.701
13578TIP3   OH240672   6.361   3.792   8.071
13578TIP3    H140673   6.411   3.725   8.021
13578TIP3    H240674   6.354   3.865   8.007
13579TIP3   OH240675   6.186   4.091   8.263
13579TIP3    H140676   6.115   4.132   8.315
13579TIP3    H240677   6.136   4.045   8.192
13580TIP3   OH240678   6.241   3.306   7.284
13580TIP3    H140679   6.169   3.307   7.216
13580TIP3    H240680   6.212   3.382   7.339
13581TIP3   OH240681   6.110   2.981   7.239
13581TIP3    H140682   6.070   3.012   7.157
13581TIP3    H240683   6.087   2.886   7.235
13582TIP3   OH240684   6.116   3.255   7.783
13582TIP3    H140685   6.123   3.158   7.775
13582TIP3    H240686   6.101   3.267   7.879
13583TIP3   OH240687   4.755   3.372   8.503
13583TIP3    H140688   4.749   3.315   8.424
13583TIP3    H240689   4.849   3.361   8.529
13584TIP3   OH240690   6.403   3.690   8.644
13584TIP3    H140691   6.475   3.626   8.633
13584TIP3    H240692   6.441   3.770   8.603
13585TIP3   OH240693   6.603   3.496   8.640
13585TIP3    H140694   6.526   3.439   8.664
13585TIP3    H240695   6.653   3.495   8.723
13586TIP3   OH240696   6.052   2.717   7.232
13586TIP3    H140697   6.129   2.680   7.279
13586TIP3    H240698   5.983   2.651   7.245
13587TIP3   OH240699   6.114   2.972   7.677
13587TIP3    H140700   6.154   2.883   7.692
13587TIP3    H240701   6.171   3.003   7.605
13588TIP3   OH240702   6.272   3.145   8.169
13588TIP3    H140703   6.356   3.177   8.127
13588TIP3    H240704   6.285   3.182   8.259
13589TIP3   OH240705   6.337   3.292   8.398
13589TIP3    H140706   6.263   3.324   8.453
13589TIP3    H240707   6.371   3.375   8.359
13590TIP3   OH240708   6.221   2.721   7.717
13590TIP3    H140709   6.268   2.705   7.801
13590TIP3    H240710   6.160   2.644   7.714
13591TIP3   OH240711   6.302   2.652   7.351
13591TIP3    H140712   6.338   2.581   7.293
13591TIP3    H240713   6.369   2.722   7.342
13592TIP3   OH240714   4.698   2.458   8.091
13592TIP3    H140715   4.606   2.471   8.121
13592TIP3    H240716   4.704   2.526   8.019
13593TIP3   OH240717   5.866   4.187   7.615
13593TIP3    H140718   5.919   4.176   7.534
13593TIP3    H240719   5.917   4.253   7.664
13594TIP3   OH240720   5.141   4.011   8.538
13594TIP3    H140721   5.097   4.092   8.507
13594TIP3    H240722   5.231   4.030   8.503
13595TIP3   OH240723   5.616   4.238   8.656
13595TIP3    H140724   5.609   4.280   8.745
13595TIP3    H240725   5.669   4.305   8.611
13596TIP3   OH240726   5.775   4.426   8.535
13596TIP3    H140727   5.851   4.377   8.502
13596TIP3    H240728   5.811   4.472   8.612
13597TIP3   OH240729   4.823   4.297   8.564
13597TIP3    H140730   4.738   4.338   8.536
13597TIP3    H240731   4.817   4.301   8.659
13598TIP3   OH240732   5.060   4.255   8.429
13598TIP3    H140733   4.975   4.274   8.474
13598TIP3    H240734   5.043   4.290   8.340
13599TIP3   OH240735   5.486   4.288   8.226
13599TIP3    H140736   5.415   4.308   8.163
13599TIP3    H240737   5.498   4.375   8.270
13600TIP3   OH240738   5.754   4.224   8.278
13600TIP3    H140739   5.660   4.243   8.261
13600TIP3    H240740   5.797   4.302   8.240
13601TIP3   OH240741   5.960   4.417   8.194
13601TIP3    H140742   5.946   4.501   8.147
13601TIP3    H240743   5.986   4.357   8.121
13602TIP3   OH240744   4.732   4.075   8.308
13602TIP3    H140745   4.763   4.050   8.398
13602TIP3    H240746   4.806   4.033   8.257
13603TIP3   OH240747   4.930   3.946   8.172
13603TIP3    H140748   4.943   3.864   8.224
13603TIP3    H240749   5.021   3.982   8.172
13604TIP3   OH240750   5.194   4.038   8.180
13604TIP3    H140751   5.226   3.947   8.171
13604TIP3    H240752   5.240   4.063   8.262
13605TIP3   OH240753   5.777   2.696   8.264
13605TIP3    H140754   5.728   2.620   8.300
13605TIP3    H240755   5.852   2.653   8.219
13606TIP3   OH240756   6.294   2.573   8.169
13606TIP3    H140757   6.324   2.629   8.093
13606TIP3    H240758   6.199   2.596   8.173
13607TIP3   OH240759   6.384   2.679   7.935
13607TIP3    H140760   6.455   2.626   7.893
13607TIP3    H240761   6.418   2.770   7.918
13608TIP3   OH240762   5.016   2.403   8.233
13608TIP3    H140763   4.927   2.380   8.264
13608TIP3    H240764   5.063   2.320   8.250
13609TIP3   OH240765   4.805   2.268   7.923
13609TIP3    H140766   4.837   2.328   7.854
13609TIP3    H240767   4.773   2.331   7.991
13610TIP3   OH240768   5.466   2.441   8.166
13610TIP3    H140769   5.516   2.488   8.097
13610TIP3    H240770   5.512   2.471   8.247
13611TIP3   OH240771   6.006   2.584   8.143
13611TIP3    H140772   6.010   2.547   8.054
13611TIP3    H240773   5.990   2.502   8.196
13612TIP3   OH240774   6.038   2.508   7.708
13612TIP3    H140775   5.952   2.551   7.722
13612TIP3    H240776   6.023   2.423   7.753
13613TIP3   OH240777   4.527   3.844   7.696
13613TIP3    H140778   4.440   3.814   7.663
13613TIP3    H240779   4.505   3.931   7.730
13614TIP3   OH240780   4.924   2.431   7.692
13614TIP3    H140781   4.973   2.371   7.633
13614TIP3    H240782   4.996   2.487   7.728
13615TIP3   OH240783   5.434   2.610   7.790
13615TIP3    H140784   5.497   2.565   7.849
13615TIP3    H240785   5.453   2.704   7.815
13616TIP3   OH240786   5.294   4.032   7.291
13616TIP3    H140787   5.382   4.055   7.255
13616TIP3    H240788   5.272   3.957   7.231
13617TIP3   OH240789   6.015   4.154   7.384
13617TIP3    H140790   6.006   4.056   7.373
13617TIP3    H240791   5.968   4.185   7.304
13618TIP3   OH240792   4.604   3.870   7.391
13618TIP3    H140793   4.619   3.850   7.484
13618TIP3    H240794   4.684   3.831   7.349
13619TIP3   OH240795   6.242   4.288   8.557
13619TIP3    H140796   6.159   4.266   8.511
13619TIP3    H240797   6.229   4.384   8.573
13620TIP3   OH240798   7.515   3.677   7.313
13620TIP3    H140799   7.480   3.767   7.317
13620TIP3    H240800   7.433   3.625   7.314
13621TIP3   OH240801   6.801   3.569   8.077
13621TIP3    H140802   6.832   3.500   8.139
13621TIP3    H240803   6.884   3.614   8.057
13622TIP3   OH240804   7.743   3.981   7.390
13622TIP3    H140805   7.708   3.917   7.453
13622TIP3    H240806   7.785   4.046   7.449
13623TIP3   OH240807   6.778   3.974   7.806
13623TIP3    H140808   6.768   3.877   7.807
13623TIP3    H240809   6.875   3.982   7.801
13624TIP3   OH240810   6.482   3.177   7.591
13624TIP3    H140811   6.432   3.259   7.607
13624TIP3    H240812   6.413   3.123   7.549
13625TIP3   OH240813   6.540   3.465   7.766
13625TIP3    H140814   6.590   3.387   7.799
13625TIP3    H240815   6.599   3.498   7.697
13626TIP3   OH240816   7.400   4.434   7.413
13626TIP3    H140817   7.446   4.360   7.368
13626TIP3    H240818   7.390   4.398   7.503
13627TIP3   OH240819   7.302   3.900   7.760
13627TIP3    H140820   7.341   3.813   7.734
13627TIP3    H240821   7.387   3.943   7.780
13628TIP3   OH240822   7.043   3.057   7.752
13628TIP3    H140823   7.028   3.132   7.691
13628TIP3    H240824   6.999   2.985   7.703
13629TIP3   OH240825   7.721   3.179   7.358
13629TIP3    H140826   7.785   3.120   7.405
13629TIP3    H240827   7.777   3.215   7.287
13630TIP3   OH240828   6.688   3.259   7.870
13630TIP3    H140829   6.777   3.251   7.909
13630TIP3    H240830   6.700   3.203   7.789
13631TIP3   OH240831   7.128   3.451   7.670
13631TIP3    H140832   7.222   3.424   7.679
13631TIP3    H240833   7.087   3.370   7.633
13632TIP3   OH240834   7.053   3.061   8.192
13632TIP3    H140835   6.990   3.094   8.122
13632TIP3    H240836   7.001   3.069   8.273
13633TIP3   OH240837   7.413   3.914   7.188
13633TIP3    H140838   7.355   3.873   7.122
13633TIP3    H240839   7.355   3.988   7.218
13634TIP3   OH240840   7.143   3.823   7.977
13634TIP3    H140841   7.088   3.895   8.016
13634TIP3    H240842   7.197   3.872   7.911
13635TIP3   OH240843   6.931   3.176   7.971
13635TIP3    H140844   6.998   3.241   8.001
13635TIP3    H240845   6.982   3.129   7.901
13636TIP3   OH240846   6.985   4.018   8.097
13636TIP3    H140847   6.960   4.106   8.060
13636TIP3    H240848   6.905   3.999   8.149
13637TIP3   OH240849   6.378   3.700   7.326
13637TIP3    H140850   6.337   3.727   7.242
13637TIP3    H240851   6.409   3.785   7.361
13638TIP3   OH240852   7.819   4.223   7.554
13638TIP3    H140853   7.736   4.202   7.604
13638TIP3    H240854   7.794   4.311   7.522
13639TIP3   OH240855   7.523   4.257   7.235
13639TIP3    H140856   7.579   4.178   7.230
13639TIP3    H240857   7.584   4.325   7.196
13640TIP3   OH240858   7.667   3.995   7.127
13640TIP3    H140859   7.575   3.970   7.151
13640TIP3    H240860   7.709   3.990   7.216
13641TIP3   OH240861   7.329   3.525   7.157
13641TIP3    H140862   7.248   3.577   7.143
13641TIP3    H240863   7.366   3.518   7.068
13642TIP3   OH240864   7.294   3.303   6.883
13642TIP3    H140865   7.364   3.354   6.929
13642TIP3    H240866   7.350   3.240   6.833
13643TIP3   OH240867   7.691   3.595   7.130
13643TIP3    H140868   7.627   3.624   7.201
13643TIP3    H240869   7.764   3.564   7.189
13644TIP3   OH240870   6.919   3.601   7.555
13644TIP3    H140871   6.877   3.542   7.489
13644TIP3    H240872   6.995   3.547   7.587
13645TIP3   OH240873   7.049   4.016   7.703
13645TIP3    H140874   7.027   3.973   7.619
13645TIP3    H240875   7.138   3.979   7.720
13646TIP3   OH240876   7.042   3.577   7.907
13646TIP3    H140877   7.081   3.545   7.823
13646TIP3    H240878   7.085   3.664   7.918
13647TIP3   OH240879   7.580   4.228   7.676
13647TIP3    H140880   7.567   4.302   7.738
13647TIP3    H240881   7.564   4.149   7.732
13648TIP3   OH240882   7.190   4.146   8.237
13648TIP3    H140883   7.119   4.200   8.277
13648TIP3    H240884   7.135   4.081   8.187
13649TIP3   OH240885   7.520   3.459   6.961
13649TIP3    H140886   7.575   3.519   7.016
13649TIP3    H240887   7.547   3.485   6.870
13650TIP3   OH240888   6.924   3.697   8.334
13650TIP3    H140889   6.920   3.783   8.379
13650TIP3    H240890   6.831   3.667   8.343
13651TIP3   OH240891   7.268   4.138   7.240
13651TIP3    H140892   7.343   4.198   7.257
13651TIP3    H240893   7.203   4.196   7.199
13652TIP3   OH240894   6.981   4.296   8.324
13652TIP3    H140895   6.943   4.302   8.235
13652TIP3    H240896   6.902   4.277   8.379
13653TIP3   OH240897   7.969   2.694   6.969
13653TIP3    H140898   7.912   2.722   7.044
13653TIP3    H240899   7.985   2.779   6.923
13654TIP3   OH240900   6.782   3.445   7.360
13654TIP3    H140901   6.714   3.489   7.305
13654TIP3    H240902   6.745   3.357   7.371
13655TIP3   OH240903   7.840   4.070   6.565
13655TIP3    H140904   7.848   4.166   6.547
13655TIP3    H240905   7.932   4.039   6.549
13656TIP3   OH240906   6.563   3.829   8.268
13656TIP3    H140907   6.494   3.810   8.201
13656TIP3    H240908   6.598   3.741   8.289
13657TIP3   OH240909   6.416   4.022   7.900
13657TIP3    H140910   6.513   4.020   7.894
13657TIP3    H240911   6.401   4.102   7.952
13658TIP3   OH240912   7.370   4.276   8.086
13658TIP3    H140913   7.402   4.333   8.156
13658TIP3    H240914   7.303   4.223   8.135
13659TIP3   OH240915   7.153   4.389   7.041
13659TIP3    H140916   7.102   4.368   6.961
13659TIP3    H240917   7.116   4.475   7.069
13660TIP3   OH240918   6.587   4.235   7.428
13660TIP3    H140919   6.633   4.226   7.514
13660TIP3    H240920   6.533   4.155   7.428
13661TIP3   OH240921   7.351   4.291   6.682
13661TIP3    H140922   7.409   4.220   6.646
13661TIP3    H240923   7.384   4.298   6.774
13662TIP3   OH240924   7.403   4.337   6.953
13662TIP3    H140925   7.312   4.349   6.989
13662TIP3    H240926   7.447   4.296   7.029
13663TIP3   OH240927   6.763   4.013   8.258
13663TIP3    H140928   6.804   3.995   8.344
13663TIP3    H240929   6.688   3.949   8.258
13664TIP3   OH240930   0.676   6.200   1.436
13664TIP3    H140931   0.603   6.146   1.456
13664TIP3    H240932   0.661   6.274   1.495
13665TIP3   OH240933   7.610   3.522   6.718
13665TIP3    H140934   7.563   3.489   6.639
13665TIP3    H240935   7.692   3.555   6.676
13666TIP3   OH240936   7.311   2.882   7.011
13666TIP3    H140937   7.273   2.878   7.101
13666TIP3    H240938   7.271   2.800   6.974
13667TIP3   OH240939   7.105   3.360   8.067
13667TIP3    H140940   7.047   3.381   8.142
13667TIP3    H240941   7.097   3.440   8.012
13668TIP3   OH240942   6.977   3.242   7.567
13668TIP3    H140943   6.885   3.213   7.587
13668TIP3    H240944   6.990   3.199   7.479
13669TIP3   OH240945   7.455   3.323   7.291
13669TIP3    H140946   7.409   3.396   7.243
13669TIP3    H240947   7.519   3.292   7.225
13670TIP3   OH240948   7.601   3.362   7.528
13670TIP3    H140949   7.534   3.392   7.463
13670TIP3    H240950   7.638   3.287   7.479
13671TIP3   OH240951   6.908   3.394   8.260
13671TIP3    H140952   6.941   3.458   8.326
13671TIP3    H240953   6.870   3.325   8.317
13672TIP3   OH240954   6.970   2.858   6.978
13672TIP3    H140955   6.957   2.855   7.075
13672TIP3    H240956   6.890   2.907   6.951
13673TIP3   OH240957   6.508   2.902   7.849
13673TIP3    H140958   6.593   2.923   7.894
13673TIP3    H240959   6.536   2.867   7.763
13674TIP3   OH240960   6.481   2.881   7.370
13674TIP3    H140961   6.526   2.918   7.291
13674TIP3    H240962   6.419   2.954   7.388
13675TIP3   OH240963   7.304   3.049   7.643
13675TIP3    H140964   7.223   3.035   7.696
13675TIP3    H240965   7.350   3.112   7.699
13676TIP3   OH240966   6.742   3.112   7.644
13676TIP3    H140967   6.648   3.121   7.615
13676TIP3    H240968   6.766   3.023   7.612
13677TIP3   OH240969   7.011   3.111   7.330
13677TIP3    H140970   7.104   3.125   7.305
13677TIP3    H240971   6.962   3.131   7.247
13678TIP3   OH240972   6.857   3.146   7.110
13678TIP3    H140973   6.786   3.099   7.064
13678TIP3    H240974   6.908   3.180   7.034
13679TIP3   OH240975   6.902   3.924   8.491
13679TIP3    H140976   6.978   3.971   8.526
13679TIP3    H240977   6.858   3.891   8.571
13680TIP3   OH240978   7.393   3.349   7.720
13680TIP3    H140979   7.465   3.360   7.654
13680TIP3    H240980   7.425   3.413   7.786
13681TIP3   OH240981   6.914   2.875   7.597
13681TIP3    H140982   6.872   2.806   7.654
13681TIP3    H240983   6.952   2.822   7.527
13682TIP3   OH240984   7.102   3.677   7.115
13682TIP3    H140985   7.032   3.609   7.105
13682TIP3    H240986   7.083   3.709   7.207
13683TIP3   OH240987   7.563   2.978   6.990
13683TIP3    H140988   7.466   2.959   6.991
13683TIP3    H240989   7.567   3.074   7.003
13684TIP3   OH240990   7.450   3.985   8.068
13684TIP3    H140991   7.456   3.931   8.149
13684TIP3    H240992   7.439   4.075   8.102
13685TIP3   OH240993   7.631   3.235   7.076
13685TIP3    H140994   7.727   3.241   7.074
13685TIP3    H240995   7.603   3.312   7.022
13686TIP3   OH240996   6.798   3.696   7.788
13686TIP3    H140997   6.837   3.669   7.702
13686TIP3    H240998   6.847   3.640   7.849
13687TIP3   OH240999   7.254   3.823   6.943
13687TIP3    H141000   7.206   3.910   6.946
13687TIP3    H241001   7.195   3.769   7.000
13688TIP3   OH241002   6.671   3.605   8.397
13688TIP3    H141003   6.660   3.576   8.490
13688TIP3    H241004   6.602   3.551   8.355
13689TIP3   OH241005   7.651   4.293   8.028
13689TIP3    H141006   7.560   4.280   7.996
13689TIP3    H241007   7.636   4.332   8.116
13690TIP3   OH241008   8.077   3.329   6.916
13690TIP3    H141009   8.006   3.291   6.860
13690TIP3    H241010   8.132   3.368   6.846
13691TIP3   OH241011   7.783   4.149   6.829
13691TIP3    H141012   7.737   4.085   6.884
13691TIP3    H241013   7.791   4.103   6.743
13692TIP3   OH241014   6.899   4.001   7.416
13692TIP3    H141015   6.895   4.083   7.363
13692TIP3    H241016   6.806   3.982   7.430
13693TIP3   OH241017   6.464   3.304   7.122
13693TIP3    H141018   6.509   3.389   7.144
13693TIP3    H241019   6.387   3.308   7.183
13694TIP3   OH241020   7.037   3.767   7.360
13694TIP3    H141021   7.001   3.855   7.381
13694TIP3    H241022   7.004   3.714   7.436
13695TIP3   OH241023   7.169   4.345   7.885
13695TIP3    H141024   7.213   4.411   7.827
13695TIP3    H241025   7.246   4.306   7.931
13696TIP3   OH241026   6.819   4.239   7.269
13696TIP3    H141027   6.733   4.247   7.316
13696TIP3    H241028   6.850   4.332   7.272
13697TIP3   OH241029   7.563   4.006   7.826
13697TIP3    H141030   7.529   3.984   7.915
13697TIP3    H241031   7.640   3.946   7.820
13698TIP3   OH241032   7.533   3.872   6.727
13698TIP3    H141033   7.580   3.823   6.796
13698TIP3    H241034   7.440   3.848   6.746
13699TIP3   OH241035   7.870   4.345   6.547
13699TIP3    H141036   7.905   4.416   6.490
13699TIP3    H241037   7.791   4.389   6.582
13700TIP3   OH241038   7.736   3.789   6.947
13700TIP3    H141039   7.689   3.736   7.014
13700TIP3    H241040   7.731   3.877   6.991
13701TIP3   OH241041   6.608   4.206   8.043
13701TIP3    H141042   6.661   4.135   8.082
13701TIP3    H241043   6.627   4.280   8.100
13702TIP3   OH241044   6.900   3.850   6.728
13702TIP3    H141045   6.909   3.757   6.700
13702TIP3    H241046   6.878   3.839   6.823
13703TIP3   OH241047   6.842   3.857   6.999
13703TIP3    H141048   6.912   3.828   7.059
13703TIP3    H241049   6.846   3.955   7.008
13704TIP3   OH241050   6.577   3.550   7.204
13704TIP3    H141051   6.510   3.594   7.261
13704TIP3    H241052   6.589   3.618   7.136
13705TIP3   OH241053   7.607   2.945   7.261
13705TIP3    H141054   7.593   2.950   7.164
13705TIP3    H241055   7.629   3.038   7.283
13706TIP3   OH241056   7.112   4.054   6.949
13706TIP3    H141057   7.024   4.077   6.986
13706TIP3    H241058   7.122   4.125   6.885
13707TIP3   OH241059   7.296   3.116   7.369
13707TIP3    H141060   7.354   3.193   7.345
13707TIP3    H241061   7.293   3.124   7.466
13708TIP3   OH241062   7.435   2.865   7.463
13708TIP3    H141063   7.401   2.950   7.498
13708TIP3    H241064   7.499   2.896   7.395
13709TIP3   OH241065   6.857   4.129   7.018
13709TIP3    H141066   6.825   4.198   6.955
13709TIP3    H241067   6.838   4.171   7.104
13710TIP3   OH241068   6.950   2.843   7.255
13710TIP3    H141069   6.948   2.932   7.293
13710TIP3    H241070   7.047   2.825   7.260
13711TIP3   OH241071   7.860   3.503   7.512
13711TIP3    H141072   7.767   3.480   7.532
13711TIP3    H241073   7.889   3.533   7.600
13712TIP3   OH241074   6.570   3.756   7.008
13712TIP3    H141075   6.638   3.825   7.017
13712TIP3    H241076   6.615   3.699   6.942
13713TIP3   OH241077   6.515   3.034   7.146
13713TIP3    H141078   6.510   3.132   7.140
13713TIP3    H241079   6.441   3.007   7.090
13714TIP3   OH241080   7.819   4.501   7.493
13714TIP3    H141081   7.784   4.550   7.415
13714TIP3    H241082   7.909   4.481   7.466
13715TIP3   OH241083   7.086   2.581   7.925
13715TIP3    H141084   7.041   2.647   7.880
13715TIP3    H241085   7.114   2.622   8.004
13716TIP3   OH241086   6.439   3.972   7.393
13716TIP3    H141087   6.374   4.002   7.458
13716TIP3    H241088   6.406   4.015   7.311
13717TIP3   OH241089   6.605   4.504   8.439
13717TIP3    H141090   6.656   4.502   8.521
13717TIP3    H241091   6.560   4.418   8.442
13718TIP3   OH241092   7.061   4.054   6.640
13718TIP3    H141093   7.005   3.982   6.677
13718TIP3    H241094   7.135   4.002   6.604
13719TIP3   OH241095   7.497   4.096   6.553
13719TIP3    H141096   7.539   4.029   6.610
13719TIP3    H241097   7.551   4.092   6.471
13720TIP3   OH241098   6.706   3.571   6.862
13720TIP3    H141099   6.761   3.537   6.934
13720TIP3    H241100   6.774   3.575   6.790
13721TIP3   OH241101   7.228   3.773   6.672
13721TIP3    H141102   7.220   3.783   6.769
13721TIP3    H241103   7.227   3.675   6.664
13722TIP3   OH241104   6.915   3.476   7.084
13722TIP3    H141105   6.885   3.434   7.166
13722TIP3    H241106   6.951   3.400   7.033
13723TIP3   OH241107   7.161   3.569   8.334
13723TIP3    H141108   7.076   3.617   8.324
13723TIP3    H241109   7.205   3.593   8.249
13724TIP3   OH241110   7.015   3.271   6.923
13724TIP3    H141111   6.988   3.275   6.829
13724TIP3    H241112   7.112   3.272   6.915
13725TIP3   OH241113   7.843   3.607   6.609
13725TIP3    H141114   7.836   3.554   6.527
13725TIP3    H241115   7.808   3.692   6.573
13726TIP3   OH241116   7.288   3.634   8.106
13726TIP3    H141117   7.371   3.631   8.056
13726TIP3    H241118   7.240   3.704   8.057
13727TIP3   OH241119   6.823   4.332   6.831
13727TIP3    H141120   6.918   4.326   6.809
13727TIP3    H241121   6.792   4.382   6.753
13728TIP3   OH241122   6.301   3.713   7.044
13728TIP3    H141123   6.396   3.734   7.030
13728TIP3    H241124   6.295   3.624   7.003
13729TIP3   OH241125   6.219   4.325   7.460
13729TIP3    H141126   6.152   4.264   7.422
13729TIP3    H241127   6.262   4.266   7.525
13730TIP3   OH241128   6.353   4.173   7.646
13730TIP3    H141129   6.339   4.103   7.712
13730TIP3    H241130   6.404   4.237   7.700
13731TIP3   OH241131   8.056   3.649   7.078
13731TIP3    H141132   8.020   3.601   7.157
13731TIP3    H241133   8.105   3.721   7.119
13732TIP3   OH241134   8.078   4.005   7.470
13732TIP3    H141135   8.167   3.991   7.504
13732TIP3    H241136   8.064   4.099   7.483
13733TIP3   OH241137   7.992   4.380   7.712
13733TIP3    H141138   7.967   4.343   7.799
13733TIP3    H241139   7.942   4.319   7.655
13734TIP3   OH241140   7.894   3.255   6.733
13734TIP3    H141141   7.880   3.267   6.638
13734TIP3    H241142   7.874   3.158   6.740
13735TIP3   OH241143   7.916   3.496   7.250
13735TIP3    H141144   7.923   3.400   7.239
13735TIP3    H241145   7.902   3.504   7.348
13736TIP3   OH241146   6.537   3.582   8.018
13736TIP3    H141147   6.536   3.551   7.924
13736TIP3    H241148   6.634   3.587   8.033
13737TIP3   OH241149   7.843   2.991   6.752
13737TIP3    H141150   7.927   2.943   6.759
13737TIP3    H241151   7.780   2.922   6.724
13738TIP3   OH241152   7.915   3.232   7.149
13738TIP3    H141153   7.933   3.138   7.165
13738TIP3    H241154   7.980   3.254   7.080
13739TIP3   OH241155   6.743   2.960   7.981
13739TIP3    H141156   6.803   2.983   7.909
13739TIP3    H241157   6.743   3.043   8.031
13740TIP3   OH241158   6.524   3.231   8.095
13740TIP3    H141159   6.569   3.238   8.008
13740TIP3    H241160   6.544   3.318   8.133
13741TIP3   OH241161   8.106   2.900   6.830
13741TIP3    H141162   8.141   2.845   6.757
13741TIP3    H241163   8.171   2.974   6.833
13742TIP3   OH241164   6.504   2.751   7.605
13742TIP3    H141165   6.410   2.736   7.622
13742TIP3    H241166   6.501   2.802   7.521
13743TIP3   OH241167   7.671   4.440   7.105
13743TIP3    H141168   7.718   4.434   7.019
13743TIP3    H241169   7.716   4.515   7.147
13744TIP3   OH241170   6.647   2.803   8.407
13744TIP3    H141171   6.642   2.821   8.501
13744TIP3    H241172   6.587   2.870   8.368
13745TIP3   OH241173   6.770   4.238   8.500
13745TIP3    H141174   6.682   4.223   8.461
13745TIP3    H241175   6.752   4.218   8.592
13746TIP3   OH241176   6.944   4.287   8.039
13746TIP3    H141177   6.894   4.361   7.998
13746TIP3    H241178   7.029   4.301   7.991
13747TIP3   OH241179   6.620   4.536   8.062
13747TIP3    H141180   6.529   4.566   8.038
13747TIP3    H241181   6.633   4.586   8.144
13748TIP3   OH241182   6.857   4.521   7.920
13748TIP3    H141183   6.770   4.530   7.964
13748TIP3    H241184   6.836   4.551   7.829
13749TIP3   OH241185   7.271   4.536   7.704
13749TIP3    H141186   7.199   4.559   7.642
13749TIP3    H241187   7.290   4.623   7.746
13750TIP3   OH241188   7.533   4.484   7.781
13750TIP3    H141189   7.444   4.501   7.744
13750TIP3    H241190   7.584   4.557   7.741
13751TIP3   OH241191   7.678   4.682   7.650
13751TIP3    H141192   7.746   4.750   7.651
13751TIP3    H241193   7.723   4.609   7.602
13752TIP3   OH241194   6.531   4.332   7.801
13752TIP3    H141195   6.555   4.304   7.892
13752TIP3    H241196   6.603   4.286   7.751
13753TIP3   OH241197   6.725   4.201   7.662
13753TIP3    H141198   6.740   4.118   7.712
13753TIP3    H241199   6.817   4.237   7.657
13754TIP3   OH241200   6.992   4.296   7.664
13754TIP3    H141201   7.023   4.204   7.654
13754TIP3    H241202   7.037   4.318   7.748
13755TIP3   OH241203   6.796   2.693   7.760
13755TIP3    H141204   6.703   2.666   7.766
13755TIP3    H241205   6.838   2.603   7.764
13756TIP3   OH241206   6.607   2.531   7.417
13756TIP3    H141207   6.634   2.586   7.342
13756TIP3    H241208   6.579   2.598   7.482
13757TIP3   OH241209   7.237   2.711   7.649
13757TIP3    H141210   7.273   2.792   7.610
13757TIP3    H241211   7.238   2.732   7.744
13758TIP3   OH241212   7.826   2.779   7.189
13758TIP3    H141213   7.751   2.830   7.223
13758TIP3    H241214   7.825   2.702   7.249
13759TIP3   OH241215   6.318   4.105   7.192
13759TIP3    H141216   6.233   4.072   7.160
13759TIP3    H241217   6.308   4.199   7.171
13760TIP3   OH241218   6.719   2.688   7.181
13760TIP3    H141219   6.764   2.625   7.121
13760TIP3    H241220   6.794   2.741   7.215
13761TIP3   OH241221   7.225   2.871   7.273
13761TIP3    H141222   7.282   2.821   7.334
13761TIP3    H241223   7.249   2.962   7.300
13762TIP3   OH241224   7.090   4.289   6.777
13762TIP3    H141225   7.178   4.313   6.739
13762TIP3    H241226   7.068   4.214   6.716
13763TIP3   OH241227   7.811   4.415   6.869
13763TIP3    H141228   7.806   4.317   6.858
13763TIP3    H241229   7.763   4.445   6.790
13764TIP3   OH241230   6.394   4.128   6.832
13764TIP3    H141231   6.394   4.150   6.926
13764TIP3    H241232   6.482   4.085   6.820
13765TIP3   OH241233   8.257   3.432   7.139
13765TIP3    H141234   8.225   3.515   7.103
13765TIP3    H241235   8.226   3.370   7.071
13766TIP3   OH241236   8.173   3.966   6.819
13766TIP3    H141237   8.122   3.991   6.741
13766TIP3    H241238   8.202   4.053   6.854
13767TIP3   OH241239   8.504   3.631   6.806
13767TIP3    H141240   8.475   3.715   6.765
13767TIP3    H241241   8.579   3.657   6.862
13768TIP3   OH241242   8.188   4.300   7.404
13768TIP3    H141243   8.279   4.278   7.376
13768TIP3    H241244   8.192   4.276   7.498
13769TIP3   OH241245   8.908   4.622   6.537
13769TIP3    H141246   8.886   4.615   6.442
13769TIP3    H241247   8.881   4.712   6.560
13770TIP3   OH241248   8.384   4.496   6.923
13770TIP3    H141249   8.420   4.470   7.008
13770TIP3    H241250   8.328   4.418   6.903
13771TIP3   OH241251   8.705   3.204   6.483
13771TIP3    H141252   8.743   3.116   6.501
13771TIP3    H241253   8.662   3.188   6.398
13772TIP3   OH241254   8.278   3.118   6.862
13772TIP3    H141255   8.312   3.154   6.777
13772TIP3    H241256   8.226   3.194   6.891
13773TIP3   OH241257   8.601   3.450   6.569
13773TIP3    H141258   8.579   3.356   6.558
13773TIP3    H241259   8.688   3.450   6.526
13774TIP3   OH241260   8.852   3.957   6.600
13774TIP3    H141261   8.810   3.870   6.585
13774TIP3    H241262   8.855   3.960   6.697
13775TIP3   OH241263   9.004   4.077   6.396
13775TIP3    H141264   8.982   4.167   6.428
13775TIP3    H241265   8.977   4.024   6.473
13776TIP3   OH241266   8.697   4.265   6.867
13776TIP3    H141267   8.678   4.347   6.817
13776TIP3    H241268   8.623   4.260   6.929
13777TIP3   OH241269   8.245   3.562   6.609
13777TIP3    H141270   8.327   3.607   6.639
13777TIP3    H241271   8.181   3.633   6.620
13778TIP3   OH241272   8.825   4.026   6.889
13778TIP3    H141273   8.784   4.114   6.870
13778TIP3    H241274   8.760   3.988   6.950
13779TIP3   OH241275   8.605   4.506   6.752
13779TIP3    H141276   8.520   4.516   6.799
13779TIP3    H241277   8.656   4.582   6.784
13780TIP3   OH241278   8.686   4.107   6.216
13780TIP3    H141279   8.696   4.014   6.189
13780TIP3    H241280   8.671   4.098   6.312
13781TIP3   OH241281   8.640   4.112   6.485
13781TIP3    H141282   8.719   4.074   6.529
13781TIP3    H241283   8.650   4.208   6.504
13782TIP3   OH241284   8.352   3.824   6.669
13782TIP3    H141285   8.290   3.866   6.733
13782TIP3    H241286   8.367   3.896   6.607
13783TIP3   OH241287   8.907   4.324   6.454
13783TIP3    H141288   8.816   4.347   6.480
13783TIP3    H241289   8.928   4.399   6.398
13784TIP3   OH241290   8.644   4.387   6.504
13784TIP3    H141291   8.612   4.455   6.440
13784TIP3    H241292   8.629   4.433   6.589
13785TIP3   OH241293   8.368   4.027   6.480
13785TIP3    H141294   8.445   4.085   6.495
13785TIP3    H241295   8.411   3.964   6.418
13786TIP3   OH241296   8.287   3.286   6.647
13786TIP3    H141297   8.316   3.377   6.632
13786TIP3    H241298   8.250   3.261   6.561
13787TIP3   OH241299   8.239   4.240   6.883
13787TIP3    H141300   8.168   4.270   6.941
13787TIP3    H241301   8.208   4.274   6.796
13788TIP3   OH241302   8.854   4.303   6.126
13788TIP3    H141303   8.789   4.238   6.161
13788TIP3    H241304   8.936   4.255   6.145
13789TIP3   OH241305   8.505   3.829   6.347
13789TIP3    H141306   8.549   3.788   6.423
13789TIP3    H241307   8.578   3.831   6.282
13790TIP3   OH241308   8.994   4.007   6.140
13790TIP3    H141309   9.012   4.040   6.231
13790TIP3    H241310   8.926   3.941   6.161
13791TIP3   OH241311   8.700   3.723   6.568
13791TIP3    H141312   8.647   3.665   6.625
13791TIP3    H241313   8.749   3.655   6.517
13792TIP3   OH241314   8.825   3.528   6.417
13792TIP3    H141315   8.790   3.524   6.326
13792TIP3    H241316   8.920   3.514   6.398
13793TIP3   OH241317   8.607   4.589   6.321
13793TIP3    H141318   8.703   4.585   6.307
13793TIP3    H241319   8.581   4.637   6.240
13794TIP3   OH241320   8.098   3.971   6.530
13794TIP3    H141321   8.192   3.995   6.514
13794TIP3    H241322   8.095   3.881   6.490
13795TIP3   OH241323   8.014   4.585   6.944
13795TIP3    H141324   7.947   4.524   6.904
13795TIP3    H241325   8.060   4.523   7.004
13796TIP3   OH241326   8.148   4.423   7.120
13796TIP3    H141327   8.125   4.354   7.184
13796TIP3    H241328   8.195   4.486   7.177
13797TIP3   OH241329   8.112   4.364   6.681
13797TIP3    H141330   8.028   4.328   6.648
13797TIP3    H241331   8.102   4.456   6.653
13798TIP3   OH241332   8.499   2.988   6.654
13798TIP3    H141333   8.577   2.930   6.649
13798TIP3    H241334   8.516   3.037   6.737
13799TIP3   OH241335   8.872   4.544   6.268
13799TIP3    H141336   8.961   4.559   6.228
13799TIP3    H241337   8.844   4.469   6.212
13800TIP3   OH241338   8.190   4.384   6.320
13800TIP3    H141339   8.192   4.407   6.414
13800TIP3    H241340   8.278   4.342   6.307
13801TIP3   OH241341   1.873   5.078   8.288
13801TIP3    H141342   1.901   5.022   8.212
13801TIP3    H241343   1.955   5.125   8.312
13802TIP3   OH241344   1.568   4.348   8.065
13802TIP3    H141345   1.641   4.407   8.092
13802TIP3    H241346   1.618   4.283   8.011
13803TIP3   OH241347   1.779   4.503   8.130
13803TIP3    H141348   1.808   4.589   8.160
13803TIP3    H241349   1.798   4.512   8.033
13804TIP3   OH241350   2.091   5.115   7.743
13804TIP3    H141351   2.101   5.210   7.720
13804TIP3    H241352   2.181   5.082   7.727
13805TIP3   OH241353   1.394   5.430   8.207
13805TIP3    H141354   1.352   5.423   8.119
13805TIP3    H241355   1.367   5.519   8.236
13806TIP3   OH241356   1.604   5.335   7.858
13806TIP3    H141357   1.662   5.263   7.821
13806TIP3    H241358   1.638   5.342   7.949
13807TIP3   OH241359   1.657   5.388   8.129
13807TIP3    H141360   1.567   5.387   8.169
13807TIP3    H241361   1.712   5.351   8.200
13808TIP3   OH241362   1.844   4.562   7.881
13808TIP3    H141363   1.813   4.530   7.794
13808TIP3    H241364   1.933   4.595   7.856
13809TIP3   OH241365   1.514   4.868   8.066
13809TIP3    H141366   1.477   4.958   8.085
13809TIP3    H241367   1.498   4.825   8.151
13810TIP3   OH241368   2.345   4.365   8.079
13810TIP3    H141369   2.268   4.316   8.041
13810TIP3    H241370   2.325   4.452   8.040
13811TIP3   OH241371   2.031   5.185   8.002
13811TIP3    H141372   2.004   5.103   8.043
13811TIP3    H241373   2.045   5.157   7.910
13812TIP3   OH241374   1.775   4.921   7.905
13812TIP3    H141375   1.831   4.898   7.982
13812TIP3    H241376   1.688   4.892   7.936
13813TIP3   OH241377   2.120   5.390   7.724
13813TIP3    H141378   2.158   5.462   7.672
13813TIP3    H241379   2.039   5.435   7.756
13814TIP3   OH241380   1.945   4.874   8.118
13814TIP3    H141381   1.928   4.799   8.177
13814TIP3    H241382   2.043   4.867   8.106
13815TIP3   OH241383   1.145   4.897   7.907
13815TIP3    H141384   1.174   4.808   7.879
13815TIP3    H241385   1.104   4.877   7.993
13816TIP3   OH241386   1.395   5.109   8.115
13816TIP3    H141387   1.344   5.141   8.191
13816TIP3    H241388   1.378   5.180   8.050
13817TIP3   OH241389   0.948   5.227   8.169
13817TIP3    H141390   0.981   5.285   8.096
13817TIP3    H241391   1.032   5.211   8.218
13818TIP3   OH241392   1.308   5.098   7.812
13818TIP3    H141393   1.252   5.028   7.854
13818TIP3    H241394   1.382   5.044   7.779
13819TIP3   OH241395   1.748   5.139   7.730
13819TIP3    H141396   1.785   5.069   7.787
13819TIP3    H241397   1.803   5.132   7.649
13820TIP3   OH241398   0.921   4.647   7.972
13820TIP3    H141399   0.957   4.694   8.050
13820TIP3    H241400   1.005   4.629   7.924
13821TIP3   OH241401   1.448   4.803   7.813
13821TIP3    H141402   1.463   4.824   7.907
13821TIP3    H241403   1.459   4.705   7.816
13822TIP3   OH241404   1.209   4.368   8.080
13822TIP3    H141405   1.216   4.356   7.983
13822TIP3    H241406   1.302   4.371   8.108
13823TIP3   OH241407   2.074   4.656   7.777
13823TIP3    H141408   2.099   4.597   7.703
13823TIP3    H241409   2.038   4.734   7.728
13824TIP3   OH241410   1.078   5.389   7.988
13824TIP3    H141411   1.174   5.376   7.977
13824TIP3    H241412   1.060   5.448   7.913
13825TIP3   OH241413   2.213   4.874   8.107
13825TIP3    H141414   2.283   4.924   8.059
13825TIP3    H241415   2.265   4.840   8.182
13826TIP3   OH241416   2.344   4.657   8.252
13826TIP3    H141417   2.267   4.687   8.304
13826TIP3    H241418   2.305   4.629   8.167
13827TIP3   OH241419   2.268   4.608   7.986
13827TIP3    H141420   2.238   4.571   7.901
13827TIP3    H241421   2.245   4.701   7.970
13828TIP3   OH241422   2.145   4.284   7.913
13828TIP3    H141423   2.162   4.315   7.823
13828TIP3    H241424   2.116   4.192   7.896
13829TIP3   OH241425   2.100   4.012   7.888
13829TIP3    H141426   2.187   3.997   7.931
13829TIP3    H241427   2.039   3.960   7.943
13830TIP3   OH241428   2.360   3.989   7.974
13830TIP3    H141429   2.393   3.898   7.963
13830TIP3    H241430   2.442   4.040   7.981
13831TIP3   OH241431   1.934   5.445   8.293
13831TIP3    H141432   1.969   5.455   8.202
13831TIP3    H241433   1.970   5.523   8.338
13832TIP3   OH241434   1.343   5.337   7.938
13832TIP3    H141435   1.434   5.354   7.906
13832TIP3    H241436   1.319   5.261   7.880
13833TIP3   OH241437   2.059   5.455   8.046
13833TIP3    H141438   2.052   5.357   8.033
13833TIP3    H241439   2.013   5.487   7.965
13834TIP3   OH241440   3.553   4.972   7.996
13834TIP3    H141441   3.523   5.063   7.978
13834TIP3    H241442   3.473   4.922   7.971
13835TIP3   OH241443   3.534   4.980   8.367
13835TIP3    H141444   3.584   4.956   8.448
13835TIP3    H241445   3.493   4.895   8.344
13836TIP3   OH241446   3.794   5.273   8.064
13836TIP3    H141447   3.779   5.205   8.131
13836TIP3    H241448   3.827   5.347   8.117
13837TIP3   OH241449   2.822   5.289   8.462
13837TIP3    H141450   2.811   5.191   8.467
13837TIP3    H241451   2.919   5.294   8.458
13838TIP3   OH241452   2.547   4.477   8.234
13838TIP3    H141453   2.493   4.558   8.239
13838TIP3    H241454   2.485   4.421   8.183
13839TIP3   OH241455   2.718   4.740   8.409
13839TIP3    H141456   2.645   4.757   8.471
13839TIP3    H241457   2.681   4.777   8.328
13840TIP3   OH241458   3.445   5.736   8.080
13840TIP3    H141459   3.489   5.665   8.027
13840TIP3    H241460   3.433   5.693   8.165
13841TIP3   OH241461   3.347   5.199   8.405
13841TIP3    H141462   3.388   5.117   8.372
13841TIP3    H241463   3.425   5.243   8.442
13842TIP3   OH241464   4.360   4.528   8.409
13842TIP3    H141465   4.385   4.608   8.460
13842TIP3    H241466   4.388   4.554   8.319
13843TIP3   OH241467   3.753   4.683   8.461
13843TIP3    H141468   3.797   4.598   8.483
13843TIP3    H241469   3.728   4.668   8.368
13844TIP3   OH241470   3.142   4.342   8.386
13844TIP3    H141471   3.098   4.424   8.357
13844TIP3    H241472   3.083   4.276   8.345
13845TIP3   OH241473   3.794   4.446   8.047
13845TIP3    H141474   3.864   4.433   8.115
13845TIP3    H241475   3.848   4.484   7.974
13846TIP3   OH241476   3.172   4.759   8.329
13846TIP3    H141477   3.265   4.731   8.336
13846TIP3    H241478   3.129   4.678   8.294
13847TIP3   OH241479   4.428   4.722   8.597
13847TIP3    H141480   4.342   4.764   8.574
13847TIP3    H241481   4.435   4.746   8.689
13848TIP3   OH241482   3.445   5.195   7.864
13848TIP3    H141483   3.395   5.174   7.784
13848TIP3    H241484   3.398   5.275   7.895
13849TIP3   OH241485   4.002   4.453   8.222
13849TIP3    H141486   3.994   4.402   8.304
13849TIP3    H241487   4.054   4.530   8.251
13850TIP3   OH241488   2.418   5.005   7.985
13850TIP3    H141489   2.387   5.029   7.895
13850TIP3    H241490   2.458   5.089   8.016
13851TIP3   OH241491   3.868   5.517   8.226
13851TIP3    H141492   3.778   5.508   8.264
13851TIP3    H241493   3.860   5.603   8.180
13852TIP3   OH241494   4.138   4.451   8.571
13852TIP3    H141495   4.052   4.480   8.537
13852TIP3    H241496   4.202   4.487   8.506
13853TIP3   OH241497   3.565   5.562   7.903
13853TIP3    H141498   3.614   5.480   7.883
13853TIP3    H241499   3.626   5.628   7.862
13854TIP3   OH241500   3.708   5.346   7.812
13854TIP3    H141501   3.655   5.270   7.784
13854TIP3    H241502   3.746   5.312   7.896
13855TIP3   OH241503   4.072   5.426   8.578
13855TIP3    H141504   4.071   5.349   8.517
13855TIP3    H241505   4.064   5.501   8.515
13856TIP3   OH241506   3.380   4.820   7.831
13856TIP3    H141507   3.298   4.872   7.817
13856TIP3    H241508   3.421   4.825   7.744
13857TIP3   OH241509   3.338   4.610   7.543
13857TIP3    H141510   3.404   4.659   7.596
13857TIP3    H241511   3.395   4.546   7.498
13858TIP3   OH241512   4.280   5.061   8.416
13858TIP3    H141513   4.198   5.115   8.423
13858TIP3    H241514   4.313   5.090   8.328
13859TIP3   OH241515   3.729   4.904   7.802
13859TIP3    H141516   3.673   4.929   7.879
13859TIP3    H241517   3.813   4.881   7.847
13860TIP3   OH241518   3.962   4.965   8.682
13860TIP3    H141519   3.953   5.057   8.710
13860TIP3    H241520   3.877   4.951   8.636
13861TIP3   OH241521   2.963   4.910   8.212
13861TIP3    H141522   2.919   4.845   8.153
13861TIP3    H241523   3.034   4.856   8.252
13862TIP3   OH241524   3.091   5.318   8.365
13862TIP3    H141525   3.072   5.273   8.282
13862TIP3    H241526   3.177   5.277   8.390
13863TIP3   OH241527   3.093   4.881   8.564
13863TIP3    H141528   3.117   4.832   8.483
13863TIP3    H241529   3.180   4.912   8.593
13864TIP3   OH241530   3.627   5.510   8.345
13864TIP3    H141531   3.598   5.594   8.386
13864TIP3    H241532   3.600   5.441   8.408
13865TIP3   OH241533   3.573   4.761   7.627
13865TIP3    H141534   3.628   4.823   7.681
13865TIP3    H241535   3.597   4.789   7.535
13866TIP3   OH241536   3.315   5.440   7.906
13866TIP3    H141537   3.394   5.495   7.915
13866TIP3    H241538   3.253   5.499   7.861
13867TIP3   OH241539   4.081   4.004   7.675
13867TIP3    H141540   4.000   4.020   7.728
13867TIP3    H241541   4.093   4.092   7.633
13868TIP3   OH241542   2.834   4.741   8.021
13868TIP3    H141543   2.769   4.795   7.970
13868TIP3    H241544   2.783   4.660   8.035
13869TIP3   OH241545   3.883   5.368   7.225
13869TIP3    H141546   3.891   5.465   7.211
13869TIP3    H241547   3.977   5.341   7.214
13870TIP3   OH241548   4.325   5.775   8.623
13870TIP3    H141549   4.326   5.678   8.635
13870TIP3    H241550   4.238   5.796   8.664
13871TIP3   OH241551   3.195   5.687   7.707
13871TIP3    H141552   3.149   5.667   7.624
13871TIP3    H241553   3.161   5.775   7.730
13872TIP3   OH241554   2.628   5.538   8.086
13872TIP3    H141555   2.681   5.528   8.169
13872TIP3    H241556   2.579   5.454   8.086
13873TIP3   OH241557   3.394   5.591   7.346
13873TIP3    H141558   3.453   5.521   7.310
13873TIP3    H241559   3.429   5.600   7.437
13874TIP3   OH241560   3.446   5.638   7.616
13874TIP3    H141561   3.357   5.647   7.657
13874TIP3    H241562   3.496   5.598   7.689
13875TIP3   OH241563   3.636   4.809   7.363
13875TIP3    H141564   3.642   4.770   7.275
13875TIP3    H241565   3.716   4.865   7.362
13876TIP3   OH241566   3.363   4.180   7.677
13876TIP3    H141567   3.325   4.179   7.767
13876TIP3    H241568   3.318   4.102   7.639
13877TIP3   OH241569   3.031   4.547   8.234
13877TIP3    H141570   2.939   4.525   8.259
13877TIP3    H241571   3.037   4.503   8.146
13878TIP3   OH241572   3.522   4.627   7.965
13878TIP3    H141573   3.468   4.698   7.923
13878TIP3    H241574   3.574   4.595   7.889
13879TIP3   OH241575   3.676   4.650   8.199
13879TIP3    H141576   3.614   4.680   8.130
13879TIP3    H241577   3.707   4.568   8.155
13880TIP3   OH241578   3.021   4.160   7.642
13880TIP3    H141579   3.003   4.156   7.738
13880TIP3    H241580   2.941   4.208   7.612
13881TIP3   OH241581   2.550   4.197   8.024
13881TIP3    H141582   2.583   4.233   7.941
13881TIP3    H241583   2.473   4.256   8.041
13882TIP3   OH241584   3.701   4.924   8.575
13882TIP3    H141585   3.720   4.831   8.547
13882TIP3    H241586   3.671   4.914   8.668
13883TIP3   OH241587   3.386   4.377   8.273
13883TIP3    H141588   3.294   4.369   8.309
13883TIP3    H241589   3.436   4.374   8.356
13884TIP3   OH241590   2.800   4.400   8.284
13884TIP3    H141591   2.710   4.438   8.270
13884TIP3    H241592   2.806   4.336   8.212
13885TIP3   OH241593   3.057   4.411   7.994
13885TIP3    H141594   3.149   4.429   7.968
13885TIP3    H241595   3.006   4.433   7.913
13886TIP3   OH241596   3.847   4.430   8.514
13886TIP3    H141597   3.825   4.430   8.608
13886TIP3    H241598   3.775   4.373   8.478
13887TIP3   OH241599   2.904   4.444   7.774
13887TIP3    H141600   2.836   4.401   7.720
13887TIP3    H241601   2.959   4.482   7.702
13888TIP3   OH241602   4.038   6.109   8.701
13888TIP3    H141603   4.033   6.140   8.609
13888TIP3    H241604   4.065   6.189   8.748
13889TIP3   OH241605   3.443   4.695   8.382
13889TIP3    H141606   3.511   4.651   8.328
13889TIP3    H241607   3.462   4.661   8.470
13890TIP3   OH241608   2.998   4.166   8.229
13890TIP3    H141609   2.936   4.105   8.272
13890TIP3    H241610   3.023   4.119   8.148
13891TIP3   OH241611   3.154   4.973   7.781
13891TIP3    H141612   3.082   4.908   7.770
13891TIP3    H241613   3.133   5.010   7.871
13892TIP3   OH241614   4.049   5.213   8.407
13892TIP3    H141615   4.077   5.263   8.327
13892TIP3    H241616   3.966   5.170   8.377
13893TIP3   OH241617   3.606   4.291   7.634
13893TIP3    H141618   3.512   4.267   7.652
13893TIP3    H241619   3.614   4.382   7.670
13894TIP3   OH241620   3.677   4.533   7.747
13894TIP3    H141621   3.773   4.542   7.766
13894TIP3    H241622   3.658   4.616   7.699
13895TIP3   OH241623   2.851   5.016   8.445
13895TIP3    H141624   2.888   4.992   8.357
13895TIP3    H241625   2.857   4.930   8.489
13896TIP3   OH241626   3.296   5.123   7.604
13896TIP3    H141627   3.249   5.210   7.608
13896TIP3    H241628   3.241   5.070   7.665
13897TIP3   OH241629   3.685   5.522   8.750
13897TIP3    H141630   3.639   5.556   8.672
13897TIP3    H241631   3.740   5.599   8.776
13898TIP3   OH241632   4.121   4.624   7.580
13898TIP3    H141633   4.058   4.582   7.518
13898TIP3    H241634   4.117   4.715   7.542
13899TIP3   OH241635   4.321   5.494   8.661
13899TIP3    H141636   4.227   5.477   8.642
13899TIP3    H241637   4.362   5.458   8.580
13900TIP3   OH241638   3.820   5.444   7.490
13900TIP3    H141639   3.795   5.375   7.552
13900TIP3    H241640   3.834   5.396   7.406
13901TIP3   OH241641   3.815   5.080   8.318
13901TIP3    H141642   3.724   5.048   8.335
13901TIP3    H241643   3.853   4.999   8.278
13902TIP3   OH241644   2.945   5.303   8.080
13902TIP3    H141645   2.941   5.384   8.026
13902TIP3    H241646   2.852   5.279   8.088
13903TIP3   OH241647   3.085   5.070   8.021
13903TIP3    H141648   3.048   5.158   8.044
13903TIP3    H241649   3.048   5.015   8.094
13904TIP3   OH241650   3.207   5.650   8.535
13904TIP3    H141651   3.257   5.723   8.493
13904TIP3    H241652   3.274   5.605   8.587
13905TIP3   OH241653   2.862   5.542   7.932
13905TIP3    H141654   2.776   5.550   7.978
13905TIP3    H241655   2.894   5.635   7.935
13906TIP3   OH241656   3.613   5.285   8.512
13906TIP3    H141657   3.611   5.245   8.600
13906TIP3    H241658   3.676   5.228   8.466
13907TIP3   OH241659   3.577   5.167   7.390
13907TIP3    H141660   3.627   5.143   7.472
13907TIP3    H241661   3.486   5.147   7.418
13908TIP3   OH241662   3.840   5.804   8.549
13908TIP3    H141663   3.751   5.774   8.522
13908TIP3    H241664   3.849   5.881   8.489
13909TIP3   OH241665   3.915   5.645   7.211
13909TIP3    H141666   3.954   5.718   7.160
13909TIP3    H241667   3.835   5.691   7.244
13910TIP3   OH241668   3.739   5.097   7.602
13910TIP3    H141669   3.729   5.039   7.680
13910TIP3    H241670   3.836   5.100   7.594
13911TIP3   OH241671   2.947   5.152   7.393
13911TIP3    H141672   2.952   5.060   7.362
13911TIP3    H241673   2.923   5.140   7.487
13912TIP3   OH241674   2.884   5.158   7.664
13912TIP3    H141675   2.953   5.129   7.725
13912TIP3    H241676   2.891   5.256   7.671
13913TIP3   OH241677   2.646   4.878   7.882
13913TIP3    H141678   2.562   4.900   7.926
13913TIP3    H241679   2.641   4.936   7.803
13914TIP3   OH241680   3.661   4.234   7.923
13914TIP3    H141681   3.639   4.261   7.833
13914TIP3    H241682   3.697   4.317   7.962
13915TIP3   OH241683   3.156   5.355   7.613
13915TIP3    H141684   3.069   5.380   7.649
13915TIP3    H241685   3.167   5.422   7.545
13916TIP3   OH241686   3.346   4.421   8.009
13916TIP3    H141687   3.407   4.496   7.993
13916TIP3    H241688   3.353   4.414   8.107
13917TIP3   OH241689   3.488   4.151   8.125
13917TIP3    H141690   3.471   4.234   8.175
13917TIP3    H241691   3.551   4.184   8.058
13918TIP3   OH241692   2.901   5.431   7.681
13918TIP3    H141693   2.870   5.500   7.618
13918TIP3    H241694   2.883   5.473   7.767
13919TIP3   OH241695   2.999   4.143   7.920
13919TIP3    H141696   2.996   4.234   7.956
13919TIP3    H241697   3.096   4.129   7.921
13920TIP3   OH241698   3.902   4.833   8.204
13920TIP3    H141699   3.825   4.773   8.215
13920TIP3    H241700   3.972   4.785   8.253
13921TIP3   OH241701   2.614   5.061   7.667
13921TIP3    H141702   2.687   5.126   7.676
13921TIP3    H241703   2.655   5.001   7.601
13922TIP3   OH241704   3.871   5.788   8.152
13922TIP3    H141705   3.828   5.835   8.077
13922TIP3    H241706   3.966   5.808   8.131
13923TIP3   OH241707   2.487   5.280   8.059
13923TIP3    H141708   2.415   5.306   8.117
13923TIP3    H241709   2.456   5.318   7.973
13924TIP3   OH241710   3.109   5.356   7.304
13924TIP3    H141711   3.052   5.284   7.339
13924TIP3    H241712   3.179   5.304   7.262
13925TIP3   OH241713   3.541   5.396   7.216
13925TIP3    H141714   3.591   5.336   7.274
13925TIP3    H241715   3.595   5.396   7.134
13926TIP3   OH241716   2.749   4.875   7.522
13926TIP3    H141717   2.798   4.838   7.597
13926TIP3    H241718   2.819   4.878   7.454
13927TIP3   OH241719   3.275   5.069   7.334
13927TIP3    H141720   3.268   5.081   7.431
13927TIP3    H241721   3.252   4.974   7.325
13928TIP3   OH241722   3.870   5.306   8.728
13928TIP3    H141723   3.954   5.329   8.684
13928TIP3    H241724   3.813   5.378   8.697
13929TIP3   OH241725   2.964   4.778   7.751
13929TIP3    H141726   2.926   4.741   7.832
13929TIP3    H241727   2.994   4.697   7.703
13930TIP3   OH241728   3.059   4.570   7.587
13930TIP3    H141729   3.030   4.575   7.494
13930TIP3    H241730   3.156   4.577   7.577
13931TIP3   OH241731   3.880   4.898   7.255
13931TIP3    H141732   3.864   4.858   7.167
13931TIP3    H241733   3.849   4.990   7.236
13932TIP3   OH241734   2.868   5.635   7.495
13932TIP3    H141735   2.963   5.627   7.474
13932TIP3    H241736   2.838   5.682   7.415
13933TIP3   OH241737   2.348   5.014   7.710
13933TIP3    H141738   2.442   5.036   7.690
13933TIP3    H241739   2.340   4.925   7.670
13934TIP3   OH241740   2.263   5.630   8.115
13934TIP3    H141741   2.196   5.566   8.082
13934TIP3    H241742   2.307   5.575   8.184
13935TIP3   OH241743   2.393   5.486   8.307
13935TIP3    H141744   2.388   5.411   8.367
13935TIP3    H241745   2.446   5.550   8.359
13936TIP3   OH241746   4.124   5.879   8.110
13936TIP3    H141747   4.152   5.915   8.195
13936TIP3    H241748   4.189   5.917   8.049
13937TIP3   OH241749   4.149   5.899   8.393
13937TIP3    H141750   4.113   5.808   8.387
13937TIP3    H241751   4.230   5.883   8.443
13938TIP3   OH241752   4.018   5.085   7.582
13938TIP3    H141753   4.083   5.152   7.553
13938TIP3    H241754   4.063   5.049   7.662
13939TIP3   OH241755   4.145   4.952   7.787
13939TIP3    H141756   4.079   4.913   7.848
13939TIP3    H241757   4.211   4.991   7.848
13940TIP3   OH241758   4.198   5.347   8.219
13940TIP3    H141759   4.252   5.282   8.171
13940TIP3    H241760   4.196   5.422   8.157
13941TIP3   OH241761   4.030   5.646   8.415
13941TIP3    H141762   3.956   5.692   8.459
13941TIP3    H241763   3.984   5.600   8.341
13942TIP3   OH241764   4.082   4.860   7.435
13942TIP3    H141765   4.010   4.866   7.368
13942TIP3    H241766   4.058   4.937   7.491
13943TIP3   OH241767   3.955   4.530   7.386
13943TIP3    H141768   3.912   4.574   7.311
13943TIP3    H241769   3.930   4.437   7.371
13944TIP3   OH241770   3.957   4.813   7.936
13944TIP3    H141771   3.964   4.716   7.932
13944TIP3    H241772   3.942   4.829   8.032
13945TIP3   OH241773   4.214   5.231   8.780
13945TIP3    H141774   4.291   5.171   8.770
13945TIP3    H241775   4.251   5.316   8.750
13946TIP3   OH241776   4.406   5.032   8.788
13946TIP3    H141777   4.359   4.982   8.856
13946TIP3    H241778   4.497   5.012   8.810
13947TIP3   OH241779   3.897   4.262   7.360
13947TIP3    H141780   3.964   4.239   7.428
13947TIP3    H241781   3.817   4.214   7.389
13948TIP3   OH241782   3.954   4.527   7.828
13948TIP3    H141783   3.995   4.439   7.843
13948TIP3    H241784   4.013   4.562   7.760
13949TIP3   OH241785   4.113   4.701   8.326
13949TIP3    H141786   4.199   4.725   8.286
13949TIP3    H241787   4.126   4.740   8.415
13950TIP3   OH241788   4.184   4.844   8.558
13950TIP3    H141789   4.109   4.880   8.610
13950TIP3    H241790   4.217   4.926   8.514
13951TIP3   OH241791   4.066   4.277   7.863
13951TIP3    H141792   4.112   4.262   7.948
13951TIP3    H241793   4.002   4.203   7.864
13952TIP3   OH241794   4.141   4.214   7.499
13952TIP3    H141795   4.194   4.153   7.445
13952TIP3    H241796   4.200   4.292   7.504
13953TIP3   OH241797   2.543   4.041   8.252
13953TIP3    H141798   2.452   4.006   8.251
13953TIP3    H241799   2.542   4.107   8.180
13954TIP3   OH241800   3.708   5.746   7.767
13954TIP3    H141801   3.758   5.733   7.683
13954TIP3    H241802   3.764   5.812   7.812
13955TIP3   OH241803   2.983   5.601   8.698
13955TIP3    H141804   2.960   5.679   8.644
13955TIP3    H241805   3.070   5.580   8.661
13956TIP3   OH241806   3.598   5.972   8.665
13956TIP3    H141807   3.690   5.943   8.654
13956TIP3    H241808   3.605   6.016   8.753
13957TIP3   OH241809   2.892   5.827   8.576
13957TIP3    H141810   2.801   5.842   8.605
13957TIP3    H241811   2.887   5.851   8.482
13958TIP3   OH241812   3.331   5.848   8.378
13958TIP3    H141813   3.258   5.861   8.314
13958TIP3    H241814   3.337   5.937   8.418
13959TIP3   OH241815   3.594   5.774   8.427
13959TIP3    H141816   3.501   5.799   8.412
13959TIP3    H241817   3.639   5.852   8.390
13960TIP3   OH241818   3.800   5.975   8.344
13960TIP3    H141819   3.785   6.060   8.297
13960TIP3    H241820   3.828   5.916   8.271
13961TIP3   OH241821   2.590   5.640   8.443
13961TIP3    H141822   2.615   5.603   8.530
13961TIP3    H241823   2.658   5.594   8.388
13962TIP3   OH241824   2.778   5.505   8.307
13962TIP3    H141825   2.790   5.420   8.355
13962TIP3    H241826   2.869   5.541   8.310
13963TIP3   OH241827   3.039   5.595   8.325
13963TIP3    H141828   3.066   5.501   8.316
13963TIP3    H241829   3.089   5.617   8.407
13964TIP3   OH241830   3.633   4.274   8.421
13964TIP3    H141831   3.558   4.223   8.456
13964TIP3    H241832   3.685   4.208   8.373
13965TIP3   OH241833   4.136   4.135   8.317
13965TIP3    H141834   4.169   4.190   8.242
13965TIP3    H241835   4.039   4.149   8.311
13966TIP3   OH241836   4.230   4.232   8.079
13966TIP3    H141837   4.306   4.182   8.042
13966TIP3    H241838   4.263   4.324   8.068
13967TIP3   OH241839   2.642   3.843   8.059
13967TIP3    H141840   2.674   3.910   7.995
13967TIP3    H241841   2.618   3.896   8.136
13968TIP3   OH241842   3.316   4.014   8.297
13968TIP3    H141843   3.374   4.050   8.227
13968TIP3    H241844   3.337   4.078   8.369
13969TIP3   OH241845   3.858   4.135   8.289
13969TIP3    H141846   3.843   4.101   8.200
13969TIP3    H241847   3.831   4.059   8.345
13970TIP3   OH241848   3.881   4.065   7.857
13970TIP3    H141849   3.796   4.111   7.874
13970TIP3    H241850   3.864   3.980   7.903
13971TIP3   OH241851   2.362   5.405   7.857
13971TIP3    H141852   2.278   5.371   7.823
13971TIP3    H241853   2.352   5.499   7.834
13972TIP3   OH241854   2.765   3.996   7.843
13972TIP3    H141855   2.808   3.929   7.787
13972TIP3    H241856   2.842   4.044   7.879
13973TIP3   OH241857   3.274   4.168   7.937
13973TIP3    H141858   3.331   4.121   8.001
13973TIP3    H241859   3.296   4.261   7.960
13974TIP3   OH241860   3.135   5.592   7.441
13974TIP3    H141861   3.223   5.615   7.404
13974TIP3    H241862   3.113   5.517   7.380
13975TIP3   OH241863   3.852   5.711   7.535
13975TIP3    H141864   3.844   5.613   7.522
13975TIP3    H241865   3.808   5.744   7.453
13976TIP3   OH241866   2.440   5.430   7.496
13976TIP3    H141867   2.444   5.446   7.591
13976TIP3    H241868   2.526   5.385   7.479
13977TIP3   OH241869   4.069   5.837   8.716
13977TIP3    H141870   3.993   5.824   8.656
13977TIP3    H241871   4.064   5.935   8.728
13978TIP3   OH241872   5.347   5.226   7.484
13978TIP3    H141873   5.318   5.318   7.466
13978TIP3    H241874   5.268   5.178   7.454
13979TIP3   OH241875   5.346   5.227   7.869
13979TIP3    H141876   5.380   5.206   7.958
13979TIP3    H241877   5.304   5.143   7.843
13980TIP3   OH241878   4.643   5.121   8.233
13980TIP3    H141879   4.673   5.053   8.297
13980TIP3    H241880   4.722   5.178   8.229
13981TIP3   OH241881   5.591   5.528   7.552
13981TIP3    H141882   5.575   5.462   7.622
13981TIP3    H241883   5.619   5.605   7.603
13982TIP3   OH241884   4.616   5.530   7.956
13982TIP3    H141885   4.609   5.433   7.958
13982TIP3    H241886   4.713   5.540   7.949
13983TIP3   OH241887   4.324   4.730   7.739
13983TIP3    H141888   4.282   4.815   7.760
13983TIP3    H241889   4.249   4.683   7.699
13984TIP3   OH241890   4.381   5.021   7.914
13984TIP3    H141891   4.432   4.945   7.950
13984TIP3    H241892   4.447   5.065   7.859
13985TIP3   OH241893   5.233   5.986   7.563
13985TIP3    H141894   5.281   5.915   7.515
13985TIP3    H241895   5.231   5.952   7.653
13986TIP3   OH241896   5.144   5.452   7.917
13986TIP3    H141897   5.186   5.377   7.872
13986TIP3    H241898   5.226   5.500   7.944
13987TIP3   OH241899   6.159   4.773   7.916
13987TIP3    H141900   6.185   4.855   7.962
13987TIP3    H241901   6.178   4.795   7.823
13988TIP3   OH241902   5.556   4.953   7.947
13988TIP3    H141903   5.600   4.869   7.969
13988TIP3    H241904   5.525   4.936   7.856
13989TIP3   OH241905   4.895   4.613   7.913
13989TIP3    H141906   4.878   4.687   7.851
13989TIP3    H241907   4.845   4.541   7.868
13990TIP3   OH241908   5.591   4.705   7.534
13990TIP3    H141909   5.662   4.690   7.601
13990TIP3    H241910   5.644   4.741   7.461
13991TIP3   OH241911   4.528   4.816   8.021
13991TIP3    H141912   4.611   4.800   8.069
13991TIP3    H241913   4.544   4.761   7.941
13992TIP3   OH241914   4.969   5.013   7.815
13992TIP3    H141915   5.064   4.989   7.827
13992TIP3    H241916   4.932   4.929   7.782
13993TIP3   OH241917   6.226   4.979   8.088
13993TIP3    H141918   6.142   5.028   8.072
13993TIP3    H241919   6.255   5.019   8.172
13994TIP3   OH241920   4.892   4.600   8.341
13994TIP3    H141921   4.836   4.633   8.269
13994TIP3    H241922   4.839   4.631   8.418
13995TIP3   OH241923   5.235   5.448   7.355
13995TIP3    H141924   5.195   5.436   7.268
13995TIP3    H241925   5.193   5.532   7.383
13996TIP3   OH241926   4.996   5.373   8.141
13996TIP3    H141927   4.936   5.441   8.177
13996TIP3    H241928   5.041   5.422   8.068
13997TIP3   OH241929   5.797   4.709   7.711
13997TIP3    H141930   5.780   4.668   7.797
13997TIP3    H241931   5.849   4.787   7.737
13998TIP3   OH241932   4.762   4.713   8.130
13998TIP3    H141933   4.822   4.787   8.154
13998TIP3    H241934   4.812   4.674   8.055
13999TIP3   OH241935   4.824   5.568   8.239
13999TIP3    H141936   4.801   5.656   8.202
13999TIP3    H241937   4.744   5.554   8.295
14000TIP3   OH241938   4.218   5.257   7.477
14000TIP3    H141939   4.179   5.287   7.392
14000TIP3    H241940   4.250   5.342   7.514
14001TIP3   OH241941   5.660   5.773   7.717
14001TIP3    H141942   5.570   5.764   7.757
14001TIP3    H241943   5.650   5.859   7.671
14002TIP3   OH241944   5.951   4.668   8.077
14002TIP3    H141945   5.864   4.701   8.047
14002TIP3    H241946   6.011   4.704   8.009
14003TIP3   OH241947   5.244   4.313   8.060
14003TIP3    H141948   5.232   4.219   8.082
14003TIP3    H241949   5.169   4.353   8.109
14004TIP3   OH241950   5.362   5.815   7.390
14004TIP3    H141951   5.412   5.734   7.367
14004TIP3    H241952   5.423   5.882   7.350
14005TIP3   OH241953   5.505   5.600   7.300
14005TIP3    H141954   5.465   5.521   7.262
14005TIP3    H241955   5.541   5.566   7.384
14006TIP3   OH241956   5.872   5.687   8.053
14006TIP3    H141957   5.859   5.608   7.995
14006TIP3    H241958   5.853   5.761   7.992
14007TIP3   OH241959   5.175   5.077   7.318
14007TIP3    H141960   5.097   5.132   7.298
14007TIP3    H241961   5.223   5.079   7.233
14008TIP3   OH241962   5.135   4.864   7.032
14008TIP3    H141963   5.200   4.916   7.083
14008TIP3    H241964   5.195   4.803   6.985
14009TIP3   OH241965   6.086   5.330   7.907
14009TIP3    H141966   6.000   5.377   7.915
14009TIP3    H241967   6.108   5.351   7.813
14010TIP3   OH241968   5.525   5.160   7.289
14010TIP3    H141969   5.470   5.185   7.367
14010TIP3    H241970   5.609   5.137   7.333
14011TIP3   OH241971   5.754   5.187   8.195
14011TIP3    H141972   5.765   5.265   8.255
14011TIP3    H241973   5.669   5.209   8.153
14012TIP3   OH241974   4.757   5.158   7.708
14012TIP3    H141975   4.718   5.100   7.638
14012TIP3    H241976   4.835   5.106   7.737
14013TIP3   OH241977   4.885   5.566   7.857
14013TIP3    H141978   4.868   5.533   7.767
14013TIP3    H241979   4.975   5.533   7.874
14014TIP3   OH241980   4.890   5.132   8.059
14014TIP3    H141981   4.927   5.109   7.971
14014TIP3    H241982   4.936   5.217   8.079
14015TIP3   OH241983   5.419   5.768   7.839
14015TIP3    H141984   5.405   5.848   7.893
14015TIP3    H241985   5.404   5.696   7.903
14016TIP3   OH241986   5.031   5.685   8.384
14016TIP3    H141987   4.968   5.747   8.428
14016TIP3    H241988   4.968   5.632   8.332
14017TIP3   OH241989   5.364   5.019   7.115
14017TIP3    H141990   5.423   5.080   7.166
14017TIP3    H241991   5.390   5.041   7.023
14018TIP3   OH241992   4.787   5.242   8.481
14018TIP3    H141993   4.786   5.329   8.524
14018TIP3    H241994   4.693   5.218   8.487
14019TIP3   OH241995   5.109   5.698   7.391
14019TIP3    H141996   5.191   5.750   7.404
14019TIP3    H241997   5.049   5.763   7.352
14020TIP3   OH241998   4.821   5.836   8.467
14020TIP3    H141999   4.785   5.852   8.378
14020TIP3    H242000   4.741   5.833   8.523
14021TIP3   OH242001   5.881   4.259   7.165
14021TIP3    H142002   5.799   4.281   7.214
14021TIP3    H242003   5.895   4.342   7.115
14022TIP3   OH242004   4.626   5.002   7.507
14022TIP3    H142005   4.558   5.048   7.453
14022TIP3    H242006   4.582   4.918   7.524
14023TIP3   OH242007   5.679   5.627   6.712
14023TIP3    H142008   5.686   5.724   6.698
14023TIP3    H242009   5.772   5.599   6.701
14024TIP3   OH242010   4.400   5.389   8.422
14024TIP3    H142011   4.337   5.366   8.351
14024TIP3    H242012   4.441   5.303   8.444
14025TIP3   OH242013   4.260   5.577   8.054
14025TIP3    H142014   4.355   5.571   8.041
14025TIP3    H242015   4.253   5.658   8.108
14026TIP3   OH242016   5.224   5.815   8.238
14026TIP3    H142017   5.224   5.906   8.274
14026TIP3    H242018   5.155   5.772   8.295
14027TIP3   OH242019   4.989   5.946   7.195
14027TIP3    H142020   4.946   5.930   7.109
14027TIP3    H242021   4.958   6.035   7.218
14028TIP3   OH242022   4.427   5.793   7.579
14028TIP3    H142023   4.477   5.785   7.663
14028TIP3    H242024   4.370   5.714   7.586
14029TIP3   OH242025   5.189   5.844   6.833
14029TIP3    H142026   5.249   5.776   6.797
14029TIP3    H242027   5.225   5.857   6.923
14030TIP3   OH242028   5.241   5.893   7.102
14030TIP3    H142029   5.153   5.904   7.146
14030TIP3    H242030   5.295   5.863   7.176
14031TIP3   OH242031   6.038   5.166   8.348
14031TIP3    H142032   5.946   5.197   8.349
14031TIP3    H242033   6.029   5.069   8.349
14032TIP3   OH242034   4.605   5.569   8.405
14032TIP3    H142035   4.652   5.550   8.488
14032TIP3    H242036   4.529   5.508   8.411
14033TIP3   OH242037   5.008   4.391   8.192
14033TIP3    H142038   4.918   4.362   8.165
14033TIP3    H242039   4.985   4.473   8.240
14034TIP3   OH242040   5.548   4.509   8.381
14034TIP3    H142041   5.614   4.478   8.447
14034TIP3    H242042   5.463   4.488   8.425
14035TIP3   OH242043   5.777   4.934   8.305
14035TIP3    H142044   5.727   4.939   8.389
14035TIP3    H242045   5.760   5.023   8.266
14036TIP3   OH242046   5.439   5.060   6.858
14036TIP3    H142047   5.407   5.039   6.769
14036TIP3    H242048   5.520   5.111   6.837
14037TIP3   OH242049   5.150   4.442   7.162
14037TIP3    H142050   5.120   4.438   7.254
14037TIP3    H242051   5.114   4.357   7.129
14038TIP3   OH242052   4.937   4.909   8.207
14038TIP3    H142053   4.892   4.933   8.290
14038TIP3    H242054   4.923   4.990   8.154
14039TIP3   OH242055   4.825   4.794   7.724
14039TIP3    H142056   4.732   4.769   7.742
14039TIP3    H242057   4.837   4.753   7.635
14040TIP3   OH242058   5.313   4.877   7.451
14040TIP3    H142059   5.262   4.950   7.409
14040TIP3    H242060   5.369   4.847   7.377
14041TIP3   OH242061   5.474   5.157   8.531
14041TIP3    H142062   5.466   5.088   8.600
14041TIP3    H242063   5.560   5.198   8.552
14042TIP3   OH242064   5.470   4.906   7.691
14042TIP3    H142065   5.409   4.937   7.620
14042TIP3    H242066   5.504   4.826   7.645
14043TIP3   OH242067   4.759   4.941   8.418
14043TIP3    H142068   4.796   5.004   8.482
14043TIP3    H242069   4.748   4.860   8.472
14044TIP3   OH242070   4.806   4.406   7.131
14044TIP3    H142071   4.800   4.403   7.229
14044TIP3    H242072   4.732   4.466   7.110
14045TIP3   OH242073   4.357   4.453   7.996
14045TIP3    H142074   4.423   4.492   8.058
14045TIP3    H242075   4.411   4.432   7.919
14046TIP3   OH242076   4.320   4.437   7.513
14046TIP3    H142077   4.364   4.476   7.434
14046TIP3    H242078   4.261   4.512   7.537
14047TIP3   OH242079   5.469   5.152   8.108
14047TIP3    H142080   5.510   5.082   8.052
14047TIP3    H242081   5.445   5.099   8.187
14048TIP3   OH242082   5.152   4.614   7.784
14048TIP3    H142083   5.073   4.614   7.841
14048TIP3    H242084   5.224   4.612   7.850
14049TIP3   OH242085   4.586   4.673   7.793
14049TIP3    H142086   4.492   4.680   7.765
14049TIP3    H242087   4.611   4.582   7.768
14050TIP3   OH242088   4.852   4.666   7.483
14050TIP3    H142089   4.947   4.683   7.464
14050TIP3    H242090   4.808   4.690   7.398
14051TIP3   OH242091   5.644   4.691   7.985
14051TIP3    H142092   5.612   4.705   8.077
14051TIP3    H242093   5.575   4.631   7.951
14052TIP3   OH242094   4.698   4.701   7.257
14052TIP3    H142095   4.634   4.653   7.202
14052TIP3    H242096   4.753   4.743   7.188
14053TIP3   OH242097   4.752   5.482   8.631
14053TIP3    H142098   4.837   5.521   8.657
14053TIP3    H242099   4.711   5.460   8.716
14054TIP3   OH242100   5.233   4.943   7.880
14054TIP3    H142101   5.310   4.908   7.832
14054TIP3    H242102   5.243   4.903   7.968
14055TIP3   OH242103   4.750   4.433   7.761
14055TIP3    H142104   4.722   4.353   7.811
14055TIP3    H242105   4.808   4.396   7.693
14056TIP3   OH242106   5.210   4.842   8.174
14056TIP3    H142107   5.121   4.881   8.186
14056TIP3    H242108   5.269   4.904   8.222
14057TIP3   OH242109   4.947   5.230   7.266
14057TIP3    H142110   4.873   5.168   7.254
14057TIP3    H242111   4.928   5.265   7.357
14058TIP3   OH242112   5.847   5.463   7.894
14058TIP3    H142113   5.870   5.515   7.813
14058TIP3    H242114   5.761   5.422   7.868
14059TIP3   OH242115   5.404   4.542   7.132
14059TIP3    H142116   5.308   4.527   7.139
14059TIP3    H242117   5.415   4.637   7.155
14060TIP3   OH242118   5.339   5.551   8.265
14060TIP3    H142119   5.349   5.529   8.359
14060TIP3    H242120   5.302   5.641   8.269
14061TIP3   OH242121   5.474   4.791   7.233
14061TIP3    H142122   5.570   4.799   7.249
14061TIP3    H242123   5.455   4.872   7.182
14062TIP3   OH242124   4.635   5.248   7.942
14062TIP3    H142125   4.677   5.224   7.857
14062TIP3    H242126   4.687   5.195   8.004
14063TIP3   OH242127   5.092   5.380   7.088
14063TIP3    H142128   5.044   5.467   7.091
14063TIP3    H242129   5.038   5.327   7.150
14064TIP3   OH242130   4.523   5.177   8.545
14064TIP3    H142131   4.561   5.170   8.635
14064TIP3    H242132   4.451   5.112   8.548
14065TIP3   OH242133   5.231   5.288   8.561
14065TIP3    H142134   5.183   5.220   8.512
14065TIP3    H242135   5.323   5.254   8.554
14066TIP3   OH242136   5.502   5.807   8.151
14066TIP3    H142137   5.406   5.805   8.166
14066TIP3    H242138   5.532   5.847   8.236
14067TIP3   OH242139   5.916   4.884   7.069
14067TIP3    H142140   5.854   4.840   7.006
14067TIP3    H242141   5.913   4.974   7.029
14068TIP3   OH242142   6.129   5.693   8.133
14068TIP3    H142143   6.034   5.706   8.110
14068TIP3    H242144   6.170   5.689   8.044
14069TIP3   OH242145   5.618   5.701   6.977
14069TIP3    H142146   5.590   5.631   7.038
14069TIP3    H242147   5.631   5.654   6.892
14070TIP3   OH242148   5.612   5.331   7.810
14070TIP3    H142149   5.519   5.307   7.826
14070TIP3    H242150   5.645   5.250   7.767
14071TIP3   OH242151   4.743   5.559   7.567
14071TIP3    H142152   4.744   5.640   7.513
14071TIP3    H242153   4.648   5.546   7.579
14072TIP3   OH242154   4.308   4.858   7.274
14072TIP3    H142155   4.353   4.943   7.292
14072TIP3    H242156   4.231   4.866   7.335
14073TIP3   OH242157   4.874   5.321   7.509
14073TIP3    H142158   4.842   5.412   7.527
14073TIP3    H242159   4.840   5.273   7.587
14074TIP3   OH242160   5.010   5.901   8.035
14074TIP3    H142161   5.051   5.974   7.984
14074TIP3    H242162   5.087   5.865   8.082
14075TIP3   OH242163   4.662   5.797   7.420
14075TIP3    H142164   4.576   5.809   7.465
14075TIP3    H242165   4.696   5.889   7.423
14076TIP3   OH242166   5.396   5.534   7.998
14076TIP3    H142167   5.385   5.534   8.096
14076TIP3    H242168   5.480   5.487   7.988
14077TIP3   OH242169   5.374   5.424   6.880
14077TIP3    H142170   5.427   5.400   6.959
14077TIP3    H242171   5.285   5.405   6.911
14078TIP3   OH242172   5.632   6.076   8.051
14078TIP3    H142173   5.558   6.015   8.033
14078TIP3    H242174   5.626   6.138   7.975
14079TIP3   OH242175   5.712   5.902   6.699
14079TIP3    H142176   5.747   5.974   6.644
14079TIP3    H242177   5.632   5.948   6.733
14080TIP3   OH242178   4.719   4.687   8.543
14080TIP3    H142179   4.622   4.691   8.552
14080TIP3    H242180   4.737   4.600   8.581
14081TIP3   OH242181   5.534   5.359   7.094
14081TIP3    H142182   5.526   5.294   7.167
14081TIP3    H242183   5.632   5.358   7.082
14082TIP3   OH242184   4.445   5.764   8.197
14082TIP3    H142185   4.503   5.695   8.233
14082TIP3    H242186   4.477   5.842   8.245
14083TIP3   OH242187   4.739   5.408   6.879
14083TIP3    H142188   4.754   5.316   6.853
14083TIP3    H242189   4.719   5.399   6.974
14084TIP3   OH242190   4.683   5.413   7.151
14084TIP3    H142191   4.758   5.391   7.208
14084TIP3    H242192   4.684   5.512   7.157
14085TIP3   OH242193   4.416   5.105   7.354
14085TIP3    H142194   4.351   5.152   7.411
14085TIP3    H242195   4.432   5.174   7.286
14086TIP3   OH242196   5.572   4.745   8.243
14086TIP3    H142197   5.651   4.785   8.281
14086TIP3    H242198   5.561   4.664   8.298
14087TIP3   OH242199   5.451   4.493   7.413
14087TIP3    H142200   5.438   4.516   7.319
14087TIP3    H242201   5.490   4.575   7.449
14088TIP3   OH242202   4.949   5.609   7.098
14088TIP3    H142203   4.862   5.636   7.134
14088TIP3    H242204   4.969   5.687   7.043
14089TIP3   OH242205   5.134   4.676   7.514
14089TIP3    H142206   5.199   4.748   7.496
14089TIP3    H242207   5.142   4.667   7.611
14090TIP3   OH242208   5.405   4.991   8.318
14090TIP3    H142209   5.426   5.047   8.395
14090TIP3    H242210   5.463   4.914   8.331
14091TIP3   OH242211   5.281   4.397   7.614
14091TIP3    H142212   5.278   4.472   7.676
14091TIP3    H242213   5.343   4.433   7.546
14092TIP3   OH242214   4.692   5.685   7.168
14092TIP3    H142215   4.664   5.755   7.105
14092TIP3    H242216   4.679   5.730   7.254
14093TIP3   OH242217   4.802   4.401   7.407
14093TIP3    H142218   4.798   4.492   7.443
14093TIP3    H242219   4.899   4.386   7.414
14094TIP3   OH242220   6.043   4.885   8.309
14094TIP3    H142221   5.945   4.886   8.308
14094TIP3    H242222   6.062   4.854   8.220
14095TIP3   OH242223   5.699   5.086   7.689
14095TIP3    H142224   5.622   5.028   7.704
14095TIP3    H242225   5.770   5.040   7.738
14096TIP3   OH242226   4.411   5.314   7.160
14096TIP3    H142227   4.476   5.385   7.169
14096TIP3    H242228   4.457   5.260   7.092
14097TIP3   OH242229   4.344   4.583   7.278
14097TIP3    H142230   4.363   4.679   7.280
14097TIP3    H242231   4.250   4.584   7.258
14098TIP3   OH242232   5.664   6.038   7.636
14098TIP3    H142233   5.620   6.087   7.562
14098TIP3    H242234   5.758   6.055   7.613
14099TIP3   OH242235   4.741   4.314   8.164
14099TIP3    H142236   4.712   4.279   8.077
14099TIP3    H242237   4.733   4.236   8.222
14100TIP3   OH242238   4.277   5.523   7.544
14100TIP3    H142239   4.212   5.559   7.606
14100TIP3    H242240   4.251   5.568   7.461
14101TIP3   OH242241   4.440   6.062   8.592
14101TIP3    H142242   4.520   6.042   8.643
14101TIP3    H242243   4.394   5.977   8.598
14102TIP3   OH242244   4.900   5.613   6.787
14102TIP3    H142245   4.846   5.540   6.827
14102TIP3    H242246   4.977   5.563   6.755
14103TIP3   OH242247   5.549   5.908   8.403
14103TIP3    H142248   5.551   5.861   8.488
14103TIP3    H242249   5.613   5.980   8.419
14104TIP3   OH242250   5.336   5.651   6.701
14104TIP3    H142251   5.387   5.592   6.759
14104TIP3    H242252   5.391   5.653   6.620
14105TIP3   OH242253   4.547   5.126   7.014
14105TIP3    H142254   4.606   5.101   7.088
14105TIP3    H242255   4.613   5.132   6.941
14106TIP3   OH242256   5.212   5.562   8.570
14106TIP3    H142257   5.142   5.586   8.507
14106TIP3    H242258   5.209   5.464   8.573
14107TIP3   OH242259   5.058   5.326   6.820
14107TIP3    H142260   5.061   5.340   6.916
14107TIP3    H242261   5.056   5.229   6.815
14108TIP3   OH242262   5.662   5.574   8.197
14108TIP3    H142263   5.740   5.616   8.157
14108TIP3    H242264   5.595   5.642   8.182
14109TIP3   OH242265   4.696   5.166   8.771
14109TIP3    H142266   4.791   5.152   8.757
14109TIP3    H242267   4.690   5.163   8.868
14110TIP3   OH242268   4.749   5.035   7.231
14110TIP3    H142269   4.727   4.996   7.317
14110TIP3    H242270   4.789   4.960   7.183
14111TIP3   OH242271   5.020   5.089   8.455
14111TIP3    H142272   4.948   5.155   8.458
14111TIP3    H242273   5.074   5.124   8.379
14112TIP3   OH242274   4.857   4.827   7.075
14112TIP3    H142275   4.832   4.835   6.981
14112TIP3    H242276   4.955   4.831   7.068
14113TIP3   OH242277   5.676   5.155   6.740
14113TIP3    H142278   5.656   5.113   6.655
14113TIP3    H242279   5.645   5.247   6.719
14114TIP3   OH242280   5.149   4.888   8.591
14114TIP3    H142281   5.151   4.808   8.534
14114TIP3    H242282   5.104   4.953   8.532
14115TIP3   OH242283   5.148   4.678   8.398
14115TIP3    H142284   5.178   4.719   8.314
14115TIP3    H242285   5.056   4.653   8.375
14116TIP3   OH242286   5.172   5.201   8.263
14116TIP3    H142287   5.260   5.218   8.226
14116TIP3    H242288   5.118   5.271   8.222
14117TIP3   OH242289   5.792   5.394   8.362
14117TIP3    H142290   5.735   5.462   8.321
14117TIP3    H242291   5.881   5.431   8.342
14118TIP3   OH242292   4.970   5.006   8.793
14118TIP3    H142293   4.930   4.918   8.788
14118TIP3    H242294   5.045   4.997   8.730
14119TIP3   OH242295   5.290   4.439   8.446
14119TIP3    H142296   5.235   4.519   8.434
14119TIP3    H242297   5.221   4.369   8.450
14120TIP3   OH242298   5.410   4.935   8.681
14120TIP3    H142299   5.401   4.919   8.776
14120TIP3    H242300   5.319   4.913   8.650
14121TIP3   OH242301   5.640   4.889   8.537
14121TIP3    H142302   5.556   4.896   8.586
14121TIP3    H242303   5.696   4.845   8.602
14122TIP3   OH242304   4.866   4.742   8.848
14122TIP3    H142305   4.945   4.702   8.807
14122TIP3    H242306   4.900   4.749   8.939
14123TIP3   OH242307   5.330   4.384   8.725
14123TIP3    H142308   5.411   4.413   8.770
14123TIP3    H242309   5.343   4.412   8.634
14124TIP3   OH242310   4.662   5.882   6.978
14124TIP3    H142311   4.759   5.881   6.963
14124TIP3    H242312   4.636   5.938   6.902
14125TIP3   OH242313   4.143   5.271   7.196
14125TIP3    H142314   4.237   5.294   7.182
14125TIP3    H242315   4.138   5.183   7.154
14126TIP3   OH242316   4.056   5.882   7.612
14126TIP3    H142317   3.991   5.820   7.573
14126TIP3    H242318   4.102   5.823   7.676
14127TIP3   OH242319   4.195   5.729   7.795
14127TIP3    H142320   4.183   5.660   7.862
14127TIP3    H242321   4.248   5.793   7.846
14128TIP3   OH242322   5.923   6.112   7.594
14128TIP3    H142323   5.948   6.149   7.680
14128TIP3    H242324   5.959   6.177   7.531
14129TIP3   OH242325   5.983   6.133   7.872
14129TIP3    H142326   5.928   6.051   7.874
14129TIP3    H242327   5.960   6.173   7.957
14130TIP3   OH242328   5.813   5.343   7.071
14130TIP3    H142329   5.878   5.409   7.041
14130TIP3    H242330   5.859   5.306   7.150
14131TIP3   OH242331   5.942   5.210   7.275
14131TIP3    H142332   5.874   5.169   7.333
14131TIP3    H242333   6.004   5.250   7.340
14132TIP3   OH242334   5.995   5.603   7.708
14132TIP3    H142335   6.045   5.538   7.656
14132TIP3    H242336   5.995   5.681   7.649
14133TIP3   OH242337   5.821   5.915   7.901
14133TIP3    H142338   5.750   5.950   7.959
14133TIP3    H242339   5.769   5.868   7.831
14134TIP3   OH242340   5.878   5.119   6.921
14134TIP3    H142341   5.807   5.122   6.853
14134TIP3    H242342   5.851   5.195   6.976
14135TIP3   OH242343   5.750   4.791   6.875
14135TIP3    H142344   5.705   4.832   6.800
14135TIP3    H242345   5.725   4.697   6.864
14136TIP3   OH242346   5.754   5.070   7.421
14136TIP3    H142347   5.761   4.973   7.415
14136TIP3    H242348   5.739   5.084   7.517
14137TIP3   OH242349   4.379   5.141   8.169
14137TIP3    H142350   4.378   5.110   8.076
14137TIP3    H242351   4.476   5.143   8.186
14138TIP3   OH242352   6.033   5.474   8.265
14138TIP3    H142353   6.116   5.437   8.297
14138TIP3    H242354   6.064   5.553   8.216
14139TIP3   OH242355   6.259   5.316   8.323
14139TIP3    H142356   6.173   5.270   8.340
14139TIP3    H242357   6.315   5.235   8.320
14140TIP3   OH242358   5.693   4.525   6.858
14140TIP3    H142359   5.767   4.495   6.915
14140TIP3    H242360   5.619   4.467   6.883
14141TIP3   OH242361   5.750   4.785   7.314
14141TIP3    H142362   5.791   4.696   7.329
14141TIP3    H242363   5.808   4.819   7.244
14142TIP3   OH242364   5.911   4.954   7.810
14142TIP3    H142365   5.997   4.980   7.770
14142TIP3    H242366   5.923   4.995   7.898
14143TIP3   OH242367   5.979   5.103   8.037
14143TIP3    H142368   5.904   5.134   8.093
14143TIP3    H242369   6.011   5.187   8.000
14144TIP3   OH242370   5.860   4.535   7.352
14144TIP3    H142371   5.908   4.519   7.436
14144TIP3    H242372   5.799   4.459   7.351
14145TIP3   OH242373   4.557   4.524   8.171
14145TIP3    H142374   4.618   4.448   8.183
14145TIP3    H242375   4.620   4.597   8.163
14146TIP3   OH242376   4.362   4.791   8.246
14146TIP3    H142377   4.412   4.793   8.162
14146TIP3    H242378   4.383   4.878   8.283
14147TIP3   OH242379   6.291   4.834   8.411
14147TIP3    H142380   6.198   4.862   8.398
14147TIP3    H242381   6.290   4.750   8.362
14148TIP3   OH242382   5.938   4.468   6.987
14148TIP3    H142383   5.978   4.397   6.932
14148TIP3    H242384   6.005   4.539   6.982
14149TIP3   OH242385   4.337   4.280   7.735
14149TIP3    H142386   4.251   4.291   7.779
14149TIP3    H242387   4.336   4.351   7.667
14150TIP3   OH242388   5.506   5.998   7.254
14150TIP3    H142389   5.557   5.991   7.170
14150TIP3    H242390   5.549   6.073   7.297
14151TIP3   OH242391   4.578   4.409   8.528
14151TIP3    H142392   4.535   4.355   8.596
14151TIP3    H242393   4.500   4.443   8.479
14152TIP3   OH242394   4.602   5.813   8.644
14152TIP3    H142395   4.512   5.786   8.617
14152TIP3    H242396   4.610   5.772   8.730
14153TIP3   OH242397   4.782   5.838   8.181
14153TIP3    H142398   4.737   5.917   8.143
14153TIP3    H242399   4.870   5.851   8.139
14154TIP3   OH242400   5.239   6.082   8.331
14154TIP3    H142401   5.292   6.066   8.411
14154TIP3    H242402   5.303   6.133   8.277
14155TIP3   OH242403   5.433   6.230   8.197
14155TIP3    H142404   5.488   6.172   8.141
14155TIP3    H242405   5.472   6.316   8.180
14156TIP3   OH242406   6.204   4.595   8.276
14156TIP3    H142407   6.112   4.591   8.242
14156TIP3    H242408   6.232   4.501   8.265
14157TIP3   OH242409   4.457   6.087   8.214
14157TIP3    H142410   4.369   6.124   8.189
14157TIP3    H242411   4.473   6.137   8.295
14158TIP3   OH242412   4.696   6.072   8.069
14158TIP3    H142413   4.608   6.086   8.111
14158TIP3    H242414   4.679   6.108   7.979
14159TIP3   OH242415   5.120   6.101   7.865
14159TIP3    H142416   5.053   6.118   7.796
14159TIP3    H242417   5.132   6.191   7.902
14160TIP3   OH242418   5.387   6.041   7.919
14160TIP3    H142419   5.294   6.060   7.896
14160TIP3    H242420   5.434   6.111   7.870
14161TIP3   OH242421   5.592   6.226   7.827
14161TIP3    H142422   5.576   6.312   7.782
14161TIP3    H242423   5.617   6.169   7.752
14162TIP3   OH242424   4.368   5.886   7.953
14162TIP3    H142425   4.397   5.862   8.044
14162TIP3    H242426   4.442   5.845   7.902
14163TIP3   OH242427   4.565   5.760   7.812
14163TIP3    H142428   4.582   5.676   7.862
14163TIP3    H242429   4.655   5.798   7.808
14164TIP3   OH242430   4.828   5.852   7.818
14164TIP3    H142431   4.864   5.762   7.807
14164TIP3    H242432   4.876   5.878   7.899
14165TIP3   OH242433   5.404   4.509   7.897
14165TIP3    H142434   5.364   4.439   7.952
14165TIP3    H242435   5.481   4.463   7.859
14166TIP3   OH242436   5.928   4.388   7.804
14166TIP3    H142437   5.965   4.442   7.731
14166TIP3    H242438   5.833   4.411   7.801
14167TIP3   OH242439   6.024   4.490   7.569
14167TIP3    H142440   6.098   4.439   7.530
14167TIP3    H242441   6.057   4.582   7.556
14168TIP3   OH242442   4.655   4.217   7.915
14168TIP3    H142443   4.564   4.182   7.923
14168TIP3    H242444   4.706   4.132   7.915
14169TIP3   OH242445   4.445   4.123   7.533
14169TIP3    H142446   4.519   4.180   7.558
14169TIP3    H242447   4.385   4.149   7.606
14170TIP3   OH242448   5.098   4.252   7.801
14170TIP3    H142449   5.154   4.300   7.738
14170TIP3    H242450   5.130   4.288   7.886
14171TIP3   OH242451   5.642   4.399   7.783
14171TIP3    H142452   5.646   4.360   7.695
14171TIP3    H242453   5.631   4.319   7.839
14172TIP3   OH242454   5.676   4.323   7.345
14172TIP3    H142455   5.590   4.366   7.360
14172TIP3    H242456   5.661   4.237   7.390
14173TIP3   OH242457   4.158   5.663   7.346
14173TIP3    H142458   4.072   5.632   7.312
14173TIP3    H242459   4.152   5.757   7.323
14174TIP3   OH242460   5.076   4.425   7.427
14174TIP3    H142461   5.137   4.381   7.489
14174TIP3    H242462   5.094   4.518   7.452
14175TIP3   OH242463   4.931   5.846   6.931
14175TIP3    H142464   5.019   5.871   6.893
14175TIP3    H242465   4.909   5.772   6.869
14176TIP3   OH242466   5.649   5.968   7.020
14176TIP3    H142467   5.640   5.871   7.006
14176TIP3    H242468   5.604   6.003   6.940
14177TIP3   OH242469   4.232   5.678   6.983
14177TIP3    H142470   4.239   5.712   7.073
14177TIP3    H242471   4.321   5.640   6.968
14178TIP3   OH242472   7.134   5.481   6.974
14178TIP3    H142473   7.107   5.573   6.952
14178TIP3    H242474   7.062   5.431   6.933
14179TIP3   OH242475   7.102   5.494   7.381
14179TIP3    H142476   7.161   5.434   7.428
14179TIP3    H242477   7.085   5.444   7.300
14180TIP3   OH242478   6.439   5.347   7.693
14180TIP3    H142479   6.465   5.286   7.764
14180TIP3    H242480   6.502   5.419   7.710
14181TIP3   OH242481   6.418   5.791   7.443
14181TIP3    H142482   6.403   5.694   7.448
14181TIP3    H242483   6.515   5.792   7.431
14182TIP3   OH242484   6.120   4.991   7.227
14182TIP3    H142485   6.071   5.073   7.245
14182TIP3    H242486   6.050   4.938   7.186
14183TIP3   OH242487   6.179   5.279   7.403
14183TIP3    H142488   6.228   5.202   7.439
14183TIP3    H242489   6.234   5.305   7.328
14184TIP3   OH242490   6.924   5.706   7.354
14184TIP3    H142491   6.959   5.615   7.345
14184TIP3    H242492   7.005   5.757   7.347
14185TIP3   OH242493   7.336   5.195   7.423
14185TIP3    H142494   7.373   5.104   7.430
14185TIP3    H242495   7.304   5.194   7.330
14186TIP3   OH242496   6.696   4.870   7.398
14186TIP3    H142497   6.672   4.943   7.337
14186TIP3    H242498   6.646   4.797   7.356
14187TIP3   OH242499   7.387   4.962   7.020
14187TIP3    H142500   7.458   4.944   7.085
14187TIP3    H242501   7.439   5.000   6.947
14188TIP3   OH242502   6.323   5.071   7.507
14188TIP3    H142503   6.406   5.055   7.555
14188TIP3    H242504   6.338   5.015   7.428
14189TIP3   OH242505   6.766   5.269   7.291
14189TIP3    H142506   6.858   5.242   7.310
14189TIP3    H242507   6.725   5.185   7.263
14190TIP3   OH242508   6.686   4.852   7.835
14190TIP3    H142509   6.626   4.890   7.768
14190TIP3    H242510   6.633   4.869   7.916
14191TIP3   OH242511   7.032   5.705   6.844
14191TIP3    H142512   6.996   5.685   6.756
14191TIP3    H242513   6.987   5.790   6.862
14192TIP3   OH242514   6.787   5.619   7.596
14192TIP3    H142515   6.724   5.680   7.637
14192TIP3    H242516   6.840   5.678   7.541
14193TIP3   OH242517   7.591   4.951   7.200
14193TIP3    H142518   7.571   4.901   7.281
14193TIP3    H242519   7.641   5.026   7.236
14194TIP3   OH242520   6.557   4.966   7.617
14194TIP3    H142521   6.619   5.039   7.643
14194TIP3    H242522   6.608   4.927   7.542
14195TIP3   OH242523   6.014   5.513   6.963
14195TIP3    H142524   5.973   5.539   6.879
14195TIP3    H242525   6.044   5.600   6.998
14196TIP3   OH242526   7.037   4.573   7.547
14196TIP3    H142527   7.024   4.477   7.565
14196TIP3    H242528   6.960   4.610   7.595
14197TIP3   OH242529   7.293   5.877   6.761
14197TIP3    H142530   7.257   5.794   6.728
14197TIP3    H242531   7.340   5.850   6.841
14198TIP3   OH242532   6.973   5.336   6.804
14198TIP3    H142533   6.891   5.388   6.786
14198TIP3    H242534   7.015   5.335   6.717
14199TIP3   OH242535   6.932   5.121   6.519
14199TIP3    H142536   6.999   5.174   6.567
14199TIP3    H242537   6.990   5.058   6.472
14200TIP3   OH242538   7.320   5.416   6.780
14200TIP3    H142539   7.265   5.441   6.858
14200TIP3    H242540   7.405   5.395   6.825
14201TIP3   OH242541   6.552   5.415   7.193
14201TIP3    H142542   6.509   5.358   7.125
14201TIP3    H242543   6.629   5.362   7.220
14202TIP3   OH242544   6.684   5.833   7.328
14202TIP3    H142545   6.643   5.805   7.244
14202TIP3    H242546   6.763   5.775   7.333
14203TIP3   OH242547   6.703   5.367   7.542
14203TIP3    H142548   6.724   5.349   7.448
14203TIP3    H242549   6.737   5.459   7.554
14204TIP3   OH242550   7.162   5.274   6.602
14204TIP3    H142551   7.219   5.336   6.653
14204TIP3    H242552   7.188   5.296   6.509
14205TIP3   OH242553   6.512   5.524   7.906
14205TIP3    H142554   6.456   5.599   7.883
14205TIP3    H242555   6.453   5.473   7.965
14206TIP3   OH242556   6.907   5.952   6.864
14206TIP3    H142557   6.967   6.007   6.918
14206TIP3    H242558   6.843   6.016   6.829
14207TIP3   OH242559   7.677   4.516   6.652
14207TIP3    H142560   7.594   4.537   6.700
14207TIP3    H242561   7.690   4.598   6.600
14208TIP3   OH242562   6.419   5.259   6.997
14208TIP3    H142563   6.352   5.306   6.942
14208TIP3    H242564   6.377   5.173   7.009
14209TIP3   OH242565   7.478   5.886   6.200
14209TIP3    H142566   7.485   5.984   6.194
14209TIP3    H242567   7.569   5.860   6.175
14210TIP3   OH242568   6.217   5.630   7.882
14210TIP3    H142569   6.142   5.618   7.821
14210TIP3    H242570   6.229   5.541   7.918
14211TIP3   OH242571   6.054   5.834   7.557
14211TIP3    H142572   6.141   5.849   7.518
14211TIP3    H242573   6.020   5.924   7.573
14212TIP3   OH242574   6.781   6.199   6.684
14212TIP3    H142575   6.732   6.186   6.600
14212TIP3    H242576   6.752   6.288   6.711
14213TIP3   OH242577   6.223   6.047   7.059
14213TIP3    H142578   6.264   6.039   7.148
14213TIP3    H242579   6.156   5.977   7.064
14214TIP3   OH242580   6.985   6.096   6.311
14214TIP3    H142581   7.044   6.027   6.274
14214TIP3    H242582   7.018   6.102   6.403
14215TIP3   OH242583   7.020   6.128   6.584
14215TIP3    H142584   6.936   6.155   6.626
14215TIP3    H242585   7.048   6.057   6.644
14216TIP3   OH242586   6.805   4.650   7.679
14216TIP3    H142587   6.716   4.618   7.651
14216TIP3    H242588   6.776   4.730   7.729
14217TIP3   OH242589   7.326   4.754   7.854
14217TIP3    H142590   7.385   4.754   7.930
14217TIP3    H242591   7.238   4.747   7.897
14218TIP3   OH242592   7.239   5.315   6.347
14218TIP3    H142593   7.203   5.295   6.258
14218TIP3    H242594   7.314   5.372   6.324
14219TIP3   OH242595   6.952   4.694   6.650
14219TIP3    H142596   6.915   4.692   6.741
14219TIP3    H242597   6.909   4.614   6.614
14220TIP3   OH242598   6.741   5.152   7.695
14220TIP3    H142599   6.694   5.177   7.777
14220TIP3    H242600   6.724   5.233   7.640
14221TIP3   OH242601   6.620   5.050   7.210
14221TIP3    H142602   6.527   5.025   7.229
14221TIP3    H242603   6.631   5.009   7.121
14222TIP3   OH242604   7.108   5.136   6.935
14222TIP3    H142605   7.057   5.208   6.893
14222TIP3    H242606   7.163   5.104   6.861
14223TIP3   OH242607   7.260   5.161   7.166
14223TIP3    H142608   7.197   5.191   7.097
14223TIP3    H242609   7.293   5.081   7.120
14224TIP3   OH242610   6.568   5.186   7.906
14224TIP3    H142611   6.609   5.242   7.975
14224TIP3    H242612   6.546   5.106   7.958
14225TIP3   OH242613   6.607   4.672   6.615
14225TIP3    H142614   6.595   4.670   6.712
14225TIP3    H242615   6.529   4.724   6.588
14226TIP3   OH242616   6.148   4.714   7.486
14226TIP3    H142617   6.222   4.746   7.540
14226TIP3    H242618   6.190   4.683   7.404
14227TIP3   OH242619   6.117   4.696   7.005
14227TIP3    H142620   6.162   4.734   6.926
14227TIP3    H242621   6.056   4.769   7.026
14228TIP3   OH242622   6.949   4.868   7.270
14228TIP3    H142623   6.863   4.868   7.318
14228TIP3    H242624   7.012   4.873   7.343
14229TIP3   OH242625   6.382   4.930   7.278
14229TIP3    H142626   6.287   4.939   7.251
14229TIP3    H242627   6.402   4.837   7.256
14230TIP3   OH242628   6.650   4.924   6.969
14230TIP3    H142629   6.742   4.941   6.943
14230TIP3    H242630   6.599   4.946   6.887
14231TIP3   OH242631   7.404   4.931   7.471
14231TIP3    H142632   7.344   4.921   7.546
14231TIP3    H242633   7.363   4.866   7.411
14232TIP3   OH242634   6.496   4.957   6.748
14232TIP3    H142635   6.424   4.913   6.700
14232TIP3    H242636   6.547   4.994   6.672
14233TIP3   OH242637   7.020   5.188   7.364
14233TIP3    H142638   7.099   5.158   7.318
14233TIP3    H242639   7.033   5.155   7.455
14234TIP3   OH242640   6.553   4.687   7.251
14234TIP3    H142641   6.516   4.610   7.299
14234TIP3    H242642   6.593   4.644   7.174
14235TIP3   OH242643   7.008   5.100   7.656
14235TIP3    H142644   6.912   5.121   7.662
14235TIP3    H242645   7.043   5.147   7.732
14236TIP3   OH242646   6.745   5.487   6.757
14236TIP3    H142647   6.672   5.423   6.744
14236TIP3    H242648   6.723   5.522   6.847
14237TIP3   OH242649   7.202   4.798   6.621
14237TIP3    H142650   7.105   4.779   6.627
14237TIP3    H242651   7.207   4.893   6.643
14238TIP3   OH242652   7.270   5.049   6.721
14238TIP3    H142653   7.366   5.058   6.734
14238TIP3    H242654   7.247   5.129   6.669
14239TIP3   OH242655   6.444   5.516   7.432
14239TIP3    H142656   6.479   5.482   7.347
14239TIP3    H242657   6.465   5.443   7.493
14240TIP3   OH242658   6.890   5.638   6.579
14240TIP3    H142659   6.842   5.724   6.581
14240TIP3    H242660   6.834   5.584   6.639
14241TIP3   OH242661   6.306   5.401   8.058
14241TIP3    H142662   6.283   5.383   8.152
14241TIP3    H242663   6.230   5.359   8.013
14242TIP3   OH242664   7.712   5.139   6.553
14242TIP3    H142665   7.651   5.094   6.490
14242TIP3    H242666   7.705   5.229   6.513
14243TIP3   OH242667   7.358   5.947   6.450
14243TIP3    H142668   7.373   5.887   6.524
14243TIP3    H242669   7.412   5.910   6.379
14244TIP3   OH242670   6.539   5.820   7.066
14244TIP3    H142671   6.535   5.899   7.007
14244TIP3    H242672   6.445   5.795   7.066
14245TIP3   OH242673   6.103   5.118   6.761
14245TIP3    H142674   6.146   5.204   6.780
14245TIP3    H242675   6.025   5.123   6.820
14246TIP3   OH242676   6.672   5.582   7.000
14246TIP3    H142677   6.639   5.672   7.020
14246TIP3    H242678   6.634   5.531   7.074
14247TIP3   OH242679   6.462   6.046   6.910
14247TIP3    H142680   6.374   6.061   6.950
14247TIP3    H242681   6.501   6.136   6.918
14248TIP3   OH242682   7.170   5.674   6.365
14248TIP3    H142683   7.219   5.658   6.448
14248TIP3    H242684   7.079   5.656   6.393
14249TIP3   OH242685   7.498   6.161   6.182
14249TIP3    H142686   7.523   6.208   6.102
14249TIP3    H242687   7.415   6.210   6.204
14250TIP3   OH242688   6.526   4.932   8.050
14250TIP3    H142689   6.431   4.940   8.067
14250TIP3    H242690   6.555   4.875   8.123
14251TIP3   OH242691   7.321   5.620   6.590
14251TIP3    H142692   7.314   5.551   6.659
14251TIP3    H242693   7.417   5.615   6.571
14252TIP3   OH242694   6.264   6.035   7.687
14252TIP3    H142695   6.255   5.941   7.711
14252TIP3    H242696   6.219   6.080   7.759
14253TIP3   OH242697   6.538   5.664   6.364
14253TIP3    H142698   6.547   5.571   6.338
14253TIP3    H242699   6.516   5.655   6.459
14254TIP3   OH242700   6.482   5.670   6.635
14254TIP3    H142701   6.553   5.648   6.696
14254TIP3    H242702   6.481   5.768   6.641
14255TIP3   OH242703   6.214   5.365   6.842
14255TIP3    H142704   6.147   5.410   6.898
14255TIP3    H242705   6.226   5.433   6.773
14256TIP3   OH242706   7.249   4.748   6.900
14256TIP3    H142707   7.231   4.770   6.806
14256TIP3    H242708   7.285   4.833   6.933
14257TIP3   OH242709   6.747   5.868   6.584
14257TIP3    H142710   6.660   5.892   6.620
14257TIP3    H242711   6.761   5.943   6.524
14258TIP3   OH242712   6.937   4.930   7.000
14258TIP3    H142713   6.998   5.005   6.983
14258TIP3    H242714   6.938   4.925   7.098
14259TIP3   OH242715   7.077   4.657   7.104
14259TIP3    H142716   7.059   4.737   7.156
14259TIP3    H242717   7.138   4.692   7.035
14260TIP3   OH242718   6.492   5.941   6.654
14260TIP3    H142719   6.461   6.010   6.591
14260TIP3    H242720   6.474   5.985   6.740
14261TIP3   OH242721   6.589   4.657   6.892
14261TIP3    H142722   6.586   4.748   6.928
14261TIP3    H242723   6.686   4.640   6.899
14262TIP3   OH242724   7.528   5.272   7.179
14262TIP3    H142725   7.436   5.239   7.182
14262TIP3    H242726   7.563   5.238   7.264
14263TIP3   OH242727   6.206   5.569   6.647
14263TIP3    H142728   6.267   5.645   6.653
14263TIP3    H242729   6.253   5.516   6.579
14264TIP3   OH242730   6.151   4.848   6.780
14264TIP3    H142731   6.152   4.946   6.778
14264TIP3    H242732   6.069   4.829   6.733
14265TIP3   OH242733   6.542   4.568   7.650
14265TIP3    H142734   6.509   4.534   7.564
14265TIP3    H242735   6.530   4.491   7.709
14266TIP3   OH242736   6.071   5.776   7.030
14266TIP3    H142737   6.011   5.815   7.096
14266TIP3    H242738   6.042   5.823   6.949
14267TIP3   OH242739   6.697   5.869   6.275
14267TIP3    H142740   6.642   5.797   6.313
14267TIP3    H242741   6.773   5.818   6.242
14268TIP3   OH242742   7.136   5.905   6.187
14268TIP3    H142743   7.189   5.859   6.255
14268TIP3    H242744   7.196   5.905   6.110
14269TIP3   OH242745   6.344   5.385   6.498
14269TIP3    H142746   6.400   5.356   6.572
14269TIP3    H242747   6.410   5.390   6.427
14270TIP3   OH242748   6.859   5.586   6.308
14270TIP3    H142749   6.857   5.598   6.405
14270TIP3    H242750   6.855   5.488   6.302
14271TIP3   OH242751   6.553   5.290   6.722
14271TIP3    H142752   6.521   5.249   6.803
14271TIP3    H242753   6.587   5.214   6.671
14272TIP3   OH242754   6.835   5.338   7.927
14272TIP3    H142755   6.778   5.383   7.992
14272TIP3    H242756   6.833   5.400   7.852
14273TIP3   OH242757   6.652   5.084   6.561
14273TIP3    H142758   6.625   5.091   6.467
14273TIP3    H242759   6.750   5.088   6.552
14274TIP3   OH242760   7.476   5.414   6.225
14274TIP3    H142761   7.451   5.370   6.141
14274TIP3    H242762   7.443   5.505   6.205
14275TIP3   OH242763   6.943   5.133   8.083
14275TIP3    H142764   6.935   5.059   8.020
14275TIP3    H242765   6.904   5.207   8.033
14276TIP3   OH242766   6.945   4.923   7.878
14276TIP3    H142767   6.968   4.961   7.792
14276TIP3    H242768   6.850   4.902   7.865
14277TIP3   OH242769   7.078   4.698   7.966
14277TIP3    H142770   7.026   4.777   7.936
14277TIP3    H242771   7.013   4.626   7.950
14278TIP3   OH242772   6.647   5.028   8.361
14278TIP3    H142773   6.656   4.943   8.315
14278TIP3    H242774   6.704   5.014   8.437
14279TIP3   OH242775   7.177   4.693   8.226
14279TIP3    H142776   7.237   4.627   8.191
14279TIP3    H242777   7.126   4.713   8.145
14280TIP3   OH242778   6.459   6.140   6.465
14280TIP3    H142779   6.555   6.140   6.444
14280TIP3    H242780   6.426   6.194   6.391
14281TIP3   OH242781   5.938   5.526   6.684
14281TIP3    H142782   6.033   5.548   6.669
14281TIP3    H242783   5.932   5.438   6.640
14282TIP3   OH242784   5.856   6.134   7.092
14282TIP3    H142785   5.787   6.077   7.054
14282TIP3    H242786   5.899   6.073   7.155
14283TIP3   OH242787   5.992   5.977   7.273
14283TIP3    H142788   5.961   5.916   7.341
14283TIP3    H242789   6.037   6.045   7.327
14284TIP3   OH242790   7.590   5.588   6.562
14284TIP3    H142791   7.649   5.648   6.511
14284TIP3    H242792   7.647   5.563   6.637
14285TIP3   OH242793   7.734   5.468   6.762
14285TIP3    H142794   7.662   5.420   6.809
14285TIP3    H242795   7.799   5.479   6.832
14286TIP3   OH242796   7.668   5.372   6.412
14286TIP3    H142797   7.600   5.377   6.341
14286TIP3    H242798   7.638   5.447   6.467
14287TIP3   OH242799   7.548   5.046   6.361
14287TIP3    H142800   7.499   5.088   6.289
14287TIP3    H242801   7.522   4.952   6.348
14288TIP3   OH242802   7.556   5.315   6.904
14288TIP3    H142803   7.554   5.220   6.881
14288TIP3    H242804   7.551   5.311   7.002
14289TIP3   OH242805   6.173   5.395   7.652
14289TIP3    H142806   6.165   5.363   7.560
14289TIP3    H242807   6.270   5.388   7.663
14290TIP3   OH242808   7.489   4.780   6.344
14290TIP3    H142809   7.558   4.748   6.405
14290TIP3    H242810   7.412   4.725   6.366
14291TIP3   OH242811   7.550   5.045   6.800
14291TIP3    H142812   7.587   4.955   6.816
14291TIP3    H242813   7.606   5.073   6.725
14292TIP3   OH242814   6.382   5.074   8.312
14292TIP3    H142815   6.479   5.070   8.325
14292TIP3    H242816   6.355   4.996   8.365
14293TIP3   OH242817   7.652   4.793   6.839
14293TIP3    H142818   7.701   4.775   6.922
14293TIP3    H242819   7.590   4.717   6.837
14294TIP3   OH242820   6.355   4.776   7.657
14294TIP3    H142821   6.418   4.702   7.668
14294TIP3    H242822   6.417   4.851   7.651
14295TIP3   OH242823   6.156   5.049   7.732
14295TIP3    H142824   6.206   5.047   7.647
14295TIP3    H242825   6.184   5.134   7.768
14296TIP3   OH242826   7.738   4.723   6.478
14296TIP3    H142827   7.774   4.654   6.419
14296TIP3    H242828   7.802   4.796   6.468
14297TIP3   OH242829   6.142   4.553   7.233
14297TIP3    H142830   6.049   4.549   7.261
14297TIP3    H242831   6.137   4.612   7.155
14298TIP3   OH242832   6.362   4.628   8.043
14298TIP3    H142833   6.314   4.628   8.127
14298TIP3    H242834   6.296   4.671   7.985
14299TIP3   OH242835   6.157   6.136   7.438
14299TIP3    H142836   6.193   6.119   7.527
14299TIP3    H242837   6.228   6.098   7.382
14300TIP3   OH242838   6.347   6.011   7.300
14300TIP3    H142839   6.374   5.929   7.346
14300TIP3    H242840   6.434   6.050   7.275
14301TIP3   OH242841   6.595   6.104   7.261
14301TIP3    H142842   6.649   6.026   7.241
14301TIP3    H242843   6.648   6.150   7.327
14302TIP3   OH242844   7.199   4.756   7.391
14302TIP3    H142845   7.148   4.690   7.442
14302TIP3    H242846   7.260   4.700   7.340
14303TIP3   OH242847   7.728   4.650   7.288
14303TIP3    H142848   7.760   4.705   7.213
14303TIP3    H242849   7.632   4.666   7.286
14304TIP3   OH242850   7.823   4.750   7.052
14304TIP3    H142851   7.894   4.694   7.013
14304TIP3    H242852   7.867   4.838   7.050
14305TIP3   OH242853   6.451   4.475   7.403
14305TIP3    H142854   6.358   4.443   7.406
14305TIP3    H242855   6.499   4.390   7.400
14306TIP3   OH242856   6.241   4.347   7.054
14306TIP3    H142857   6.268   4.404   6.980
14306TIP3    H242858   6.212   4.412   7.120
14307TIP3   OH242859   6.898   4.505   7.284
14307TIP3    H142860   6.955   4.557   7.225
14307TIP3    H242861   6.914   4.547   7.369
14308TIP3   OH242862   7.447   4.655   7.266
14308TIP3    H142863   7.437   4.614   7.179
14308TIP3    H242864   7.434   4.577   7.326
14309TIP3   OH242865   7.472   4.579   6.832
14309TIP3    H142866   7.386   4.623   6.846
14309TIP3    H242867   7.455   4.493   6.876
14310TIP3   OH242868   5.956   5.921   6.834
14310TIP3    H142869   5.870   5.891   6.799
14310TIP3    H242870   5.949   6.015   6.811
14311TIP3   OH242871   6.356   4.504   6.816
14311TIP3    H142872   6.404   4.441   6.758
14311TIP3    H242873   6.429   4.558   6.851
14312TIP3   OH242874   6.867   4.681   6.913
14312TIP3    H142875   6.924   4.632   6.974
14312TIP3    H242876   6.889   4.773   6.939
14313TIP3   OH242877   6.729   6.103   6.415
14313TIP3    H142878   6.816   6.126   6.376
14313TIP3    H242879   6.704   6.029   6.354
14314TIP3   OH242880   7.444   6.203   6.490
14314TIP3    H142881   7.407   6.112   6.487
14314TIP3    H242882   7.458   6.219   6.396
14315TIP3   OH242883   6.651   4.751   8.279
14315TIP3    H142884   6.613   4.684   8.339
14315TIP3    H242885   6.744   4.749   8.310
14316TIP3   OH242886   6.899   4.737   8.388
14316TIP3    H142887   6.990   4.727   8.355
14316TIP3    H242888   6.903   4.701   8.478
14317TIP3   OH242889   6.028   5.937   6.468
14317TIP3    H142890   6.027   5.975   6.557
14317TIP3    H242891   6.118   5.899   6.461
14318TIP3   OH242892   7.901   5.248   6.721
14318TIP3    H142893   7.853   5.331   6.708
14318TIP3    H242894   7.843   5.188   6.670
14319TIP3   OH242895   7.752   5.735   6.403
14319TIP3    H142896   7.733   5.763   6.311
14319TIP3    H242897   7.726   5.818   6.450
14320TIP3   OH242898   8.749   4.937   6.079
14320TIP3    H142899   8.767   4.970   6.167
14320TIP3    H242900   8.703   4.852   6.094
14321TIP3   OH242901   8.398   4.924   6.101
14321TIP3    H142902   8.386   4.923   6.198
14321TIP3    H242903   8.325   4.983   6.074
14322TIP3   OH242904   7.978   4.963   6.979
14322TIP3    H142905   8.025   5.038   6.936
14322TIP3    H242906   7.963   4.910   6.897
14323TIP3   OH242907   7.914   4.948   6.494
14323TIP3    H142908   7.960   4.983   6.415
14323TIP3    H242909   7.852   5.023   6.510
14324TIP3   OH242910   8.127   5.120   6.827
14324TIP3    H142911   8.070   5.166   6.763
14324TIP3    H242912   8.191   5.073   6.769
14325TIP3   OH242913   8.485   5.150   6.425
14325TIP3    H142914   8.540   5.230   6.426
14325TIP3    H242915   8.417   5.177   6.359
14326TIP3   OH242916   8.295   5.211   6.242
14326TIP3    H142917   8.218   5.173   6.196
14326TIP3    H242918   8.348   5.240   6.164
14327TIP3   OH242919   8.333   4.952   6.725
14327TIP3    H142920   8.302   4.871   6.769
14327TIP3    H242921   8.390   4.918   6.654
14328TIP3   OH242922   7.883   5.353   6.242
14328TIP3    H142923   7.924   5.443   6.247
14328TIP3    H242924   7.810   5.364   6.306
14329TIP3   OH242925   8.339   5.877   5.815
14329TIP3    H142926   8.304   5.796   5.771
14329TIP3    H242927   8.412   5.837   5.864
14330TIP3   OH242928   7.961   5.608   6.277
14330TIP3    H142929   7.888   5.632   6.338
14330TIP3    H242930   8.017   5.686   6.289
14331TIP3   OH242931   8.374   4.901   6.377
14331TIP3    H142932   8.389   4.993   6.405
14331TIP3    H242933   8.465   4.867   6.386
14332TIP3   OH242934   7.999   5.869   6.091
14332TIP3    H142935   8.021   5.855   6.185
14332TIP3    H242936   8.052   5.799   6.047
14333TIP3   OH242937   7.951   5.093   6.266
14333TIP3    H142938   7.948   5.191   6.265
14333TIP3    H242939   7.868   5.073   6.221
14334TIP3   OH242940   8.160   5.665   5.996
14334TIP3    H142941   8.202   5.602   6.059
14334TIP3    H242942   8.214   5.647   5.916
14335TIP3   OH242943   8.320   5.514   6.170
14335TIP3    H142944   8.349   5.467   6.250
14335TIP3    H242945   8.367   5.459   6.104
14336TIP3   OH242946   8.450   5.317   6.033
14336TIP3    H142947   8.419   5.314   5.939
14336TIP3    H242948   8.532   5.369   6.023
14337TIP3   OH242949   7.732   5.791   6.131
14337TIP3    H142950   7.825   5.817   6.117
14337TIP3    H242951   7.731   5.699   6.096
14338TIP3   OH242952   7.927   4.830   6.739
14338TIP3    H142953   7.832   4.809   6.744
14338TIP3    H242954   7.932   4.878   6.653
14339TIP3   OH242955   8.252   4.743   6.892
14339TIP3    H142956   8.158   4.715   6.897
14339TIP3    H242957   8.296   4.656   6.899
14340TIP3   OH242958   8.041   4.602   6.541
14340TIP3    H142959   8.067   4.657   6.464
14340TIP3    H242960   8.010   4.669   6.604
14341TIP3   OH242961   8.146   4.756   6.303
14341TIP3    H142962   8.197   4.696   6.245
14341TIP3    H242963   8.219   4.813   6.338
14342TIP3   OH242964   8.647   4.908   6.442
14342TIP3    H142965   8.704   4.858   6.502
14342TIP3    H242966   8.617   4.982   6.497
14343TIP3   OH242967   7.788   6.151   5.947
14343TIP3    H142968   7.805   6.221   6.014
14343TIP3    H242969   7.879   6.119   5.930
14344TIP3   OH242970   2.126   6.116   8.497
14344TIP3    H142971   2.152   6.141   8.588
14344TIP3    H242972   2.212   6.112   8.452
14345TIP3   OH242973   1.642   5.995   8.189
14345TIP3    H142974   1.699   5.999   8.269
14345TIP3    H242975   1.696   6.043   8.125
14346TIP3   OH242976   1.840   6.025   8.388
14346TIP3    H142977   1.839   5.941   8.436
14346TIP3    H242978   1.931   6.056   8.408
14347TIP3   OH242979   1.197   6.275   7.915
14347TIP3    H142980   1.113   6.325   7.918
14347TIP3    H242981   1.249   6.322   7.847
14348TIP3   OH242982   1.182   6.150   7.666
14348TIP3    H142983   1.227   6.174   7.749
14348TIP3    H242984   1.252   6.100   7.620
14349TIP3   OH242985   1.590   6.419   7.946
14349TIP3    H142986   1.576   6.487   8.016
14349TIP3    H242987   1.676   6.384   7.976
14350TIP3   OH242988   1.413   6.321   7.763
14350TIP3    H142989   1.485   6.367   7.811
14350TIP3    H242990   1.433   6.345   7.669
14351TIP3   OH242991   1.926   5.562   7.829
14351TIP3    H142992   1.843   5.582   7.877
14351TIP3    H242993   1.937   5.645   7.777
14352TIP3   OH242994   1.738   6.919   7.351
14352TIP3    H142995   1.755   7.012   7.330
14352TIP3    H242996   1.829   6.883   7.353
14353TIP3   OH242997   1.478   6.359   7.506
14353TIP3    H142998   1.454   6.336   7.415
14353TIP3    H242999   1.561   6.410   7.492
14354TIP3   OH243000   1.185   5.756   7.802
14354TIP3    H143001   1.171   5.751   7.899
14354TIP3    H243002   1.160   5.664   7.779
14355TIP3   OH243003   1.353   6.179   8.110
14355TIP3    H143004   1.297   6.204   8.033
14355TIP3    H243005   1.430   6.141   8.063
14356TIP3   OH243006   1.444   5.848   7.791
14356TIP3    H143007   1.348   5.831   7.798
14356TIP3    H243008   1.454   5.941   7.820
14357TIP3   OH243009   1.521   6.093   7.898
14357TIP3    H143010   1.617   6.097   7.911
14357TIP3    H243011   1.504   6.170   7.840
14358TIP3   OH243012   1.956   6.185   7.735
14358TIP3    H143013   1.896   6.140   7.672
14358TIP3    H243014   1.957   6.273   7.691
14359TIP3   OH243015   1.409   6.734   7.520
14359TIP3    H143016   1.461   6.686   7.588
14359TIP3    H243017   1.320   6.706   7.547
14360TIP3   OH243018   1.825   7.251   7.322
14360TIP3    H143019   1.797   7.289   7.236
14360TIP3    H243020   1.739   7.230   7.363
14361TIP3   OH243021   1.552   6.590   7.709
14361TIP3    H143022   1.559   6.549   7.796
14361TIP3    H243023   1.639   6.632   7.701
14362TIP3   OH243024   1.501   5.791   8.070
14362TIP3    H143025   1.485   5.818   7.978
14362TIP3    H243026   1.545   5.871   8.108
14363TIP3   OH243027   1.187   5.974   8.190
14363TIP3    H143028   1.257   6.036   8.160
14363TIP3    H243029   1.193   5.983   8.286
14364TIP3   OH243030   1.338   5.691   8.270
14364TIP3    H143031   1.345   5.749   8.347
14364TIP3    H243032   1.392   5.738   8.202
14365TIP3   OH243033   1.379   6.947   7.339
14365TIP3    H143034   1.406   6.890   7.413
14365TIP3    H243035   1.458   6.951   7.284
14366TIP3   OH243036   1.121   6.636   7.489
14366TIP3    H143037   1.134   6.638   7.586
14366TIP3    H243038   1.107   6.540   7.476
14367TIP3   OH243039   0.934   6.164   7.788
14367TIP3    H143040   0.904   6.154   7.695
14367TIP3    H243041   1.029   6.147   7.774
14368TIP3   OH243042   1.720   6.456   7.403
14368TIP3    H143043   1.703   6.411   7.318
14368TIP3    H243044   1.688   6.547   7.379
14369TIP3   OH243045   1.863   6.646   7.732
14369TIP3    H143046   1.932   6.704   7.693
14369TIP3    H243047   1.914   6.598   7.802
14370TIP3   OH243048   1.978   6.504   7.931
14370TIP3    H143049   1.928   6.463   8.003
14370TIP3    H243050   2.057   6.540   7.979
14371TIP3   OH243051   1.923   6.418   7.582
14371TIP3    H143052   1.852   6.418   7.514
14371TIP3    H243053   1.893   6.495   7.635
14372TIP3   OH243054   1.788   6.096   7.542
14372TIP3    H143055   1.754   6.128   7.458
14372TIP3    H243056   1.767   6.000   7.535
14373TIP3   OH243057   1.811   6.347   8.103
14373TIP3    H143058   1.820   6.254   8.074
14373TIP3    H243059   1.764   6.337   8.187
14374TIP3   OH243060   1.736   5.830   7.527
14374TIP3    H143061   1.813   5.797   7.577
14374TIP3    H243062   1.666   5.765   7.547
14375TIP3   OH243063   1.800   6.097   7.974
14375TIP3    H143064   1.830   6.004   7.988
14375TIP3    H243065   1.857   6.121   7.899
14376TIP3   OH243066   1.890   5.844   8.004
14376TIP3    H143067   1.948   5.827   8.080
14376TIP3    H243068   1.832   5.764   8.007
14377TIP3   OH243069   1.983   5.769   7.649
14377TIP3    H143070   2.022   5.697   7.595
14377TIP3    H243071   2.052   5.839   7.644
14378TIP3   OH243072   1.991   5.700   8.421
14378TIP3    H143073   2.030   5.743   8.342
14378TIP3    H243074   1.896   5.694   8.397
14379TIP3   OH243075   2.076   5.812   8.196
14379TIP3    H143076   2.150   5.756   8.162
14379TIP3    H243077   2.115   5.902   8.186
14380TIP3   OH243078   1.727   5.673   8.394
14380TIP3    H143079   1.674   5.657   8.316
14380TIP3    H243080   1.707   5.595   8.448
14381TIP3   OH243081   1.720   5.625   8.008
14381TIP3    H143082   1.632   5.665   8.022
14381TIP3    H243083   1.706   5.537   8.050
14382TIP3   OH243084   1.153   5.733   8.068
14382TIP3    H143085   1.196   5.689   8.142
14382TIP3    H243086   1.142   5.823   8.106
14383TIP3   OH243087   3.186   6.787   7.639
14383TIP3    H143088   3.155   6.877   7.615
14383TIP3    H243089   3.113   6.734   7.603
14384TIP3   OH243090   3.200   6.776   8.014
14384TIP3    H143091   3.220   6.743   8.103
14384TIP3    H243092   3.157   6.699   7.974
14385TIP3   OH243093   3.425   7.086   7.700
14385TIP3    H143094   3.419   7.011   7.760
14385TIP3    H243095   3.477   7.151   7.750
14386TIP3   OH243096   2.167   6.282   7.891
14386TIP3    H143097   2.130   6.370   7.907
14386TIP3    H243098   2.090   6.238   7.848
14387TIP3   OH243099   2.222   6.569   8.030
14387TIP3    H143100   2.275   6.515   8.091
14387TIP3    H243101   2.282   6.642   8.012
14388TIP3   OH243102   3.082   7.532   7.722
14388TIP3    H143103   3.130   7.475   7.657
14388TIP3    H243104   3.101   7.486   7.804
14389TIP3   OH243105   3.015   6.978   8.022
14389TIP3    H143106   3.065   6.900   7.989
14389TIP3    H243107   3.075   7.011   8.089
14390TIP3   OH243108   3.997   6.329   8.063
14390TIP3    H143109   4.027   6.411   8.107
14390TIP3    H243110   4.029   6.343   7.972
14391TIP3   OH243111   3.392   6.518   8.100
14391TIP3    H143112   3.438   6.434   8.121
14391TIP3    H243113   3.364   6.500   8.009
14392TIP3   OH243114   2.736   6.170   8.062
14392TIP3    H143115   2.717   6.242   7.999
14392TIP3    H243116   2.690   6.096   8.017
14393TIP3   OH243117   3.431   6.266   7.685
14393TIP3    H143118   3.503   6.250   7.750
14393TIP3    H243119   3.484   6.298   7.609
14394TIP3   OH243120   2.386   6.391   8.167
14394TIP3    H143121   2.465   6.353   8.209
14394TIP3    H243122   2.386   6.338   8.084
14395TIP3   OH243123   2.809   6.563   7.974
14395TIP3    H143124   2.904   6.541   7.979
14395TIP3    H243125   2.771   6.481   7.936
14396TIP3   OH243126   4.072   6.531   8.241
14396TIP3    H143127   3.990   6.582   8.224
14396TIP3    H243128   4.107   6.578   8.320
14397TIP3   OH243129   2.745   6.148   8.491
14397TIP3    H143130   2.677   6.187   8.433
14397TIP3    H243131   2.700   6.138   8.575
14398TIP3   OH243132   3.076   7.004   7.508
14398TIP3    H143133   3.038   6.986   7.421
14398TIP3    H243134   3.032   7.088   7.530
14399TIP3   OH243135   3.636   6.269   7.860
14399TIP3    H143136   3.639   6.215   7.940
14399TIP3    H243137   3.694   6.344   7.884
14400TIP3   OH243138   2.604   6.264   8.281
14400TIP3    H143139   2.668   6.336   8.302
14400TIP3    H243140   2.651   6.222   8.205
14401TIP3   OH243141   2.054   6.811   7.624
14401TIP3    H143142   2.027   6.835   7.532
14401TIP3    H243143   2.109   6.886   7.652
14402TIP3   OH243144   3.519   7.318   7.860
14402TIP3    H143145   3.432   7.296   7.899
14402TIP3    H243146   3.502   7.403   7.815
14403TIP3   OH243147   3.790   6.227   8.228
14403TIP3    H143148   3.705   6.258   8.194
14403TIP3    H243149   3.854   6.261   8.161
14404TIP3   OH243150   3.090   5.868   8.213
14404TIP3    H143151   3.075   5.774   8.231
14404TIP3    H243152   3.012   5.907   8.258
14405TIP3   OH243153   3.211   7.376   7.543
14405TIP3    H143154   3.255   7.291   7.518
14405TIP3    H243155   3.274   7.438   7.499
14406TIP3   OH243156   3.344   7.158   7.445
14406TIP3    H143157   3.319   7.078   7.397
14406TIP3    H243158   3.375   7.121   7.530
14407TIP3   OH243159   3.711   7.253   8.167
14407TIP3    H143160   3.723   7.160   8.137
14407TIP3    H243161   3.752   7.303   8.093
14408TIP3   OH243162   3.021   6.638   7.470
14408TIP3    H143163   2.940   6.690   7.447
14408TIP3    H243164   3.066   6.633   7.383
14409TIP3   OH243165   2.976   6.423   7.184
14409TIP3    H143166   3.045   6.475   7.229
14409TIP3    H243167   3.033   6.359   7.135
14410TIP3   OH243168   3.919   6.879   8.055
14410TIP3    H143169   3.837   6.931   8.062
14410TIP3    H243170   3.948   6.901   7.963
14411TIP3   OH243171   3.364   6.721   7.439
14411TIP3    H143172   3.311   6.744   7.519
14411TIP3    H243173   3.449   6.694   7.482
14412TIP3   OH243174   3.597   6.729   8.339
14412TIP3    H143175   3.606   6.814   8.389
14412TIP3    H243176   3.511   6.742   8.296
14413TIP3   OH243177   2.601   6.711   7.855
14413TIP3    H143178   2.556   6.656   7.787
14413TIP3    H243179   2.675   6.653   7.883
14414TIP3   OH243180   2.776   7.098   8.034
14414TIP3    H143181   2.710   7.040   7.993
14414TIP3    H243182   2.860   7.050   8.015
14415TIP3   OH243183   2.751   6.692   8.208
14415TIP3    H143184   2.770   6.654   8.119
14415TIP3    H243185   2.838   6.731   8.230
14416TIP3   OH243186   3.305   7.256   8.019
14416TIP3    H143187   3.268   7.345   8.035
14416TIP3    H243188   3.223   7.204   8.011
14417TIP3   OH243189   3.203   6.579   7.265
14417TIP3    H143190   3.263   6.638   7.316
14417TIP3    H243191   3.230   6.600   7.172
14418TIP3   OH243192   2.954   7.252   7.538
14418TIP3    H143193   3.028   7.311   7.557
14418TIP3    H243194   2.886   7.311   7.503
14419TIP3   OH243195   3.722   5.817   7.315
14419TIP3    H143196   3.640   5.839   7.364
14419TIP3    H243197   3.737   5.899   7.264
14420TIP3   OH243198   2.467   6.558   7.661
14420TIP3    H143199   2.399   6.603   7.606
14420TIP3    H243200   2.427   6.472   7.673
14421TIP3   OH243201   3.522   7.184   6.865
14421TIP3    H143202   3.532   7.280   6.847
14421TIP3    H243203   3.615   7.154   6.852
14422TIP3   OH243204   2.839   7.504   7.332
14422TIP3    H143205   2.796   7.468   7.252
14422TIP3    H243206   2.794   7.587   7.345
14423TIP3   OH243207   3.030   7.402   6.983
14423TIP3    H143208   3.088   7.332   6.945
14423TIP3    H243209   3.069   7.413   7.072
14424TIP3   OH243210   3.090   7.448   7.252
14424TIP3    H143211   3.002   7.460   7.292
14424TIP3    H243212   3.137   7.400   7.322
14425TIP3   OH243213   3.865   6.715   8.522
14425TIP3    H143214   3.782   6.734   8.477
14425TIP3    H243215   3.875   6.619   8.509
14426TIP3   OH243216   2.850   5.945   8.333
14426TIP3    H143217   2.760   5.920   8.305
14426TIP3    H243218   2.830   6.029   8.380
14427TIP3   OH243219   3.386   6.073   8.529
14427TIP3    H143220   3.459   6.033   8.582
14427TIP3    H243221   3.305   6.042   8.576
14428TIP3   OH243222   3.613   6.482   8.460
14428TIP3    H143223   3.573   6.500   8.547
14428TIP3    H243224   3.604   6.569   8.414
14429TIP3   OH243225   3.282   6.625   7.011
14429TIP3    H143226   3.247   6.599   6.924
14429TIP3    H243227   3.367   6.666   6.985
14430TIP3   OH243228   2.993   5.998   7.313
14430TIP3    H143229   2.958   5.993   7.404
14430TIP3    H243230   2.955   5.915   7.277
14431TIP3   OH243231   2.779   6.462   8.356
14431TIP3    H143232   2.781   6.491   8.448
14431TIP3    H243233   2.765   6.546   8.306
14432TIP3   OH243234   2.665   6.352   7.874
14432TIP3    H143235   2.572   6.326   7.891
14432TIP3    H243236   2.678   6.313   7.785
14433TIP3   OH243237   3.156   6.438   7.604
14433TIP3    H143238   3.105   6.509   7.559
14433TIP3    H243239   3.212   6.404   7.531
14434TIP3   OH243240   3.311   6.465   7.840
14434TIP3    H143241   3.251   6.491   7.767
14434TIP3    H243242   3.349   6.385   7.798
14435TIP3   OH243243   2.650   5.973   7.279
14435TIP3    H143244   2.640   5.970   7.376
14435TIP3    H243245   2.571   6.025   7.253
14436TIP3   OH243246   2.204   6.042   8.140
14436TIP3    H143247   2.283   6.058   8.195
14436TIP3    H243248   2.239   6.003   8.059
14437TIP3   OH243249   2.162   5.995   7.670
14437TIP3    H143250   2.207   6.031   7.591
14437TIP3    H243251   2.102   6.070   7.690
14438TIP3   OH243252   3.320   6.713   8.269
14438TIP3    H143253   3.353   6.646   8.205
14438TIP3    H243254   3.287   6.653   8.339
14439TIP3   OH243255   2.996   6.179   7.936
14439TIP3    H143256   2.915   6.173   7.991
14439TIP3    H243257   3.066   6.165   8.002
14440TIP3   OH243258   2.427   6.229   7.946
14440TIP3    H143259   2.332   6.235   7.917
14440TIP3    H243260   2.451   6.139   7.919
14441TIP3   OH243261   2.693   6.227   7.633
14441TIP3    H143262   2.787   6.239   7.610
14441TIP3    H243263   2.646   6.248   7.549
14442TIP3   OH243264   3.480   6.256   8.144
14442TIP3    H143265   3.439   6.264   8.233
14442TIP3    H243266   3.421   6.192   8.102
14443TIP3   OH243267   2.539   6.261   7.409
14443TIP3    H143268   2.469   6.214   7.360
14443TIP3    H243269   2.592   6.298   7.335
14444TIP3   OH243270   3.077   6.503   8.033
14444TIP3    H143271   3.146   6.461   7.980
14444TIP3    H243272   3.083   6.455   8.118
14445TIP3   OH243273   2.596   5.988   7.913
14445TIP3    H143274   2.561   5.909   7.960
14445TIP3    H243275   2.644   5.948   7.839
14446TIP3   OH243276   3.055   6.399   8.310
14446TIP3    H143277   2.965   6.432   8.326
14446TIP3    H243278   3.111   6.455   8.367
14447TIP3   OH243279   2.789   6.787   7.414
14447TIP3    H143280   2.715   6.723   7.404
14447TIP3    H243281   2.778   6.814   7.509
14448TIP3   OH243282   3.678   7.021   8.039
14448TIP3    H143283   3.709   7.065   7.957
14448TIP3    H243284   3.602   6.968   8.007
14449TIP3   OH243285   3.246   6.098   7.288
14449TIP3    H143286   3.149   6.080   7.291
14449TIP3    H243287   3.253   6.194   7.306
14450TIP3   OH243288   3.314   6.351   7.387
14450TIP3    H143289   3.411   6.355   7.399
14450TIP3    H243290   3.296   6.429   7.331
14451TIP3   OH243291   2.474   6.767   8.088
14451TIP3    H143292   2.512   6.770   7.998
14451TIP3    H243293   2.528   6.698   8.129
14452TIP3   OH243294   2.934   6.939   7.240
14452TIP3    H143295   2.886   7.025   7.246
14452TIP3    H243296   2.879   6.883   7.300
14453TIP3   OH243297   3.752   6.442   7.220
14453TIP3    H143298   3.691   6.397   7.157
14453TIP3    H243299   3.751   6.530   7.178
14454TIP3   OH243300   3.973   7.250   8.278
14454TIP3    H143301   3.880   7.258   8.249
14454TIP3    H243302   4.018   7.234   8.192
14455TIP3   OH243303   3.458   7.258   7.128
14455TIP3    H143304   3.434   7.185   7.186
14455TIP3    H243305   3.472   7.214   7.042
14456TIP3   OH243306   3.454   6.886   7.956
14456TIP3    H143307   3.362   6.859   7.975
14456TIP3    H243308   3.487   6.803   7.913
14457TIP3   OH243309   2.573   7.062   7.667
14457TIP3    H143310   2.613   7.141   7.710
14457TIP3    H243311   2.484   7.062   7.705
14458TIP3   OH243312   2.147   6.419   7.420
14458TIP3    H143313   2.193   6.503   7.442
14458TIP3    H243314   2.070   6.423   7.482
14459TIP3   OH243315   2.743   6.855   7.669
14459TIP3    H143316   2.690   6.937   7.663
14459TIP3    H243317   2.699   6.811   7.743
14460TIP3   OH243318   3.216   6.989   7.031
14460TIP3    H143319   3.269   6.964   7.109
14460TIP3    H243320   3.128   6.958   7.058
14461TIP3   OH243321   3.555   7.458   6.846
14461TIP3    H143322   3.593   7.531   6.794
14461TIP3    H243323   3.475   7.505   6.879
14462TIP3   OH243324   3.375   6.926   7.250
14462TIP3    H143325   3.364   6.855   7.317
14462TIP3    H243326   3.472   6.919   7.234
14463TIP3   OH243327   2.576   6.969   7.030
14463TIP3    H143328   2.591   6.877   7.001
14463TIP3    H243329   2.559   6.956   7.125
14464TIP3   OH243330   2.522   6.975   7.303
14464TIP3    H143331   2.591   6.946   7.365
14464TIP3    H243332   2.527   7.073   7.314
14465TIP3   OH243333   2.260   6.662   7.505
14465TIP3    H143334   2.195   6.706   7.562
14465TIP3    H243335   2.276   6.731   7.438
14466TIP3   OH243336   3.399   6.317   8.406
14466TIP3    H143337   3.490   6.347   8.426
14466TIP3    H243338   3.394   6.231   8.454
14467TIP3   OH243339   3.289   6.052   7.565
14467TIP3    H143340   3.276   6.072   7.470
14467TIP3    H243341   3.329   6.135   7.598
14468TIP3   OH243342   2.791   7.169   7.251
14468TIP3    H143343   2.704   7.195   7.286
14468TIP3    H243344   2.803   7.234   7.180
14469TIP3   OH243345   2.977   6.235   7.665
14469TIP3    H143346   3.042   6.306   7.646
14469TIP3    H243347   2.984   6.227   7.762
14470TIP3   OH243348   3.236   6.549   8.469
14470TIP3    H143349   3.270   6.600   8.544
14470TIP3    H243350   3.295   6.470   8.467
14471TIP3   OH243351   3.122   5.956   7.765
14471TIP3    H143352   3.119   6.034   7.823
14471TIP3    H243353   3.183   5.990   7.695
14472TIP3   OH243354   2.535   7.250   7.318
14472TIP3    H143355   2.505   7.314   7.250
14472TIP3    H243356   2.530   7.305   7.398
14473TIP3   OH243357   2.634   5.959   7.556
14473TIP3    H143358   2.633   6.049   7.592
14473TIP3    H243359   2.730   5.940   7.562
14474TIP3   OH243360   3.885   6.446   8.459
14474TIP3    H143361   3.787   6.438   8.455
14474TIP3    H243362   3.910   6.416   8.371
14475TIP3   OH243363   3.538   6.647   7.842
14475TIP3    H143364   3.464   6.583   7.850
14475TIP3    H243365   3.611   6.599   7.888
14476TIP3   OH243366   2.258   6.874   7.311
14476TIP3    H143367   2.331   6.937   7.318
14476TIP3    H243368   2.296   6.815   7.242
14477TIP3   OH243369   2.194   6.149   7.448
14477TIP3    H143370   2.196   6.247   7.441
14477TIP3    H243371   2.121   6.126   7.389
14478TIP3   OH243372   3.513   7.578   7.775
14478TIP3    H143373   3.460   7.638   7.720
14478TIP3    H243374   3.600   7.621   7.764
14479TIP3   OH243375   2.577   5.882   8.312
14479TIP3    H143376   2.552   5.846   8.224
14479TIP3    H243377   2.571   5.801   8.368
14480TIP3   OH243378   2.743   7.169   6.942
14480TIP3    H143379   2.687   7.096   6.978
14480TIP3    H243380   2.819   7.118   6.907
14481TIP3   OH243381   3.178   7.209   6.853
14481TIP3    H143382   3.220   7.145   6.913
14481TIP3    H243383   3.235   7.206   6.774
14482TIP3   OH243384   2.388   6.686   7.165
14482TIP3    H143385   2.445   6.653   7.236
14482TIP3    H243386   2.453   6.691   7.092
14483TIP3   OH243387   2.899   6.886   6.971
14483TIP3    H143388   2.902   6.897   7.068
14483TIP3    H243389   2.901   6.788   6.964
14484TIP3   OH243390   2.593   6.592   7.383
14484TIP3    H143391   2.569   6.549   7.466
14484TIP3    H243392   2.632   6.518   7.332
14485TIP3   OH243393   2.697   6.387   7.225
14485TIP3    H143394   2.672   6.391   7.130
14485TIP3    H243395   2.795   6.389   7.217
14486TIP3   OH243396   3.515   6.715   6.891
14486TIP3    H143397   3.497   6.670   6.806
14486TIP3    H243398   3.482   6.805   6.867
14487TIP3   OH243399   2.925   6.440   8.675
14487TIP3    H143400   2.955   6.347   8.683
14487TIP3    H243401   3.009   6.485   8.665
14488TIP3   OH243402   3.009   6.209   8.524
14488TIP3    H143403   3.033   6.257   8.443
14488TIP3    H243404   2.913   6.196   8.512
14489TIP3   OH243405   2.996   6.771   8.353
14489TIP3    H143406   3.085   6.739   8.369
14489TIP3    H243407   3.001   6.861   8.386
14490TIP3   OH243408   3.634   6.952   8.480
14490TIP3    H143409   3.613   7.042   8.510
14490TIP3    H243410   3.730   6.964   8.464
14491TIP3   OH243411   3.140   5.982   8.609
14491TIP3    H143412   3.093   6.066   8.592
14491TIP3    H243413   3.066   5.919   8.611
14492TIP3   OH243414   3.494   6.449   8.716
14492TIP3    H143415   3.416   6.419   8.768
14492TIP3    H243416   3.555   6.377   8.733
14493TIP3   OH243417   2.510   7.462   7.140
14493TIP3    H143418   2.602   7.446   7.112
14493TIP3    H243419   2.475   7.499   7.057
14494TIP3   OH243420   1.994   6.822   7.352
14494TIP3    H143421   2.086   6.845   7.329
14494TIP3    H243422   1.983   6.736   7.305
14495TIP3   OH243423   3.743   7.727   7.755
14495TIP3    H143424   3.812   7.763   7.815
14495TIP3    H243425   3.793   7.720   7.672
14496TIP3   OH243426   3.652   6.903   7.222
14496TIP3    H143427   3.720   6.966   7.190
14496TIP3    H243428   3.697   6.865   7.300
14497TIP3   OH243429   3.780   6.773   7.426
14497TIP3    H143430   3.717   6.729   7.486
14497TIP3    H243431   3.850   6.804   7.488
14498TIP3   OH243432   3.824   7.154   7.850
14498TIP3    H143433   3.883   7.088   7.808
14498TIP3    H243434   3.829   7.229   7.787
14499TIP3   OH243435   3.731   7.454   7.983
14499TIP3    H143436   3.707   7.546   7.967
14499TIP3    H243437   3.673   7.407   7.920
14500TIP3   OH243438   3.718   6.678   7.072
14500TIP3    H143439   3.647   6.679   7.004
14500TIP3    H243440   3.690   6.754   7.127
14501TIP3   OH243441   3.586   6.352   7.027
14501TIP3    H143442   3.548   6.385   6.945
14501TIP3    H243443   3.564   6.256   7.019
14502TIP3   OH243444   3.593   6.627   7.571
14502TIP3    H143445   3.603   6.531   7.562
14502TIP3    H243446   3.581   6.638   7.668
14503TIP3   OH243447   3.881   7.009   8.376
14503TIP3    H143448   3.956   6.962   8.416
14503TIP3    H243449   3.921   7.096   8.358
14504TIP3   OH243450   4.088   6.862   8.474
14504TIP3    H143451   4.010   6.815   8.509
14504TIP3    H243452   4.150   6.787   8.469
14505TIP3   OH243453   3.533   6.086   7.011
14505TIP3    H143454   3.607   6.052   7.065
14505TIP3    H243455   3.459   6.025   7.031
14506TIP3   OH243456   3.592   6.344   7.464
14506TIP3    H143457   3.633   6.255   7.480
14506TIP3    H243458   3.650   6.376   7.392
14507TIP3   OH243459   3.751   6.518   7.959
14507TIP3    H143460   3.837   6.542   7.916
14507TIP3    H243461   3.771   6.552   8.049
14508TIP3   OH243462   3.828   6.656   8.191
14508TIP3    H143463   3.747   6.688   8.237
14508TIP3    H243464   3.860   6.738   8.148
14509TIP3   OH243465   3.698   6.094   7.505
14509TIP3    H143466   3.749   6.077   7.587
14509TIP3    H243467   3.639   6.016   7.503
14510TIP3   OH243468   2.395   6.089   8.338
14510TIP3    H143469   2.448   6.007   8.341
14510TIP3    H243470   2.464   6.155   8.317
14511TIP3   OH243471   2.214   6.380   8.387
14511TIP3    H143472   2.198   6.298   8.338
14511TIP3    H243473   2.288   6.415   8.335
14512TIP3   OH243474   4.131   6.395   8.568
14512TIP3    H143475   4.038   6.418   8.547
14512TIP3    H243476   4.140   6.312   8.519
14513TIP3   OH243477   3.779   6.025   7.138
14513TIP3    H143478   3.820   5.956   7.083
14513TIP3    H243479   3.846   6.097   7.135
14514TIP3   OH243480   2.186   5.866   7.905
14514TIP3    H143481   2.091   5.853   7.920
14514TIP3    H243482   2.185   5.919   7.822
14515TIP3   OH243483   3.358   7.558   7.406
14515TIP3    H143484   3.393   7.538   7.317
14515TIP3    H243485   3.416   7.630   7.432
14516TIP3   OH243486   4.043   6.154   8.425
14516TIP3    H143487   3.952   6.145   8.390
14516TIP3    H243488   4.076   6.061   8.416
14517TIP3   OH243489   3.243   6.067   8.050
14517TIP3    H143490   3.204   5.994   8.103
14517TIP3    H243491   3.319   6.023   8.007
14518TIP3   OH243492   3.768   5.950   7.959
14518TIP3    H143493   3.807   5.999   7.883
14518TIP3    H243494   3.673   5.968   7.948
14519TIP3   OH243495   3.864   6.047   7.722
14519TIP3    H143496   3.937   5.995   7.682
14519TIP3    H243497   3.900   6.138   7.706
14520TIP3   OH243498   2.495   5.778   8.068
14520TIP3    H143499   2.404   5.743   8.069
14520TIP3    H243500   2.545   5.693   8.064
14521TIP3   OH243501   2.282   5.648   7.717
14521TIP3    H143502   2.314   5.702   7.642
14521TIP3    H243503   2.259   5.716   7.783
14522TIP3   OH243504   2.940   5.811   7.950
14522TIP3    H143505   2.997   5.857   7.886
14522TIP3    H243506   2.972   5.846   8.034
14523TIP3   OH243507   3.483   5.959   7.932
14523TIP3    H143508   3.486   5.920   7.844
14523TIP3    H243509   3.472   5.878   7.989
14524TIP3   OH243510   3.517   5.880   7.496
14524TIP3    H143511   3.430   5.921   7.507
14524TIP3    H243512   3.503   5.794   7.541
14525TIP3   OH243513   2.402   5.805   7.479
14525TIP3    H143514   2.448   5.741   7.421
14525TIP3    H243515   2.476   5.858   7.513
14526TIP3   OH243516   2.910   5.984   7.578
14526TIP3    H143517   2.971   5.935   7.636
14526TIP3    H243518   2.934   6.076   7.603
14527TIP3   OH243519   2.772   7.405   7.076
14527TIP3    H143520   2.861   7.426   7.040
14527TIP3    H243521   2.750   7.330   7.016
14528TIP3   OH243522   3.490   7.525   7.169
14528TIP3    H143523   3.482   7.427   7.157
14528TIP3    H243524   3.446   7.556   7.087
14529TIP3   OH243525   2.092   7.240   7.136
14529TIP3    H143526   2.089   7.260   7.230
14529TIP3    H243527   2.181   7.200   7.124
14530TIP3   OH243528   4.982   7.049   7.139
14530TIP3    H143529   4.946   7.134   7.106
14530TIP3    H243530   4.918   6.988   7.096
14531TIP3   OH243531   4.940   7.036   7.512
14531TIP3    H143532   4.991   6.993   7.583
14531TIP3    H243533   4.937   6.967   7.444
14532TIP3   OH243534   4.276   6.938   7.876
14532TIP3    H143535   4.305   6.867   7.937
14532TIP3    H243536   4.360   6.984   7.861
14533TIP3   OH243537   5.231   7.344   7.195
14533TIP3    H143538   5.211   7.254   7.225
14533TIP3    H243539   5.254   7.386   7.278
14534TIP3   OH243540   4.248   7.345   7.595
14534TIP3    H143541   4.240   7.247   7.588
14534TIP3    H243542   4.343   7.352   7.613
14535TIP3   OH243543   3.953   6.544   7.378
14535TIP3    H143544   3.910   6.630   7.391
14535TIP3    H243545   3.882   6.495   7.332
14536TIP3   OH243546   4.019   6.835   7.555
14536TIP3    H143547   4.067   6.755   7.589
14536TIP3    H243548   4.080   6.866   7.488
14537TIP3   OH243549   4.861   7.792   7.216
14537TIP3    H143550   4.905   7.731   7.152
14537TIP3    H243551   4.842   7.731   7.288
14538TIP3   OH243552   4.779   7.270   7.549
14538TIP3    H143553   4.811   7.183   7.518
14538TIP3    H243554   4.865   7.314   7.561
14539TIP3   OH243555   5.738   6.556   7.503
14539TIP3    H143556   5.815   6.584   7.557
14539TIP3    H243557   5.775   6.565   7.414
14540TIP3   OH243558   5.190   6.771   7.586
14540TIP3    H143559   5.235   6.686   7.600
14540TIP3    H243560   5.161   6.759   7.492
14541TIP3   OH243561   4.507   6.432   7.560
14541TIP3    H143562   4.546   6.499   7.502
14541TIP3    H243563   4.470   6.368   7.496
14542TIP3   OH243564   5.229   6.512   7.171
14542TIP3    H143565   5.303   6.501   7.236
14542TIP3    H243566   5.276   6.561   7.101
14543TIP3   OH243567   4.165   6.629   7.656
14543TIP3    H143568   4.248   6.612   7.704
14543TIP3    H243569   4.181   6.573   7.576
14544TIP3   OH243570   4.525   6.411   7.987
14544TIP3    H143571   4.469   6.448   7.916
14544TIP3    H243572   4.471   6.432   8.066
14545TIP3   OH243573   4.874   7.266   7.001
14545TIP3    H143574   4.837   7.228   6.920
14545TIP3    H243575   4.818   7.345   7.015
14546TIP3   OH243576   4.634   7.187   7.777
14546TIP3    H143577   4.572   7.252   7.817
14546TIP3    H243578   4.676   7.240   7.707
14547TIP3   OH243579   5.438   6.515   7.348
14547TIP3    H143580   5.423   6.481   7.437
14547TIP3    H243581   5.487   6.598   7.367
14548TIP3   OH243582   4.390   6.529   7.779
14548TIP3    H143583   4.455   6.601   7.798
14548TIP3    H243584   4.433   6.489   7.699
14549TIP3   OH243585   4.442   7.370   7.856
14549TIP3    H143586   4.454   7.466   7.865
14549TIP3    H243587   4.377   7.355   7.927
14550TIP3   OH243588   3.852   7.072   7.113
14550TIP3    H143589   3.817   7.098   7.026
14550TIP3    H243590   3.888   7.156   7.147
14551TIP3   OH243591   5.563   6.469   7.703
14551TIP3    H143592   5.474   6.493   7.671
14551TIP3    H243593   5.620   6.504   7.631
14552TIP3   OH243594   4.884   6.125   7.701
14552TIP3    H143595   4.864   6.031   7.718
14552TIP3    H243596   4.808   6.168   7.744
14553TIP3   OH243597   4.988   7.632   7.034
14553TIP3    H143598   5.038   7.549   7.016
14553TIP3    H243599   5.048   7.694   6.986
14554TIP3   OH243600   5.136   7.423   6.943
14554TIP3    H143601   5.114   7.344   6.892
14554TIP3    H243602   5.172   7.383   7.026
14555TIP3   OH243603   4.824   6.934   6.950
14555TIP3    H143604   4.735   6.944   6.913
14555TIP3    H243605   4.871   6.882   6.883
14556TIP3   OH243606   4.772   6.681   6.668
14556TIP3    H143607   4.840   6.728   6.721
14556TIP3    H243608   4.829   6.617   6.622
14557TIP3   OH243609   5.149   6.985   6.924
14557TIP3    H143610   5.097   7.005   7.005
14557TIP3    H243611   5.227   6.942   6.965
14558TIP3   OH243612   4.407   6.955   7.346
14558TIP3    H143613   4.347   6.917   7.277
14558TIP3    H243614   4.466   6.878   7.355
14559TIP3   OH243615   4.532   7.405   7.490
14559TIP3    H143616   4.499   7.363   7.408
14559TIP3    H243617   4.614   7.355   7.506
14560TIP3   OH243618   4.526   6.951   7.695
14560TIP3    H143619   4.574   6.931   7.614
14560TIP3    H243620   4.569   7.034   7.724
14561TIP3   OH243621   4.997   6.830   6.756
14561TIP3    H143622   5.053   6.891   6.808
14561TIP3    H243623   5.027   6.853   6.664
14562TIP3   OH243624   4.422   7.062   8.122
14562TIP3    H143625   4.416   7.149   8.165
14562TIP3    H243626   4.330   7.031   8.130
14563TIP3   OH243627   4.737   7.519   7.035
14563TIP3    H143628   4.824   7.564   7.036
14563TIP3    H243629   4.684   7.577   6.979
14564TIP3   OH243630   5.517   6.073   6.801
14564TIP3    H143631   5.437   6.099   6.851
14564TIP3    H243632   5.534   6.156   6.751
14565TIP3   OH243633   4.253   6.830   7.153
14565TIP3    H143634   4.183   6.855   7.089
14565TIP3    H243635   4.238   6.736   7.166
14566TIP3   OH243636   5.318   7.441   6.354
14566TIP3    H143637   5.327   7.537   6.335
14566TIP3    H243638   5.409   7.410   6.339
14567TIP3   OH243639   4.061   7.190   8.026
14567TIP3    H143640   4.003   7.158   7.954
14567TIP3    H243641   4.102   7.106   8.057
14568TIP3   OH243642   3.894   7.388   7.693
14568TIP3    H143643   3.987   7.375   7.670
14568TIP3    H243644   3.896   7.458   7.759
14569TIP3   OH243645   4.625   7.755   6.834
14569TIP3    H143646   4.583   7.734   6.748
14569TIP3    H243647   4.595   7.846   6.850
14570TIP3   OH243648   4.062   7.606   7.216
14570TIP3    H143649   4.110   7.596   7.301
14570TIP3    H243650   4.016   7.520   7.210
14571TIP3   OH243651   4.827   7.660   6.467
14571TIP3    H143652   4.885   7.590   6.431
14571TIP3    H243653   4.862   7.667   6.559
14572TIP3   OH243654   4.876   7.710   6.735
14572TIP3    H143655   4.791   7.714   6.783
14572TIP3    H243656   4.933   7.665   6.800
14573TIP3   OH243657   4.245   7.392   8.046
14573TIP3    H143658   4.288   7.374   8.132
14573TIP3    H243659   4.177   7.322   8.043
14574TIP3   OH243660   4.646   6.201   7.829
14574TIP3    H143661   4.554   6.176   7.804
14574TIP3    H243662   4.629   6.290   7.864
14575TIP3   OH243663   5.177   6.323   8.026
14575TIP3    H143664   5.236   6.290   8.095
14575TIP3    H243665   5.088   6.305   8.065
14576TIP3   OH243666   5.073   6.881   6.497
14576TIP3    H143667   5.043   6.855   6.408
14576TIP3    H243668   5.159   6.921   6.476
14577TIP3   OH243669   4.782   6.257   6.800
14577TIP3    H143670   4.756   6.255   6.894
14577TIP3    H243671   4.747   6.171   6.770
14578TIP3   OH243672   4.567   6.725   7.841
14578TIP3    H143673   4.539   6.755   7.929
14578TIP3    H243674   4.554   6.806   7.788
14579TIP3   OH243675   4.423   6.643   7.359
14579TIP3    H143676   4.362   6.569   7.375
14579TIP3    H243677   4.496   6.603   7.309
14580TIP3   OH243678   5.111   6.731   7.325
14580TIP3    H143679   5.018   6.735   7.297
14580TIP3    H243680   5.139   6.650   7.278
14581TIP3   OH243681   4.385   6.756   8.062
14581TIP3    H143682   4.449   6.808   8.114
14581TIP3    H243683   4.384   6.671   8.109
14582TIP3   OH243684   4.440   6.224   6.765
14582TIP3    H143685   4.437   6.228   6.862
14582TIP3    H243686   4.367   6.284   6.741
14583TIP3   OH243687   3.991   6.269   7.640
14583TIP3    H143688   4.064   6.307   7.693
14583TIP3    H243689   4.034   6.247   7.557
14584TIP3   OH243690   3.956   6.252   7.156
14584TIP3    H143691   4.003   6.288   7.078
14584TIP3    H243692   3.897   6.327   7.176
14585TIP3   OH243693   5.091   6.965   7.747
14585TIP3    H143694   5.139   6.900   7.689
14585TIP3    H243695   5.072   6.907   7.824
14586TIP3   OH243696   4.212   6.471   7.438
14586TIP3    H143697   4.121   6.480   7.403
14586TIP3    H243698   4.242   6.384   7.406
14587TIP3   OH243699   4.524   6.470   7.109
14587TIP3    H143700   4.592   6.537   7.134
14587TIP3    H243701   4.471   6.515   7.041
14588TIP3   OH243702   5.278   6.504   7.630
14588TIP3    H143703   5.235   6.523   7.716
14588TIP3    H243704   5.209   6.449   7.588
14589TIP3   OH243705   4.332   6.521   6.899
14589TIP3    H143706   4.265   6.474   6.846
14589TIP3    H243707   4.389   6.556   6.828
14590TIP3   OH243708   4.387   7.303   8.275
14590TIP3    H143709   4.478   7.318   8.304
14590TIP3    H243710   4.352   7.247   8.346
14591TIP3   OH243711   4.386   6.248   7.390
14591TIP3    H143712   4.360   6.169   7.442
14591TIP3    H243713   4.445   6.211   7.323
14592TIP3   OH243714   4.839   6.635   7.847
14592TIP3    H143715   4.759   6.681   7.816
14592TIP3    H243716   4.904   6.707   7.858
14593TIP3   OH243717   4.562   7.061   6.893
14593TIP3    H143718   4.499   6.986   6.889
14593TIP3    H243719   4.557   7.085   6.989
14594TIP3   OH243720   5.040   6.350   6.757
14594TIP3    H143721   4.944   6.345   6.774
14594TIP3    H243722   5.064   6.443   6.783
14595TIP3   OH243723   5.126   6.591   6.843
14595TIP3    H143724   5.216   6.607   6.878
14595TIP3    H243725   5.092   6.681   6.830
14596TIP3   OH243726   4.278   7.067   7.572
14596TIP3    H143727   4.319   7.034   7.490
14596TIP3    H243728   4.323   7.011   7.638
14597TIP3   OH243729   4.727   7.195   6.721
14597TIP3    H143730   4.682   7.282   6.732
14597TIP3    H243731   4.674   7.140   6.782
14598TIP3   OH243732   4.159   6.990   8.190
14598TIP3    H143733   4.171   6.983   8.286
14598TIP3    H243734   4.087   6.926   8.174
14599TIP3   OH243735   5.553   6.679   6.699
14599TIP3    H143736   5.485   6.657   6.632
14599TIP3    H243737   5.561   6.775   6.686
14600TIP3   OH243738   5.253   7.524   6.614
14600TIP3    H143739   5.235   7.450   6.674
14600TIP3    H243740   5.268   7.479   6.529
14601TIP3   OH243741   5.189   7.168   7.441
14601TIP3    H143742   5.114   7.106   7.433
14601TIP3    H243743   5.263   7.108   7.418
14602TIP3   OH243744   4.376   7.379   7.221
14602TIP3    H143745   4.382   7.454   7.158
14602TIP3    H243746   4.287   7.348   7.205
14603TIP3   OH243747   3.940   6.675   6.908
14603TIP3    H143748   3.988   6.758   6.929
14603TIP3    H243749   3.866   6.680   6.971
14604TIP3   OH243750   4.508   7.138   7.148
14604TIP3    H143751   4.479   7.226   7.179
14604TIP3    H243752   4.487   7.081   7.224
14605TIP3   OH243753   4.294   7.613   7.055
14605TIP3    H143754   4.209   7.622   7.102
14605TIP3    H243755   4.327   7.706   7.058
14606TIP3   OH243756   5.059   7.332   7.636
14606TIP3    H143757   5.049   7.256   7.694
14606TIP3    H243758   5.111   7.290   7.563
14607TIP3   OH243759   5.012   7.246   6.519
14607TIP3    H143760   5.068   7.223   6.596
14607TIP3    H243761   4.926   7.213   6.549
14608TIP3   OH243762   5.345   7.716   6.333
14608TIP3    H143763   5.386   7.789   6.282
14608TIP3    H243764   5.262   7.760   6.361
14609TIP3   OH243765   4.370   6.494   8.203
14609TIP3    H143766   4.274   6.494   8.216
14609TIP3    H243767   4.399   6.433   8.273
14610TIP3   OH243768   5.175   7.187   6.736
14610TIP3    H143769   5.157   7.118   6.803
14610TIP3    H243770   5.272   7.174   6.725
14611TIP3   OH243771   4.113   7.591   7.858
14611TIP3    H143772   4.129   7.497   7.846
14611TIP3    H243773   4.179   7.607   7.927
14612TIP3   OH243774   4.372   7.225   6.518
14612TIP3    H143775   4.390   7.135   6.487
14612TIP3    H243776   4.353   7.210   6.612
14613TIP3   OH243777   4.319   7.226   6.793
14613TIP3    H143778   4.400   7.193   6.835
14613TIP3    H243779   4.329   7.323   6.801
14614TIP3   OH243780   4.049   6.917   6.986
14614TIP3    H143781   3.986   6.965   7.044
14614TIP3    H243782   4.070   6.987   6.922
14615TIP3   OH243783   5.205   6.568   7.895
14615TIP3    H143784   5.296   6.585   7.925
14615TIP3    H243785   5.186   6.482   7.938
14616TIP3   OH243786   5.092   6.304   7.047
14616TIP3    H143787   5.076   6.335   6.956
14616TIP3    H243788   5.131   6.385   7.088
14617TIP3   OH243789   4.589   7.428   6.741
14617TIP3    H143790   4.500   7.455   6.773
14617TIP3    H243791   4.601   7.489   6.667
14618TIP3   OH243792   5.036   6.801   7.958
14618TIP3    H143793   5.026   6.803   8.056
14618TIP3    H243794   5.097   6.725   7.948
14619TIP3   OH243795   4.921   6.228   7.253
14619TIP3    H143796   4.927   6.307   7.311
14619TIP3    H243797   4.981   6.257   7.180
14620TIP3   OH243798   4.332   7.502   6.803
14620TIP3    H143799   4.301   7.572   6.741
14620TIP3    H243800   4.316   7.545   6.890
14621TIP3   OH243801   4.434   6.214   7.041
14621TIP3    H143802   4.440   6.307   7.072
14621TIP3    H243803   4.528   6.190   7.049
14622TIP3   OH243804   5.323   6.934   7.340
14622TIP3    H143805   5.255   6.867   7.320
14622TIP3    H243806   5.394   6.880   7.380
14623TIP3   OH243807   4.050   7.131   6.794
14623TIP3    H143808   4.126   7.192   6.805
14623TIP3    H243809   4.091   7.070   6.728
14624TIP3   OH243810   3.988   6.404   6.932
14624TIP3    H143811   3.995   6.502   6.928
14624TIP3    H243812   3.910   6.387   6.880
14625TIP3   OH243813   4.376   6.128   7.804
14625TIP3    H143814   4.349   6.096   7.715
14625TIP3    H243815   4.367   6.047   7.859
14626TIP3   OH243816   3.921   7.354   7.184
14626TIP3    H143817   3.844   7.377   7.237
14626TIP3    H243818   3.894   7.390   7.096
14627TIP3   OH243819   4.540   7.428   6.432
14627TIP3    H143820   4.486   7.352   6.466
14627TIP3    H243821   4.614   7.380   6.391
14628TIP3   OH243822   4.975   7.466   6.341
14628TIP3    H143823   5.016   7.401   6.400
14628TIP3    H243824   5.031   7.462   6.261
14629TIP3   OH243825   4.183   6.941   6.653
14629TIP3    H143826   4.241   6.909   6.725
14629TIP3    H243827   4.249   6.946   6.580
14630TIP3   OH243828   4.689   7.139   6.455
14630TIP3    H143829   4.697   7.152   6.552
14630TIP3    H243830   4.694   7.041   6.451
14631TIP3   OH243831   4.364   7.046   8.445
14631TIP3    H143832   4.422   6.976   8.411
14631TIP3    H243833   4.337   7.009   8.530
14632TIP3   OH243834   4.385   6.847   6.866
14632TIP3    H143835   4.371   6.807   6.953
14632TIP3    H243836   4.426   6.774   6.816
14633TIP3   OH243837   4.645   6.896   8.087
14633TIP3    H143838   4.583   6.971   8.095
14633TIP3    H243839   4.716   6.936   8.031
14634TIP3   OH243840   4.494   6.642   6.712
14634TIP3    H143841   4.470   6.648   6.618
14634TIP3    H243842   4.592   6.645   6.707
14635TIP3   OH243843   5.306   6.973   6.376
14635TIP3    H143844   5.290   6.927   6.292
14635TIP3    H243845   5.274   7.063   6.352
14636TIP3   OH243846   4.768   6.696   8.230
14636TIP3    H143847   4.775   6.615   8.174
14636TIP3    H243848   4.729   6.760   8.167
14637TIP3   OH243849   4.781   6.476   8.054
14637TIP3    H143850   4.812   6.527   7.975
14637TIP3    H243851   4.689   6.455   8.026
14638TIP3   OH243852   4.807   7.016   7.906
14638TIP3    H143853   4.890   7.013   7.857
14638TIP3    H243854   4.755   7.085   7.860
14639TIP3   OH243855   4.636   6.828   8.438
14639TIP3    H143856   4.585   6.749   8.465
14639TIP3    H243857   4.689   6.790   8.365
14640TIP3   OH243858   4.924   6.250   8.115
14640TIP3    H143859   4.873   6.331   8.092
14640TIP3    H243860   4.858   6.181   8.097
14641TIP3   OH243861   5.040   6.759   8.238
14641TIP3    H143862   5.069   6.768   8.330
14641TIP3    H243863   4.947   6.731   8.250
14642TIP3   OH243864   4.499   6.593   8.506
14642TIP3    H143865   4.505   6.506   8.460
14642TIP3    H243866   4.538   6.572   8.591
14643TIP3   OH243867   5.004   6.248   8.385
14643TIP3    H143868   5.077   6.185   8.368
14643TIP3    H243869   4.971   6.260   8.294
14644TIP3   OH243870   4.302   7.709   6.619
14644TIP3    H143871   4.397   7.698   6.599
14644TIP3    H243872   4.274   7.756   6.538
14645TIP3   OH243873   3.781   7.086   6.834
14645TIP3    H143874   3.876   7.108   6.817
14645TIP3    H243875   3.775   6.997   6.793
14646TIP3   OH243876   3.690   7.700   7.249
14646TIP3    H143877   3.627   7.637   7.209
14646TIP3    H243878   3.735   7.641   7.314
14647TIP3   OH243879   3.822   7.551   7.439
14647TIP3    H143880   3.820   7.471   7.494
14647TIP3    H243881   3.887   7.605   7.489
14648TIP3   OH243882   5.456   7.151   6.724
14648TIP3    H143883   5.525   7.212   6.689
14648TIP3    H243884   5.500   7.117   6.804
14649TIP3   OH243885   5.515   6.939   6.552
14649TIP3    H143886   5.440   6.941   6.489
14649TIP3    H243887   5.487   7.008   6.615
14650TIP3   OH243888   5.377   6.609   6.501
14650TIP3    H143889   5.334   6.641   6.422
14650TIP3    H243890   5.356   6.513   6.497
14651TIP3   OH243891   5.353   6.870   7.058
14651TIP3    H143892   5.427   6.812   7.034
14651TIP3    H243893   5.383   6.907   7.142
14652TIP3   OH243894   4.015   6.964   7.803
14652TIP3    H143895   4.014   6.925   7.713
14652TIP3    H243896   4.112   6.961   7.822
14653TIP3   OH243897   5.334   6.337   6.490
14653TIP3    H143898   5.409   6.315   6.548
14653TIP3    H243899   5.261   6.285   6.526
14654TIP3   OH243900   5.391   6.591   6.942
14654TIP3    H143901   5.434   6.504   6.957
14654TIP3    H243902   5.455   6.631   6.880
14655TIP3   OH243903   5.527   6.781   7.449
14655TIP3    H143904   5.616   6.799   7.413
14655TIP3    H243905   5.540   6.811   7.540
14656TIP3   OH243906   4.228   6.630   8.463
14656TIP3    H143907   4.325   6.630   8.473
14656TIP3    H243908   4.205   6.551   8.518
14657TIP3   OH243909   5.504   6.344   6.988
14657TIP3    H143910   5.548   6.332   7.074
14657TIP3    H243911   5.437   6.273   6.990
14658TIP3   OH243912   4.192   6.337   7.821
14658TIP3    H143913   4.255   6.262   7.823
14658TIP3    H243914   4.254   6.411   7.807
14659TIP3   OH243915   3.996   6.611   7.878
14659TIP3    H143916   4.046   6.600   7.795
14659TIP3    H243917   4.040   6.686   7.918
14660TIP3   OH243918   5.572   6.282   6.624
14660TIP3    H143919   5.621   6.217   6.570
14660TIP3    H243920   5.636   6.357   6.626
14661TIP3   OH243921   3.981   6.107   7.382
14661TIP3    H143922   3.889   6.108   7.410
14661TIP3    H243923   3.980   6.168   7.305
14662TIP3   OH243924   5.142   7.786   6.874
14662TIP3    H143925   5.190   7.792   6.787
14662TIP3    H243926   5.101   7.874   6.884
14663TIP3   OH243927   4.203   6.191   8.197
14663TIP3    H143928   4.152   6.191   8.279
14663TIP3    H243929   4.138   6.229   8.134
14664TIP3   OH243930   4.445   7.644   7.819
14664TIP3    H143931   4.382   7.715   7.797
14664TIP3    H243932   4.457   7.606   7.731
14665TIP3   OH243933   5.849   6.390   7.898
14665TIP3    H143934   5.758   6.414   7.876
14665TIP3    H243935   5.856   6.302   7.862
14666TIP3   OH243936   4.336   7.833   7.653
14666TIP3    H143937   4.304   7.882   7.732
14666TIP3    H243938   4.324   7.901   7.584
14667TIP3   OH243939   4.005   7.691   7.598
14667TIP3    H143940   4.044   7.682   7.687
14667TIP3    H243941   4.079   7.655   7.544
14668TIP3   OH243942   4.200   7.574   7.450
14668TIP3    H143943   4.219   7.487   7.492
14668TIP3    H243944   4.289   7.604   7.425
14669TIP3   OH243945   4.466   7.673   7.429
14669TIP3    H143946   4.504   7.583   7.439
14669TIP3    H243947   4.452   7.701   7.520
14670TIP3   OH243948   5.068   6.323   7.551
14670TIP3    H143949   5.006   6.257   7.587
14670TIP3    H243950   5.133   6.269   7.503
14671TIP3   OH243951   5.567   6.200   7.444
14671TIP3    H143952   5.604   6.255   7.371
14671TIP3    H243953   5.473   6.225   7.441
14672TIP3   OH243954   5.665   6.296   7.208
14672TIP3    H143955   5.736   6.247   7.163
14672TIP3    H243956   5.700   6.388   7.196
14673TIP3   OH243957   4.293   6.033   7.555
14673TIP3    H143958   4.200   6.001   7.556
14673TIP3    H243959   4.341   5.948   7.550
14674TIP3   OH243960   4.080   5.903   7.202
14674TIP3    H143961   4.111   5.961   7.130
14674TIP3    H243962   4.053   5.969   7.270
14675TIP3   OH243963   4.740   6.064   7.436
14675TIP3    H143964   4.793   6.116   7.373
14675TIP3    H243965   4.760   6.110   7.519
14676TIP3   OH243966   5.289   6.208   7.420
14676TIP3    H143967   5.280   6.183   7.328
14676TIP3    H243968   5.270   6.124   7.468
14677TIP3   OH243969   5.312   6.137   6.982
14677TIP3    H143970   5.229   6.186   6.996
14677TIP3    H243971   5.292   6.052   7.027
14678TIP3   OH243972   3.794   7.478   6.982
14678TIP3    H143973   3.709   7.443   6.948
14678TIP3    H243974   3.784   7.571   6.956
14679TIP3   OH243975   4.198   6.062   6.967
14679TIP3    H143976   4.248   6.001   6.908
14679TIP3    H243977   4.271   6.118   7.002
14680TIP3   OH243978   4.711   6.244   7.070
14680TIP3    H143979   4.783   6.225   7.133
14680TIP3    H243980   4.688   6.335   7.096
14681TIP3   OH243981   4.569   7.664   6.565
14681TIP3    H143982   4.657   7.685   6.528
14681TIP3    H243983   4.546   7.588   6.506
14682TIP3   OH243984   5.291   7.797   6.648
14682TIP3    H143985   5.292   7.698   6.642
14682TIP3    H243986   5.251   7.818   6.562
14683TIP3   OH243987   4.491   6.315   8.439
14683TIP3    H143988   4.453   6.246   8.496
14683TIP3    H243989   4.586   6.307   8.465
14684TIP3   OH243990   4.748   6.292   8.538
14684TIP3    H143991   4.830   6.295   8.484
14684TIP3    H243992   4.782   6.255   8.621
14685TIP3   OH243993   3.873   7.499   6.619
14685TIP3    H143994   3.880   7.519   6.713
14685TIP3    H243995   3.960   7.455   6.601
14686TIP3   OH243996   6.434   6.621   7.028
14686TIP3    H143997   6.363   6.685   7.051
14686TIP3    H243998   6.378   6.564   6.970
14687TIP3   OH243999   5.948   6.970   7.200
14687TIP3    H144000   6.000   6.902   7.154
14687TIP3    H244001   5.868   6.971   7.141
14688TIP3   OH244002   5.646   7.319   6.598
14688TIP3    H144003   5.606   7.347   6.514
14688TIP3    H244004   5.678   7.405   6.632
14689TIP3   OH244005   6.580   6.945   6.168
14689TIP3    H144006   6.654   6.996   6.203
14689TIP3    H244007   6.627   6.875   6.119
14690TIP3   OH244008   7.286   6.319   6.246
14690TIP3    H144009   7.212   6.314   6.309
14690TIP3    H244010   7.286   6.415   6.231
14691TIP3   OH244011   6.060   7.071   6.621
14691TIP3    H144012   5.984   7.111   6.574
14691TIP3    H244013   6.021   6.991   6.658
14692TIP3   OH244014   6.832   7.114   5.942
14692TIP3    H144015   6.825   7.090   5.847
14692TIP3    H244016   6.919   7.156   5.947
14693TIP3   OH244017   6.595   6.506   6.284
14693TIP3    H144018   6.559   6.504   6.375
14693TIP3    H244019   6.549   6.428   6.247
14694TIP3   OH244020   6.256   6.882   6.815
14694TIP3    H144021   6.205   6.845   6.890
14694TIP3    H244022   6.238   6.818   6.744
14695TIP3   OH244023   6.248   6.488   6.253
14695TIP3    H144024   6.231   6.484   6.349
14695TIP3    H244025   6.169   6.539   6.224
14696TIP3   OH244026   5.801   6.516   7.130
14696TIP3    H144027   5.861   6.579   7.171
14696TIP3    H244028   5.819   6.527   7.036
14697TIP3   OH244029   5.750   6.499   6.632
14697TIP3    H144030   5.813   6.547   6.575
14697TIP3    H244031   5.692   6.573   6.661
14698TIP3   OH244032   5.967   6.676   6.842
14698TIP3    H144033   5.899   6.741   6.866
14698TIP3    H244034   6.030   6.685   6.916
14699TIP3   OH244035   6.286   6.722   6.592
14699TIP3    H144036   6.373   6.753   6.563
14699TIP3    H244037   6.228   6.749   6.517
14700TIP3   OH244038   6.127   6.774   6.384
14700TIP3    H144039   6.053   6.728   6.340
14700TIP3    H244040   6.178   6.806   6.307
14701TIP3   OH244041   6.256   6.462   6.883
14701TIP3    H144042   6.182   6.428   6.936
14701TIP3    H244043   6.213   6.473   6.797
14702TIP3   OH244044   6.350   7.324   6.385
14702TIP3    H144045   6.295   7.243   6.380
14702TIP3    H244046   6.344   7.344   6.480
14703TIP3   OH244047   6.831   6.636   6.265
14703TIP3    H144048   6.739   6.600   6.266
14703TIP3    H244049   6.819   6.724   6.228
14704TIP3   OH244050   5.739   6.933   6.396
14704TIP3    H144051   5.783   7.017   6.420
14704TIP3    H244052   5.661   6.936   6.458
14705TIP3   OH244053   6.163   7.504   6.003
14705TIP3    H144054   6.154   7.441   5.927
14705TIP3    H244055   6.137   7.443   6.074
14706TIP3   OH244056   6.145   7.471   6.275
14706TIP3    H144057   6.220   7.415   6.304
14706TIP3    H244058   6.190   7.539   6.223
14707TIP3   OH244059   5.848   7.177   6.477
14707TIP3    H144060   5.782   7.219   6.536
14707TIP3    H244061   5.859   7.248   6.410
14708TIP3   OH244062   6.880   6.558   6.526
14708TIP3    H144063   6.862   6.594   6.436
14708TIP3    H244064   6.954   6.613   6.555
14709TIP3   OH244065   6.575   6.740   6.642
14709TIP3    H144066   6.641   6.812   6.635
14709TIP3    H244067   6.537   6.762   6.728
14710TIP3   OH244068   6.717   6.470   6.732
14710TIP3    H144069   6.728   6.547   6.789
14710TIP3    H244070   6.773   6.498   6.655
14711TIP3   OH244071   6.225   6.463   6.529
14711TIP3    H144072   6.224   6.556   6.562
14711TIP3    H244073   6.321   6.446   6.538
14712TIP3   OH244074   5.843   7.381   6.282
14712TIP3    H144075   5.902   7.456   6.294
14712TIP3    H244076   5.891   7.331   6.212
14713TIP3   OH244077   5.798   6.665   6.404
14713TIP3    H144078   5.793   6.763   6.408
14713TIP3    H244079   5.705   6.640   6.400
14714TIP3   OH244080   6.153   6.383   7.295
14714TIP3    H144081   6.139   6.359   7.201
14714TIP3    H244082   6.157   6.296   7.338
14715TIP3   OH244083   5.699   7.579   6.651
14715TIP3    H144084   5.639   7.629   6.709
14715TIP3    H244085   5.703   7.637   6.573
14716TIP3   OH244086   6.345   7.685   5.916
14716TIP3    H144087   6.279   7.621   5.952
14716TIP3    H244088   6.416   7.624   5.890
14717TIP3   OH244089   5.982   7.214   6.109
14717TIP3    H144090   6.043   7.164   6.165
14717TIP3    H244091   6.030   7.216   6.023
14718TIP3   OH244092   6.485   7.397   5.951
14718TIP3    H144093   6.471   7.394   6.046
14718TIP3    H244094   6.487   7.300   5.932
14719TIP3   OH244095   6.208   7.097   6.376
14719TIP3    H144096   6.153   7.062   6.450
14719TIP3    H244097   6.226   7.016   6.324
14720TIP3   OH244098   6.293   6.896   6.205
14720TIP3    H144099   6.261   6.893   6.111
14720TIP3    H244100   6.389   6.902   6.190
14721TIP3   OH244101   5.573   7.343   6.314
14721TIP3    H144102   5.669   7.362   6.304
14721TIP3    H244103   5.568   7.252   6.278
14722TIP3   OH244104   7.161   6.868   6.004
14722TIP3    H144105   7.095   6.887   5.937
14722TIP3    H244106   7.165   6.771   5.999
14723TIP3   OH244107   7.130   6.590   5.973
14723TIP3    H144108   7.203   6.574   6.036
14723TIP3    H244109   7.055   6.544   6.014
14724TIP3   OH244110   6.001   6.611   7.311
14724TIP3    H144111   6.048   6.525   7.306
14724TIP3    H244112   6.049   6.662   7.241
14725TIP3   OH244113   5.787   6.880   7.420
14725TIP3    H144114   5.845   6.843   7.351
14725TIP3    H244115   5.790   6.974   7.396
14726TIP3   OH244116   7.411   6.566   6.044
14726TIP3    H144117   7.441   6.474   6.032
14726TIP3    H244118   7.482   6.607   6.095
14727TIP3   OH244119   5.776   6.351   6.859
14727TIP3    H144120   5.686   6.361   6.894
14727TIP3    H244121   5.778   6.421   6.790
14728TIP3   OH244122   6.087   6.291   7.043
14728TIP3    H144123   5.993   6.262   7.042
14728TIP3    H244124   6.132   6.205   7.029
14729TIP3   OH244125   5.880   6.159   6.688
14729TIP3    H144126   5.904   6.219   6.616
14729TIP3    H244127   5.846   6.222   6.755
14730TIP3   OH244128   6.553   6.311   6.932
14730TIP3    H144129   6.592   6.365   6.863
14730TIP3    H244130   6.484   6.369   6.968
14731TIP3   OH244131   7.079   6.365   6.449
14731TIP3    H144132   7.004   6.425   6.464
14731TIP3    H244133   7.050   6.285   6.498
14732TIP3   OH244134   5.606   7.741   6.436
14732TIP3    H144135   5.522   7.695   6.418
14732TIP3    H244136   5.575   7.832   6.437
14733TIP3   OH244137   5.992   6.315   6.453
14733TIP3    H144138   6.042   6.257   6.393
14733TIP3    H244139   6.062   6.371   6.491
14734TIP3   OH244140   6.507   6.491   6.546
14734TIP3    H144141   6.565   6.447   6.609
14734TIP3    H244142   6.522   6.584   6.573
14735TIP3   OH244143   5.677   7.760   6.113
14735TIP3    H144144   5.665   7.749   6.208
14735TIP3    H244145   5.762   7.713   6.097
14736TIP3   OH244146   2.634   8.241   6.789
14736TIP3    H144147   2.689   8.308   6.833
14736TIP3    H244148   2.700   8.193   6.734
14737TIP3   OH244149   3.364   7.629   6.945
14737TIP3    H144150   3.285   7.648   7.000
14737TIP3    H244151   3.375   7.715   6.898
14738TIP3   OH244152   2.908   8.422   6.644
14738TIP3    H144153   2.886   8.393   6.553
14738TIP3    H244154   2.987   8.476   6.628
14739TIP3   OH244155   2.612   7.828   6.942
14739TIP3    H144156   2.609   7.809   7.036
14739TIP3    H244157   2.577   7.743   6.906
14740TIP3   OH244158   2.290   7.782   6.894
14740TIP3    H144159   2.276   7.798   6.990
14740TIP3    H244160   2.209   7.820   6.856
14741TIP3   OH244161   2.881   7.898   6.922
14741TIP3    H144162   2.783   7.896   6.916
14741TIP3    H244163   2.904   7.988   6.891
14742TIP3   OH244164   2.982   8.147   6.864
14742TIP3    H144165   3.035   8.147   6.945
14742TIP3    H244166   2.941   8.235   6.869
14743TIP3   OH244167   3.385   8.242   6.836
14743TIP3    H144168   3.323   8.198   6.773
14743TIP3    H244169   3.387   8.330   6.793
14744TIP3   OH244170   2.981   7.869   7.175
14744TIP3    H144171   2.949   7.873   7.082
14744TIP3    H244172   2.960   7.959   7.205
14745TIP3   OH244173   3.151   8.538   6.524
14745TIP3    H144174   3.127   8.485   6.446
14745TIP3    H244175   3.162   8.626   6.485
14746TIP3   OH244176   3.356   8.501   6.705
14746TIP3    H144177   3.280   8.486   6.643
14746TIP3    H244178   3.362   8.597   6.700
14747TIP3   OH244179   3.225   8.164   6.632
14747TIP3    H144180   3.161   8.187   6.564
14747TIP3    H244181   3.204   8.069   6.643
14748TIP3   OH244182   3.171   7.898   6.648
14748TIP3    H144183   3.247   7.869   6.702
14748TIP3    H244184   3.100   7.836   6.673
14749TIP3   OH244185   3.257   8.152   7.070
14749TIP3    H144186   3.299   8.070   7.102
14749TIP3    H244187   3.310   8.173   6.992
14750TIP3   OH244188   3.354   7.901   7.132
14750TIP3    H144189   3.389   7.892   7.223
14750TIP3    H244190   3.288   7.828   7.130
14751TIP3   OH244191   3.416   7.842   6.772
14751TIP3    H144192   3.456   7.770   6.719
14751TIP3    H244193   3.485   7.911   6.769
14752TIP3   OH244194   3.420   7.789   7.602
14752TIP3    H144195   3.457   7.819   7.516
14752TIP3    H244196   3.326   7.774   7.578
14753TIP3   OH244197   3.508   7.873   7.361
14753TIP3    H144198   3.579   7.821   7.315
14753TIP3    H244199   3.537   7.965   7.341
14754TIP3   OH244200   3.155   7.753   7.573
14754TIP3    H144201   3.109   7.750   7.489
14754TIP3    H244202   3.116   7.678   7.622
14755TIP3   OH244203   3.174   7.685   7.131
14755TIP3    H144204   3.098   7.744   7.151
14755TIP3    H244205   3.145   7.602   7.176
14756TIP3   OH244206   2.043   7.611   7.095
14756TIP3    H144207   2.070   7.534   7.041
14756TIP3    H244208   2.123   7.623   7.148
14757TIP3   OH244209   3.599   8.322   6.991
14757TIP3    H144210   3.581   8.417   6.991
14757TIP3    H244211   3.515   8.285   6.961
14758TIP3   OH244212   4.172   8.242   7.179
14758TIP3    H144213   4.147   8.313   7.117
14758TIP3    H244214   4.126   8.166   7.137
14759TIP3   OH244215   4.866   8.295   6.805
14759TIP3    H144216   4.927   8.313   6.878
14759TIP3    H244217   4.874   8.378   6.755
14760TIP3   OH244218   4.254   8.626   7.107
14760TIP3    H144219   4.340   8.598   7.075
14760TIP3    H244220   4.196   8.555   7.070
14761TIP3   OH244221   4.044   8.350   7.397
14761TIP3    H144222   4.087   8.435   7.382
14761TIP3    H244223   4.087   8.297   7.327
14762TIP3   OH244224   4.499   7.937   7.315
14762TIP3    H144225   4.502   7.844   7.346
14762TIP3    H244226   4.432   7.974   7.377
14763TIP3   OH244227   4.448   8.693   6.584
14763TIP3    H144228   4.372   8.752   6.566
14763TIP3    H244229   4.503   8.705   6.504
14764TIP3   OH244230   4.408   8.492   6.305
14764TIP3    H144231   4.468   8.537   6.366
14764TIP3    H244232   4.470   8.431   6.259
14765TIP3   OH244233   4.048   8.770   6.929
14765TIP3    H144234   4.047   8.679   6.895
14765TIP3    H244235   4.114   8.767   7.000
14766TIP3   OH244236   4.644   8.668   6.390
14766TIP3    H144237   4.716   8.724   6.420
14766TIP3    H244238   4.659   8.671   6.292
14767TIP3   OH244239   5.149   7.890   6.431
14767TIP3    H144240   5.069   7.911   6.483
14767TIP3    H244241   5.162   7.973   6.380
14768TIP3   OH244242   3.919   8.588   6.757
14768TIP3    H144243   3.860   8.665   6.762
14768TIP3    H244244   3.860   8.515   6.781
14769TIP3   OH244245   4.285   8.029   7.466
14769TIP3    H144246   4.192   8.005   7.447
14769TIP3    H244247   4.275   8.119   7.500
14770TIP3   OH244248   4.715   8.672   6.134
14770TIP3    H144249   4.685   8.649   6.044
14770TIP3    H244250   4.770   8.750   6.116
14771TIP3   OH244251   4.424   8.069   6.435
14771TIP3    H144252   4.390   8.065   6.527
14771TIP3    H244253   4.387   7.985   6.401
14772TIP3   OH244254   4.102   8.428   6.991
14772TIP3    H144255   4.011   8.392   7.005
14772TIP3    H244256   4.119   8.390   6.902
14773TIP3   OH244257   4.579   8.500   6.721
14773TIP3    H144258   4.531   8.576   6.681
14773TIP3    H244259   4.629   8.468   6.644
14774TIP3   OH244260   4.080   8.042   6.403
14774TIP3    H144261   4.074   8.041   6.500
14774TIP3    H244262   4.003   8.098   6.380
14775TIP3   OH244263   3.635   8.101   7.269
14775TIP3    H144264   3.719   8.114   7.316
14775TIP3    H244265   3.661   8.059   7.186
14776TIP3   OH244266   3.597   8.058   6.791
14776TIP3    H144267   3.647   8.096   6.715
14776TIP3    H244268   3.539   8.134   6.811
14777TIP3   OH244269   4.428   8.257   7.061
14777TIP3    H144270   4.342   8.247   7.107
14777TIP3    H244271   4.490   8.224   7.128
14778TIP3   OH244272   3.872   8.303   7.039
14778TIP3    H144273   3.774   8.309   7.038
14778TIP3    H244274   3.886   8.207   7.030
14779TIP3   OH244275   4.129   8.296   6.754
14779TIP3    H144276   4.222   8.308   6.727
14779TIP3    H244277   4.079   8.319   6.672
14780TIP3   OH244278   3.973   8.326   6.531
14780TIP3    H144279   3.902   8.284   6.479
14780TIP3    H244280   4.026   8.367   6.459
14781TIP3   OH244281   4.035   8.053   7.036
14781TIP3    H144282   4.000   7.975   7.084
14781TIP3    H244283   4.077   8.013   6.959
14782TIP3   OH244284   4.219   8.843   6.546
14782TIP3    H144285   4.143   8.783   6.528
14782TIP3    H244286   4.195   8.879   6.633
14783TIP3   OH244287   4.676   8.164   6.406
14783TIP3    H144288   4.580   8.145   6.412
14783TIP3    H244289   4.680   8.260   6.425
14784TIP3   OH244290   4.713   8.419   6.494
14784TIP3    H144291   4.810   8.415   6.514
14784TIP3    H244292   4.707   8.502   6.443
14785TIP3   OH244293   4.325   9.016   6.361
14785TIP3    H144294   4.299   9.091   6.419
14785TIP3    H244295   4.297   8.942   6.419
14786TIP3   OH244296   5.204   8.459   6.295
14786TIP3    H144297   5.117   8.434   6.255
14786TIP3    H244298   5.209   8.550   6.258
14787TIP3   OH244299   3.583   8.488   6.541
14787TIP3    H144300   3.626   8.573   6.563
14787TIP3    H244301   3.510   8.487   6.606
14788TIP3   OH244302   4.697   8.982   6.156
14788TIP3    H144303   4.747   9.056   6.194
14788TIP3    H244304   4.608   9.021   6.146
14789TIP3   OH244305   3.990   8.986   6.204
14789TIP3    H144306   4.035   8.903   6.178
14789TIP3    H244307   4.039   9.011   6.283
14790TIP3   OH244308   3.677   8.736   6.629
14790TIP3    H144309   3.719   8.782   6.705
14790TIP3    H244310   3.693   8.801   6.558
14791TIP3   OH244311   4.711   8.109   6.681
14791TIP3    H144312   4.702   8.136   6.588
14791TIP3    H244313   4.764   8.183   6.719
14792TIP3   OH244314   4.413   8.299   6.790
14792TIP3    H144315   4.475   8.371   6.765
14792TIP3    H244316   4.416   8.304   6.887
14793TIP3   OH244317   4.560   8.036   6.897
14793TIP3    H144318   4.530   8.124   6.926
14793TIP3    H244319   4.616   8.061   6.819
14794TIP3   OH244320   4.067   8.030   6.680
14794TIP3    H144321   4.066   8.121   6.715
14794TIP3    H244322   4.163   8.011   6.686
14795TIP3   OH244323   3.694   8.956   6.442
14795TIP3    H144324   3.729   9.046   6.431
14795TIP3    H244325   3.746   8.906   6.375
14796TIP3   OH244326   3.628   8.217   6.570
14796TIP3    H144327   3.635   8.314   6.560
14796TIP3    H244328   3.547   8.196   6.522
14797TIP3   OH244329   4.025   7.933   7.439
14797TIP3    H144330   3.996   7.898   7.352
14797TIP3    H244331   4.013   7.855   7.497
14798TIP3   OH244332   3.814   8.749   6.295
14798TIP3    H144333   3.869   8.713   6.367
14798TIP3    H244334   3.884   8.758   6.226
14799TIP3   OH244335   4.256   8.921   6.102
14799TIP3    H144336   4.287   8.942   6.191
14799TIP3    H244337   4.295   8.833   6.087
14800TIP3   OH244338   4.016   8.659   6.505
14800TIP3    H144339   3.990   8.617   6.590
14800TIP3    H244340   4.058   8.585   6.457
14801TIP3   OH244341   4.131   8.457   6.350
14801TIP3    H144342   4.106   8.458   6.256
14801TIP3    H244343   4.228   8.460   6.343
14802TIP3   OH244344   4.946   8.795   6.021
14802TIP3    H144345   4.927   8.745   5.939
14802TIP3    H244346   4.940   8.885   5.985
14803TIP3   OH244347   3.429   8.876   6.486
14803TIP3    H144348   3.517   8.912   6.464
14803TIP3    H244349   3.424   8.797   6.429
14804TIP3   OH244350   5.170   8.691   6.166
14804TIP3    H144351   5.091   8.705   6.110
14804TIP3    H244352   5.222   8.771   6.143
14805TIP3   OH244353   4.987   8.421   6.136
14805TIP3    H144354   4.950   8.446   6.051
14805TIP3    H244355   4.968   8.325   6.136
14806TIP3   OH244356   4.950   8.156   6.127
14806TIP3    H144357   5.031   8.124   6.172
14806TIP3    H244358   4.883   8.089   6.150
14807TIP3   OH244359   4.971   8.405   6.568
14807TIP3    H144360   5.011   8.323   6.603
14807TIP3    H244361   5.038   8.472   6.588
14808TIP3   OH244362   5.115   8.174   6.644
14808TIP3    H144363   5.145   8.159   6.736
14808TIP3    H244364   5.053   8.098   6.634
14809TIP3   OH244365   3.856   8.148   7.432
14809TIP3    H144366   3.918   8.072   7.438
14809TIP3    H244367   3.917   8.221   7.411
14810TIP3   OH244368   5.193   8.091   6.237
14810TIP3    H144369   5.231   8.013   6.190
14810TIP3    H244370   5.268   8.154   6.235
14811TIP3   OH244371   3.621   7.932   7.030
14811TIP3    H144372   3.526   7.919   7.050
14811TIP3    H244373   3.617   7.986   6.948
14812TIP3   OH244374   4.649   8.118   7.177
14812TIP3    H144375   4.602   8.044   7.221
14812TIP3    H244376   4.674   8.078   7.093
14813TIP3   OH244377   3.928   7.845   7.194
14813TIP3    H144378   3.835   7.814   7.194
14813TIP3    H244379   3.975   7.759   7.189
14814TIP3   OH244380   3.717   7.719   6.842
14814TIP3    H144381   3.748   7.774   6.768
14814TIP3    H244382   3.691   7.786   6.907
14815TIP3   OH244383   4.370   7.882   7.072
14815TIP3    H144384   4.433   7.925   7.012
14815TIP3    H244385   4.404   7.909   7.159
14816TIP3   OH244386   4.976   7.948   7.018
14816TIP3    H144387   4.914   8.012   6.982
14816TIP3    H244388   4.926   7.906   7.091
14817TIP3   OH244389   4.948   7.953   6.622
14817TIP3    H144390   4.857   7.988   6.627
14817TIP3    H244391   4.934   7.863   6.661
14818TIP3   OH244392   3.835   7.877   6.602
14818TIP3    H144393   3.883   7.813   6.545
14818TIP3    H244394   3.909   7.930   6.638
14819TIP3   OH244395   4.343   8.052   6.700
14819TIP3    H144396   4.403   8.000   6.755
14819TIP3    H244397   4.369   8.143   6.727
14820TIP3   OH244398   5.864   8.317   5.905
14820TIP3    H144399   5.837   8.272   5.986
14820TIP3    H244400   5.778   8.348   5.869
14821TIP3   OH244401   5.403   8.279   6.263
14821TIP3    H144402   5.466   8.314   6.198
14821TIP3    H244403   5.343   8.356   6.274
14822TIP3   OH244404   5.379   8.450   6.007
14822TIP3    H144405   5.426   8.526   6.047
14822TIP3    H244406   5.293   8.451   6.049
14823TIP3   OH244407   5.353   8.123   6.476
14823TIP3    H144408   5.271   8.157   6.516
14823TIP3    H244409   5.375   8.195   6.412
14824TIP3   OH244410   5.488   7.967   6.295
14824TIP3    H144411   5.513   8.033   6.229
14824TIP3    H244412   5.440   8.020   6.362
14825TIP3   OH244413   5.631   8.139   6.085
14825TIP3    H144414   5.667   8.067   6.030
14825TIP3    H244415   5.703   8.154   6.147
   8.50000   8.01388   6.94022   0.00000   0.00000  -2.83333   0.00000  -2.83333  -4.00694
