Title
29212
    1ASP      N    1   1.586   3.215   5.085  0.1036 -0.0006 -0.2278
    1ASP    HT1    2   1.541   3.307   5.065 -2.0067 -0.8429  0.3142
    1ASP    HT2    3   1.639   3.221   5.175 -0.3230  2.7308 -0.0633
    1ASP    HT3    4   1.502   3.155   5.097 -0.8880  1.0977 -1.3949
    1ASP     CA    5   1.676   3.166   4.989 -0.8083  0.2178  0.1836
    1ASP     HA    6   1.712   3.070   5.025 -0.2148  0.1242 -0.6440
    1ASP     CB    7   1.599   3.153   4.853  0.2644  0.3807 -0.3963
    1ASP    HB1    8   1.664   3.113   4.771  1.3435  1.6857 -0.2149
    1ASP    HB2    9   1.576   3.258   4.823  2.7267  1.2372  0.4662
    1ASP     CG   10   1.469   3.071   4.863  0.1845 -0.0173 -0.4956
    1ASP    OD1   11   1.424   3.027   4.973  0.3063 -0.0147  0.3157
    1ASP    OD2   12   1.407   3.056   4.757  0.2233  0.0489 -0.3924
    1ASP      C   13   1.805   3.255   4.975 -0.1085  0.1236 -0.1346
    1ASP      O   14   1.809   3.370   5.024 -0.6763 -0.6014  0.2352
    2GLY      N   15   1.912   3.206   4.906 -0.0760 -0.1707 -0.3976
    2GLY     HN   16   1.915   3.111   4.875  2.1108 -1.1132  2.2300
    2GLY     CA   17   2.040   3.274   4.879 -0.5859 -0.0249 -0.2904
    2GLY    HA1   18   2.114   3.200   4.851 -0.2201  0.4041 -0.4776
    2GLY    HA2   19   2.070   3.325   4.970  0.6294  0.6322 -1.0242
    2GLY      C   20   2.042   3.375   4.766  0.1798  1.1004 -0.4621
    2GLY      O   21   1.939   3.429   4.732 -0.9269 -0.5290 -0.2015
    3ASP      N   22   2.167   3.392   4.705  0.0349 -0.1860 -0.2807
    3ASP     HN   23   2.245   3.336   4.732 -0.8793 -1.9797 -1.1538
    3ASP     CA   24   2.183   3.447   4.570 -0.1667  0.7211 -0.0667
    3ASP     HA   25   2.117   3.532   4.558 -0.2501  0.8875  1.4003
    3ASP     CB   26   2.335   3.480   4.548  0.2072 -0.2317  0.0212
    3ASP    HB1   27   2.349   3.501   4.440  4.3682 -2.7864 -0.1572
    3ASP    HB2   28   2.407   3.395   4.554  1.3761  0.6383 -1.2088
    3ASP     CG   29   2.382   3.595   4.632  0.3484  0.0531  0.1123
    3ASP    OD1   30   2.306   3.696   4.644  0.3193 -0.1714  0.0100
    3ASP    OD2   31   2.498   3.592   4.674  0.8271  0.6921 -0.1059
    3ASP      C   32   2.142   3.337   4.476  0.5991 -0.2695  0.5749
    3ASP      O   33   2.142   3.217   4.507 -0.1207 -0.8123  0.2345
    4GLY      N   34   2.109   3.381   4.354 -0.2046 -0.0159  0.3524
    4GLY     HN   35   2.109   3.477   4.329  2.4936  0.3511  1.4145
    4GLY     CA   36   2.098   3.295   4.245  0.0996 -0.1808  0.1064
    4GLY    HA1   37   2.032   3.350   4.179 -0.4569 -0.4199  0.4557
    4GLY    HA2   38   2.053   3.201   4.272  0.6827 -0.6517 -0.5314
    4GLY      C   39   2.218   3.254   4.175  0.1786 -0.1256 -0.4874
    4GLY      O   40   2.324   3.285   4.220  0.6416 -0.6281 -0.0162
    5PRO      N   41   2.213   3.180   4.064  0.6776  0.2326 -0.8474
    5PRO     CD   42   2.085   3.140   3.995 -0.0739 -0.1827  0.0117
    5PRO    HD1   43   2.033   3.234   3.967 -0.2693 -0.3432 -0.1750
    5PRO    HD2   44   2.021   3.085   4.068 -2.6802  2.0753 -0.4049
    5PRO     CA   45   2.331   3.153   3.980  0.1928 -0.3274 -0.2224
    5PRO     HA   46   2.389   3.073   4.024  1.0529  0.5499  0.2800
    5PRO     CB   47   2.268   3.109   3.851  0.3890  0.3607 -0.7392
    5PRO    HB1   48   2.338   3.035   3.806  0.4961 -1.1595  1.6967
    5PRO    HB2   49   2.248   3.195   3.785  0.8510  0.5568 -0.6281
    5PRO     CG   50   2.133   3.046   3.884 -0.2633 -0.2206  0.4411
    5PRO    HG1   51   2.068   3.048   3.795 -1.4433  0.0568  1.2802
    5PRO    HG2   52   2.134   2.942   3.924 -0.4280  0.0161  1.0745
    5PRO      C   53   2.420   3.267   3.946 -1.0714  0.5788  0.0200
    5PRO      O   54   2.371   3.380   3.945  0.3125 -0.6000  0.4746
    6GLY      N   55   2.551   3.241   3.919  0.5447 -0.1281  0.1509
    6GLY     HN   56   2.571   3.144   3.910 -1.2244 -0.3443 -2.0748
    6GLY     CA   57   2.644   3.327   3.847 -0.5465  0.2231 -0.0864
    6GLY    HA1   58   2.736   3.273   3.832  0.2472  1.4041  0.3942
    6GLY    HA2   59   2.644   3.414   3.911 -3.8591  0.2578  0.0460
    6GLY      C   60   2.603   3.381   3.708  0.0384  0.2078  1.2606
    6GLY      O   61   2.504   3.343   3.641 -0.0342 -0.2026  0.5454
    7ASP      N   62   2.668   3.485   3.656 -0.4208  0.4645  0.0457
    7ASP     HN   63   2.736   3.531   3.712  0.8883  0.2176 -1.2957
    7ASP     CA   64   2.630   3.554   3.541  0.4380 -0.8735  0.1409
    7ASP     HA   65   2.526   3.578   3.560  0.7905  0.6879  0.2850
    7ASP     CB   66   2.705   3.689   3.535  0.2907  0.0265 -0.7851
    7ASP    HB1   67   2.664   3.745   3.448 -1.4372  0.4138  0.2106
    7ASP    HB2   68   2.814   3.670   3.546  0.2697  0.6245  0.6913
    7ASP     CG   69   2.663   3.783   3.652  0.7854 -0.2231  0.5487
    7ASP    OD1   70   2.752   3.857   3.707  0.1228  0.2462 -0.3552
    7ASP    OD2   71   2.544   3.791   3.682 -0.7249  0.3437  0.2178
    7ASP      C   72   2.645   3.475   3.407  0.1634 -0.0978 -0.3737
    7ASP      O   73   2.739   3.400   3.390 -0.3213  0.1152  0.2485
    8PRO      N   74   2.548   3.493   3.313  0.2950 -0.1090  0.4540
    8PRO     CD   75   2.414   3.557   3.346 -0.2370 -0.2333  0.3616
    8PRO    HD1   76   2.427   3.668   3.350 -0.4029 -0.2243  0.6699
    8PRO    HD2   77   2.359   3.516   3.433 -0.1668  0.3482  0.6862
    8PRO     CA   78   2.554   3.445   3.175  0.3519 -0.2405 -0.1141
    8PRO     HA   79   2.533   3.339   3.177  0.6641 -0.3014  0.7500
    8PRO     CB   80   2.438   3.504   3.103  0.2081 -0.5047 -0.5886
    8PRO    HB1   81   2.396   3.430   3.031  0.7837 -1.0470 -0.3816
    8PRO    HB2   82   2.449   3.601   3.051  0.6245 -0.8928 -1.2419
    8PRO     CG   83   2.335   3.538   3.212  0.0306  0.3533  0.4472
    8PRO    HG1   84   2.253   3.609   3.188  0.0182  0.4757  0.8547
    8PRO    HG2   85   2.290   3.437   3.226  0.8115  0.0496  0.8583
    8PRO      C   86   2.691   3.464   3.103  0.4374  0.5567 -0.2441
    8PRO      O   87   2.757   3.570   3.109  0.0085 -0.7443  0.1558
    9GLY      N   88   2.732   3.360   3.028 -0.5324  0.0045  0.1498
    9GLY     HN   89   2.681   3.274   3.027 -0.6697 -0.0039 -3.0730
    9GLY     CA   90   2.850   3.358   2.945  0.3711  0.4414  0.3609
    9GLY    HA1   91   2.849   3.263   2.892  1.4572  0.2657  0.6186
    9GLY    HA2   92   2.943   3.378   2.996 -0.7324  0.9301  2.2477
    9GLY      C   93   2.834   3.467   2.832  0.0670  0.6405 -0.8221
    9GLY      O   94   2.723   3.510   2.804  0.8760 -0.3830  0.0102
   10ASP      N   95   2.950   3.509   2.778 -0.1055  0.3788 -0.2426
   10ASP     HN   96   3.034   3.460   2.799  0.8133  0.7240 -2.7786
   10ASP     CA   97   2.952   3.612   2.675 -0.2607 -0.1024  0.3055
   10ASP     HA   98   2.874   3.682   2.702 -0.8540 -0.7656  0.3579
   10ASP     CB   99   3.099   3.666   2.662 -0.0432  0.3560 -0.0422
   10ASP    HB1  100   3.125   3.714   2.565 -1.3079  0.6920 -0.2404
   10ASP    HB2  101   3.166   3.581   2.686  2.9135  2.3769 -0.6398
   10ASP     CG  102   3.124   3.764   2.777  0.7452  0.3544 -0.6718
   10ASP    OD1  103   3.039   3.779   2.870  0.0514 -0.2605 -0.1032
   10ASP    OD2  104   3.232   3.825   2.779  0.1529 -0.0380 -0.4149
   10ASP      C  105   2.911   3.552   2.539 -0.0219  0.8746 -0.0428
   10ASP      O  106   2.925   3.429   2.515 -0.2780 -0.3592  0.1454
   11GLY      N  107   2.861   3.640   2.444 -0.0617  0.4691  0.2202
   11GLY     HN  108   2.853   3.738   2.462  2.2774  0.7291  0.1163
   11GLY     CA  109   2.829   3.615   2.308  0.2145  0.1511  0.1884
   11GLY    HA1  110   2.909   3.567   2.253  0.5639  0.5309  0.3575
   11GLY    HA2  111   2.795   3.710   2.270 -1.4126  0.3463  1.9811
   11GLY      C  112   2.716   3.520   2.286  0.1948 -0.3038 -0.1315
   11GLY    OT1  113   2.727   3.421   2.210  0.2911  0.3924 -0.2639
   11GLY    OT2  114   2.603   3.547   2.343  0.6212 -0.0583  0.0213
   12SOD    SOD  115   4.629   2.170   1.155 -0.1655 -0.2827 -0.3432
   13SOD    SOD  116   3.376   3.004   5.880 -0.1248 -0.4271 -0.0138
   14SOD    SOD  117   1.049   1.331   1.596  0.3227  0.2879  0.0528
   15SOD    SOD  118   6.339   0.238   2.846  0.2888  0.2992 -0.6874
   16SOD    SOD  119   2.362   6.663   5.000 -0.0082  0.4833  0.2486
   17SOD    SOD  120   1.889   4.338   3.334  0.3553 -0.5673  0.2716
   18SOD    SOD  121   0.324   2.727   5.812  0.3419 -0.2745  0.1142
   19SOD    SOD  122   5.426   0.351   5.699  0.0458 -0.7275 -0.3701
   20SOD    SOD  123   6.677   0.802   5.746  0.0297 -0.0933  0.5987
   21SOD    SOD  124   6.266   0.360   1.252  0.5457  0.5435 -0.6200
   22SOD    SOD  125   4.497   6.499   3.990  0.0275 -0.1402 -0.0804
   23SOD    SOD  126   3.163   1.370   2.578  0.3386  0.2610 -0.3196
   24SOD    SOD  127   3.454   3.157   5.125 -0.0052 -0.0302  0.0317
   25SOD    SOD  128   3.150   2.712   1.292  0.0105  0.4193  0.1228
   26SOD    SOD  129   4.772   5.755   3.926  0.0245  0.0673 -0.1217
   27SOD    SOD  130   3.826   3.293   2.850 -0.1848 -0.2745 -0.0397
   28SOD    SOD  131   5.780   2.858   3.496 -0.2191 -0.0731  0.0332
   29SOD    SOD  132   0.659   2.530   2.179 -0.2715  0.0309  0.0735
   30SOD    SOD  133   6.820   1.504   0.088  0.1621 -0.0510 -0.2440
   31SOD    SOD  134   6.204   6.782   2.946 -0.3753 -0.1991 -0.2246
   32SOD    SOD  135   3.449   4.944   1.293  0.0334  0.0272  0.4976
   33SOD    SOD  136   1.441   3.012   1.389 -0.4623 -0.3603 -0.0320
   34SOD    SOD  137   4.788   6.050   2.108  0.1020  0.9122  0.0631
   35SOD    SOD  138   4.420   4.249   1.437  0.3578  0.3508 -0.2061
   36SOD    SOD  139   5.160   2.008   4.721 -0.1532  0.0048 -0.0090
   37SOD    SOD  140   3.531   4.403   0.285  0.0526 -0.2073  0.4746
   38SOD    SOD  141   2.475   4.554   3.757  0.3442  0.6746 -0.3097
   39SOD    SOD  142   1.328   5.207   4.049  0.0686 -0.2824 -0.4854
   40SOD    SOD  143   5.425   2.783   0.847 -0.7488 -0.0893  0.0254
   41SOD    SOD  144   4.095   1.610   0.871 -0.4654  0.1499 -0.3042
   42SOD    SOD  145   6.594   6.060   5.029  0.4149  0.1024  0.2900
   43CLA    CLA  146   1.846   6.276   2.896 -0.0246  0.0489 -0.2039
   44CLA    CLA  147   5.896   5.758   0.156 -0.2736  0.3375  0.2079
   45CLA    CLA  148   5.625   1.678   5.549  0.1931  0.0012  0.0844
   46CLA    CLA  149   6.026   4.434   4.294 -0.2875 -0.2086 -0.0768
   47CLA    CLA  150   0.757   6.603   1.904 -0.0836  0.2377 -0.2770
   48CLA    CLA  151   2.677   2.061   1.988 -0.2428  0.0989  0.2295
   49CLA    CLA  152   0.060   1.165   1.863 -0.2246  0.0277  0.0694
   50CLA    CLA  153   4.501   0.076   4.405  0.1252  0.0667  0.1535
   51CLA    CLA  154   6.417   4.505   4.079  0.1571 -0.1070 -0.3459
   52CLA    CLA  155   1.767   1.967   2.760 -0.1356  0.1061  0.0402
   53CLA    CLA  156   1.808   4.721   0.113  0.0118  0.0334  0.2523
   54CLA    CLA  157   4.025   2.870   2.176 -0.2443 -0.0451 -0.0002
   55CLA    CLA  158   0.995   0.830   2.013 -0.0105 -0.0486 -0.5706
   56CLA    CLA  159   5.935   5.675   3.954  0.1799  0.1813  0.1480
   57CLA    CLA  160   3.071   4.482   0.500  0.0441  0.0597 -0.0324
   58CLA    CLA  161   1.716   2.607   2.745  0.1420 -0.3806  0.1983
   59CLA    CLA  162   0.468   5.074   3.017  0.0589 -0.1304 -0.3697
   60CLA    CLA  163   7.021   6.167   4.915 -0.1905  0.0264  0.0946
   61CLA    CLA  164   6.335   3.043   0.633 -0.2136  0.3556 -0.0857
   62CLA    CLA  165   5.419   2.512   1.238 -0.1736  0.2013 -0.3719
   63CLA    CLA  166   7.003   2.194   1.998  0.2474 -0.0986 -0.4832
   64CLA    CLA  167   3.543   6.339   0.656 -0.2652  0.0791  0.1851
   65CLA    CLA  168   6.298   0.239   4.658 -0.0739 -0.1581 -0.6156
   66CLA    CLA  169   2.923   0.271   3.057 -0.1776 -0.1092  0.2768
   67CLA    CLA  170   6.766   0.738   0.277 -0.6737 -0.2293 -0.2704
   68CLA    CLA  171   6.785   1.288   1.983 -0.3529  0.3686 -0.1399
   69CLA    CLA  172   5.190   0.825   1.443  0.0497 -0.2710  0.3181
   70TIP3   OH2  173   0.325   4.426   0.924  0.6464  0.3649 -0.6758
   70TIP3    H1  174   0.310   4.444   1.017 -1.4340 -0.0472 -0.8758
   70TIP3    H2  175   0.374   4.343   0.924  0.6277  0.3426  0.0620
   71TIP3   OH2  176   1.423   3.939   0.867  0.0932  0.0145 -0.1801
   71TIP3    H1  177   1.341   3.980   0.838  0.7493  1.2814 -0.2975
   71TIP3    H2  178   1.482   4.012   0.883  1.5416 -0.9145 -1.0623
   72TIP3   OH2  179   3.948   4.394   5.823  0.4287  0.7785 -0.3263
   72TIP3    H1  180   3.927   4.391   5.916  0.2941 -0.8859 -0.3879
   72TIP3    H2  181   3.914   4.479   5.793 -1.4845  0.4202  0.6760
   73TIP3   OH2  182   5.837   1.750   2.885  0.0978  0.0945  0.6228
   73TIP3    H1  183   5.888   1.768   2.963  0.6176  0.0575  0.3000
   73TIP3    H2  184   5.901   1.718   2.821  0.1979  2.6689 -0.7164
   74TIP3   OH2  185   2.400   4.541   4.419  0.3192  0.6635 -0.5944
   74TIP3    H1  186   2.368   4.470   4.364  2.2441 -0.3264 -0.5068
   74TIP3    H2  187   2.329   4.556   4.482  0.8537 -3.1691  1.2204
   75TIP3   OH2  188   6.538   5.692   4.676 -0.3164 -0.1002  0.0286
   75TIP3    H1  189   6.525   5.749   4.600 -1.5223 -2.2753 -1.5046
   75TIP3    H2  190   6.450   5.677   4.710 -0.0054 -0.9379  0.4836
   76TIP3   OH2  191   5.059   3.308   5.378  0.2714  0.9217 -0.0491
   76TIP3    H1  192   4.976   3.283   5.337 -1.6313  2.8043  2.3176
   76TIP3    H2  193   5.069   3.247   5.451  0.0825  1.6680  0.6201
   77TIP3   OH2  194   4.192   1.957   2.906  0.4071 -0.2236 -0.4274
   77TIP3    H1  195   4.242   2.034   2.932  1.5736 -0.6281 -1.3979
   77TIP3    H2  196   4.222   1.937   2.817 -0.8631 -1.0001 -0.7138
   78TIP3   OH2  197   5.131   4.711   5.692 -0.1109 -0.4365  0.3833
   78TIP3    H1  198   5.110   4.651   5.764  0.6196  1.5523  2.3603
   78TIP3    H2  199   5.048   4.722   5.645 -0.8884 -0.9196  1.6104
   79TIP3   OH2  200   6.281   1.429   0.397 -0.4741 -0.2114  0.5850
   79TIP3    H1  201   6.205   1.486   0.394 -0.2540  0.0758  0.3818
   79TIP3    H2  202   6.273   1.381   0.479 -0.7137  0.0376  0.7044
   80TIP3   OH2  203   1.762   3.292   4.044  0.1111  0.4364 -0.1932
   80TIP3    H1  204   1.699   3.363   4.031 -1.2664 -0.8581 -0.8114
   80TIP3    H2  205   1.794   3.272   3.955  0.9160  0.6346  0.0400
   81TIP3   OH2  206   6.252   3.447   2.536 -0.1244  0.0521  0.1800
   81TIP3    H1  207   6.190   3.402   2.478 -1.4574  0.6392  1.1155
   81TIP3    H2  208   6.338   3.429   2.496 -0.6992 -2.2201 -0.2126
   82TIP3   OH2  209   1.526   1.367   4.754  0.0457  0.8738 -0.1123
   82TIP3    H1  210   1.533   1.273   4.739 -0.2719  1.0128 -1.1495
   82TIP3    H2  211   1.564   1.407   4.676  0.6571  1.6174  0.5422
   83TIP3   OH2  212   0.907   5.995   3.789 -0.5686  0.0718 -0.4446
   83TIP3    H1  213   0.877   5.910   3.822  1.9336 -1.0247 -0.7907
   83TIP3    H2  214   0.956   6.033   3.862 -0.1769  0.4146 -0.8851
   84TIP3   OH2  215   1.288   4.887   3.664  0.3172 -0.3885  0.0671
   84TIP3    H1  216   1.200   4.906   3.697  0.9348 -0.1426  1.6510
   84TIP3    H2  217   1.279   4.890   3.569 -0.7480  2.7518  0.1446
   85TIP3   OH2  218   7.221   1.728   4.598 -0.2132  0.1302 -0.6995
   85TIP3    H1  219   7.171   1.755   4.676 -2.0148 -2.5815 -0.7872
   85TIP3    H2  220   7.196   1.792   4.531 -1.6999  0.2802 -0.0506
   86TIP3   OH2  221   1.045   3.358   2.513  0.9789  0.0487  0.2354
   86TIP3    H1  222   1.027   3.289   2.449 -1.6287  0.9483 -0.1295
   86TIP3    H2  223   1.064   3.310   2.594 -0.1343 -1.1227 -0.1501
   87TIP3   OH2  224   4.522   5.498   0.129  0.1993  0.6436  0.2125
   87TIP3    H1  225   4.456   5.434   0.102 -1.1026  2.8453 -2.3659
   87TIP3    H2  226   4.606   5.455   0.114 -0.6291 -0.6457 -0.9256
   88TIP3   OH2  227   1.851   4.731   5.401  0.3259  0.4403  0.4178
   88TIP3    H1  228   1.873   4.639   5.419 -1.1925 -0.4029 -1.5998
   88TIP3    H2  229   1.797   4.758   5.475  0.7729 -0.2984  1.0252
   89TIP3   OH2  230   0.368   2.467   4.111  0.6289 -0.1681 -0.0520
   89TIP3    H1  231   0.342   2.469   4.019  0.6859  1.2759 -0.0643
   89TIP3    H2  232   0.460   2.440   4.110  0.1307 -1.9613 -0.2595
   90TIP3   OH2  233   1.654   0.579   1.177 -0.0334 -0.2501  0.3925
   90TIP3    H1  234   1.569   0.622   1.177  0.0939  0.0093  0.1091
   90TIP3    H2  235   1.679   0.574   1.269  0.3787  1.1505  0.3782
   91TIP3   OH2  236   2.946   1.172   2.989 -0.2852 -0.0035  0.5323
   91TIP3    H1  237   2.928   1.127   2.907  1.1998 -0.1556  0.2636
   91TIP3    H2  238   2.973   1.102   3.049 -0.6006  0.2062  0.9274
   92TIP3   OH2  239   3.333   0.671   0.880  0.6254 -0.0303 -0.4349
   92TIP3    H1  240   3.422   0.640   0.865  0.9254  1.1285 -1.1845
   92TIP3    H2  241   3.308   0.713   0.797 -1.0926 -1.4214 -0.6663
   93TIP3   OH2  242   2.608   0.694   3.808  0.6413  0.2452 -0.2916
   93TIP3    H1  243   2.675   0.632   3.840  1.5971  1.2304 -0.3283
   93TIP3    H2  244   2.646   0.730   3.728  0.1816  1.0333 -0.1544
   94TIP3   OH2  245   2.690   0.380   2.177 -0.1250  0.0403  0.1734
   94TIP3    H1  246   2.637   0.320   2.229  0.7510 -1.1204 -0.2366
   94TIP3    H2  247   2.662   0.364   2.087 -0.5603  0.9555  0.1302
   95TIP3   OH2  248   3.716   1.751   1.823  0.6115  0.0777  0.3528
   95TIP3    H1  249   3.782   1.708   1.878  0.5279 -1.4920 -0.7249
   95TIP3    H2  250   3.651   1.682   1.805 -0.0441  0.9235 -0.6270
   96TIP3   OH2  251   2.348   3.152   3.453 -0.1780  0.0255  0.0381
   96TIP3    H1  252   2.374   3.060   3.449 -2.9207 -0.9335  1.8002
   96TIP3    H2  253   2.399   3.188   3.526  2.7114  0.7226 -2.0945
   97TIP3   OH2  254   1.186   1.368   1.418  0.0725 -0.2087  0.3658
   97TIP3    H1  255   1.142   1.349   1.335 -0.7310 -0.2747  0.7995
   97TIP3    H2  256   1.207   1.462   1.413  1.3955 -0.5243 -0.5353
   98TIP3   OH2  257   2.900   2.393   0.684 -0.4585 -0.4149 -0.3021
   98TIP3    H1  258   2.875   2.301   0.677 -1.1553 -0.3708  1.3462
   98TIP3    H2  259   2.832   2.439   0.635  0.0222 -0.7633 -1.3378
   99TIP3   OH2  260   3.866   0.013   1.959  0.3392  0.0405 -0.0071
   99TIP3    H1  261   3.830   0.071   1.892 -2.5145 -2.8806 -1.2917
   99TIP3    H2  262   3.860   0.063   2.041 -1.3977  1.7537 -1.1147
  100TIP3   OH2  263   2.849   6.319   4.392  0.0539 -0.8100 -0.1213
  100TIP3    H1  264   2.885   6.363   4.315  0.8977 -0.8934  0.2078
  100TIP3    H2  265   2.857   6.383   4.462 -0.5606 -0.7929 -0.0619
  101TIP3   OH2  266   0.205   1.519   0.557  0.2366  0.0886 -0.0129
  101TIP3    H1  267   0.127   1.479   0.597  1.0891 -0.4514  1.1500
  101TIP3    H2  268   0.234   1.584   0.620  0.1943  0.9821 -0.8824
  102TIP3   OH2  269   7.212   6.557   2.304 -0.2486 -0.5378  0.5442
  102TIP3    H1  270   7.227   6.590   2.216 -1.3373 -1.3796  0.0177
  102TIP3    H2  271   7.169   6.629   2.350 -1.8771 -0.8775 -0.3553
  103TIP3   OH2  272   3.318   5.360   0.483  0.7998  0.2188  0.2118
  103TIP3    H1  273   3.376   5.297   0.525  0.2980 -0.2177  0.2483
  103TIP3    H2  274   3.240   5.362   0.538 -0.6733 -1.7675 -1.6528
  104TIP3   OH2  275   6.449   2.658   1.642  0.5768  0.6502 -0.5664
  104TIP3    H1  276   6.482   2.590   1.584 -0.5038  0.8444 -1.4693
  104TIP3    H2  277   6.354   2.656   1.629  0.2391  0.3208  1.6591
  105TIP3   OH2  278   5.342   0.474   2.242 -0.3421  0.5936  0.1711
  105TIP3    H1  279   5.268   0.415   2.226  0.7407 -0.5908 -0.7022
  105TIP3    H2  280   5.335   0.539   2.172 -0.6596  0.5890  0.1968
  106TIP3   OH2  281   4.606   4.498   2.303 -0.0837  0.1018  0.5386
  106TIP3    H1  282   4.695   4.500   2.266 -0.4435  0.7935 -0.3191
  106TIP3    H2  283   4.567   4.419   2.265 -0.0407  0.1390  0.4145
  107TIP3   OH2  284   3.032   5.272   3.240 -0.2656 -0.5630  0.4430
  107TIP3    H1  285   3.043   5.339   3.173  1.0762 -1.5944 -0.4167
  107TIP3    H2  286   2.950   5.295   3.284  0.7106  2.2818  0.9539
  108TIP3   OH2  287   2.008   3.758   3.811  0.0355  0.6037 -0.2778
  108TIP3    H1  288   2.087   3.755   3.865 -0.3511 -0.0339  0.2703
  108TIP3    H2  289   1.968   3.843   3.832 -0.2338  0.2675  0.6321
  109TIP3   OH2  290   5.630   1.660   0.909  0.1585  0.1568  0.4957
  109TIP3    H1  291   5.718   1.657   0.949  0.8097 -0.1181 -0.8989
  109TIP3    H2  292   5.644   1.701   0.824 -1.1657  0.5172  0.4295
  110TIP3   OH2  293   6.369   1.704   0.721  0.1067 -0.4374 -0.1455
  110TIP3    H1  294   6.408   1.689   0.635  0.6974  0.3466 -0.0179
  110TIP3    H2  295   6.385   1.796   0.740 -1.6346 -0.1331 -0.0029
  111TIP3   OH2  296   3.028   0.930   4.469  0.2532 -0.0461  0.2626
  111TIP3    H1  297   2.943   0.918   4.428  1.4180 -1.4478 -1.9662
  111TIP3    H2  298   3.074   0.992   4.412  1.1581 -0.3326  0.6560
  112TIP3   OH2  299   6.461   1.741   2.161 -0.8745  0.0294  0.3420
  112TIP3    H1  300   6.386   1.711   2.110 -0.3769 -1.5718  0.5194
  112TIP3    H2  301   6.535   1.735   2.100 -0.4736 -0.7988  0.8988
  113TIP3   OH2  302   3.434   0.936   5.605 -0.3480 -0.0847 -0.5364
  113TIP3    H1  303   3.427   0.994   5.529 -1.4384  0.4768 -0.0287
  113TIP3    H2  304   3.437   0.848   5.567  0.6687  0.2436 -1.2824
  114TIP3   OH2  305   5.153   4.548   3.389  0.2554 -0.0373  0.0251
  114TIP3    H1  306   5.228   4.508   3.345 -0.8580 -1.7144 -0.4478
  114TIP3    H2  307   5.181   4.558   3.480  1.4560  0.4995 -0.3786
  115TIP3   OH2  308   3.058   2.524   1.909  0.5548  0.2464  0.0337
  115TIP3    H1  309   3.102   2.517   1.824  0.6686 -0.8520  0.1705
  115TIP3    H2  310   3.122   2.567   1.966  0.0818  1.9903 -0.6901
  116TIP3   OH2  311   7.165   2.452   4.564 -0.3632 -0.3790  0.1855
  116TIP3    H1  312   7.079   2.471   4.526 -0.6698  0.2042  1.1314
  116TIP3    H2  313   7.226   2.462   4.492 -1.0128 -0.0749 -0.3357
  117TIP3   OH2  314   7.049   5.099   2.468  0.5039  0.2749 -0.1612
  117TIP3    H1  315   7.019   5.013   2.439  2.3755 -0.1079 -1.1650
  117TIP3    H2  316   7.100   5.133   2.393 -0.1879  2.2652  0.2096
  118TIP3   OH2  317   0.384   1.351   0.405 -0.0133 -0.2217  0.4519
  118TIP3    H1  318   0.329   1.338   0.328  1.4942  0.3200 -0.7874
  118TIP3    H2  319   0.344   1.423   0.452  0.0684  0.7271 -0.8780
  119TIP3   OH2  320   4.503   0.995   4.789 -0.0603 -0.9334  0.2308
  119TIP3    H1  321   4.462   1.019   4.706 -1.5496  0.2663  1.2548
  119TIP3    H2  322   4.596   0.981   4.767 -0.2656  0.1238 -1.4754
  120TIP3   OH2  323   6.891   4.715   1.247 -0.1389 -0.0757  0.2594
  120TIP3    H1  324   6.916   4.688   1.159  1.3810  1.5190  0.1411
  120TIP3    H2  325   6.963   4.686   1.303  0.0909  1.0391  0.5689
  121TIP3   OH2  326   4.313   4.413   1.551  0.4187  0.3350 -0.0407
  121TIP3    H1  327   4.278   4.440   1.636  1.5078  1.1579  0.1803
  121TIP3    H2  328   4.310   4.493   1.498  1.1214  0.2105 -0.2838
  122TIP3   OH2  329   0.313   5.058   0.327 -0.3543 -0.0074  0.3227
  122TIP3    H1  330   0.323   4.987   0.391  1.2939  1.4658  1.8328
  122TIP3    H2  331   0.400   5.099   0.323 -1.1058  1.5797 -0.8998
  123TIP3   OH2  332   0.405   6.561  -0.002  0.2757  0.2785 -0.7677
  123TIP3    H1  333   0.334   6.523  -0.053 -0.5741  0.0778  0.5095
  123TIP3    H2  334   0.363   6.595   0.077  1.2705  2.2950 -1.0368
  124TIP3   OH2  335   5.208   2.108   3.116  0.0773 -0.8658 -0.2729
  124TIP3    H1  336   5.120   2.107   3.154 -0.5610 -0.3331 -1.6966
  124TIP3    H2  337   5.266   2.121   3.191 -1.0411 -1.3113  0.6964
  125TIP3   OH2  338   1.527   1.295   0.031  0.6590 -0.0510 -0.2985
  125TIP3    H1  339   1.500   1.337   0.112  0.7101  0.0116 -0.3131
  125TIP3    H2  340   1.468   1.332  -0.036 -0.7164 -1.5794  0.0101
  126TIP3   OH2  341   0.093   2.818   3.571  0.3561 -0.7427 -0.4695
  126TIP3    H1  342   0.067   2.768   3.494  3.2621 -0.7912 -1.5464
  126TIP3    H2  343   0.071   2.908   3.550 -3.5435 -1.1776  0.8772
  127TIP3   OH2  344   3.286   2.932   1.780 -0.3166 -0.7905  0.0317
  127TIP3    H1  345   3.219   2.991   1.743  0.4038  0.5694  0.8093
  127TIP3    H2  346   3.296   2.864   1.714 -1.6941 -0.4359 -0.5927
  128TIP3   OH2  347   0.042   1.607   2.882 -0.7206  0.6634 -0.5029
  128TIP3    H1  348   0.038   1.663   2.805 -1.6368  1.0688 -0.1802
  128TIP3    H2  349   0.120   1.552   2.869 -0.6658  0.9746 -1.5307
  129TIP3   OH2  350   6.790   1.146   5.832 -0.1279 -0.1443  0.6106
  129TIP3    H1  351   6.717   1.193   5.872  0.3855 -0.1089  1.5345
  129TIP3    H2  352   6.852   1.214   5.808  0.1143 -0.2548  0.9111
  130TIP3   OH2  353   4.405   2.867   5.578  0.2470 -0.2886  0.1870
  130TIP3    H1  354   4.449   2.945   5.613  2.8766 -0.4644 -2.3606
  130TIP3    H2  355   4.343   2.902   5.513 -1.2309 -0.2148  1.5755
  131TIP3   OH2  356   2.380   1.469   0.304  0.1567  0.7336  0.5131
  131TIP3    H1  357   2.386   1.552   0.256 -1.3149  0.9802  0.7008
  131TIP3    H2  358   2.305   1.425   0.266  1.0697 -0.6565  0.2553
  132TIP3   OH2  359   5.902   1.760   5.447  0.8091  0.0216 -0.0454
  132TIP3    H1  360   5.947   1.707   5.512  1.5010  1.6122  0.8415
  132TIP3    H2  361   5.810   1.754   5.472  0.8885 -0.6510  0.1151
  133TIP3   OH2  362   5.633   3.708   0.977  0.3026 -0.4195  0.4107
  133TIP3    H1  363   5.709   3.751   1.016  0.5434  0.0309 -0.5269
  133TIP3    H2  364   5.645   3.615   0.997  1.9733 -0.5761 -1.1239
  134TIP3   OH2  365   4.067   3.607   4.677  0.1881 -0.1733  0.2064
  134TIP3    H1  366   4.008   3.542   4.639 -0.6263  1.7434 -2.0072
  134TIP3    H2  367   4.020   3.640   4.754 -0.5428 -0.3891 -0.1445
  135TIP3   OH2  368   1.069   3.953   4.399  0.2154 -0.0107 -0.4325
  135TIP3    H1  369   0.983   3.944   4.360 -0.1258  0.3685  0.2081
  135TIP3    H2  370   1.063   3.903   4.481  0.6312 -0.0657 -0.4334
  136TIP3   OH2  371   1.889   1.863   1.264  0.7578 -0.3925  0.1800
  136TIP3    H1  372   1.854   1.935   1.315 -0.3389 -0.2919 -0.6861
  136TIP3    H2  373   1.961   1.901   1.213 -0.6560  0.4344 -1.2714
  137TIP3   OH2  374   4.264   4.361   2.974 -0.2351  0.0084 -0.2077
  137TIP3    H1  375   4.284   4.267   2.972 -0.7820 -0.1064 -0.4901
  137TIP3    H2  376   4.349   4.404   2.964  0.1135 -0.4465  0.6591
  138TIP3   OH2  377   0.228   4.070   1.618 -0.0368  0.5395  0.2674
  138TIP3    H1  378   0.292   4.137   1.597 -0.7197  2.1397  2.8613
  138TIP3    H2  379   0.280   3.997   1.653  0.5070  0.9298  0.2839
  139TIP3   OH2  380   3.839   2.746   5.300  0.3317  0.3364 -0.2615
  139TIP3    H1  381   3.905   2.720   5.365 -0.7847 -0.6458  0.5159
  139TIP3    H2  382   3.789   2.667   5.284 -0.5510  1.0252 -0.9851
  140TIP3   OH2  383   4.465   2.701   1.442  0.2235  0.0435  0.0257
  140TIP3    H1  384   4.390   2.680   1.497  0.2876 -0.2537  0.0001
  140TIP3    H2  385   4.454   2.647   1.364 -1.1600  2.2041 -1.3669
  141TIP3   OH2  386   3.245   2.750   4.002 -0.6563  0.2500  0.0074
  141TIP3    H1  387   3.264   2.809   3.929 -0.7362 -0.1681 -0.3517
  141TIP3    H2  388   3.329   2.743   4.049 -0.1971 -0.6425 -0.8946
  142TIP3   OH2  389   7.056   1.337   1.346  0.2502 -0.2058  0.2798
  142TIP3    H1  390   7.083   1.280   1.419 -1.7174  0.3799  1.5433
  142TIP3    H2  391   7.044   1.423   1.386  1.6347  0.7685 -1.2920
  143TIP3   OH2  392   1.570   6.690   0.686 -0.7151 -0.0685 -0.6903
  143TIP3    H1  393   1.651   6.705   0.638 -1.0109  2.4302 -0.5632
  143TIP3    H2  394   1.599   6.662   0.773 -0.0610 -0.6579 -1.0870
  144TIP3   OH2  395   5.073   2.791   4.042  0.2399 -0.2015 -0.2772
  144TIP3    H1  396   5.142   2.833   4.094 -0.1680  0.6258 -0.3893
  144TIP3    H2  397   4.995   2.798   4.097 -0.1126  0.3507 -0.8290
  145TIP3   OH2  398   3.495   0.777   4.552  0.2086 -0.0535 -0.7681
  145TIP3    H1  399   3.555   0.761   4.480  1.6166  3.7727 -0.6924
  145TIP3    H2  400   3.532   0.730   4.626  0.6234 -1.2901 -1.7322
  146TIP3   OH2  401   1.689   1.665   1.338  0.1203 -0.1256 -0.0136
  146TIP3    H1  402   1.672   1.693   1.428  0.0029 -0.9410  0.2317
  146TIP3    H2  403   1.780   1.691   1.322  0.5578 -1.0529  0.7928
  147TIP3   OH2  404   5.525   6.077   2.894 -0.1182  0.2042 -0.2274
  147TIP3    H1  405   5.537   6.087   2.989 -0.6468 -1.1604  0.0013
  147TIP3    H2  406   5.472   5.998   2.884 -0.5357  0.6329 -1.6493
  148TIP3   OH2  407   3.855   1.355   4.926  0.0673 -0.2080  0.2494
  148TIP3    H1  408   3.908   1.414   4.872 -0.1682 -0.6670 -0.5106
  148TIP3    H2  409   3.767   1.393   4.923 -0.6944 -1.9023 -2.3977
  149TIP3   OH2  410   5.825   4.046   1.640 -0.0971 -0.5815  0.2825
  149TIP3    H1  411   5.819   4.025   1.734  1.2499 -0.4850  0.4061
  149TIP3    H2  412   5.875   4.127   1.637  3.4106 -2.5893 -0.6751
  150TIP3   OH2  413   1.461   2.155   4.162  0.1617  0.3115  0.0065
  150TIP3    H1  414   1.408   2.116   4.231 -0.4976  0.3924 -0.4480
  150TIP3    H2  415   1.550   2.122   4.178 -0.0970 -0.1390  0.5352
  151TIP3   OH2  416   3.447   5.312   5.810  0.2316  0.6717  0.2251
  151TIP3    H1  417   3.380   5.269   5.757 -0.8418 -0.7388  2.6172
  151TIP3    H2  418   3.523   5.254   5.803 -0.0574  0.2449  0.5883
  152TIP3   OH2  419   4.328   0.912   1.287  0.7490  0.3610  0.4210
  152TIP3    H1  420   4.372   0.828   1.271  0.0489 -0.2467  1.5401
  152TIP3    H2  421   4.292   0.904   1.376 -0.2397  1.4369  0.1481
  153TIP3   OH2  422   0.391   4.393   4.046 -0.1773  0.1700  0.0713
  153TIP3    H1  423   0.454   4.380   3.974  0.5031  0.2588  0.6410
  153TIP3    H2  424   0.340   4.469   4.019  1.2792  1.3508  0.4888
  154TIP3   OH2  425   3.817   2.273   4.946  0.1728  0.0676 -0.1984
  154TIP3    H1  426   3.893   2.292   4.891 -0.1955  1.2814 -0.3114
  154TIP3    H2  427   3.760   2.349   4.935 -1.1621 -0.9196 -0.2839
  155TIP3   OH2  428   0.600   0.464   0.913 -0.3667 -0.0617 -0.1548
  155TIP3    H1  429   0.534   0.525   0.947  1.6445  2.6405 -0.7821
  155TIP3    H2  430   0.637   0.423   0.991 -2.2981 -1.1817  0.2395
  156TIP3   OH2  431   2.431   5.280   4.114  0.0462 -0.0234 -0.0756
  156TIP3    H1  432   2.339   5.254   4.110 -0.2557  0.7096  1.5302
  156TIP3    H2  433   2.463   5.243   4.196  1.4542 -0.9804 -0.9984
  157TIP3   OH2  434   2.549   2.695   5.218 -0.4885  0.3959  0.0887
  157TIP3    H1  435   2.550   2.624   5.154  0.2072  1.1285 -0.7440
  157TIP3    H2  436   2.456   2.713   5.233 -0.6700 -0.6891  0.3249
  158TIP3   OH2  437   6.568   2.765   0.152 -0.1662  0.5310 -0.2887
  158TIP3    H1  438   6.515   2.838   0.121  0.5335  1.0494 -0.2845
  158TIP3    H2  439   6.659   2.796   0.144  0.0908  0.0959  0.8077
  159TIP3   OH2  440   1.020   5.153   2.168 -0.2019 -0.1296 -0.2042
  159TIP3    H1  441   1.055   5.066   2.187 -0.1931 -0.1619 -0.3651
  159TIP3    H2  442   0.967   5.141   2.089 -1.8835 -0.4040  0.9213
  160TIP3   OH2  443   4.896   4.445   2.153  1.0448 -0.2192 -0.9022
  160TIP3    H1  444   4.916   4.518   2.095  1.1928 -0.6619 -1.4238
  160TIP3    H2  445   4.981   4.421   2.191  1.7039 -2.3222 -3.3808
  161TIP3   OH2  446   4.656   4.056   0.538 -0.2381 -0.1723 -0.0746
  161TIP3    H1  447   4.744   4.019   0.530 -0.4500 -0.6776 -0.0657
  161TIP3    H2  448   4.635   4.049   0.631 -0.5542 -0.6608 -0.1832
  162TIP3   OH2  449   6.767   2.170   5.313  0.7380  0.4636  0.3211
  162TIP3    H1  450   6.826   2.095   5.305  0.2534  0.0679  0.4293
  162TIP3    H2  451   6.680   2.132   5.319  0.5056  1.0254  0.6167
  163TIP3   OH2  452   4.988   6.729   3.173  0.5982  0.6000 -0.4813
  163TIP3    H1  453   4.911   6.759   3.221 -0.5127 -0.7311 -1.3566
  163TIP3    H2  454   5.011   6.646   3.215  1.5949  1.0048 -0.2045
  164TIP3   OH2  455   2.163   3.982   1.344  0.5776  0.0660 -0.1500
  164TIP3    H1  456   2.067   3.985   1.350  0.5797  1.5817 -0.4646
  164TIP3    H2  457   2.189   3.915   1.407 -0.5777  1.1546  1.5650
  165TIP3   OH2  458   5.749   1.043   2.305 -0.0627 -0.4361  0.0844
  165TIP3    H1  459   5.718   1.108   2.242 -1.5410 -0.3241  0.8747
  165TIP3    H2  460   5.786   1.095   2.376  0.9853 -0.5442 -0.3691
  166TIP3   OH2  461   5.530   1.813   4.814 -0.3035 -0.2003  0.1395
  166TIP3    H1  462   5.600   1.759   4.849 -0.5614 -0.1554  0.7297
  166TIP3    H2  463   5.453   1.756   4.815 -0.6290  0.2379  0.9836
  167TIP3   OH2  464   5.394   6.270   1.653  0.0449 -0.7741 -0.1988
  167TIP3    H1  465   5.312   6.221   1.654 -0.4973  0.0523  1.9575
  167TIP3    H2  466   5.368   6.362   1.646  0.7701 -0.4979  0.5414
  168TIP3   OH2  467   3.868   5.177   2.549 -0.0898  0.1168  0.3477
  168TIP3    H1  468   3.874   5.271   2.533 -2.2966 -0.1281 -2.8013
  168TIP3    H2  469   3.793   5.167   2.607  1.2880  0.3180  2.2648
  169TIP3   OH2  470   0.920   4.601   4.297 -0.3014 -0.3441  0.6250
  169TIP3    H1  471   0.850   4.547   4.335  0.0042 -0.4355  1.0782
  169TIP3    H2  472   0.988   4.602   4.365 -0.0510  0.1134  0.3724
  170TIP3   OH2  473   2.156   4.636   4.189 -0.1229 -0.3640 -0.7457
  170TIP3    H1  474   2.218   4.570   4.159 -0.8612 -0.9457 -1.0220
  170TIP3    H2  475   2.129   4.606   4.276  0.0323 -0.0734 -0.5955
  171TIP3   OH2  476   1.297   5.989   0.124 -0.4061  0.1592  0.6254
  171TIP3    H1  477   1.247   5.907   0.121  0.9218 -0.6482 -0.4601
  171TIP3    H2  478   1.384   5.963   0.156 -0.0277  1.1758  0.4440
  172TIP3   OH2  479   5.735   1.380   1.815 -0.2783 -0.4428  0.1897
  172TIP3    H1  480   5.647   1.418   1.821  0.8789  3.0705 -2.0468
  172TIP3    H2  481   5.790   1.441   1.864  1.1722 -1.6427  0.1071
  173TIP3   OH2  482   4.288   4.424   5.125 -0.0780 -0.3431 -0.1204
  173TIP3    H1  483   4.206   4.450   5.082  0.4550 -1.6242 -2.0398
  173TIP3    H2  484   4.309   4.339   5.087  1.2437 -0.8842  1.6627
  174TIP3   OH2  485   5.436   3.767   1.318 -0.0132 -0.2716 -0.3897
  174TIP3    H1  486   5.442   3.694   1.379 -0.0589 -0.0488 -0.1194
  174TIP3    H2  487   5.382   3.734   1.246  0.1007 -0.5559 -0.3453
  175TIP3   OH2  488   6.599   3.576   4.803  0.3223 -0.1462  0.4363
  175TIP3    H1  489   6.600   3.622   4.887  1.3850 -0.4666  0.6114
  175TIP3    H2  490   6.683   3.531   4.799  0.1006 -0.4973 -0.6075
  176TIP3   OH2  491   5.200   6.515   2.562 -0.0455  0.0192  0.4703
  176TIP3    H1  492   5.136   6.552   2.501 -2.0820 -2.0823  1.1519
  176TIP3    H2  493   5.215   6.584   2.627  0.7520  1.6188 -1.3198
  177TIP3   OH2  494   0.589   5.974   4.827 -0.0488  0.6623  0.0001
  177TIP3    H1  495   0.574   6.008   4.739 -0.0728 -2.2035 -1.2255
  177TIP3    H2  496   0.680   5.943   4.825 -0.5144 -0.8079  0.4319
  178TIP3   OH2  497   6.510   4.803   4.490 -0.0302  0.1320  0.6268
  178TIP3    H1  498   6.482   4.890   4.461  0.2291  0.4742  1.3555
  178TIP3    H2  499   6.587   4.784   4.436  0.9712  1.1371  1.6319
  179TIP3   OH2  500   4.659   4.600   2.677 -0.0452 -0.4346  0.4239
  179TIP3    H1  501   4.666   4.515   2.634 -0.4808  0.0843 -0.7210
  179TIP3    H2  502   4.615   4.655   2.613  2.5313  1.3771  0.0743
  180TIP3   OH2  503   2.009   1.896   2.289  0.4040  0.1090  0.3113
  180TIP3    H1  504   2.023   1.990   2.305 -0.0544  0.8935 -3.1730
  180TIP3    H2  505   2.085   1.869   2.237 -1.1117 -0.5313 -1.6841
  181TIP3   OH2  506   1.610   4.020   4.716  0.0469  0.0791 -0.4336
  181TIP3    H1  507   1.615   3.955   4.646  0.4678  0.6583 -0.9468
  181TIP3    H2  508   1.613   3.968   4.796  2.3942 -0.4501 -0.8014
  182TIP3   OH2  509   7.066   4.604   3.703 -0.0616  0.3455 -0.0368
  182TIP3    H1  510   6.984   4.556   3.693  0.9483 -1.3896 -0.4280
  182TIP3    H2  511   7.081   4.644   3.618  2.2734 -4.1332 -2.1096
  183TIP3   OH2  512   0.516   0.069   4.958 -0.1319 -0.0417 -0.2602
  183TIP3    H1  513   0.425   0.056   4.933 -0.4053 -0.1049  0.7179
  183TIP3    H2  514   0.565   0.057   4.877 -0.7710 -2.3568 -0.3848
  184TIP3   OH2  515   3.006   1.806   3.405  0.2185 -0.1977 -0.5495
  184TIP3    H1  516   3.065   1.821   3.479 -1.0599  0.3818  0.3944
  184TIP3    H2  517   2.922   1.842   3.434 -0.2744  0.2180 -2.3621
  185TIP3   OH2  518   6.080   2.110   4.527  0.0780  0.1684 -0.2446
  185TIP3    H1  519   6.019   2.068   4.587  0.8828  1.1902  1.3760
  185TIP3    H2  520   6.167   2.083   4.558  0.4993  0.2424 -1.3271
  186TIP3   OH2  521   3.047   5.896   4.903  0.3636  0.6532 -0.2548
  186TIP3    H1  522   3.067   5.922   4.813  1.1472  1.6016  0.1666
  186TIP3    H2  523   3.028   5.979   4.947 -2.5648  0.0058 -0.1101
  187TIP3   OH2  524   0.207   1.918   2.838 -0.0692  0.2656  0.1863
  187TIP3    H1  525   0.258   1.864   2.778 -0.4742  0.2335 -0.1348
  187TIP3    H2  526   0.222   1.879   2.924 -0.2096 -0.2495 -0.0198
  188TIP3   OH2  527   5.454   5.885   2.096 -0.0519 -0.5639 -0.4632
  188TIP3    H1  528   5.470   5.813   2.157 -0.3131  0.4926  0.8758
  188TIP3    H2  529   5.540   5.925   2.082 -0.0638 -0.5386 -0.4645
  189TIP3   OH2  530   1.257   3.706   4.603 -0.0658  0.3914 -0.0270
  189TIP3    H1  531   1.165   3.704   4.629  0.3437 -2.2143  1.5339
  189TIP3    H2  532   1.297   3.770   4.662 -0.9162  2.0529 -1.1597
  190TIP3   OH2  533   2.288   6.375   5.809 -0.0318  0.0577  0.1498
  190TIP3    H1  534   2.248   6.430   5.876 -1.8781 -0.0755 -0.7812
  190TIP3    H2  535   2.346   6.434   5.760 -1.1615  0.9543 -0.1527
  191TIP3   OH2  536   3.897   2.721   3.145 -0.0220 -0.0936  0.3536
  191TIP3    H1  537   3.898   2.629   3.171 -0.5012 -0.9046 -2.2300
  191TIP3    H2  538   3.925   2.721   3.054 -0.3904  2.2991  0.1663
  192TIP3   OH2  539   1.231   1.709   4.865 -0.5080  0.0119 -0.1901
  192TIP3    H1  540   1.313   1.661   4.881 -1.1933 -0.7921  1.0482
  192TIP3    H2  541   1.243   1.747   4.778  1.1951 -0.0503 -0.0196
  193TIP3   OH2  542   4.601   5.910   0.090 -0.6150 -0.0358  0.1051
  193TIP3    H1  543   4.581   5.985   0.146  2.0146 -0.0403  1.2195
  193TIP3    H2  544   4.616   5.838   0.150 -0.4428 -0.7621 -0.7799
  194TIP3   OH2  545   3.338   4.501   5.580 -0.0409 -0.3211 -0.3578
  194TIP3    H1  546   3.332   4.451   5.661 -1.6106 -1.1199 -0.9328
  194TIP3    H2  547   3.331   4.436   5.510  0.6086  0.4220 -1.1464
  195TIP3   OH2  548   5.444   3.708   4.442  0.7236 -0.0310 -0.0590
  195TIP3    H1  549   5.498   3.748   4.373  0.1122 -0.2331 -0.6648
  195TIP3    H2  550   5.356   3.742   4.426  0.2208 -1.4552 -0.4681
  196TIP3   OH2  551   0.229   6.465   0.371  0.3680 -0.2532  0.4303
  196TIP3    H1  552   0.306   6.481   0.426 -0.0738  0.7463  0.7708
  196TIP3    H2  553   0.250   6.509   0.288  0.0391  0.2794  0.6286
  197TIP3   OH2  554   1.406   0.391   1.442 -0.2628  0.2893  0.2138
  197TIP3    H1  555   1.471   0.415   1.376  0.9258 -0.3483  1.1207
  197TIP3    H2  556   1.456   0.380   1.523 -1.5506  0.1044  1.0174
  198TIP3   OH2  557   3.754   5.516   0.445  0.2594  0.0810 -0.1788
  198TIP3    H1  558   3.711   5.557   0.520  0.4158 -1.0351  0.5355
  198TIP3    H2  559   3.767   5.588   0.383 -0.7874  0.8301  0.4299
  199TIP3   OH2  560   2.233   1.222   2.595  0.5592 -0.6527 -0.2666
  199TIP3    H1  561   2.318   1.181   2.607  1.3779  0.9068 -0.4374
  199TIP3    H2  562   2.227   1.288   2.664  0.3848  0.6093 -1.4331
  200TIP3   OH2  563   6.017   3.241   3.091 -0.5126 -0.3956  0.8426
  200TIP3    H1  564   6.068   3.270   3.015 -0.0163  1.3078  1.7681
  200TIP3    H2  565   6.079   3.193   3.145 -0.1517  0.6842  1.4162
  201TIP3   OH2  566   0.082   4.492   2.842 -0.4191  0.1718  0.0525
  201TIP3    H1  567   0.126   4.576   2.839 -0.3501  0.1085 -1.0082
  201TIP3    H2  568   0.004   4.504   2.788 -0.7494 -0.2565  0.4250
  202TIP3   OH2  569   0.708   4.839   2.177  0.1262 -0.0962 -0.3075
  202TIP3    H1  570   0.659   4.918   2.196 -1.3933 -1.1677  0.4537
  202TIP3    H2  571   0.758   4.822   2.257 -1.4346 -1.1834  0.4962
  203TIP3   OH2  572   5.438   3.828   0.123 -0.4443  0.1534 -0.4569
  203TIP3    H1  573   5.437   3.812   0.217  2.3776 -0.0903 -0.3846
  203TIP3    H2  574   5.447   3.923   0.115  1.3015  0.0224 -0.3810
  204TIP3   OH2  575   2.652   5.294   3.147  0.6351  0.5640 -0.1299
  204TIP3    H1  576   2.697   5.308   3.230  1.1365 -2.4520  0.2157
  204TIP3    H2  577   2.719   5.308   3.080  1.0490  0.0530  0.1665
  205TIP3   OH2  578   5.273   3.855   3.990 -0.3554  0.6926 -0.3547
  205TIP3    H1  579   5.284   3.914   4.065 -0.8949  2.8185 -1.8229
  205TIP3    H2  580   5.361   3.825   3.969 -0.1521  0.4130  0.8393
  206TIP3   OH2  581   2.827   4.673   4.606 -0.5048  0.2869 -0.4643
  206TIP3    H1  582   2.888   4.744   4.588 -2.0226  1.6461 -0.4669
  206TIP3    H2  583   2.837   4.613   4.533  1.7670 -0.2498  0.1992
  207TIP3   OH2  584   6.444   4.367   3.770  0.4644 -0.1357  0.1062
  207TIP3    H1  585   6.423   4.347   3.861  2.2051  0.5941  0.7087
  207TIP3    H2  586   6.374   4.325   3.719 -1.5639  0.9759  1.8469
  208TIP3   OH2  587   0.814   1.109   1.373 -0.1978 -0.6398 -1.0435
  208TIP3    H1  588   0.775   1.173   1.433 -2.4379 -1.6738 -1.2907
  208TIP3    H2  589   0.823   1.157   1.290 -0.7440 -0.3096 -0.9144
  209TIP3   OH2  590   5.285   1.314   1.090 -0.1236  0.3779  0.4021
  209TIP3    H1  591   5.221   1.342   1.156 -2.8220  1.2843 -2.3343
  209TIP3    H2  592   5.263   1.223   1.072  1.5959 -0.3406  1.7305
  210TIP3   OH2  593   0.268   5.391   1.649 -0.2052  0.4603  0.7109
  210TIP3    H1  594   0.184   5.354   1.674 -0.7312  0.5615 -0.8071
  210TIP3    H2  595   0.254   5.485   1.647 -0.4575  0.4167 -0.8055
  211TIP3   OH2  596   0.623   4.704   1.551  0.4273  0.1367  0.4308
  211TIP3    H1  597   0.633   4.643   1.624  3.4713  0.7804  0.6655
  211TIP3    H2  598   0.648   4.789   1.588 -0.1038  0.8686 -0.8378
  212TIP3   OH2  599   2.891   0.014   0.661  0.4728 -0.0607 -0.1701
  212TIP3    H1  600   2.867   0.105   0.645 -0.5014 -0.1253  0.7619
  212TIP3    H2  601   2.962  -0.004   0.600  0.6215  1.2991 -0.4201
  213TIP3   OH2  602   5.642   0.400   0.905  0.1729 -0.1369 -0.0729
  213TIP3    H1  603   5.566   0.448   0.873  0.1846  0.4416  0.7388
  213TIP3    H2  604   5.699   0.468   0.941  0.9256 -0.5994 -0.3760
  214TIP3   OH2  605   6.375   4.967   5.367  0.2469 -0.2323  0.6715
  214TIP3    H1  606   6.384   4.872   5.366  1.0015 -0.1692  0.8900
  214TIP3    H2  607   6.463   5.000   5.347 -0.2658  0.4134 -0.6531
  215TIP3   OH2  608   6.013   1.523   0.323  0.6336  0.3691  0.2262
  215TIP3    H1  609   5.981   1.434   0.306  0.6778  0.3969 -0.0028
  215TIP3    H2  610   5.950   1.580   0.278  0.4357  0.4674  0.6227
  216TIP3   OH2  611   1.786   6.372   2.347  0.1262  0.4806  0.0318
  216TIP3    H1  612   1.858   6.326   2.303  1.0820  0.7847  1.2179
  216TIP3    H2  613   1.770   6.449   2.293  2.0953  1.4949  0.7778
  217TIP3   OH2  614   6.680   5.309   1.148  0.2289 -0.1530  0.6353
  217TIP3    H1  615   6.710   5.365   1.221  0.3581 -1.4818  1.6473
  217TIP3    H2  616   6.585   5.315   1.151  0.2525  1.4091 -0.4314
  218TIP3   OH2  617   1.315   4.471   4.709  0.1297 -0.0901  0.1350
  218TIP3    H1  618   1.401   4.512   4.701  0.0334 -0.1824 -1.7727
  218TIP3    H2  619   1.334   4.378   4.722  0.3122  0.0134  0.6348
  219TIP3   OH2  620   0.146   2.263   4.192  0.0307 -0.5822 -0.1433
  219TIP3    H1  621   0.188   2.315   4.124 -2.9340  2.5662  0.1621
  219TIP3    H2  622   0.152   2.173   4.160  1.7404  0.3519 -2.8297
  220TIP3   OH2  623   6.413   3.036   2.005  0.5891  0.3887  0.5554
  220TIP3    H1  624   6.401   3.049   1.911 -1.9320 -2.1399  0.3671
  220TIP3    H2  625   6.492   2.982   2.012 -0.4617 -1.4030 -0.4391
  221TIP3   OH2  626   2.035   0.428   0.142  0.3584 -0.0029 -0.1194
  221TIP3    H1  627   2.009   0.397   0.055 -0.8126  2.0353 -0.5579
  221TIP3    H2  628   2.104   0.491   0.125 -1.1514  1.8270  0.1975
  222TIP3   OH2  629   4.178   0.961   4.096  0.0537  0.5215 -0.5025
  222TIP3    H1  630   4.149   0.944   4.186  2.4901  0.8312  0.4159
  222TIP3    H2  631   4.265   0.923   4.091  0.0646  0.6721 -2.7154
  223TIP3   OH2  632   3.924   6.505   5.564 -0.0419 -0.0687 -0.2362
  223TIP3    H1  633   3.994   6.511   5.628  1.1366 -0.2291 -1.4704
  223TIP3    H2  634   3.866   6.436   5.598  0.8376 -0.5169  0.3853
  224TIP3   OH2  635   0.397   3.022   2.845 -1.1349  0.3090  0.2749
  224TIP3    H1  636   0.426   3.003   2.934 -1.9484 -0.5740  0.3670
  224TIP3    H2  637   0.459   3.088   2.813  0.8059 -1.2951  0.5393
  225TIP3   OH2  638   6.351   6.725   1.259  0.7320 -0.2105  0.1267
  225TIP3    H1  639   6.338   6.675   1.340 -0.3813 -0.5915 -0.2686
  225TIP3    H2  640   6.290   6.799   1.268  1.3209  0.2855  0.0643
  226TIP3   OH2  641   2.149   5.587   1.904 -0.3470 -0.5935  0.4627
  226TIP3    H1  642   2.151   5.492   1.892 -0.8904 -0.4930 -0.5523
  226TIP3    H2  643   2.144   5.600   1.999 -2.9768 -1.6506  0.5260
  227TIP3   OH2  644   0.776   1.518   4.121 -0.7222  0.4753 -0.0107
  227TIP3    H1  645   0.747   1.496   4.210 -0.8048 -1.0692 -0.3787
  227TIP3    H2  646   0.720   1.591   4.095 -0.9341  0.7203  1.0828
  228TIP3   OH2  647   6.232   2.886   4.810 -0.4493 -0.3458 -0.4365
  228TIP3    H1  648   6.265   2.974   4.829 -1.9292  0.3382 -0.8768
  228TIP3    H2  649   6.165   2.871   4.877  0.6806 -1.6930  0.4336
  229TIP3   OH2  650   4.397   5.316   0.451 -0.5423  0.1647 -0.2247
  229TIP3    H1  651   4.329   5.379   0.473 -1.6896 -0.6706 -1.2041
  229TIP3    H2  652   4.389   5.303   0.356 -1.0649 -2.2061  0.0721
  230TIP3   OH2  653   3.483   2.797   4.229 -0.2594  0.0061  0.1032
  230TIP3    H1  654   3.405   2.827   4.275  0.9056  0.6011  1.7810
  230TIP3    H2  655   3.516   2.874   4.183  1.2807  0.7568  2.3091
  231TIP3   OH2  656   6.061   1.689   5.900  0.4519 -0.2754 -0.5533
  231TIP3    H1  657   6.132   1.700   5.838  1.0110 -0.9815 -0.0468
  231TIP3    H2  658   5.983   1.720   5.853  0.8726 -0.7177 -1.5719
  232TIP3   OH2  659   5.223   6.637   0.081 -0.1088 -0.0210 -0.2369
  232TIP3    H1  660   5.309   6.664   0.047 -0.9419  0.8765 -1.7302
  232TIP3    H2  661   5.210   6.692   0.158  1.1284 -0.9769  0.7017
  233TIP3   OH2  662   4.092   3.236   0.220  0.5226  0.0275  0.1596
  233TIP3    H1  663   4.116   3.143   0.223  1.6473  0.1592 -2.4608
  233TIP3    H2  664   4.013   3.239   0.167  2.0518  0.7288 -2.2325
  234TIP3   OH2  665   1.172   6.592   5.225 -0.3650 -0.1266  0.3071
  234TIP3    H1  666   1.162   6.579   5.131  0.8618  1.3041 -0.0662
  234TIP3    H2  667   1.107   6.534   5.265 -0.1320 -1.6165 -1.3728
  235TIP3   OH2  668   2.551   5.634   0.223  0.3432 -0.3837 -0.2957
  235TIP3    H1  669   2.492   5.661   0.293 -0.4270 -1.3005 -0.5693
  235TIP3    H2  670   2.638   5.663   0.253  0.1359 -1.3385  1.3777
  236TIP3   OH2  671   5.553   3.646   3.363  0.3119 -0.2905 -0.3033
  236TIP3    H1  672   5.590   3.572   3.315  1.1734  0.1890 -0.3993
  236TIP3    H2  673   5.629   3.691   3.401 -0.2447  0.1736  0.2986
  237TIP3   OH2  674   5.955   4.362   0.537 -0.2785  0.9166  0.2106
  237TIP3    H1  675   5.970   4.399   0.624 -2.8458  0.6837  0.8113
  237TIP3    H2  676   5.918   4.434   0.486  0.3634  0.7972 -0.4504
  238TIP3   OH2  677   2.962   0.950   5.382  0.2958 -0.4857  0.0204
  238TIP3    H1  678   2.995   0.995   5.304  0.6592  0.8605  0.9191
  238TIP3    H2  679   2.985   1.008   5.455  0.0942 -1.7775  1.1538
  239TIP3   OH2  680   3.407   2.745   0.192  0.1394  0.5948 -0.1561
  239TIP3    H1  681   3.411   2.840   0.202 -0.6899  0.6482 -0.2721
  239TIP3    H2  682   3.382   2.713   0.279  1.5285  0.3751  0.2006
  240TIP3   OH2  683   2.067   1.966   4.555 -0.2878  0.7036 -0.3577
  240TIP3    H1  684   2.098   1.914   4.629 -1.5597  0.5265  0.0798
  240TIP3    H2  685   2.013   1.905   4.504 -0.5828  1.2071 -0.6549
  241TIP3   OH2  686   2.692   0.265   1.682 -0.5137  0.0745  0.2927
  241TIP3    H1  687   2.785   0.257   1.665 -0.4197  0.8539  0.4265
  241TIP3    H2  688   2.650   0.243   1.599 -0.3170 -2.3124  0.7552
  242TIP3   OH2  689   4.163   1.973   3.537 -0.5725 -0.3824 -0.3526
  242TIP3    H1  690   4.198   1.911   3.472  0.5602  0.6725 -0.7802
  242TIP3    H2  691   4.169   1.926   3.620  3.0020  0.1003 -0.2070
  243TIP3   OH2  692   1.862   3.525   4.480  0.1753 -0.1610  0.0630
  243TIP3    H1  693   1.827   3.451   4.431  0.5507 -1.1320  1.2027
  243TIP3    H2  694   1.912   3.485   4.551  0.6044  1.1959  0.5610
  244TIP3   OH2  695   1.695   3.974   0.439 -0.1683  0.2257 -0.1504
  244TIP3    H1  696   1.679   3.911   0.509 -0.3358  0.0238 -0.3683
  244TIP3    H2  697   1.678   4.059   0.479 -0.9367  0.0713 -0.1285
  245TIP3   OH2  698   2.657   6.334   3.639  0.3549 -0.1844 -0.2868
  245TIP3    H1  699   2.723   6.358   3.574 -0.8136  1.4943 -0.9087
  245TIP3    H2  700   2.624   6.418   3.672 -0.4321 -0.9931  1.1051
  246TIP3   OH2  701   0.686   5.737   3.169 -0.0800  0.3787 -0.3908
  246TIP3    H1  702   0.703   5.830   3.155  1.1734  0.9638  3.4938
  246TIP3    H2  703   0.591   5.730   3.179 -0.0468  1.6811  1.2009
  247TIP3   OH2  704   5.297   0.148   5.313  0.8430 -0.1255  0.1067
  247TIP3    H1  705   5.285   0.065   5.358 -0.8271  1.0834  2.0836
  247TIP3    H2  706   5.276   0.130   5.222  1.7010 -2.1034  0.2599
  248TIP3   OH2  707   1.297   0.419   4.496 -0.2691 -0.4897  0.3682
  248TIP3    H1  708   1.220   0.447   4.546 -0.6404 -2.8739  1.2344
  248TIP3    H2  709   1.267   0.420   4.405 -1.8505 -2.7034  0.7891
  249TIP3   OH2  710   0.879   3.652   4.368  0.1324  0.0663 -0.5840
  249TIP3    H1  711   0.838   3.661   4.454  0.7793  0.3797 -0.3027
  249TIP3    H2  712   0.830   3.712   4.312 -0.8118 -0.7169 -0.6426
  250TIP3   OH2  713   2.465   5.115   2.623  0.0284  0.1150 -0.2486
  250TIP3    H1  714   2.436   5.142   2.536  2.0916  1.5822 -0.5552
  250TIP3    H2  715   2.561   5.121   2.620  0.3153 -2.0339  1.4341
  251TIP3   OH2  716   4.650   1.634   5.330 -0.4651 -0.0404  0.1325
  251TIP3    H1  717   4.581   1.627   5.396 -0.0426 -0.6693  0.5117
  251TIP3    H2  718   4.656   1.546   5.292  0.4367 -0.0984  0.4096
  252TIP3   OH2  719   6.481   2.233   4.344 -0.9138 -0.2049 -0.3971
  252TIP3    H1  720   6.514   2.286   4.417  2.1387  0.0929 -1.8408
  252TIP3    H2  721   6.421   2.292   4.298  1.0655  1.4824 -0.9687
  253TIP3   OH2  722   3.120   6.016   4.640 -0.0022  0.0721 -0.0379
  253TIP3    H1  723   3.055   6.086   4.635 -0.6666 -0.6361 -3.2157
  253TIP3    H2  724   3.204   6.061   4.624 -0.1470  0.4246  0.1653
  254TIP3   OH2  725   3.221   5.792   0.213 -0.0265  0.0971  0.1707
  254TIP3    H1  726   3.168   5.780   0.134  0.5959  0.8635 -0.3740
  254TIP3    H2  727   3.156   5.800   0.284 -0.5919 -0.5238 -0.2588
  255TIP3   OH2  728   0.531   0.062   0.520 -0.1821  0.2876  0.2722
  255TIP3    H1  729   0.607   0.049   0.463  0.4912 -0.4547  1.3091
  255TIP3    H2  730   0.552   0.142   0.569  0.4386 -0.4884  1.3114
  256TIP3   OH2  731   6.568   2.648   0.422  0.0022  0.2219  0.2483
  256TIP3    H1  732   6.566   2.657   0.327  1.1635  0.7324  0.2555
  256TIP3    H2  733   6.487   2.688   0.452  0.3611  1.5077 -0.4340
  257TIP3   OH2  734   4.102   6.221   1.628  0.3521 -0.3894  0.4190
  257TIP3    H1  735   4.149   6.204   1.546  0.4067  1.3336  0.0478
  257TIP3    H2  736   4.015   6.183   1.614  0.3804 -0.1677 -0.4414
  258TIP3   OH2  737   3.363   6.487   4.837 -0.1494  0.0012  0.1008
  258TIP3    H1  738   3.283   6.526   4.801  1.2946  2.1538 -1.0325
  258TIP3    H2  739   3.415   6.464   4.760  0.7392 -0.4176  0.8080
  259TIP3   OH2  740   2.514   0.703   5.359  0.5296  0.1580 -0.2845
  259TIP3    H1  741   2.590   0.750   5.325  1.2723 -2.0590 -1.9822
  259TIP3    H2  742   2.483   0.651   5.285 -2.2546  0.4565  0.5651
  260TIP3   OH2  743   6.401   5.378   3.884  0.4009 -0.2383  0.3357
  260TIP3    H1  744   6.435   5.413   3.966 -1.8532  1.0295  0.8042
  260TIP3    H2  745   6.314   5.417   3.875 -1.1037 -3.4573 -0.6352
  261TIP3   OH2  746   3.289   5.969   3.877 -0.2409  0.7715  0.1772
  261TIP3    H1  747   3.336   5.942   3.798  1.8068  0.9491  1.2620
  261TIP3    H2  748   3.199   5.940   3.862  0.0072  1.0086 -2.2943
  262TIP3   OH2  749   6.066   1.855   2.153 -0.1377 -0.1391  0.8017
  262TIP3    H1  750   5.980   1.855   2.110  0.8659 -1.8735 -1.4154
  262TIP3    H2  751   6.049   1.825   2.242 -1.8390 -0.3843  0.4263
  263TIP3   OH2  752   3.990   4.718   5.098 -0.0152  0.0372 -0.2968
  263TIP3    H1  753   4.009   4.627   5.079 -0.3087 -0.1583  0.3295
  263TIP3    H2  754   4.037   4.737   5.180 -3.2634 -0.7982  1.9541
  264TIP3   OH2  755   5.654   3.589   0.181 -0.3545 -0.2544 -0.7623
  264TIP3    H1  756   5.692   3.668   0.219 -1.3937 -0.3885  0.6322
  264TIP3    H2  757   5.630   3.614   0.092  0.8712  0.4853 -0.9030
  265TIP3   OH2  758   0.672   3.025   4.452  0.7332  0.4008 -0.4894
  265TIP3    H1  759   0.748   3.034   4.395  0.4721 -0.8754 -1.0618
  265TIP3    H2  760   0.615   3.098   4.427  1.0546  0.4211 -1.1778
  266TIP3   OH2  761   4.886   1.465   3.603  0.2632  0.2835 -0.2606
  266TIP3    H1  762   4.962   1.516   3.632 -0.4196  1.6466 -0.7813
  266TIP3    H2  763   4.823   1.471   3.674  1.1908 -2.2476  0.9161
  267TIP3   OH2  764   2.049   6.613   3.423  0.0014  0.2095  0.4007
  267TIP3    H1  765   2.001   6.694   3.444  0.4743  0.3091  1.0913
  267TIP3    H2  766   2.137   6.628   3.456 -0.2310 -1.0955  1.7110
  268TIP3   OH2  767   2.316   6.110   4.726  0.3218 -0.4986  0.1032
  268TIP3    H1  768   2.339   6.203   4.726 -1.0271 -0.1494  0.3402
  268TIP3    H2  769   2.372   6.072   4.659  0.8406  0.5008 -0.0488
  269TIP3   OH2  770   1.835   3.443   2.399 -0.1944 -0.1809  0.0124
  269TIP3    H1  771   1.919   3.399   2.414  0.1411  0.1012 -0.9689
  269TIP3    H2  772   1.842   3.479   2.310 -1.6801 -0.9192 -0.4507
  270TIP3   OH2  773   5.616   3.386   2.193  0.0898  0.5134 -0.5931
  270TIP3    H1  774   5.674   3.443   2.141  0.6776  0.7940  0.3477
  270TIP3    H2  775   5.612   3.428   2.279 -0.6126 -0.1214 -0.3050
  271TIP3   OH2  776   2.507   2.557   2.213 -0.6584 -0.1197  0.5330
  271TIP3    H1  777   2.453   2.480   2.229 -0.7617  0.0842  1.1654
  271TIP3    H2  778   2.595   2.521   2.195 -1.2511 -0.5459 -1.9310
  272TIP3   OH2  779   3.594   4.530   1.356  0.3407 -0.0032  0.2658
  272TIP3    H1  780   3.658   4.521   1.427  1.1176 -1.7339 -0.5668
  272TIP3    H2  781   3.647   4.556   1.280  0.3897 -2.8156 -0.7768
  273TIP3   OH2  782   2.282   6.438   1.776  0.4802  0.3419 -0.2883
  273TIP3    H1  783   2.313   6.486   1.699 -0.6846  1.3817 -0.1514
  273TIP3    H2  784   2.361   6.420   1.827  1.1420  0.5586 -1.2201
  274TIP3   OH2  785   2.169   6.718   2.241  0.7040 -0.0782  0.1651
  274TIP3    H1  786   2.164   6.813   2.242 -0.6957 -0.0976 -1.3151
  274TIP3    H2  787   2.241   6.697   2.301  1.2447  1.9035  0.2737
  275TIP3   OH2  788   5.849   6.062   4.235 -0.7548 -0.3025 -0.0730
  275TIP3    H1  789   5.916   5.996   4.218 -1.2974 -0.5137 -1.5674
  275TIP3    H2  790   5.815   6.085   4.148 -0.6797  1.8646  0.3999
  276TIP3   OH2  791   1.334   2.783   1.806 -0.5656 -0.1696 -0.2504
  276TIP3    H1  792   1.335   2.692   1.778  0.5396  0.0297 -0.9238
  276TIP3    H2  793   1.419   2.796   1.849  0.0226  0.9704 -1.6775
  277TIP3   OH2  794   6.500   6.463   4.477  0.3427  0.4731 -0.3273
  277TIP3    H1  795   6.494   6.381   4.525 -0.8059  0.3181 -0.7250
  277TIP3    H2  796   6.428   6.461   4.415  1.0883  1.2052 -1.2595
  278TIP3   OH2  797   2.746   2.292   1.141  0.2387 -0.4082  0.1100
  278TIP3    H1  798   2.654   2.301   1.116  0.5314 -1.3640 -1.4616
  278TIP3    H2  799   2.791   2.277   1.058  1.3311 -3.5000  1.1304
  279TIP3   OH2  800   0.593   4.149   2.084  0.3891 -0.6686  0.2192
  279TIP3    H1  801   0.651   4.142   2.160  0.1635 -0.5960  0.4000
  279TIP3    H2  802   0.567   4.241   2.082  1.1477 -0.4564 -0.5132
  280TIP3   OH2  803   1.751   2.342   3.259 -1.1248 -0.6366  0.3186
  280TIP3    H1  804   1.720   2.385   3.179  0.3258  0.8393  0.5159
  280TIP3    H2  805   1.702   2.384   3.329 -2.1023 -1.6557  0.2921
  281TIP3   OH2  806   3.060   6.172   2.155 -0.7539  0.4019  0.4207
  281TIP3    H1  807   3.116   6.176   2.077 -1.7223 -0.8587 -0.3895
  281TIP3    H2  808   3.090   6.244   2.210  0.1831  1.1262 -0.9705
  282TIP3   OH2  809   6.552   3.677   2.480 -0.2404 -0.2798  0.3409
  282TIP3    H1  810   6.559   3.592   2.524  0.9214 -0.3193  0.1167
  282TIP3    H2  811   6.466   3.676   2.439  0.3204 -1.9725 -0.8902
  283TIP3   OH2  812   3.515   5.418   1.306  0.2145  0.5462 -0.3801
  283TIP3    H1  813   3.422   5.440   1.312 -0.0520 -0.3230 -1.0436
  283TIP3    H2  814   3.552   5.488   1.253 -0.5005 -0.2142 -1.9580
  284TIP3   OH2  815   4.504   2.960   2.404  0.0134 -0.5546 -0.1528
  284TIP3    H1  816   4.583   2.906   2.403  1.6593  1.6890  0.3675
  284TIP3    H2  817   4.493   2.985   2.495 -0.1072  0.7292 -0.4906
  285TIP3   OH2  818   7.142   2.507   5.567  0.1671 -0.0885  0.0031
  285TIP3    H1  819   7.143   2.588   5.618 -0.0181 -1.0833  1.6611
  285TIP3    H2  820   7.059   2.510   5.519 -0.0093  0.5345  0.3416
  286TIP3   OH2  821   6.143   0.882   3.787 -0.5447  0.0077 -0.1274
  286TIP3    H1  822   6.067   0.896   3.730 -0.6177  1.8667  0.3663
  286TIP3    H2  823   6.182   0.969   3.796  1.1572 -0.7663  0.3256
  287TIP3   OH2  824   3.375   1.773   1.463 -0.0788  0.3695 -0.5029
  287TIP3    H1  825   3.424   1.838   1.514 -1.1105  0.8627 -0.1238
  287TIP3    H2  826   3.283   1.794   1.479 -0.4264 -0.9370 -0.7054
  288TIP3   OH2  827   6.382   3.882   0.452  0.5738 -0.1825  0.2156
  288TIP3    H1  828   6.359   3.945   0.383  0.2349  0.6489  1.0588
  288TIP3    H2  829   6.477   3.883   0.454  0.5965 -0.5020 -0.4962
  289TIP3   OH2  830   2.881   6.597   3.906 -0.1416  0.3003 -0.0268
  289TIP3    H1  831   2.959   6.642   3.936 -0.0300 -0.0195  0.1613
  289TIP3    H2  832   2.906   6.558   3.822  0.7572 -2.0979  1.2674
  290TIP3   OH2  833   5.896   4.664   4.107 -0.1320  0.4569  0.3998
  290TIP3    H1  834   5.876   4.619   4.024 -1.7735 -1.4015  1.7074
  290TIP3    H2  835   5.926   4.594   4.165 -0.6762  1.4070  1.8910
  291TIP3   OH2  836   0.089   1.712   4.214  0.5814 -0.0126  0.1067
  291TIP3    H1  837   0.115   1.620   4.218  1.4359  0.2506  1.0701
  291TIP3    H2  838  -0.006   1.711   4.212  0.6010 -0.9621 -1.4646
  292TIP3   OH2  839   4.917   6.397   4.992 -0.3219 -0.3695  0.2088
  292TIP3    H1  840   4.848   6.410   4.927  0.4860 -0.9581 -0.7981
  292TIP3    H2  841   4.918   6.479   5.041 -0.3414  0.4673 -1.1212
  293TIP3   OH2  842   2.277   2.812   3.639  0.1318 -0.4445 -0.2478
  293TIP3    H1  843   2.250   2.722   3.622 -0.0214 -0.2611 -1.0339
  293TIP3    H2  844   2.194   2.861   3.644  0.0566 -0.6842  2.4822
  294TIP3   OH2  845   5.304   1.154   1.865 -0.1757 -0.3493  0.1047
  294TIP3    H1  846   5.261   1.155   1.779  0.1906  0.8073 -0.0791
  294TIP3    H2  847   5.250   1.211   1.920  0.4466  0.1552  0.2016
  295TIP3   OH2  848   5.949   3.549   2.745  0.0585 -0.2827 -0.0048
  295TIP3    H1  849   5.978   3.633   2.710  0.4626  0.6913  2.5124
  295TIP3    H2  850   5.936   3.494   2.667  1.6539  1.4730 -1.6056
  296TIP3   OH2  851   0.629   6.376   3.939 -0.3827  0.3751  0.1119
  296TIP3    H1  852   0.574   6.349   3.865 -1.2701 -0.3163  0.9843
  296TIP3    H2  853   0.589   6.457   3.971  0.8198  1.4312 -0.9925
  297TIP3   OH2  854   6.816   0.228   1.178 -0.0886 -0.2040 -0.5196
  297TIP3    H1  855   6.867   0.158   1.219 -1.5531 -0.4121  1.0662
  297TIP3    H2  856   6.881   0.283   1.135  1.2196 -1.8362 -0.7538
  298TIP3   OH2  857   1.564   4.157   4.207  0.4132  0.0655  0.2037
  298TIP3    H1  858   1.484   4.112   4.234  1.1466 -0.8796  0.8860
  298TIP3    H2  859   1.616   4.163   4.287  0.9654  0.8085 -0.1991
  299TIP3   OH2  860   4.982   5.659   3.815 -0.4187  0.3086 -0.2848
  299TIP3    H1  861   5.018   5.730   3.869 -1.1280  0.2284  0.3034
  299TIP3    H2  862   5.059   5.609   3.788  0.0323  0.9266 -0.1680
  300TIP3   OH2  863   1.574   5.437   0.961  0.2154  0.2246 -0.0134
  300TIP3    H1  864   1.540   5.489   1.034  0.4428 -0.1525  0.3573
  300TIP3    H2  865   1.665   5.464   0.953 -0.4284  2.2832 -1.8968
  301TIP3   OH2  866   3.160   6.222   2.477 -0.2111  0.1934  0.0304
  301TIP3    H1  867   3.234   6.210   2.417  0.1954 -1.0859  0.7387
  301TIP3    H2  868   3.191   6.284   2.543  0.0705  0.0092  0.0710
  302TIP3   OH2  869   3.944   2.935   4.741 -0.4736  0.0128 -0.5950
  302TIP3    H1  870   3.921   3.012   4.689  0.4803  0.0539 -0.9652
  302TIP3    H2  871   4.006   2.887   4.687 -2.0712 -1.7347 -0.9622
  303TIP3   OH2  872   0.701   3.781   1.731  0.0589 -0.2778  0.3705
  303TIP3    H1  873   0.619   3.830   1.724  0.7896  1.0336  0.6525
  303TIP3    H2  874   0.769   3.846   1.716  1.0527 -1.4400 -0.3247
  304TIP3   OH2  875   4.630   0.990   3.496  0.7490 -0.1246 -0.8343
  304TIP3    H1  876   4.565   0.985   3.426 -1.3194  1.4335  0.8242
  304TIP3    H2  877   4.627   1.082   3.525  0.4483 -0.9872  2.1915
  305TIP3   OH2  878   2.813   6.386   3.418 -0.2174 -0.9002  0.4839
  305TIP3    H1  879   2.803   6.467   3.367  1.1153 -0.7039  0.5061
  305TIP3    H2  880   2.778   6.318   3.361 -0.9785 -0.3675  0.2987
  306TIP3   OH2  881   6.091   2.361   3.345 -0.3850  0.4351  0.0909
  306TIP3    H1  882   6.136   2.443   3.325  0.3671 -0.0206 -0.1255
  306TIP3    H2  883   6.031   2.348   3.272  0.4028  0.1625 -0.5282
  307TIP3   OH2  884   6.131   5.661   0.338 -0.5274 -0.3175 -0.4103
  307TIP3    H1  885   6.066   5.685   0.271  0.9781  1.3075 -1.3971
  307TIP3    H2  886   6.129   5.734   0.400 -0.3188 -0.7192  0.0772
  308TIP3   OH2  887   6.162   1.688   0.907 -0.1871 -0.1039 -0.4670
  308TIP3    H1  888   6.214   1.683   0.827  1.9149  0.1264  0.8177
  308TIP3    H2  889   6.122   1.602   0.915  2.1396 -1.2412 -0.1657
  309TIP3   OH2  890   5.534   0.786   4.898  0.3402 -0.3768  0.1409
  309TIP3    H1  891   5.588   0.707   4.906  0.6501  0.0036  2.2033
  309TIP3    H2  892   5.598   0.858   4.896 -0.0062 -0.0644  0.1877
  310TIP3   OH2  893   0.829   5.175   1.965  0.7529 -0.2681  0.0193
  310TIP3    H1  894   0.738   5.155   1.986  0.2845  1.2262 -0.3896
  310TIP3    H2  895   0.823   5.254   1.911  2.2190 -0.9187 -1.1441
  311TIP3   OH2  896   5.076   0.456  -0.008 -0.0872  0.2447 -0.0576
  311TIP3    H1  897   5.054   0.367   0.020  1.6882 -0.3953 -0.6091
  311TIP3    H2  898   4.993   0.504  -0.003 -1.2015 -1.5895 -0.3655
  312TIP3   OH2  899   1.646   1.828   1.855 -0.2910  0.4878 -0.0772
  312TIP3    H1  900   1.600   1.878   1.923 -1.5540 -1.3700  0.5447
  312TIP3    H2  901   1.692   1.760   1.903 -1.6634 -1.2128 -1.0579
  313TIP3   OH2  902   5.788   2.326   2.421 -0.4143 -0.2973  0.2289
  313TIP3    H1  903   5.744   2.244   2.399 -1.4597 -0.2766  2.0294
  313TIP3    H2  904   5.717   2.385   2.447  0.1080  1.8023 -2.5928
  314TIP3   OH2  905   4.754   4.624   4.243 -0.7871  0.1126  0.1670
  314TIP3    H1  906   4.751   4.529   4.254  2.3482 -0.0553  0.4724
  314TIP3    H2  907   4.730   4.659   4.329  2.5935 -0.6193  1.5274
  315TIP3   OH2  908   6.769   1.469   3.160  0.5622 -0.6553 -0.2111
  315TIP3    H1  909   6.751   1.400   3.096  1.6607 -0.1867 -1.0652
  315TIP3    H2  910   6.858   1.499   3.139  0.1942  0.8724  0.2666
  316TIP3   OH2  911   4.128   1.394   0.764  0.0283 -0.4680 -0.3333
  316TIP3    H1  912   4.049   1.344   0.743 -0.2113  0.3135 -1.4001
  316TIP3    H2  913   4.178   1.394   0.682  0.4926  0.1846 -0.0568
  317TIP3   OH2  914   5.223   5.841   1.943  0.2127 -0.1191  0.1132
  317TIP3    H1  915   5.260   5.772   1.889 -0.3280  0.1725 -0.6485
  317TIP3    H2  916   5.295   5.869   1.999  0.4693 -1.2115  0.3535
  318TIP3   OH2  917   5.456   0.533   0.095 -0.3140 -0.4347 -0.3503
  318TIP3    H1  918   5.547   0.552   0.072 -0.7422 -0.6470 -2.4080
  318TIP3    H2  919   5.451   0.437   0.097 -1.0385 -0.5202 -2.9501
  319TIP3   OH2  920   3.332   0.758   1.349  0.3181  0.8831 -0.3118
  319TIP3    H1  921   3.307   0.720   1.433 -0.1191  0.4818 -0.6134
  319TIP3    H2  922   3.408   0.708   1.321 -1.6195 -1.4911 -1.8253
  320TIP3   OH2  923   2.533   1.479   4.330  0.0154 -0.4732 -0.1575
  320TIP3    H1  924   2.597   1.529   4.381  0.4339 -1.1106 -0.0553
  320TIP3    H2  925   2.519   1.532   4.252  0.7320 -0.3737 -0.2205
  321TIP3   OH2  926   3.870   1.952   4.041  0.3936 -0.2363  0.3091
  321TIP3    H1  927   3.941   1.889   4.033 -1.2774 -2.6428  2.5246
  321TIP3    H2  928   3.807   1.909   4.100 -1.7360  2.7765  0.4494
  322TIP3   OH2  929   3.163   1.059   4.253 -0.1663  0.2439  0.0660
  322TIP3    H1  930   3.194   1.099   4.171  1.5152 -1.2161 -0.0900
  322TIP3    H2  931   3.239   1.065   4.312 -0.6439 -0.6106  0.7887
  323TIP3   OH2  932   6.719   2.441   0.516  0.0789  0.4487  0.2155
  323TIP3    H1  933   6.705   2.437   0.611  2.0098  1.0956  0.5868
  323TIP3    H2  934   6.646   2.493   0.483 -0.9856 -0.3461  1.2480
  324TIP3   OH2  935   1.511   5.646   1.528 -0.4692  0.3500  0.2297
  324TIP3    H1  936   1.479   5.557   1.512  0.3851  0.2457 -1.0289
  324TIP3    H2  937   1.462   5.675   1.605 -0.2600 -1.4469  1.0827
  325TIP3   OH2  938   2.821   1.719   0.914  0.1436 -0.4658 -0.1022
  325TIP3    H1  939   2.847   1.811   0.910  1.9720 -0.9689 -0.6805
  325TIP3    H2  940   2.846   1.683   0.829 -1.4378 -1.3017 -0.2463
  326TIP3   OH2  941   0.532   6.718   4.842  0.5026  0.4391 -0.8231
  326TIP3    H1  942   0.517   6.649   4.908 -0.3934  0.5312 -0.9219
  326TIP3    H2  943   0.547   6.670   4.761  0.6402  0.3423 -0.7407
  327TIP3   OH2  944   4.877   5.880   5.341  0.4173 -0.1837  0.4302
  327TIP3    H1  945   4.805   5.908   5.285  0.5628  0.7780  0.7049
  327TIP3    H2  946   4.840   5.809   5.394 -0.5589  0.7987  1.0914
  328TIP3   OH2  947   1.678   4.597   3.686 -0.3277  0.0561  0.0975
  328TIP3    H1  948   1.622   4.520   3.681 -0.5720  0.3010 -1.5872
  328TIP3    H2  949   1.634   4.662   3.631  1.8708  0.0696 -1.7987
  329TIP3   OH2  950   6.967   1.000   0.310  0.2679  0.3289 -0.3924
  329TIP3    H1  951   7.054   0.964   0.327 -0.2000 -0.4686  0.3950
  329TIP3    H2  952   6.908   0.925   0.314 -0.7920  1.1744  1.7289
  330TIP3   OH2  953   3.970   3.022   0.826 -0.0637 -0.3789 -0.2797
  330TIP3    H1  954   3.960   3.063   0.740 -3.3708 -0.6237 -0.1422
  330TIP3    H2  955   3.977   3.095   0.887 -0.5372 -0.1292 -0.5190
  331TIP3   OH2  956   1.138   5.588   3.123 -0.4876 -0.1829  0.0963
  331TIP3    H1  957   1.200   5.537   3.176 -1.1114 -1.6158 -0.4829
  331TIP3    H2  958   1.188   5.614   3.046 -0.1952 -0.0251  0.3370
  332TIP3   OH2  959   4.469   1.930   5.558 -0.1051 -0.4257 -0.0822
  332TIP3    H1  960   4.472   1.846   5.603 -0.8931 -0.7007 -0.5087
  332TIP3    H2  961   4.376   1.942   5.537  0.1055  0.1796 -0.7134
  333TIP3   OH2  962   6.313   3.900   1.366  0.0812  0.3717 -0.1265
  333TIP3    H1  963   6.315   3.831   1.432 -1.8807  0.7929  0.4308
  333TIP3    H2  964   6.279   3.977   1.412  1.2296  1.4475 -0.9944
  334TIP3   OH2  965   2.835   3.647   1.278  0.1531  0.2061  0.1014
  334TIP3    H1  966   2.786   3.569   1.304 -0.1361 -0.1562 -1.4517
  334TIP3    H2  967   2.925   3.630   1.307 -0.2330  0.0346  1.2416
  335TIP3   OH2  968   4.550   3.948   3.966  0.2148 -0.8406 -0.1773
  335TIP3    H1  969   4.489   3.993   4.024  0.9995  0.5764 -0.3982
  335TIP3    H2  970   4.625   3.927   4.021  1.0668  0.7266 -0.6863
  336TIP3   OH2  971   7.019   1.260   2.535  0.2256  0.0306  0.2360
  336TIP3    H1  972   7.038   1.168   2.517  0.5916 -0.4866  2.8021
  336TIP3    H2  973   7.080   1.284   2.605 -0.6753  1.8712  0.4610
  337TIP3   OH2  974   6.126   1.254   2.598 -0.3922  0.3444  0.0148
  337TIP3    H1  975   6.192   1.184   2.602 -0.0714  0.6226 -0.3728
  337TIP3    H2  976   6.129   1.295   2.684 -1.8315 -1.2434  0.8847
  338TIP3   OH2  977   6.552   6.341   5.216 -0.4682  0.8657  0.4552
  338TIP3    H1  978   6.584   6.267   5.268  1.2396  1.1222 -0.1703
  338TIP3    H2  979   6.502   6.300   5.145  1.1411  0.2260 -0.3551
  339TIP3   OH2  980   4.126   1.037   3.841  0.5374 -0.3817  0.3386
  339TIP3    H1  981   4.136   1.132   3.837 -1.9622 -0.0441  0.4159
  339TIP3    H2  982   4.134   1.017   3.935  0.2068 -0.1077  0.4301
  340TIP3   OH2  983   2.306   5.795   4.748  0.2968 -0.2778 -0.1663
  340TIP3    H1  984   2.324   5.889   4.753  1.6573 -0.5284  0.0522
  340TIP3    H2  985   2.229   5.782   4.803  0.0746  0.7141 -0.2265
  341TIP3   OH2  986   6.131   6.634   2.276 -0.2675  0.8198 -0.2172
  341TIP3    H1  987   6.177   6.550   2.280  0.3876  1.2160  1.6372
  341TIP3    H2  988   6.133   6.658   2.183 -0.4712 -1.1879 -0.7937
  342TIP3   OH2  989   2.023   5.999   1.893 -0.4146  0.2278 -0.1135
  342TIP3    H1  990   2.074   5.938   1.840  0.6860 -0.2745  1.4547
  342TIP3    H2  991   2.088   6.058   1.931 -1.0907  0.1418  1.2147
  343TIP3   OH2  992   5.193   5.580   2.778 -0.0334 -0.5442 -0.1075
  343TIP3    H1  993   5.128   5.525   2.821 -0.6540  0.0940 -0.2066
  343TIP3    H2  994   5.153   5.600   2.693 -0.6222  1.4768  0.5940
  344TIP3   OH2  995   4.434   6.273   1.274  0.4799  0.5546 -0.1505
  344TIP3    H1  996   4.502   6.243   1.214  1.7869 -1.2400  2.0559
  344TIP3    H2  997   4.482   6.306   1.350 -1.1184  2.2211  0.2064
  345TIP3   OH2  998   5.831   3.838   0.649 -0.3037 -0.7839 -0.2495
  345TIP3    H1  999   5.895   3.788   0.701  1.3546 -0.5367 -1.9536
  345TIP3    H2 1000   5.865   3.928   0.649 -1.7837 -0.1758  0.4744
  346TIP3   OH2 1001   3.447   3.585   3.556 -0.1376  0.3454 -0.2362
  346TIP3    H1 1002   3.359   3.560   3.526 -0.8858  0.9639  1.3091
  346TIP3    H2 1003   3.462   3.670   3.516 -0.4809  0.4763 -0.0961
  347TIP3   OH2 1004   5.692   2.865   2.331  0.5142  0.2715  0.2537
  347TIP3    H1 1005   5.680   2.891   2.240  2.6876 -2.3477 -0.9259
  347TIP3    H2 1006   5.780   2.895   2.353  0.1875  0.4721  1.3446
  348TIP3   OH2 1007   4.345   5.948   5.541  0.4659  0.1191 -0.1711
  348TIP3    H1 1008   4.353   5.853   5.534 -0.8189  0.0312 -0.7707
  348TIP3    H2 1009   4.251   5.964   5.538  0.6230  1.3524  0.8844
  349TIP3   OH2 1010   3.530   0.451   2.768 -0.5512 -0.4351  0.4322
  349TIP3    H1 1011   3.511   0.370   2.815  1.3299  0.7703  3.5800
  349TIP3    H2 1012   3.450   0.503   2.777 -1.1395 -1.2160 -0.0830
  350TIP3   OH2 1013   1.153   6.378   5.589  0.6541  0.5088 -0.5430
  350TIP3    H1 1014   1.239   6.359   5.552  0.0202  2.1869 -3.1182
  350TIP3    H2 1015   1.098   6.305   5.562  1.4667 -1.3844  2.4221
  351TIP3   OH2 1016   6.341   6.600   3.419  0.4408  0.3943  0.0054
  351TIP3    H1 1017   6.391   6.680   3.404 -0.3152  0.9138  0.1965
  351TIP3    H2 1018   6.297   6.614   3.502  0.6057 -0.3893  0.2350
  352TIP3   OH2 1019   3.927   3.082   2.390 -0.0601  0.6065  0.1150
  352TIP3    H1 1020   3.958   3.018   2.326 -0.3876 -0.9010  1.4119
  352TIP3    H2 1021   3.839   3.104   2.360 -0.7497 -1.1242  0.7260
  353TIP3   OH2 1022  -0.029   3.887   1.693 -0.1168 -0.5938 -0.1498
  353TIP3    H1 1023   0.003   3.954   1.634  2.4466 -1.6953 -0.1210
  353TIP3    H2 1024   0.033   3.887   1.766 -0.4030 -2.5695  0.1470
  354TIP3   OH2 1025   2.044   4.541   2.495  0.3786 -0.3375 -0.1069
  354TIP3    H1 1026   2.037   4.607   2.564 -0.3707 -0.2084 -0.2937
  354TIP3    H2 1027   2.099   4.473   2.533  1.9604  0.8047 -0.2435
  355TIP3   OH2 1028   5.372   1.813   3.784  0.1251 -0.1460  0.6758
  355TIP3    H1 1029   5.282   1.847   3.789 -1.0017 -2.7191 -0.2442
  355TIP3    H2 1030   5.376   1.749   3.855  1.0806 -0.4205  0.3755
  356TIP3   OH2 1031   3.238   3.006   4.838  0.1537 -0.2523  0.0327
  356TIP3    H1 1032   3.297   3.033   4.767 -1.4916  1.0066 -0.9220
  356TIP3    H2 1033   3.190   2.932   4.802  1.8735 -2.0566  1.2338
  357TIP3   OH2 1034   0.818   6.061   5.080  0.7012 -0.2359  0.2713
  357TIP3    H1 1035   0.829   6.132   5.017 -1.3813  1.4371  1.6305
  357TIP3    H2 1036   0.793   5.985   5.026  0.0906  0.8333 -1.0305
  358TIP3   OH2 1037   2.602   1.332   2.148 -0.0039  0.6918  0.1914
  358TIP3    H1 1038   2.657   1.342   2.070  0.8469  0.2320  0.7087
  358TIP3    H2 1039   2.549   1.255   2.130  1.9915 -0.9860  1.0428
  359TIP3   OH2 1040   0.720   6.818   2.847  0.1636  0.2313 -0.3935
  359TIP3    H1 1041   0.663   6.767   2.904 -0.3912  1.3769  0.1074
  359TIP3    H2 1042   0.713   6.776   2.762 -0.9653  0.0024 -0.2018
  360TIP3   OH2 1043   4.562   6.273   4.494 -0.0020 -0.1567 -0.6776
  360TIP3    H1 1044   4.555   6.330   4.417 -0.4699 -1.1714 -1.4237
  360TIP3    H2 1045   4.654   6.280   4.520  0.5874 -0.9880 -2.3306
  361TIP3   OH2 1046   0.841   0.108   2.551  0.1613  0.1617  0.0360
  361TIP3    H1 1047   0.749   0.080   2.553  0.2594 -0.2883 -0.9090
  361TIP3    H2 1048   0.879   0.057   2.479  2.1171 -2.6120  2.7427
  362TIP3   OH2 1049   6.332   5.054   0.089 -0.2619  0.1727 -0.2593
  362TIP3    H1 1050   6.325   4.974   0.037 -0.1926  0.7773 -1.2459
  362TIP3    H2 1051   6.260   5.109   0.056  0.3525  0.9264 -0.3715
  363TIP3   OH2 1052   5.919   1.230   5.820  0.3021 -0.2393  0.4624
  363TIP3    H1 1053   5.931   1.206   5.728  0.5066 -0.3358  0.5151
  363TIP3    H2 1054   5.977   1.305   5.833 -0.7030  0.6323  0.1637
  364TIP3   OH2 1055   5.995   1.526   4.521 -0.0841 -0.1883  0.0459
  364TIP3    H1 1056   5.984   1.521   4.426 -2.9426  0.6331  0.2497
  364TIP3    H2 1057   5.953   1.446   4.554 -1.8382  0.9452  0.7108
  365TIP3   OH2 1058   6.072   4.438   1.065  0.5302 -0.2374  0.8484
  365TIP3    H1 1059   6.077   4.531   1.089 -0.1296 -0.7519  3.2106
  365TIP3    H2 1060   6.122   4.393   1.133 -0.6873 -1.7573  0.7888
  366TIP3   OH2 1061   6.241   3.497   1.219  0.1360  0.3592  0.0262
  366TIP3    H1 1062   6.302   3.562   1.253 -0.5165  1.1401 -0.2587
  366TIP3    H2 1063   6.212   3.448   1.296  0.0886  0.8834  0.3476
  367TIP3   OH2 1064   3.214   5.852   1.933  0.5642  0.0455 -0.3555
  367TIP3    H1 1065   3.127   5.813   1.937  0.5828 -0.1292 -1.5163
  367TIP3    H2 1066   3.209   5.913   1.859  2.0237 -1.4442 -1.7249
  368TIP3   OH2 1067   6.929   4.164   3.247  0.1225 -0.3731  0.0187
  368TIP3    H1 1068   6.886   4.095   3.195 -0.4339  0.8181 -1.1635
  368TIP3    H2 1069   7.021   4.138   3.250  0.0699 -0.7530 -1.1291
  369TIP3   OH2 1070   3.636   5.450   1.553  0.2939 -0.0069 -0.0064
  369TIP3    H1 1071   3.599   5.433   1.467  0.4915  2.1877 -0.5616
  369TIP3    H2 1072   3.565   5.490   1.603  0.7323  0.4807  0.2346
  370TIP3   OH2 1073   4.662   5.786   3.708  0.4266 -0.1975  0.6489
  370TIP3    H1 1074   4.745   5.782   3.662  1.0251  2.4670  1.3542
  370TIP3    H2 1075   4.613   5.856   3.665 -0.4788 -0.1263  1.7293
  371TIP3   OH2 1076   0.546   4.945   2.507 -0.2205  0.0620 -0.1016
  371TIP3    H1 1077   0.554   4.981   2.419 -2.3247  2.1355  0.4412
  371TIP3    H2 1078   0.623   4.978   2.554 -0.4748  1.2649 -0.4886
  372TIP3   OH2 1079   5.957   5.051   1.204 -0.4344 -0.0721  0.2909
  372TIP3    H1 1080   5.964   5.127   1.147 -0.3384 -0.9703 -0.9139
  372TIP3    H2 1081   6.045   5.039   1.240 -0.2794 -0.0603 -0.0887
  373TIP3   OH2 1082   5.294   5.921   4.477 -0.3634  0.5004 -0.0955
  373TIP3    H1 1083   5.282   5.975   4.555 -0.6389 -0.5544  0.6127
  373TIP3    H2 1084   5.238   5.844   4.492  2.3164 -1.4794  0.3359
  374TIP3   OH2 1085   0.247   2.616   1.152 -0.4853  0.1584  0.1852
  374TIP3    H1 1086   0.223   2.540   1.205  1.8947 -1.2629 -0.6471
  374TIP3    H2 1087   0.220   2.593   1.063 -0.3730  0.5871  0.0374
  375TIP3   OH2 1088   0.225   4.092   4.060 -0.0894 -0.2193  0.1897
  375TIP3    H1 1089   0.134   4.115   4.082 -0.1129  2.6417 -2.3151
  375TIP3    H2 1090   0.277   4.162   4.098  1.2878 -2.1559  2.1483
  376TIP3   OH2 1091   7.131   0.895   4.295 -0.3269  0.1230  0.1920
  376TIP3    H1 1092   7.124   0.801   4.307  1.0804 -0.0248  0.0156
  376TIP3    H2 1093   7.064   0.916   4.229  0.9661 -1.1511 -1.6098
  377TIP3   OH2 1094   4.217   0.214   4.946 -0.1582  0.2858  0.2119
  377TIP3    H1 1095   4.278   0.238   4.876  0.0577 -1.2535 -0.1748
  377TIP3    H2 1096   4.148   0.280   4.942 -1.3806 -0.9766 -3.0090
  378TIP3   OH2 1097   4.090   5.129   4.704  0.1156  0.0266  0.4545
  378TIP3    H1 1098   4.050   5.197   4.649  0.3698  0.1801  0.4599
  378TIP3    H2 1099   4.026   5.058   4.704  0.0244  0.1077  0.1241
  379TIP3   OH2 1100   3.638   0.147   3.913 -0.1395  0.1211  0.1409
  379TIP3    H1 1101   3.631   0.051   3.916 -0.2906  0.0768 -1.0403
  379TIP3    H2 1102   3.695   0.165   3.838 -0.2370  0.9628  0.2565
  380TIP3   OH2 1103   5.808   0.214   0.787  0.2486 -0.5680  0.2782
  380TIP3    H1 1104   5.740   0.272   0.822  0.2266  1.1575 -2.3266
  380TIP3    H2 1105   5.778   0.126   0.811 -1.5805  0.2755  1.3622
  381TIP3   OH2 1106   5.447   3.411   0.775  0.3518 -0.1106 -0.2910
  381TIP3    H1 1107   5.499   3.485   0.744  0.5036  0.6059  1.5626
  381TIP3    H2 1108   5.496   3.378   0.851 -0.3756 -1.3218 -0.3206
  382TIP3   OH2 1109   1.967   2.636   2.532 -0.1313  0.1865  0.4664
  382TIP3    H1 1110   2.032   2.570   2.557 -0.5834 -0.6270 -0.4102
  382TIP3    H2 1111   1.901   2.632   2.602 -1.2071 -1.8064 -0.5674
  383TIP3   OH2 1112   1.192   6.060   1.518 -0.6293 -0.4385 -0.4884
  383TIP3    H1 1113   1.169   6.106   1.437  0.3763  0.6233 -0.1891
  383TIP3    H2 1114   1.267   6.007   1.494  0.2237  0.5484 -0.0578
  384TIP3   OH2 1115   5.278   6.212   4.200  0.1181  0.7767 -0.4895
  384TIP3    H1 1116   5.206   6.269   4.176 -0.8761 -0.6227 -0.9896
  384TIP3    H2 1117   5.327   6.260   4.266 -1.7893  1.4030  0.5074
  385TIP3   OH2 1118   4.290   1.253   3.573 -0.1519 -0.6629  0.9227
  385TIP3    H1 1119   4.271   1.244   3.480 -1.1487 -1.1247  1.1628
  385TIP3    H2 1120   4.383   1.232   3.581  0.3427  0.9484 -0.1850
  386TIP3   OH2 1121   5.998   3.411   5.177  0.3922 -0.1883 -0.1638
  386TIP3    H1 1122   5.952   3.423   5.093 -0.0227  1.2394  0.2448
  386TIP3    H2 1123   6.013   3.499   5.209  0.2897 -0.7081  1.4210
  387TIP3   OH2 1124   1.057   6.294   3.651 -0.0743 -0.3550 -0.2990
  387TIP3    H1 1125   1.023   6.348   3.579 -3.0333 -1.8180 -0.1754
  387TIP3    H2 1126   0.986   6.295   3.716  1.2727 -1.5217  1.2539
  388TIP3   OH2 1127   2.885   1.970   4.118  0.1126 -0.2832  0.0690
  388TIP3    H1 1128   2.868   1.991   4.026 -1.6865  1.5430  0.7380
  388TIP3    H2 1129   2.860   1.878   4.126 -2.2790  0.2063 -0.7723
  389TIP3   OH2 1130   1.976   2.965   4.771  0.0526 -0.1225 -0.5107
  389TIP3    H1 1131   1.950   2.953   4.679 -3.2406 -0.3534  0.3482
  389TIP3    H2 1132   1.994   2.876   4.802  4.1384  0.1239 -1.5256
  390TIP3   OH2 1133   5.495   4.206   0.906 -0.2237 -0.6514 -0.1590
  390TIP3    H1 1134   5.575   4.165   0.873 -0.1612 -0.7857  0.1514
  390TIP3    H2 1135   5.425   4.145   0.882 -0.1480 -0.8754  0.1751
  391TIP3   OH2 1136   2.781   5.057   5.346  0.9441 -0.2917  0.2814
  391TIP3    H1 1137   2.733   4.994   5.291  0.1244 -0.7681  1.5152
  391TIP3    H2 1138   2.733   5.139   5.336  1.7249  0.0534 -0.9338
  392TIP3   OH2 1139   2.656   5.973   2.107 -0.0176 -0.5541  0.0596
  392TIP3    H1 1140   2.719   5.976   2.035 -0.8767  0.9204 -0.6746
  392TIP3    H2 1141   2.686   6.041   2.168 -0.1352 -0.7836  0.3779
  393TIP3   OH2 1142   0.477   5.647   1.793 -0.0233 -0.8017  0.0083
  393TIP3    H1 1143   0.512   5.632   1.705  1.3546  0.3253  0.3245
  393TIP3    H2 1144   0.495   5.739   1.810 -2.9831 -0.2030  0.3311
  394TIP3   OH2 1145   2.773   2.361   2.095 -0.1214  0.4677  0.4150
  394TIP3    H1 1146   2.731   2.289   2.047 -1.2728  1.0282  0.5591
  394TIP3    H2 1147   2.776   2.433   2.031 -0.5386  0.8257  0.7939
  395TIP3   OH2 1148   0.574   2.566   1.085 -0.0822 -0.6432  0.2684
  395TIP3    H1 1149   0.499   2.607   1.129 -0.0980 -0.4621  0.0717
  395TIP3    H2 1150   0.624   2.524   1.156  0.2125  0.1531  0.5353
  396TIP3   OH2 1151   2.091   1.329   5.834  0.0897  0.4127  0.0207
  396TIP3    H1 1152   2.182   1.351   5.818  0.2790 -0.1643  0.2786
  396TIP3    H2 1153   2.094   1.256   5.896 -0.3690 -2.1600 -2.7395
  397TIP3   OH2 1154   1.642   1.273   2.162 -0.0201 -0.1583 -0.0121
  397TIP3    H1 1155   1.695   1.244   2.089 -2.0797 -2.1795 -0.8345
  397TIP3    H2 1156   1.690   1.245   2.240  2.2502  2.1252 -0.4733
  398TIP3   OH2 1157   4.786   3.045   2.015  0.0711 -0.4799 -0.1118
  398TIP3    H1 1158   4.764   3.035   1.923  0.8045  0.6261 -0.4146
  398TIP3    H2 1159   4.702   3.032   2.061 -0.5745  0.3710 -1.0227
  399TIP3   OH2 1160   5.106   6.736   3.786  0.0255 -0.4496  0.1836
  399TIP3    H1 1161   5.140   6.727   3.875  1.7253 -0.9941 -0.4820
  399TIP3    H2 1162   5.100   6.647   3.753  0.6208 -0.1827 -0.6724
  400TIP3   OH2 1163   3.403   5.757   1.044  0.2393  0.4188 -0.1889
  400TIP3    H1 1164   3.497   5.739   1.053  0.0570  0.2456  1.6863
  400TIP3    H2 1165   3.385   5.822   1.112 -1.0907  0.1023 -0.2251
  401TIP3   OH2 1166   6.136   1.688   3.012  0.3391  0.3113  0.5269
  401TIP3    H1 1167   6.176   1.729   3.089  1.2736  0.1447  0.1454
  401TIP3    H2 1168   6.132   1.759   2.947  1.6954 -0.1061 -0.0383
  402TIP3   OH2 1169   2.974   0.377   2.769  0.3338  0.2379  0.0900
  402TIP3    H1 1170   2.956   0.337   2.854 -0.3423  1.1410  0.3829
  402TIP3    H2 1171   2.926   0.460   2.770 -4.1791 -1.9055 -3.1277
  403TIP3   OH2 1172   1.340   6.698   0.982  0.1653 -0.2979  0.2493
  403TIP3    H1 1173   1.403   6.626   0.980  0.2641 -0.2094  0.1993
  403TIP3    H2 1174   1.334   6.727   0.891 -1.1963 -1.4019 -0.0568
  404TIP3   OH2 1175   6.922   2.909   3.478  0.1391 -0.3922  0.1931
  404TIP3    H1 1176   6.946   2.893   3.387 -2.0823  0.5842 -0.6198
  404TIP3    H2 1177   6.984   2.975   3.508 -0.4557  0.9290 -1.3455
  405TIP3   OH2 1178   0.650   2.335   2.035 -0.0969  0.0890 -0.5105
  405TIP3    H1 1179   0.745   2.322   2.035  0.1045  1.4314  0.5106
  405TIP3    H2 1180   0.624   2.315   1.945  1.0990 -0.6376 -0.7147
  406TIP3   OH2 1181   4.392   1.628   3.691  0.0789 -0.3356  0.4198
  406TIP3    H1 1182   4.409   1.721   3.685  0.3838 -0.3069  1.5231
  406TIP3    H2 1183   4.390   1.598   3.600 -1.9614  1.0675 -0.0672
  407TIP3   OH2 1184   0.277   4.102   3.787  0.1273 -0.7956 -0.2104
  407TIP3    H1 1185   0.257   4.103   3.881 -1.8939 -1.8724 -0.5702
  407TIP3    H2 1186   0.196   4.130   3.745  1.1658  0.1975 -1.6480
  408TIP3   OH2 1187   0.609   4.688   2.615 -0.0686  0.0790 -0.2394
  408TIP3    H1 1188   0.580   4.704   2.705 -2.3338 -1.2450 -0.6502
  408TIP3    H2 1189   0.584   4.766   2.567  2.6262  1.5229  0.4706
  409TIP3   OH2 1190   5.260   5.757   5.351 -0.5277 -0.1108  0.3505
  409TIP3    H1 1191   5.212   5.703   5.288  0.8522  0.2244 -1.0496
  409TIP3    H2 1192   5.218   5.739   5.435 -1.8394 -1.2764 -0.5087
  410TIP3   OH2 1193   3.279   4.847   3.224 -0.5912 -0.2040  0.0692
  410TIP3    H1 1194   3.351   4.785   3.234 -0.9388 -0.4489  1.1478
  410TIP3    H2 1195   3.271   4.858   3.129  2.3543  1.6287 -0.0907
  411TIP3   OH2 1196   3.152   0.509   5.532 -0.6199  0.2607 -0.1531
  411TIP3    H1 1197   3.208   0.492   5.608  0.5050 -0.4020 -1.0914
  411TIP3    H2 1198   3.161   0.604   5.518  1.5479 -0.0176 -1.1734
  412TIP3   OH2 1199   2.134   4.250   5.245 -0.1773 -0.0752  0.0690
  412TIP3    H1 1200   2.041   4.247   5.224  0.0411 -0.7708 -0.8368
  412TIP3    H2 1201   2.154   4.163   5.280 -0.3613  0.8064  2.5466
  413TIP3   OH2 1202   4.226   6.172   0.874 -0.0358  0.1296  0.7596
  413TIP3    H1 1203   4.258   6.258   0.902 -2.2849  0.9253  1.1366
  413TIP3    H2 1204   4.296   6.136   0.821  0.7586  2.4532  0.1118
  414TIP3   OH2 1205   6.460   5.489   0.893  0.0388  0.3822 -0.6914
  414TIP3    H1 1206   6.381   5.515   0.941 -0.4175  1.4877 -1.9762
  414TIP3    H2 1207   6.532   5.531   0.941  0.2247 -2.4775  1.8776
  415TIP3   OH2 1208   2.050   4.640   4.446  0.2081  0.2174  0.0799
  415TIP3    H1 1209   2.006   4.702   4.504  1.2294 -0.3985  1.5692
  415TIP3    H2 1210   2.118   4.600   4.500  1.1518 -0.4648 -1.5177
  416TIP3   OH2 1211   1.565   4.296   1.759 -0.4703 -0.1947  0.4200
  416TIP3    H1 1212   1.582   4.384   1.724  0.6203 -0.5647 -0.0159
  416TIP3    H2 1213   1.473   4.299   1.787 -0.6705  0.8474 -0.2814
  417TIP3   OH2 1214   0.512   2.313   2.980 -0.4225 -0.3612 -0.3860
  417TIP3    H1 1215   0.583   2.251   2.995  0.8042  0.8091 -0.9928
  417TIP3    H2 1216   0.534   2.388   3.036 -0.7612  0.3141 -1.1349
  418TIP3   OH2 1217   1.944   1.655   5.435  0.4519  0.5943  0.4915
  418TIP3    H1 1218   1.986   1.721   5.379  0.1629  0.6820  0.3792
  418TIP3    H2 1219   1.925   1.701   5.517 -1.3762  1.1540 -0.2157
  419TIP3   OH2 1220   6.503   1.337   2.740  0.3775  0.5389  0.3432
  419TIP3    H1 1221   6.555   1.399   2.688 -0.7117  0.8158 -0.4305
  419TIP3    H2 1222   6.542   1.252   2.720  0.9715  0.8086  0.3039
  420TIP3   OH2 1223   4.117   4.286   2.249  0.1529  0.1441 -0.5336
  420TIP3    H1 1224   4.130   4.214   2.310 -0.0817  0.7104  0.1964
  420TIP3    H2 1225   4.184   4.350   2.273 -0.2326  0.5642 -0.5683
  421TIP3   OH2 1226   2.098   5.023   0.322 -0.0675 -0.0149  0.7663
  421TIP3    H1 1227   2.193   5.032   0.329 -0.2156  0.9763  1.7495
  421TIP3    H2 1228   2.080   4.935   0.355  0.3602  0.4582  2.3496
  422TIP3   OH2 1229   0.606   0.416   1.509  0.2180 -0.1015  0.1349
  422TIP3    H1 1230   0.575   0.329   1.482 -0.1106 -0.2680  0.9933
  422TIP3    H2 1231   0.577   0.424   1.600  1.3927  0.3683  0.4856
  423TIP3   OH2 1232   3.862   1.059   5.750  0.1221  0.3049 -0.2043
  423TIP3    H1 1233   3.788   1.111   5.781 -0.3616 -0.1859 -0.5131
  423TIP3    H2 1234   3.903   1.025   5.830 -0.1953  0.3003 -0.0400
  424TIP3   OH2 1235   7.121   4.902   5.008  0.2591 -0.3366  0.3497
  424TIP3    H1 1236   7.068   4.829   4.974 -0.5971  0.6161 -0.4362
  424TIP3    H2 1237   7.077   4.980   4.975  2.7579  0.5117 -1.2948
  425TIP3   OH2 1238   1.356   3.938   4.039  0.0068  0.0485  1.0965
  425TIP3    H1 1239   1.290   3.975   4.097 -0.1540  1.0155  0.3189
  425TIP3    H2 1240   1.411   4.013   4.014 -2.0851  0.4972 -2.8703
  426TIP3   OH2 1241   6.772   4.380   5.194 -0.1789  0.1301  0.6468
  426TIP3    H1 1242   6.715   4.341   5.260  0.3505 -1.7420  0.0620
  426TIP3    H2 1243   6.714   4.399   5.120 -0.0745 -1.9569 -0.0250
  427TIP3   OH2 1244   6.716   5.371   5.161  0.0223  0.4118 -0.0927
  427TIP3    H1 1245   6.624   5.360   5.136 -0.1204  1.6878 -0.1699
  427TIP3    H2 1246   6.733   5.298   5.221 -1.5652  1.1904  1.3658
  428TIP3   OH2 1247   1.847   1.719   2.448 -0.1596  0.6802 -0.2620
  428TIP3    H1 1248   1.916   1.690   2.507 -0.4196  0.0883 -0.2398
  428TIP3    H2 1249   1.889   1.783   2.391  0.4309  0.2674 -0.3003
  429TIP3   OH2 1250   1.212   0.743   5.305  0.0338  0.3605  0.8220
  429TIP3    H1 1251   1.190   0.663   5.352 -0.7582  0.6351  0.9513
  429TIP3    H2 1252   1.156   0.740   5.227  1.1125  0.0550  0.0439
  430TIP3   OH2 1253   1.509   2.529   4.170  0.0764 -0.3352  0.2869
  430TIP3    H1 1254   1.484   2.453   4.119  1.2266 -1.0298  0.7263
  430TIP3    H2 1255   1.443   2.535   4.239 -0.0854 -0.8491  0.1765
  431TIP3   OH2 1256   4.111   4.251   4.221  0.2341  0.4654  0.0607
  431TIP3    H1 1257   4.176   4.191   4.258  1.7774  0.1081 -2.9300
  431TIP3    H2 1258   4.033   4.197   4.207  1.0975 -0.5190 -1.1746
  432TIP3   OH2 1259   1.553   4.172   0.997 -0.3425  0.2542 -0.1127
  432TIP3    H1 1260   1.501   4.249   1.019 -2.3459 -0.8092 -0.8870
  432TIP3    H2 1261   1.632   4.207   0.956 -0.0739  1.9488  1.7256
  433TIP3   OH2 1262   5.129   2.891   3.072 -0.0940  0.5588 -0.3148
  433TIP3    H1 1263   5.157   2.978   3.100  0.8411 -0.3137  1.5669
  433TIP3    H2 1264   5.040   2.882   3.108  0.3946  0.1625  0.8217
  434TIP3   OH2 1265   1.993   1.992   3.308 -0.2849 -0.2330 -0.0374
  434TIP3    H1 1266   1.974   1.924   3.244  0.7457  0.0956 -0.7167
  434TIP3    H2 1267   2.086   1.981   3.329 -0.0515  1.0657 -0.3032
  435TIP3   OH2 1268   2.922   0.375   0.810 -0.1538 -0.4252 -0.3033
  435TIP3    H1 1269   2.938   0.307   0.876  0.3923  0.1945  0.2118
  435TIP3    H2 1270   2.899   0.326   0.731 -0.5978 -1.1866  0.2826
  436TIP3   OH2 1271   6.699   6.563   2.897  0.9429 -0.3647  0.0523
  436TIP3    H1 1272   6.706   6.654   2.926 -0.2734 -0.1668 -0.2330
  436TIP3    H2 1273   6.789   6.537   2.877  1.0502  1.6273 -2.4983
  437TIP3   OH2 1274   4.482   5.537   5.801  0.1742 -0.3798  0.4863
  437TIP3    H1 1275   4.488   5.442   5.810  0.2490 -0.2880  1.5883
  437TIP3    H2 1276   4.397   5.559   5.839  0.1355 -0.0082  0.1873
  438TIP3   OH2 1277   0.041   4.748   2.221  0.1066  0.3358 -0.0767
  438TIP3    H1 1278  -0.031   4.757   2.284 -0.2653  0.6437 -0.5422
  438TIP3    H2 1279   0.011   4.795   2.143  0.9866  0.8056 -0.1341
  439TIP3   OH2 1280   1.439   2.352   5.292  0.0414 -0.2942 -0.0114
  439TIP3    H1 1281   1.438   2.448   5.297  1.7609 -0.2999  1.1994
  439TIP3    H2 1282   1.348   2.327   5.307 -0.2258  1.1110  0.9587
  440TIP3   OH2 1283   4.207   2.345   5.113  0.5055  0.0904 -0.5020
  440TIP3    H1 1284   4.220   2.282   5.184  0.4189 -0.4455 -0.9569
  440TIP3    H2 1285   4.293   2.384   5.100  0.7546 -0.5458 -0.7884
  441TIP3   OH2 1286   1.421   0.153   3.110  0.1434 -0.3238 -0.1147
  441TIP3    H1 1287   1.517   0.149   3.113  0.1391  0.2988  1.3386
  441TIP3    H2 1288   1.401   0.247   3.111 -0.5107 -0.4645  1.3267
  442TIP3   OH2 1289   6.494   2.665   2.327 -0.6124 -0.2546 -0.2947
  442TIP3    H1 1290   6.537   2.585   2.357 -0.0772  0.1241 -0.0310
  442TIP3    H2 1291   6.555   2.735   2.350 -0.6873  0.1535 -1.2896
  443TIP3   OH2 1292   4.529   6.314   3.090  0.0961 -0.1544 -0.2787
  443TIP3    H1 1293   4.580   6.338   3.167  1.7129 -0.4784 -1.1903
  443TIP3    H2 1294   4.493   6.396   3.058 -0.7946 -0.0528  0.9330
  444TIP3   OH2 1295   3.311   4.852   2.707  0.1044  0.1361  0.0515
  444TIP3    H1 1296   3.382   4.795   2.736 -0.9305 -1.3728 -0.2614
  444TIP3    H2 1297   3.235   4.794   2.699 -0.4059  1.0301 -2.6893
  445TIP3   OH2 1298   2.876   2.329   1.811 -0.1549  0.0841  0.0562
  445TIP3    H1 1299   2.916   2.265   1.869 -2.1088  1.1264  2.7335
  445TIP3    H2 1300   2.930   2.408   1.821  0.5855 -0.2509 -1.0573
  446TIP3   OH2 1301   0.474   0.765   1.926 -0.1416  0.7060  0.1746
  446TIP3    H1 1302   0.473   0.707   2.001  0.7779 -0.2752 -0.5431
  446TIP3    H2 1303   0.435   0.847   1.958  1.3091  0.7349  2.0535
  447TIP3   OH2 1304   6.939   0.154   3.490  0.2311  0.1204  0.4317
  447TIP3    H1 1305   6.913   0.244   3.472 -0.7008  0.2375  2.1629
  447TIP3    H2 1306   6.892   0.102   3.424 -1.0671  0.7210  0.8510
  448TIP3   OH2 1307   1.006   1.538   3.955 -0.2772 -0.6134  0.2543
  448TIP3    H1 1308   0.949   1.517   4.030  0.5847 -1.1038  0.7921
  448TIP3    H2 1309   0.996   1.632   3.943 -1.2591 -0.6998  0.2837
  449TIP3   OH2 1310   3.858   4.977   4.693  0.5648 -0.0102  0.1488
  449TIP3    H1 1311   3.784   4.955   4.637  0.4379  0.2206  0.2265
  449TIP3    H2 1312   3.862   4.905   4.757  1.9872 -1.3860 -1.3999
  450TIP3   OH2 1313   4.707   6.159   5.719  0.0367  0.7041 -0.5930
  450TIP3    H1 1314   4.677   6.132   5.632  1.9143 -0.8747 -0.8257
  450TIP3    H2 1315   4.793   6.197   5.704  1.0391 -0.9102  0.6528
  451TIP3   OH2 1316   2.349   4.911   1.888  0.3689  0.0166  0.6889
  451TIP3    H1 1317   2.372   4.838   1.945  2.9774 -0.1972 -0.5173
  451TIP3    H2 1318   2.378   4.989   1.936  0.3942  0.0148  0.6769
  452TIP3   OH2 1319   3.858   6.171   5.261 -0.4135 -0.0005 -0.4194
  452TIP3    H1 1320   3.792   6.186   5.328 -1.6168 -0.5629 -1.4227
  452TIP3    H2 1321   3.808   6.150   5.182  0.9712 -0.4718 -1.2219
  453TIP3   OH2 1322   2.690   1.328   4.062  0.0234 -0.1382 -0.1888
  453TIP3    H1 1323   2.687   1.250   4.006 -2.2985 -1.1047  1.1352
  453TIP3    H2 1324   2.767   1.317   4.116 -0.6164 -1.8935  0.4183
  454TIP3   OH2 1325   0.036   1.357   5.167 -0.4591  0.0277 -0.4948
  454TIP3    H1 1326  -0.006   1.371   5.252 -1.9615 -2.6243 -0.7039
  454TIP3    H2 1327   0.052   1.446   5.134 -1.8472  1.1336  1.5731
  455TIP3   OH2 1328   0.601   5.823   2.698  0.3012  0.2372 -0.2025
  455TIP3    H1 1329   0.672   5.861   2.750  2.0689 -2.2094 -0.6547
  455TIP3    H2 1330   0.617   5.853   2.609 -0.0992  0.7942 -0.0985
  456TIP3   OH2 1331   1.455   0.475   0.429 -0.2681  0.3874  0.5138
  456TIP3    H1 1332   1.502   0.546   0.386  2.0357 -0.8908  0.7645
  456TIP3    H2 1333   1.412   0.516   0.504  0.6506  1.5926  0.4061
  457TIP3   OH2 1334   4.974   1.787   1.602 -0.0736 -0.2178 -0.0477
  457TIP3    H1 1335   4.963   1.858   1.666 -0.0103 -1.2668  1.1616
  457TIP3    H2 1336   4.885   1.764   1.575 -0.1172  0.0009 -0.0911
  458TIP3   OH2 1337   0.913   2.191   4.959  0.0639  0.9339  0.2552
  458TIP3    H1 1338   0.897   2.251   4.886 -3.6145  0.2994  0.3837
  458TIP3    H2 1339   0.883   2.106   4.928  0.1580  0.2534  1.9044
  459TIP3   OH2 1340   0.618   2.766   2.220 -0.5138  0.5999  0.5103
  459TIP3    H1 1341   0.550   2.779   2.286 -1.4610  0.2323 -0.3579
  459TIP3    H2 1342   0.697   2.802   2.259 -0.6990 -0.9663  2.4535
  460TIP3   OH2 1343   5.624   1.837   3.037 -0.1855 -0.4457 -0.3671
  460TIP3    H1 1344   5.685   1.805   2.971  0.6652  2.8762 -1.3813
  460TIP3    H2 1345   5.680   1.862   3.111 -0.9583 -2.4304  0.9665
  461TIP3   OH2 1346   1.685   1.333   3.095  0.1869 -0.2774 -0.4298
  461TIP3    H1 1347   1.777   1.348   3.120  0.1309 -0.2551 -0.2288
  461TIP3    H2 1348   1.635   1.375   3.165  0.0181  0.4738 -0.9899
  462TIP3   OH2 1349   2.708   1.849   1.725  0.1146 -0.4222 -0.0156
  462TIP3    H1 1350   2.671   1.767   1.759 -0.3535 -0.2177 -0.0237
  462TIP3    H2 1351   2.704   1.909   1.800 -1.5179  0.2260 -0.5762
  463TIP3   OH2 1352   1.836   4.796   3.805 -0.2024 -0.2330 -0.5069
  463TIP3    H1 1353   1.830   4.738   3.729  1.2131  0.4925 -1.2228
  463TIP3    H2 1354   1.855   4.882   3.767  1.2187  0.0099  0.6982
  464TIP3   OH2 1355   2.544   4.544   0.690  0.6208  0.6935 -0.2930
  464TIP3    H1 1356   2.622   4.514   0.642  2.2706  2.6488  0.9856
  464TIP3    H2 1357   2.534   4.636   0.665 -0.6170  0.7758  0.4298
  465TIP3   OH2 1358   3.402   6.351   4.313  0.2416 -0.0919  0.2933
  465TIP3    H1 1359   3.401   6.405   4.234  1.9792  2.3720  1.7717
  465TIP3    H2 1360   3.438   6.267   4.285 -1.2418 -0.0799 -1.8752
  466TIP3   OH2 1361   0.758   2.405   2.359  0.7311 -0.0878  0.2686
  466TIP3    H1 1362   0.847   2.372   2.354  1.3488  1.0014  2.4903
  466TIP3    H2 1363   0.706   2.331   2.391  0.9874 -0.4765 -0.2051
  467TIP3   OH2 1364   0.538   1.810   4.413  0.0621  0.0737  0.5277
  467TIP3    H1 1365   0.483   1.842   4.342  0.6529 -1.4508 -0.6683
  467TIP3    H2 1366   0.510   1.719   4.426  0.2834  0.1778  1.9515
  468TIP3   OH2 1367   5.614   5.610   0.157 -0.2212 -0.6115  0.1786
  468TIP3    H1 1368   5.686   5.671   0.172 -0.4243 -0.3889  0.2450
  468TIP3    H2 1369   5.585   5.586   0.245 -0.7214 -0.1219  0.1491
  469TIP3   OH2 1370   5.185   5.134   0.209  0.2319 -0.2567 -0.1720
  469TIP3    H1 1371   5.244   5.199   0.170  0.9249 -0.2035  0.9030
  469TIP3    H2 1372   5.159   5.077   0.136 -1.5195  2.0067 -1.4516
  470TIP3   OH2 1373   4.931   1.695   0.307  0.4166 -0.3131 -0.0441
  470TIP3    H1 1374   5.002   1.751   0.276  0.4192 -0.6835 -0.7157
  470TIP3    H2 1375   4.896   1.741   0.384  0.4766  0.5564 -0.5275
  471TIP3   OH2 1376   4.865   2.716   5.326 -0.4379 -0.2347  0.1137
  471TIP3    H1 1377   4.870   2.790   5.266  1.6386 -0.0253  0.4577
  471TIP3    H2 1378   4.772   2.708   5.347 -0.9154  1.1718 -1.2664
  472TIP3   OH2 1379   2.523   0.311   3.132  0.3700  0.3936 -0.3202
  472TIP3    H1 1380   2.569   0.228   3.150 -1.1199 -0.6839 -1.2125
  472TIP3    H2 1381   2.528   0.360   3.214  3.0390  0.3325 -0.3573
  473TIP3   OH2 1382   1.308   3.880   3.764  0.0665 -0.4647 -0.4104
  473TIP3    H1 1383   1.297   3.905   3.856 -0.1609 -0.5708 -0.4076
  473TIP3    H2 1384   1.401   3.893   3.747 -0.2746  1.7559 -0.8121
  474TIP3   OH2 1385   1.094   1.122   5.698 -0.2411  0.1522  0.1242
  474TIP3    H1 1386   1.136   1.185   5.638 -0.3890 -0.2739 -0.4342
  474TIP3    H2 1387   1.053   1.058   5.640 -1.4345  0.4043  0.6558
  475TIP3   OH2 1388   0.618   0.118   4.330 -0.9135 -0.2649 -0.1730
  475TIP3    H1 1389   0.662   0.152   4.252  0.1037 -1.5944 -0.1981
  475TIP3    H2 1390   0.689   0.095   4.390 -1.5570 -2.2550 -0.1253
  476TIP3   OH2 1391   2.651   6.081   4.048  0.1748 -0.1038 -0.0952
  476TIP3    H1 1392   2.677   6.152   3.989 -0.3434  0.5150  0.4059
  476TIP3    H2 1393   2.578   6.117   4.098  0.6394 -0.5880  0.9581
  477TIP3   OH2 1394   2.219   2.255   4.385 -0.5001  0.3025 -0.4685
  477TIP3    H1 1395   2.131   2.284   4.363  0.0397  0.5843 -2.4221
  477TIP3    H2 1396   2.213   2.160   4.388 -1.2293  0.3643  1.2081
  478TIP3   OH2 1397   0.242   4.905   4.035 -0.1371 -0.4161 -0.9274
  478TIP3    H1 1398   0.154   4.877   4.061 -0.3992 -0.8706 -2.2410
  478TIP3    H2 1399   0.254   4.869   3.947  0.2041  2.1689 -2.0134
  479TIP3   OH2 1400   2.418   1.668   3.775  0.3273 -0.5377  0.0037
  479TIP3    H1 1401   2.398   1.589   3.826 -0.4836 -0.3357  0.0177
  479TIP3    H2 1402   2.506   1.652   3.740  0.7602 -0.8208  1.1721
  480TIP3   OH2 1403   3.786   0.397   0.686 -0.0325  0.2541 -0.2495
  480TIP3    H1 1404   3.723   0.342   0.733  0.4544 -1.5449 -1.6116
  480TIP3    H2 1405   3.751   0.404   0.597 -0.3193  2.5924 -0.0177
  481TIP3   OH2 1406   0.203   5.538   0.075 -0.2242 -0.1170  0.1259
  481TIP3    H1 1407   0.226   5.570  -0.012 -2.6569  3.0400  0.4433
  481TIP3    H2 1408   0.134   5.473   0.059 -0.9113  0.7057 -0.3248
  482TIP3   OH2 1409   0.995   0.325   3.483 -0.2512  0.3095  0.1897
  482TIP3    H1 1410   1.017   0.338   3.390  0.9226 -1.3316  0.1949
  482TIP3    H2 1411   0.984   0.230   3.492  0.3492  0.3715  1.8827
  483TIP3   OH2 1412   6.892   4.790   0.761  0.5459 -0.0040 -0.0270
  483TIP3    H1 1413   6.834   4.784   0.685 -0.3366  0.3654  0.5891
  483TIP3    H2 1414   6.957   4.856   0.737  0.1755  0.2291 -0.4063
  484TIP3   OH2 1415   1.789   6.353   1.495  0.3006  0.1008 -0.1735
  484TIP3    H1 1416   1.814   6.296   1.567 -1.1319  0.5240  0.7022
  484TIP3    H2 1417   1.772   6.294   1.421 -0.2846 -0.5252  0.4564
  485TIP3   OH2 1418   2.511   4.765   1.642  0.0856  0.2023 -0.4056
  485TIP3    H1 1419   2.548   4.821   1.574  0.1530  0.0648 -0.4812
  485TIP3    H2 1420   2.471   4.692   1.595 -1.8080  1.1930 -0.4478
  486TIP3   OH2 1421   0.287   1.996   2.187 -0.2911  0.5233  0.3604
  486TIP3    H1 1422   0.281   1.901   2.179 -1.3937  0.6809 -1.2696
  486TIP3    H2 1423   0.196   2.026   2.182  0.1180  1.7197 -0.4480
  487TIP3   OH2 1424   5.059   2.134   1.188 -0.4092  0.2300 -0.0601
  487TIP3    H1 1425   5.069   2.222   1.226  1.5433  0.4806 -1.0536
  487TIP3    H2 1426   4.970   2.134   1.151 -1.1841  1.0651  1.6464
  488TIP3   OH2 1427   3.657   5.385   5.582 -0.0878  0.2264  0.7390
  488TIP3    H1 1428   3.688   5.305   5.623  0.2887  0.2314  0.4724
  488TIP3    H2 1429   3.569   5.364   5.551  0.2293 -0.2636  0.1589
  489TIP3   OH2 1430   0.905   2.660   1.113  0.0733  0.2004  0.7147
  489TIP3    H1 1431   0.982   2.621   1.156 -0.8646 -0.0473  2.2317
  489TIP3    H2 1432   0.830   2.617   1.154 -0.9569  2.2864  1.1333
  490TIP3   OH2 1433   4.316   4.111   2.815  0.5373 -0.0255 -0.1863
  490TIP3    H1 1434   4.338   4.190   2.766  2.1836  0.3267  1.0120
  490TIP3    H2 1435   4.303   4.044   2.748  0.1262  1.0297 -1.1795
  491TIP3   OH2 1436   5.861   0.681   1.138 -0.3423  0.3614 -0.5286
  491TIP3    H1 1437   5.869   0.684   1.233 -0.4862 -0.1301 -0.4993
  491TIP3    H2 1438   5.870   0.588   1.116  0.3529  0.5519 -1.0535
  492TIP3   OH2 1439   2.540   4.645   4.916 -0.3565 -0.9792 -0.1533
  492TIP3    H1 1440   2.452   4.608   4.926 -1.1034  0.5243 -0.8339
  492TIP3    H2 1441   2.531   4.709   4.846  0.7820  0.6814  1.1283
  493TIP3   OH2 1442   6.960   3.356   4.154 -0.2064 -0.0653  0.4082
  493TIP3    H1 1443   6.992   3.446   4.158  0.1617 -0.1576 -0.3336
  493TIP3    H2 1444   6.925   3.346   4.066  0.8545 -1.0024  0.0646
  494TIP3   OH2 1445   2.145   2.324   3.853  0.2014 -0.2417 -0.0082
  494TIP3    H1 1446   2.070   2.264   3.851 -0.4721  0.5433  0.9120
  494TIP3    H2 1447   2.107   2.410   3.874  1.3989  0.1082  0.8576
  495TIP3   OH2 1448   6.790   5.771   2.671  0.2910  0.2584  0.3550
  495TIP3    H1 1449   6.877   5.809   2.656 -0.1476  0.3330 -2.6696
  495TIP3    H2 1450   6.794   5.686   2.628 -0.9092 -0.0891  0.9054
  496TIP3   OH2 1451   5.975   1.804   4.570 -0.4933  0.2064  0.2034
  496TIP3    H1 1452   5.987   1.832   4.479  1.2879  0.2426  0.4065
  496TIP3    H2 1453   5.967   1.709   4.565 -0.0185  0.1724  0.0342
  497TIP3   OH2 1454   2.202   0.095   2.675 -0.4136  0.5987 -0.2424
  497TIP3    H1 1455   2.277   0.151   2.694 -0.1702  0.3134 -0.3535
  497TIP3    H2 1456   2.128   0.155   2.673 -0.2293  0.8480  0.1204
  498TIP3   OH2 1457   1.838   3.163   1.578  0.4528 -0.3494 -0.3003
  498TIP3    H1 1458   1.835   3.071   1.604 -0.4545 -0.7306 -1.6654
  498TIP3    H2 1459   1.928   3.190   1.597  0.7829 -1.5545 -0.0521
  499TIP3   OH2 1460   6.365   4.937   0.633 -0.2851  0.1472  0.3604
  499TIP3    H1 1461   6.339   4.963   0.545 -0.1829 -0.0569  0.2687
  499TIP3    H2 1462   6.438   4.994   0.655 -0.0105 -0.1120  0.1293
  500TIP3   OH2 1463   4.632   3.746   3.556 -0.6843 -0.1852 -0.3401
  500TIP3    H1 1464   4.630   3.680   3.625  1.3460 -1.0328 -1.0264
  500TIP3    H2 1465   4.623   3.829   3.603 -2.2305 -0.8576  0.6273
  501TIP3   OH2 1466   7.193   3.556   4.455  0.0792 -0.2166 -0.4329
  501TIP3    H1 1467   7.106   3.586   4.428  0.9402 -0.2817 -3.7034
  501TIP3    H2 1468   7.186   3.460   4.458 -0.4077 -0.1719  1.3680
  502TIP3   OH2 1469   1.457   1.560   0.880 -0.4795 -0.2158 -0.3570
  502TIP3    H1 1470   1.549   1.555   0.902 -0.1280 -1.0104 -1.8467
  502TIP3    H2 1471   1.414   1.587   0.961  0.7930 -1.9930  0.9955
  503TIP3   OH2 1472   5.534   5.967   0.977  0.5290 -0.0999 -0.3302
  503TIP3    H1 1473   5.607   6.025   0.953 -1.2023  1.6842 -1.5995
  503TIP3    H2 1474   5.474   5.974   0.903 -0.2191 -2.8118 -0.0599
  504TIP3   OH2 1475   5.031   4.999   4.408 -0.6825  0.8495 -0.4266
  504TIP3    H1 1476   4.971   4.979   4.336  0.4270  0.7349 -1.3401
  504TIP3    H2 1477   5.083   4.919   4.417  1.1587  1.8816 -1.4858
  505TIP3   OH2 1478   2.148   4.279   0.756  0.2796  0.1807  0.8440
  505TIP3    H1 1479   2.140   4.185   0.773  0.2134 -0.0818 -0.5131
  505TIP3    H2 1480   2.239   4.290   0.727 -0.1717  0.2178 -0.6660
  506TIP3   OH2 1481   0.576   3.450   5.281  0.2498 -0.2410 -0.6411
  506TIP3    H1 1482   0.663   3.475   5.313  0.2612 -0.7913 -0.2424
  506TIP3    H2 1483   0.556   3.368   5.325 -1.5510  1.0842  1.1738
  507TIP3   OH2 1484   7.112   0.383   1.545  0.4874 -0.1660  0.5072
  507TIP3    H1 1485   7.164   0.350   1.473  1.0481  0.6304  0.5269
  507TIP3    H2 1486   7.146   0.338   1.622  1.3885  0.5682  0.5640
  508TIP3   OH2 1487   4.076   5.055   2.767  0.2600  0.7893  0.0511
  508TIP3    H1 1488   4.058   5.096   2.682 -0.7996  1.6216  0.6534
  508TIP3    H2 1489   4.048   5.120   2.831 -1.4666 -0.8413  1.0619
  509TIP3   OH2 1490   3.758   2.819   2.861  0.0876 -0.0018 -0.5070
  509TIP3    H1 1491   3.776   2.756   2.792 -1.8412  0.7190 -1.7668
  509TIP3    H2 1492   3.725   2.767   2.934  0.8062 -0.6471 -0.6367
  510TIP3   OH2 1493   6.115   2.635   3.183 -0.2731  0.3734  0.1624
  510TIP3    H1 1494   6.189   2.673   3.136  0.2584 -0.8624 -0.0654
  510TIP3    H2 1495   6.039   2.656   3.130 -0.0524  1.3847  0.2301
  511TIP3   OH2 1496   5.096   1.344   3.832 -0.2904  0.3148 -0.0812
  511TIP3    H1 1497   5.165   1.393   3.788 -1.2277  0.3142 -1.6028
  511TIP3    H2 1498   5.027   1.408   3.849 -0.6209 -0.0290 -0.1046
  512TIP3   OH2 1499   3.190   2.974   5.736 -0.0970 -0.0936 -0.0116
  512TIP3    H1 1500   3.227   2.995   5.650  0.2246  0.7983  0.3306
  512TIP3    H2 1501   3.103   2.938   5.717 -0.3170  0.7506 -0.6835
  513TIP3   OH2 1502   1.704   2.768   4.866 -0.2053  0.4487  0.2069
  513TIP3    H1 1503   1.690   2.781   4.960  0.9752 -1.7601  0.7495
  513TIP3    H2 1504   1.793   2.733   4.859 -1.5337 -3.1721 -1.2633
  514TIP3   OH2 1505   5.923   2.423   2.874  0.3464 -0.0270 -0.3842
  514TIP3    H1 1506   5.906   2.517   2.876 -1.1247 -0.2717  1.1164
  514TIP3    H2 1507   5.918   2.399   2.782 -2.0896  0.9553 -0.5868
  515TIP3   OH2 1508   1.888   3.076   5.786  0.2295 -0.1417 -0.4341
  515TIP3    H1 1509   1.850   2.988   5.789 -0.7617  0.2856  0.0287
  515TIP3    H2 1510   1.815   3.132   5.762  0.9775  0.4964 -1.2660
  516TIP3   OH2 1511   6.495   3.261   3.358  0.7315 -0.4124 -0.4236
  516TIP3    H1 1512   6.428   3.232   3.296 -0.4389  1.5732 -0.1642
  516TIP3    H2 1513   6.525   3.344   3.322  0.1718  0.6867  1.5472
  517TIP3   OH2 1514   5.990   6.328   0.668  0.1362 -0.3679  0.6126
  517TIP3    H1 1515   5.976   6.416   0.704  0.7713 -0.6071  1.4860
  517TIP3    H2 1516   5.996   6.341   0.574 -5.1677 -0.1384  0.0235
  518TIP3   OH2 1517   5.650   0.175   5.040 -0.0670 -0.4559 -0.0715
  518TIP3    H1 1518   5.587   0.104   5.054 -0.3486 -0.4364 -1.1671
  518TIP3    H2 1519   5.605   0.237   4.983  0.2876  0.4725  0.6251
  519TIP3   OH2 1520   0.416   0.619   3.618  1.0654 -0.0565  0.5686
  519TIP3    H1 1521   0.444   0.634   3.708  2.7191  0.3455  0.0427
  519TIP3    H2 1522   0.322   0.636   3.618  1.3331  1.7094  1.8594
  520TIP3   OH2 1523   1.280   2.787   0.013  0.2286 -0.0299  0.2892
  520TIP3    H1 1524   1.193   2.780   0.053  0.1822  1.4025  0.5015
  520TIP3    H2 1525   1.330   2.841   0.075  0.7119  0.6618 -0.6754
  521TIP3   OH2 1526   1.021   1.095   1.575 -0.0255 -0.5515  0.3675
  521TIP3    H1 1527   0.980   1.026   1.627 -0.2737 -2.2542 -1.9306
  521TIP3    H2 1528   1.063   1.048   1.503 -0.0412  1.6922 -1.1889
  522TIP3   OH2 1529   3.355   6.173   2.303  0.4558 -0.2855  0.5103
  522TIP3    H1 1530   3.337   6.086   2.268 -0.3651 -0.7092  1.9241
  522TIP3    H2 1531   3.405   6.216   2.234 -0.3032 -1.3957 -0.7865
  523TIP3   OH2 1532   0.038   0.529   1.862 -0.2485  0.2160  0.0380
  523TIP3    H1 1533  -0.053   0.511   1.836  0.4765 -1.6518 -1.5017
  523TIP3    H2 1534   0.064   0.604   1.809 -0.1515 -0.8734 -1.5565
  524TIP3   OH2 1535   6.362   5.196   4.715 -0.1605 -0.0835  0.1064
  524TIP3    H1 1536   6.291   5.245   4.672 -0.1046 -0.3867 -0.3429
  524TIP3    H2 1537   6.413   5.263   4.761  0.6294  0.4777 -1.4907
  525TIP3   OH2 1538   4.859   4.094   3.586 -0.0859 -0.2547  0.5745
  525TIP3    H1 1539   4.834   4.092   3.678 -1.2470  1.1632  0.3251
  525TIP3    H2 1540   4.929   4.030   3.578 -1.3783 -1.9396  2.0307
  526TIP3   OH2 1541   5.324   6.688   5.432 -0.0104  0.0884 -0.0486
  526TIP3    H1 1542   5.247   6.719   5.386 -0.1352 -0.4921 -0.2366
  526TIP3    H2 1543   5.398   6.725   5.383 -0.1636  1.6114  0.8130
  527TIP3   OH2 1544   3.313   2.233   4.121  0.4409 -0.3397  0.6580
  527TIP3    H1 1545   3.326   2.310   4.064  0.9364 -1.0658 -0.2375
  527TIP3    H2 1546   3.218   2.220   4.121  0.3078  0.5032  1.1510
  528TIP3   OH2 1547   1.631   3.132   1.374  0.1459 -0.0330  0.1431
  528TIP3    H1 1548   1.619   3.214   1.325 -0.4314 -0.7708 -1.0105
  528TIP3    H2 1549   1.704   3.150   1.433 -0.4682  1.5588  0.4704
  529TIP3   OH2 1550   4.314   1.502   1.653 -0.2487  0.5328 -0.2456
  529TIP3    H1 1551   4.374   1.427   1.648 -0.0259  0.6436  0.7048
  529TIP3    H2 1552   4.265   1.489   1.734 -1.1949  0.6954 -0.7679
  530TIP3   OH2 1553   5.027   2.874   1.469  0.2827 -0.2777 -0.0054
  530TIP3    H1 1554   5.014   2.898   1.561  4.4082 -3.0499  1.6143
  530TIP3    H2 1555   5.081   2.946   1.434 -1.8342  1.1137 -0.6227
  531TIP3   OH2 1556   2.305   4.757   5.484 -0.0301  0.2903 -0.0602
  531TIP3    H1 1557   2.252   4.681   5.508  2.4765 -2.0438 -1.3167
  531TIP3    H2 1558   2.275   4.779   5.396  0.0451 -0.0689 -0.1810
  532TIP3   OH2 1559   1.484   5.448   0.713  0.0894  0.0829  0.1017
  532TIP3    H1 1560   1.420   5.380   0.690 -1.2430  1.4312 -0.3507
  532TIP3    H2 1561   1.502   5.432   0.806 -2.8553  1.1046  0.9657
  533TIP3   OH2 1562   4.782   1.834   4.707  0.9551 -0.7285  0.2560
  533TIP3    H1 1563   4.755   1.838   4.799  0.6559  0.3096  0.1310
  533TIP3    H2 1564   4.700   1.822   4.659  0.9956 -0.1843  0.0514
  534TIP3   OH2 1565   1.247   4.274   1.786 -0.0354 -0.1468 -0.5882
  534TIP3    H1 1566   1.301   4.288   1.708  1.7914 -0.3650  0.5999
  534TIP3    H2 1567   1.207   4.188   1.771  0.2810 -0.1869 -1.2774
  535TIP3   OH2 1568   1.612   1.048   3.910 -0.2045  0.2547  0.2958
  535TIP3    H1 1569   1.542   1.086   3.858 -1.0033  0.1074  1.2445
  535TIP3    H2 1570   1.619   0.958   3.879 -1.2496 -0.0830  1.0054
  536TIP3   OH2 1571   3.417   3.472   2.928 -0.0054 -0.3373 -0.2732
  536TIP3    H1 1572   3.339   3.431   2.892 -1.1148  1.8740 -0.6100
  536TIP3    H2 1573   3.394   3.491   3.019  0.8571 -1.3088  0.1633
  537TIP3   OH2 1574   1.093   5.472   2.407 -0.5987 -0.2759  0.9649
  537TIP3    H1 1575   1.167   5.411   2.406 -1.3169 -1.1668 -0.4473
  537TIP3    H2 1576   1.125   5.547   2.456  0.7324 -1.2652  1.6890
  538TIP3   OH2 1577   0.760   1.997   5.541  0.3691  0.2873  0.1941
  538TIP3    H1 1578   0.706   2.036   5.472  0.0973  0.9358  0.7492
  538TIP3    H2 1579   0.818   1.936   5.496  0.0511  0.5422 -0.5733
  539TIP3   OH2 1580   5.203   4.351   5.393 -0.2348 -0.3116  0.0040
  539TIP3    H1 1581   5.117   4.362   5.353  0.4044 -0.6982 -1.5371
  539TIP3    H2 1582   5.237   4.440   5.404 -1.1705 -0.0987  1.4792
  540TIP3   OH2 1583   2.152   4.563   1.991  0.5259  0.5573  0.0663
  540TIP3    H1 1584   2.209   4.617   1.937  0.0058  1.3139  0.2511
  540TIP3    H2 1585   2.103   4.509   1.929  0.1904  1.1640 -0.2053
  541TIP3   OH2 1586   5.106   2.510   5.452 -0.8326  0.5332  0.2153
  541TIP3    H1 1587   5.087   2.586   5.507  1.5768  1.1803  0.2853
  541TIP3    H2 1588   5.108   2.544   5.363  1.0138  0.7903  0.3116
  542TIP3   OH2 1589   1.085   1.339   5.889 -0.0538 -0.3305 -0.4480
  542TIP3    H1 1590   1.066   1.414   5.833  1.0538  0.2070 -0.1502
  542TIP3    H2 1591   1.090   1.265   5.829  0.7224  0.1694 -1.0340
  543TIP3   OH2 1592   5.222   3.486   1.074  0.1717  0.2023 -0.3992
  543TIP3    H1 1593   5.287   3.417   1.090  0.4591  0.4752 -0.3659
  543TIP3    H2 1594   5.183   3.502   1.160 -0.8620 -0.8575 -0.6462
  544TIP3   OH2 1595   4.991   5.516   4.314 -0.4438  0.1289  0.0141
  544TIP3    H1 1596   5.054   5.573   4.357 -0.7518  1.1827 -0.8972
  544TIP3    H2 1597   5.045   5.447   4.274 -0.0374  0.0296  0.7147
  545TIP3   OH2 1598   0.815   3.762   5.145 -0.5237 -0.4195  0.7094
  545TIP3    H1 1599   0.864   3.833   5.186 -0.6237 -0.5789  1.1111
  545TIP3    H2 1600   0.725   3.774   5.175 -0.8105  0.0886 -0.3188
  546TIP3   OH2 1601   5.417   5.443   5.314  0.0953  0.1598 -0.9012
  546TIP3    H1 1602   5.399   5.504   5.243 -1.5277  0.2355 -0.4748
  546TIP3    H2 1603   5.348   5.376   5.306  0.4513 -0.3351  0.0350
  547TIP3   OH2 1604   3.668   5.763   1.718  0.0911 -0.6198  0.1331
  547TIP3    H1 1605   3.592   5.746   1.773 -0.5456 -0.0795 -0.5723
  547TIP3    H2 1606   3.715   5.833   1.764 -0.4557 -0.1487 -0.0076
  548TIP3   OH2 1607   4.815   3.596   0.258 -1.0004 -0.5173 -0.8867
  548TIP3    H1 1608   4.732   3.590   0.211 -0.6485 -1.3519 -1.4241
  548TIP3    H2 1609   4.839   3.688   0.252 -2.6046  0.0671  0.5725
  549TIP3   OH2 1610   1.268   2.887   5.737  0.2090  0.7320  0.5180
  549TIP3    H1 1611   1.350   2.851   5.772  0.5373  0.6499 -0.3021
  549TIP3    H2 1612   1.201   2.860   5.800  1.0277  2.2446  2.1346
  550TIP3   OH2 1613   5.754   5.226   1.978 -0.1674  0.1171  0.2145
  550TIP3    H1 1614   5.676   5.190   2.019 -2.0257  2.4163 -1.0617
  550TIP3    H2 1615   5.808   5.258   2.051 -1.4555  0.4227  1.0608
  551TIP3   OH2 1616   5.067   0.709   5.472  0.5485 -0.0448 -0.1082
  551TIP3    H1 1617   5.042   0.644   5.537  2.5154 -0.6870  0.0740
  551TIP3    H2 1618   5.084   0.658   5.393 -2.5222  0.7827 -1.4834
  552TIP3   OH2 1619   2.388   4.157   3.121 -0.0795  0.7526  0.4773
  552TIP3    H1 1620   2.442   4.221   3.074  1.5888  0.0158  1.3173
  552TIP3    H2 1621   2.358   4.097   3.052  1.4381  0.3207  0.1332
  553TIP3   OH2 1622   5.219   3.156   2.498 -0.2337 -0.4604 -0.1389
  553TIP3    H1 1623   5.169   3.235   2.481  0.9023  0.1224 -0.9512
  553TIP3    H2 1624   5.167   3.086   2.459 -0.7879  0.0157 -0.2672
  554TIP3   OH2 1625   1.574   3.361   3.242  0.3835 -0.0168 -0.1897
  554TIP3    H1 1626   1.617   3.431   3.193  1.6913 -0.8904 -0.3353
  554TIP3    H2 1627   1.577   3.286   3.183 -0.3267 -0.4063  0.2573
  555TIP3   OH2 1628   5.983   1.400   1.664 -0.5536  0.1210 -1.1697
  555TIP3    H1 1629   6.002   1.493   1.674 -0.9929  0.3498 -2.3065
  555TIP3    H2 1630   5.893   1.390   1.696 -0.3475 -0.0081 -0.6165
  556TIP3   OH2 1631   6.322   0.341   0.630 -0.1222 -0.2743 -0.1821
  556TIP3    H1 1632   6.405   0.313   0.667  0.4710  0.2144 -1.1004
  556TIP3    H2 1633   6.262   0.343   0.704  0.5310 -1.2089  0.3892
  557TIP3   OH2 1634   3.210   1.328   1.766  0.4659 -0.3401  0.2786
  557TIP3    H1 1635   3.243   1.283   1.689 -0.4940  0.2484 -0.5064
  557TIP3    H2 1636   3.228   1.269   1.839  0.5592 -1.3214 -0.5240
  558TIP3   OH2 1637   4.343   0.137   3.782  0.0462 -0.6863 -0.2253
  558TIP3    H1 1638   4.313   0.065   3.837 -0.4087 -1.1251 -1.0252
  558TIP3    H2 1639   4.438   0.139   3.795 -0.2014  0.4303  1.9918
  559TIP3   OH2 1640   1.857   0.298   5.537  0.3798  0.0176 -0.0466
  559TIP3    H1 1641   1.902   0.225   5.496  0.3234  0.8549 -1.6569
  559TIP3    H2 1642   1.885   0.295   5.629  0.6662 -1.7649 -0.1714
  560TIP3   OH2 1643   0.078   4.675   4.537  0.7748  0.2889  0.1028
  560TIP3    H1 1644   0.136   4.746   4.509  0.7984  0.7637  1.2765
  560TIP3    H2 1645  -0.008   4.699   4.504  0.6231  1.3087  1.1911
  561TIP3   OH2 1646   6.863   4.253   2.136 -0.2542 -0.1875  0.2884
  561TIP3    H1 1647   6.897   4.184   2.193 -0.5384  0.0265  0.7246
  561TIP3    H2 1648   6.915   4.246   2.056 -0.2985 -0.9228  0.3186
  562TIP3   OH2 1649   1.602   2.847   3.851 -0.4103  0.4948 -0.5541
  562TIP3    H1 1650   1.663   2.871   3.921 -0.1658 -0.2698 -0.4999
  562TIP3    H2 1651   1.528   2.807   3.898 -0.1013 -0.3185 -0.7468
  563TIP3   OH2 1652   3.369   4.172   0.813  0.5461  0.7579  0.4571
  563TIP3    H1 1653   3.304   4.114   0.772  1.3305  0.0364  0.1991
  563TIP3    H2 1654   3.318   4.248   0.842 -0.3248  0.4511 -0.2117
  564TIP3   OH2 1655   0.063   3.537   3.129  0.5651 -0.3931 -0.4972
  564TIP3    H1 1656   0.080   3.519   3.037  2.3655  0.9462 -0.4961
  564TIP3    H2 1657   0.024   3.625   3.129 -0.7187 -0.9533 -0.0587
  565TIP3   OH2 1658   1.644   0.903   4.386 -0.5185 -0.3783 -0.7203
  565TIP3    H1 1659   1.601   0.836   4.440  0.3680 -0.1321  0.3466
  565TIP3    H2 1660   1.712   0.855   4.339 -0.5106 -0.3918 -0.6949
  566TIP3   OH2 1661   4.031   6.828   2.911 -0.2966  0.6112  0.0666
  566TIP3    H1 1662   4.098   6.805   2.846  1.3969  1.2860  1.4665
  566TIP3    H2 1663   3.989   6.745   2.934 -0.7499  0.3346 -1.6785
  567TIP3   OH2 1664   5.388   5.168   0.904 -0.0591 -0.2092 -0.2350
  567TIP3    H1 1665   5.299   5.131   0.900  0.8119 -2.7184  0.9798
  567TIP3    H2 1666   5.397   5.197   0.995  0.3273  0.0932 -0.3714
  568TIP3   OH2 1667   4.142   3.802   3.820  0.0629  0.7032  0.1787
  568TIP3    H1 1668   4.168   3.714   3.793  0.4822  0.5099  1.1417
  568TIP3    H2 1669   4.053   3.813   3.787  0.5075  0.4569 -1.1465
  569TIP3   OH2 1670   0.552   3.179   0.897 -0.2655  0.1183  0.1932
  569TIP3    H1 1671   0.457   3.170   0.891 -0.1280 -0.6270 -1.6339
  569TIP3    H2 1672   0.565   3.264   0.938 -1.7286  0.6118 -0.2890
  570TIP3   OH2 1673   2.116   5.121   2.079  0.1185  0.0230  0.3045
  570TIP3    H1 1674   2.178   5.087   2.145  0.4726  0.9205  0.4493
  570TIP3    H2 1675   2.082   5.042   2.036 -1.8994 -0.7962  3.0936
  571TIP3   OH2 1676   6.602   6.459   1.875 -0.3523 -0.2779  0.3504
  571TIP3    H1 1677   6.640   6.477   1.789 -0.3252  0.9854  0.5965
  571TIP3    H2 1678   6.630   6.534   1.929 -1.7263 -0.2070  1.0104
  572TIP3   OH2 1679   6.500   6.196   1.945  0.0941 -0.8126  0.2754
  572TIP3    H1 1680   6.520   6.219   1.855  1.1926 -2.4859  0.0537
  572TIP3    H2 1681   6.543   6.264   1.997 -0.4401  0.0934 -0.4335
  573TIP3   OH2 1682   1.437   0.149   3.693 -0.0652 -0.0288 -0.2085
  573TIP3    H1 1683   1.413   0.095   3.769  0.3468 -1.4264 -1.0320
  573TIP3    H2 1684   1.359   0.149   3.638  0.2536 -0.6134 -0.6680
  574TIP3   OH2 1685   2.709   1.684   0.474 -0.4453  0.1426  0.4050
  574TIP3    H1 1686   2.683   1.594   0.454 -0.4225  0.0783  0.6674
  574TIP3    H2 1687   2.628   1.734   0.466 -0.7075 -0.0954  1.4482
  575TIP3   OH2 1688   6.204   6.093   4.907  0.5158  0.0481  0.4427
  575TIP3    H1 1689   6.277   6.153   4.917  0.4606  0.0208  1.0474
  575TIP3    H2 1690   6.245   6.008   4.890  0.6076  0.1331  0.2297
  576TIP3   OH2 1691   7.184   3.266   5.505 -0.1984 -0.2941 -0.0053
  576TIP3    H1 1692   7.128   3.316   5.446  1.0846  1.8688  0.4832
  576TIP3    H2 1693   7.210   3.188   5.456 -1.9059 -0.2873 -0.9757
  577TIP3   OH2 1694   1.971   5.884   0.192 -0.1226 -0.3837  0.4963
  577TIP3    H1 1695   1.892   5.930   0.162 -0.5462 -0.4567  1.4588
  577TIP3    H2 1696   1.992   5.824   0.120  1.1077  2.0511 -1.2752
  578TIP3   OH2 1697   2.988   3.454   3.308  0.7088 -0.0221 -0.3914
  578TIP3    H1 1698   3.002   3.496   3.223  0.6754 -0.0783 -0.4247
  578TIP3    H2 1699   2.893   3.446   3.315  0.6848  0.4850 -0.1053
  579TIP3   OH2 1700   3.816   5.154   5.046 -0.0246  0.2022 -0.5839
  579TIP3    H1 1701   3.732   5.199   5.050 -0.6532 -1.0079  0.8658
  579TIP3    H2 1702   3.795   5.064   5.021  1.0119  0.2392 -1.6809
  580TIP3   OH2 1703   0.982   0.069   0.060 -0.3627  0.2425  0.1708
  580TIP3    H1 1704   1.047   0.134   0.034  1.1578 -0.1305  2.6563
  580TIP3    H2 1705   0.899   0.116   0.060  0.4729  1.7928  0.4986
  581TIP3   OH2 1706   5.733   6.124   2.373  0.3994 -0.4095 -0.1710
  581TIP3    H1 1707   5.754   6.068   2.448  1.1567 -0.1579 -0.1841
  581TIP3    H2 1708   5.717   6.063   2.301 -0.4123 -0.6552  0.2128
  582TIP3   OH2 1709   5.328   3.154   3.790  0.0556 -0.3411 -0.5983
  582TIP3    H1 1710   5.284   3.181   3.709 -1.2365  0.0338  0.1924
  582TIP3    H2 1711   5.261   3.165   3.858  0.7949 -1.6032  0.3749
  583TIP3   OH2 1712   6.240   6.115   1.623  0.0403  0.0697  0.1127
  583TIP3    H1 1713   6.312   6.054   1.636 -0.5129 -0.3818  1.1974
  583TIP3    H2 1714   6.170   6.062   1.585  0.5415  0.6922 -1.7741
  584TIP3   OH2 1715   2.236   3.767   1.174 -0.4378 -0.0491 -0.2322
  584TIP3    H1 1716   2.173   3.733   1.110  0.3334 -1.0122 -0.5036
  584TIP3    H2 1717   2.186   3.830   1.225 -1.4966 -0.4264 -0.7620
  585TIP3   OH2 1718   4.297   4.649   1.868 -0.1609  0.0970 -0.5334
  585TIP3    H1 1719   4.315   4.587   1.939 -0.5640  0.9802  0.3529
  585TIP3    H2 1720   4.383   4.668   1.831  0.1266  0.0874  0.1144
  586TIP3   OH2 1721   2.902   3.815   4.077 -0.3570  0.5462 -0.1636
  586TIP3    H1 1722   2.856   3.897   4.061 -0.6845  0.8037  1.8537
  586TIP3    H2 1723   2.869   3.785   4.162  1.4114 -0.5259  0.1951
  587TIP3   OH2 1724   3.018   6.324   2.958  0.4229 -0.2394  0.5713
  587TIP3    H1 1725   3.068   6.288   2.885  0.6933  1.5189 -0.1641
  587TIP3    H2 1726   2.964   6.251   2.989  2.0670 -1.6730  0.1924
  588TIP3   OH2 1727   4.996   3.211   1.485 -0.2200 -0.3962  0.4832
  588TIP3    H1 1728   5.046   3.230   1.564  0.9613  4.0627 -1.0688
  588TIP3    H2 1729   5.061   3.178   1.423  0.3464  2.3181 -0.5089
  589TIP3   OH2 1730   7.007   2.291   2.559  0.9019  0.8847 -0.4731
  589TIP3    H1 1731   6.919   2.258   2.539  0.1082  2.0865  0.7993
  589TIP3    H2 1732   7.057   2.214   2.585 -0.7147  0.5232  1.8291
  590TIP3   OH2 1733   1.728   0.699   3.233  0.3112 -0.8483 -0.5789
  590TIP3    H1 1734   1.732   0.694   3.328 -0.0061  0.2067 -0.4960
  590TIP3    H2 1735   1.634   0.703   3.213  0.3854 -0.7281 -0.9181
  591TIP3   OH2 1736   0.253   3.777   5.497  0.3754  0.0161  0.0600
  591TIP3    H1 1737   0.199   3.700   5.512 -1.3679  1.3074  0.8095
  591TIP3    H2 1738   0.228   3.838   5.568  1.8645  1.1679 -0.3563
  592TIP3   OH2 1739   0.949   1.352   0.013 -0.0454 -0.0064  0.0479
  592TIP3    H1 1740   0.897   1.419   0.057 -0.4697 -0.6333  0.5109
  592TIP3    H2 1741   0.909   1.269   0.039  1.1396 -0.5007  0.3688
  593TIP3   OH2 1742   5.989   1.062   3.210 -0.3009  0.4558 -0.2757
  593TIP3    H1 1743   6.060   1.074   3.273 -0.9577  0.4563  0.4888
  593TIP3    H2 1744   5.974   1.149   3.174 -0.9997  0.8037  0.7838
  594TIP3   OH2 1745   2.512   5.987   0.699  0.6218  0.1755  0.7704
  594TIP3    H1 1746   2.456   6.063   0.683 -0.0136 -0.7407 -1.6839
  594TIP3    H2 1747   2.453   5.921   0.737  0.7933  0.3164  1.2899
  595TIP3   OH2 1748   2.935   6.030   4.058  0.5560 -0.3577 -0.1512
  595TIP3    H1 1749   2.843   6.047   4.037  0.5201  0.3384  0.5301
  595TIP3    H2 1750   2.982   6.106   4.025  0.4154  1.1392  2.7584
  596TIP3   OH2 1751   0.433   4.018   4.948  0.8019 -0.2310 -0.0309
  596TIP3    H1 1752   0.364   3.951   4.946 -0.0895  0.6279 -2.1753
  596TIP3    H2 1753   0.416   4.068   5.027  0.0761 -1.1606  0.4214
  597TIP3   OH2 1754   1.329   0.117   1.816 -0.2805 -0.0341 -0.1544
  597TIP3    H1 1755   1.387   0.163   1.877 -0.8972 -0.2127  0.5929
  597TIP3    H2 1756   1.242   0.153   1.834 -0.4562 -0.0208 -1.0093
  598TIP3   OH2 1757   1.630   1.356   3.658 -0.2202  0.6811  0.5528
  598TIP3    H1 1758   1.555   1.416   3.658  0.0985  1.0860  1.0331
  598TIP3    H2 1759   1.618   1.304   3.738 -0.9843 -0.5325 -0.3150
  599TIP3   OH2 1760   1.271   0.605   0.618 -0.0265 -0.0015  0.2038
  599TIP3    H1 1761   1.249   0.513   0.602  0.3111 -0.1930  0.8065
  599TIP3    H2 1762   1.233   0.624   0.703  0.7160  0.1390  0.5109
  600TIP3   OH2 1763   4.086   3.531   2.204 -0.1847  0.6905 -0.4228
  600TIP3    H1 1764   4.043   3.601   2.154  0.9156  0.2835 -2.0446
  600TIP3    H2 1765   4.073   3.453   2.150  0.7334  0.1506  0.1279
  601TIP3   OH2 1766   0.850   2.066   0.861 -0.3059 -0.3899  0.0533
  601TIP3    H1 1767   0.762   2.057   0.896 -0.5620  1.0015 -0.1952
  601TIP3    H2 1768   0.899   2.113   0.929 -0.4548  1.1267 -0.8460
  602TIP3   OH2 1769   4.750   6.055   1.875  0.4596  0.2005 -0.1211
  602TIP3    H1 1770   4.688   6.082   1.807 -2.0763 -1.2270  1.4424
  602TIP3    H2 1771   4.777   5.967   1.850  1.0603  0.4248 -0.2707
  603TIP3   OH2 1772   2.497   0.625   1.833  0.2077  0.2007  0.3499
  603TIP3    H1 1773   2.490   0.610   1.738  0.7755 -1.3826  0.5313
  603TIP3    H2 1774   2.587   0.655   1.845 -0.5572  2.8489  0.1460
  604TIP3   OH2 1775   4.917   5.831   0.187 -0.2543 -0.1689 -0.3795
  604TIP3    H1 1776   4.914   5.913   0.237  0.5074 -0.8109  0.7431
  604TIP3    H2 1777   4.904   5.762   0.252 -0.0215 -0.9839 -1.1777
  605TIP3   OH2 1778   1.062   4.877   4.174 -0.4339 -0.4471  0.1071
  605TIP3    H1 1779   1.126   4.887   4.104  0.1538  0.6750  0.7609
  605TIP3    H2 1780   1.112   4.839   4.246 -0.5737  0.0738  0.4922
  606TIP3   OH2 1781   1.426   2.224   2.114  1.2021 -0.5042 -0.2674
  606TIP3    H1 1782   1.489   2.295   2.116  1.8215 -1.0504  1.4315
  606TIP3    H2 1783   1.378   2.231   2.196 -1.3949  0.2158 -1.7083
  607TIP3   OH2 1784   1.585   5.279   2.824  0.3184  0.3521 -0.2066
  607TIP3    H1 1785   1.609   5.187   2.814  1.2194  0.2838  1.9355
  607TIP3    H2 1786   1.511   5.277   2.885 -1.3434  0.9442 -2.0968
  608TIP3   OH2 1787   4.911   6.772   0.493  0.0856  0.2163  0.2479
  608TIP3    H1 1788   4.898   6.865   0.472  0.0146  0.2141  0.2816
  608TIP3    H2 1789   4.988   6.747   0.441 -0.5597  0.0070 -0.6379
  609TIP3   OH2 1790   6.951   1.759   2.614 -0.3160 -0.3216  0.2011
  609TIP3    H1 1791   6.963   1.666   2.634  2.4705  0.1906  1.3491
  609TIP3    H2 1792   6.933   1.762   2.520  0.6495 -1.9718 -0.0691
  610TIP3   OH2 1793   0.621   3.379   1.927  0.5344  0.5576  0.2992
  610TIP3    H1 1794   0.647   3.317   1.995 -0.0867  1.2210  1.1427
  610TIP3    H2 1795   0.539   3.343   1.892  1.5564 -0.5425 -1.1033
  611TIP3   OH2 1796   2.129   5.309   0.815 -0.2646  0.1529 -0.1978
  611TIP3    H1 1797   2.101   5.273   0.731 -0.8897 -0.0871  0.1026
  611TIP3    H2 1798   2.131   5.404   0.801 -1.3320  0.1930 -0.2221
  612TIP3   OH2 1799   1.889   0.735   0.796 -0.1001  0.2546  0.0265
  612TIP3    H1 1800   1.920   0.812   0.747 -1.3648  2.0452  1.8602
  612TIP3    H2 1801   1.960   0.671   0.788  0.8100  1.4204 -1.9465
  613TIP3   OH2 1802   2.851   0.805   0.581 -0.7600  0.4203  0.7192
  613TIP3    H1 1803   2.889   0.796   0.669  0.7648  1.4826  0.2213
  613TIP3    H2 1804   2.910   0.866   0.536 -1.2105 -0.4955 -1.2117
  614TIP3   OH2 1805   2.369   6.384   0.135  0.4861 -0.1443  0.1230
  614TIP3    H1 1806   2.283   6.349   0.110  1.7902 -2.6394 -1.2584
  614TIP3    H2 1807   2.349   6.460   0.189 -2.5883  0.2553 -1.3457
  615TIP3   OH2 1808   5.092   4.934   0.017 -0.0496  0.1965  0.1147
  615TIP3    H1 1809   5.166   4.879  -0.008 -0.7338 -0.3085 -0.8505
  615TIP3    H2 1810   5.043   4.881   0.080  0.2731  0.4383  0.5757
  616TIP3   OH2 1811   2.067   3.995   0.787  0.8004  0.1974 -0.3494
  616TIP3    H1 1812   2.097   3.996   0.878  4.4804  3.8486 -1.2611
  616TIP3    H2 1813   2.079   3.905   0.759  1.1613 -0.6757  2.3265
  617TIP3   OH2 1814   1.522   6.447   3.940  0.0796  0.4346  0.8160
  617TIP3    H1 1815   1.449   6.393   3.910 -0.3916  1.3351  0.3078
  617TIP3    H2 1816   1.505   6.534   3.904  1.4967  0.6283  0.5478
  618TIP3   OH2 1817   3.034   2.425   2.178  0.2080 -0.0369  0.1046
  618TIP3    H1 1818   3.060   2.435   2.087 -0.3815  1.8476  0.1029
  618TIP3    H2 1819   2.945   2.388   2.173  0.1757  0.0639 -0.0847
  619TIP3   OH2 1820   3.751   3.901   3.504 -0.2607 -0.0575  0.1115
  619TIP3    H1 1821   3.808   3.844   3.452  1.2468  0.1315  1.4642
  619TIP3    H2 1822   3.662   3.872   3.483  0.3196 -0.4916 -1.9390
  620TIP3   OH2 1823   3.362   1.671   5.857 -0.3383  0.3897 -0.3603
  620TIP3    H1 1824   3.407   1.726   5.921 -0.5217  0.9216 -0.6797
  620TIP3    H2 1825   3.410   1.588   5.858 -0.2431  0.4508  0.3449
  621TIP3   OH2 1826   4.908   1.955   2.187  0.4287  1.2633  0.2901
  621TIP3    H1 1827   4.973   2.013   2.227  0.8277 -0.1037  1.7082
  621TIP3    H2 1828   4.827   1.973   2.235  0.5966  0.5435  0.8575
  622TIP3   OH2 1829   6.544   1.390   0.392 -0.2700  0.1814  0.4627
  622TIP3    H1 1830   6.455   1.426   0.389 -0.7187 -0.8448  0.8220
  622TIP3    H2 1831   6.535   1.309   0.443  0.0740 -2.1464 -2.8732
  623TIP3   OH2 1832   4.392   0.220   1.745 -0.0007  0.8622 -0.0025
  623TIP3    H1 1833   4.339   0.169   1.684 -0.1306  1.1102 -0.1002
  623TIP3    H2 1834   4.481   0.186   1.734  0.3329  2.1335 -1.6844
  624TIP3   OH2 1835   6.963   3.714   0.687 -0.0678 -0.0831 -0.3650
  624TIP3    H1 1836   6.976   3.620   0.672 -1.1437 -0.8867  2.8572
  624TIP3    H2 1837   6.886   3.718   0.744 -1.4880  2.9722 -2.2361
  625TIP3   OH2 1838   0.433   3.878   3.543 -0.5083 -0.1468  0.8229
  625TIP3    H1 1839   0.495   3.818   3.585 -0.9665 -1.3511 -0.1584
  625TIP3    H2 1840   0.352   3.827   3.534 -0.2798 -0.1747 -1.9776
  626TIP3   OH2 1841   3.863   5.143   0.158  0.4877  0.3219  0.7202
  626TIP3    H1 1842   3.805   5.176   0.226  0.6549  0.2504  0.8977
  626TIP3    H2 1843   3.830   5.056   0.138 -0.4338  0.8795 -0.3012
  627TIP3   OH2 1844   0.241   1.686   0.787 -0.2624 -0.3103 -0.0735
  627TIP3    H1 1845   0.165   1.738   0.761  0.8247  1.2333 -0.3553
  627TIP3    H2 1846   0.227   1.667   0.879  0.3398  2.6010  0.7463
  628TIP3   OH2 1847   4.336   6.148   0.423 -0.7420  0.2122 -0.2769
  628TIP3    H1 1848   4.364   6.124   0.511  0.3754 -0.8122 -0.8801
  628TIP3    H2 1849   4.246   6.117   0.417 -1.3241  1.5583  0.9597
  629TIP3   OH2 1850   6.006   0.218   4.532  0.4642  0.5174  0.0324
  629TIP3    H1 1851   5.996   0.181   4.445  0.7771  2.3152 -0.8187
  629TIP3    H2 1852   6.100   0.227   4.544  0.5966 -2.1689  1.7060
  630TIP3   OH2 1853   3.568   1.797   3.145 -0.0783 -0.3573  0.0734
  630TIP3    H1 1854   3.516   1.726   3.109  1.0979 -0.6193 -1.1854
  630TIP3    H2 1855   3.651   1.793   3.098  1.4553 -0.4984  2.5709
  631TIP3   OH2 1856   0.996   2.006   4.526 -0.1229  0.2561  0.0710
  631TIP3    H1 1857   0.941   1.950   4.581  2.3392  0.1465  2.6048
  631TIP3    H2 1858   1.029   1.947   4.458 -0.4948 -0.4696  0.5040
  632TIP3   OH2 1859   3.017   3.990   0.385 -0.3603 -0.4139 -0.0763
  632TIP3    H1 1860   2.980   4.076   0.365  0.3671 -0.1905 -0.5051
  632TIP3    H2 1861   3.038   3.953   0.299 -0.7826 -1.0764  0.0987
  633TIP3   OH2 1862   4.582   3.981   3.689 -0.3074 -0.7430 -0.0460
  633TIP3    H1 1863   4.564   4.075   3.690  0.4558 -0.5888  0.2177
  633TIP3    H2 1864   4.590   3.957   3.781 -1.7531 -1.3410 -0.0444
  634TIP3   OH2 1865   4.857   3.331   1.942  0.5017 -0.0122  0.0308
  634TIP3    H1 1866   4.808   3.264   1.989  0.1699  1.2179  1.5416
  634TIP3    H2 1867   4.818   3.333   1.855 -2.1241  0.8100  1.1177
  635TIP3   OH2 1868   1.671   2.347   5.846  0.2578  0.1369  0.9496
  635TIP3    H1 1869   1.722   2.287   5.902 -1.5570 -1.3488  1.1142
  635TIP3    H2 1870   1.714   2.342   5.761 -0.4228 -2.2777  0.6787
  636TIP3   OH2 1871   5.787   1.917   3.777 -0.0232  0.3192 -0.8900
  636TIP3    H1 1872   5.862   1.869   3.744  0.3215  0.9001 -0.9735
  636TIP3    H2 1873   5.785   1.897   3.871  1.5141  1.9160 -0.4468
  637TIP3   OH2 1874   4.294   2.027   5.817 -0.2074  0.5101  0.2683
  637TIP3    H1 1875   4.373   2.033   5.872 -2.1392  1.3747  3.2039
  637TIP3    H2 1876   4.257   1.941   5.837 -1.2992  1.1106  0.9468
  638TIP3   OH2 1877   4.358   0.006   5.276 -0.7205 -0.5033  0.2021
  638TIP3    H1 1878   4.398   0.059   5.206 -0.6295  0.6600  1.1045
  638TIP3    H2 1879   4.300  -0.055   5.230 -0.6326  0.2111 -0.8929
  639TIP3   OH2 1880   4.800   5.702   5.033 -0.2549  0.0520  0.0767
  639TIP3    H1 1881   4.765   5.753   4.959 -0.7543 -0.3927  0.0004
  639TIP3    H2 1882   4.731   5.707   5.099  0.6286  1.3426  0.9404
  640TIP3   OH2 1883   2.000   2.829   1.805 -0.5100 -0.0894  0.0692
  640TIP3    H1 1884   2.025   2.769   1.875  0.0638  0.2360  0.1519
  640TIP3    H2 1885   1.970   2.772   1.733 -1.5069 -0.4125  0.7137
  641TIP3   OH2 1886   4.326   6.515   2.517 -0.0776  0.3885 -0.0995
  641TIP3    H1 1887   4.252   6.461   2.489  0.6394 -0.6604  0.0197
  641TIP3    H2 1888   4.351   6.563   2.438 -1.8182  1.9137  0.1925
  642TIP3   OH2 1889   6.680   6.444   0.951  0.0107 -0.2269  0.1351
  642TIP3    H1 1890   6.725   6.411   1.029 -0.3039  0.2840  0.5398
  642TIP3    H2 1891   6.734   6.518   0.922  0.0072 -0.2780 -0.0014
  643TIP3   OH2 1892   1.341   3.204   4.519 -0.7125  0.1350  0.1077
  643TIP3    H1 1893   1.341   3.298   4.533  0.2619  0.0334  0.8583
  643TIP3    H2 1894   1.328   3.166   4.606  1.9533 -0.4536  0.3433
  644TIP3   OH2 1895   6.659   0.862   2.787  0.1775  0.5850  0.4957
  644TIP3    H1 1896   6.745   0.851   2.829  0.5114 -0.7127 -0.4719
  644TIP3    H2 1897   6.619   0.775   2.793 -1.0710  1.1699  0.8987
  645TIP3   OH2 1898   6.195   1.893   3.210 -0.2333  0.2836  0.0500
  645TIP3    H1 1899   6.262   1.901   3.278  2.0374 -0.8031 -1.9051
  645TIP3    H2 1900   6.187   1.981   3.173 -0.8071  0.6717  1.0449
  646TIP3   OH2 1901   7.104   3.532   1.124  0.5273 -0.1280  0.4593
  646TIP3    H1 1902   7.056   3.486   1.193  1.6320 -2.1599 -0.0713
  646TIP3    H2 1903   7.066   3.499   1.042  0.9462  0.3545  0.0637
  647TIP3   OH2 1904   1.235   5.688   2.817  0.0097 -0.1973  0.1829
  647TIP3    H1 1905   1.304   5.632   2.781  1.8044  1.1401  1.3691
  647TIP3    H2 1906   1.170   5.695   2.746  1.4110 -0.9666 -1.2341
  648TIP3   OH2 1907   6.802   5.856   0.601  0.7941  0.4776 -0.4332
  648TIP3    H1 1908   6.782   5.767   0.574  0.9894  0.6160 -1.0344
  648TIP3    H2 1909   6.718   5.902   0.598  0.9327  0.6879 -1.5633
  649TIP3   OH2 1910   2.287   0.288   1.609  0.3605  0.4630  0.1062
  649TIP3    H1 1911   2.330   0.371   1.631 -0.5619  1.2065 -0.7874
  649TIP3    H2 1912   2.338   0.222   1.656  2.3463  1.3212 -0.6840
  650TIP3   OH2 1913   1.871   4.912   2.418 -0.2277  0.4532 -0.2725
  650TIP3    H1 1914   1.947   4.856   2.402  0.9938  1.0654  2.6767
  650TIP3    H2 1915   1.893   4.994   2.375 -0.4992 -0.2076 -1.7364
  651TIP3   OH2 1916   1.742   2.211   1.956 -0.2598 -0.3631 -0.3160
  651TIP3    H1 1917   1.750   2.150   1.883  1.5163 -1.1068  0.4219
  651TIP3    H2 1918   1.763   2.158   2.033  0.1004  0.8992  0.4876
  652TIP3   OH2 1919   4.353   1.979   3.808  0.0314 -0.1592 -0.0733
  652TIP3    H1 1920   4.331   2.029   3.729  2.8470 -0.2629 -1.0448
  652TIP3    H2 1921   4.272   1.936   3.832 -1.2742  0.9535 -2.1189
  653TIP3   OH2 1922   3.900   2.315   1.271  0.3053 -0.5885  0.3186
  653TIP3    H1 1923   3.932   2.356   1.191 -0.4051  0.1829  0.4155
  653TIP3    H2 1924   3.976   2.312   1.329  0.5309 -0.0255  0.0534
  654TIP3   OH2 1925   4.379   2.404   3.304 -0.4842  0.0682  0.3291
  654TIP3    H1 1926   4.319   2.349   3.355 -1.1176  0.5896  0.1704
  654TIP3    H2 1927   4.395   2.480   3.360 -1.6327  0.9183 -0.4346
  655TIP3   OH2 1928   6.810   2.585   0.009  0.2365 -0.3926 -0.1095
  655TIP3    H1 1929   6.814   2.678   0.033 -0.0247  0.3415 -2.5907
  655TIP3    H2 1930   6.848   2.539   0.084  1.5841  1.8109  0.6628
  656TIP3   OH2 1931   6.794   4.890   4.667 -0.6112 -0.5033 -0.2709
  656TIP3    H1 1932   6.800   4.982   4.694 -1.3561 -1.0354  1.8768
  656TIP3    H2 1933   6.851   4.844   4.729  1.1468 -1.3496 -2.3852
  657TIP3   OH2 1934   6.853   3.484   5.669 -0.4341 -0.1531  0.4641
  657TIP3    H1 1935   6.862   3.575   5.697 -0.9074 -0.1026  0.4599
  657TIP3    H2 1936   6.932   3.440   5.702 -0.5030  0.1243  0.9951
  658TIP3   OH2 1937   5.508   6.383   0.494 -0.4180 -0.2403  0.1217
  658TIP3    H1 1938   5.540   6.471   0.512 -0.3438 -0.4158  0.9146
  658TIP3    H2 1939   5.587   6.330   0.485 -0.2469  0.3811 -4.2269
  659TIP3   OH2 1940   6.746   4.079   0.628 -0.4119  0.0846 -0.3633
  659TIP3    H1 1941   6.794   4.148   0.583 -0.5078  1.0492  0.9760
  659TIP3    H2 1942   6.700   4.032   0.558  1.6659 -0.2741 -1.5946
  660TIP3   OH2 1943   4.960   4.186   4.506  0.3029  0.0401  1.4627
  660TIP3    H1 1944   4.926   4.198   4.594  1.1937 -0.4002  1.8777
  660TIP3    H2 1945   4.940   4.268   4.461  0.5015  0.5600  2.3015
  661TIP3   OH2 1946   1.718   3.928   3.361  0.2403  0.6828  0.1029
  661TIP3    H1 1947   1.675   3.848   3.331  1.1541 -0.8030  2.4733
  661TIP3    H2 1948   1.688   3.995   3.300 -1.4482 -1.2175 -1.3198
  662TIP3   OH2 1949   5.100   0.077   2.717  0.2372  0.1734 -0.6014
  662TIP3    H1 1950   5.109   0.166   2.682  0.5638 -0.4324 -2.1249
  662TIP3    H2 1951   5.077   0.024   2.641  0.0193 -1.0513  0.2958
  663TIP3   OH2 1952   1.197   1.856   3.248  0.1027  0.0661  0.5708
  663TIP3    H1 1953   1.255   1.926   3.218  1.0590 -0.3384  1.4275
  663TIP3    H2 1954   1.219   1.844   3.340 -0.8456 -0.5983  0.7284
  664TIP3   OH2 1955   1.811   3.792   4.764  0.3093  0.4690 -0.1614
  664TIP3    H1 1956   1.903   3.768   4.754  0.4865  1.4795 -1.0659
  664TIP3    H2 1957   1.801   3.810   4.857  0.6230 -1.1742  0.2267
  665TIP3   OH2 1958   1.396   1.026   5.394 -0.5319  0.3790 -0.3787
  665TIP3    H1 1959   1.429   0.945   5.433 -0.0328  0.5375 -0.4584
  665TIP3    H2 1960   1.474   1.068   5.356 -1.2214 -0.5751 -3.0695
  666TIP3   OH2 1961   1.325   6.280   3.826 -0.4294  0.3284 -0.1256
  666TIP3    H1 1962   1.275   6.216   3.877  0.1210  0.8876  1.1855
  666TIP3    H2 1963   1.267   6.306   3.755 -1.0398 -0.8574 -0.0869
  667TIP3   OH2 1964   4.857   2.447   5.264  0.1248 -0.1139 -0.3670
  667TIP3    H1 1965   4.871   2.403   5.348 -1.1627 -1.4622 -0.8116
  667TIP3    H2 1966   4.853   2.540   5.286 -3.1675 -0.5534  1.5996
  668TIP3   OH2 1967   3.117   4.495   5.870 -0.2378 -0.2128  0.4519
  668TIP3    H1 1968   3.056   4.527   5.935  0.2114  0.6215  0.4765
  668TIP3    H2 1969   3.083   4.526   5.786 -0.3229 -0.5096  0.3733
  669TIP3   OH2 1970   6.784   1.180   3.300  0.0748 -0.0148  0.5396
  669TIP3    H1 1971   6.758   1.120   3.230  0.1420  0.2741  0.2705
  669TIP3    H2 1972   6.833   1.249   3.257  0.5467 -0.0937  0.9323
  670TIP3   OH2 1973   5.091   4.772   1.827 -0.2229  0.6646  0.1963
  670TIP3    H1 1974   5.063   4.822   1.903  0.1778  2.6751 -0.9047
  670TIP3    H2 1975   5.182   4.750   1.844 -0.4907 -0.0108  0.8240
  671TIP3   OH2 1976   4.585   1.238   3.614  0.4700 -0.2332 -0.4750
  671TIP3    H1 1977   4.570   1.316   3.561  1.2279 -0.5841 -1.2204
  671TIP3    H2 1978   4.608   1.272   3.701  1.7364  0.3980 -1.0387
  672TIP3   OH2 1979   0.568   1.942   2.597  0.2328 -0.3822 -0.3664
  672TIP3    H1 1980   0.579   1.862   2.647  2.3515 -1.0540 -1.7711
  672TIP3    H2 1981   0.600   2.011   2.655 -1.0504 -0.5853  0.6264
  673TIP3   OH2 1982   5.108   3.998   3.824 -0.2421 -0.3469  0.1677
  673TIP3    H1 1983   5.147   3.950   3.897  2.4352  2.7278  1.0340
  673TIP3    H2 1984   5.163   3.976   3.749 -0.6537 -0.6311 -0.0532
  674TIP3   OH2 1985   6.610   3.485   4.488 -0.1382 -0.1565 -0.4756
  674TIP3    H1 1986   6.553   3.527   4.553  0.6864  0.3393 -0.0612
  674TIP3    H2 1987   6.605   3.392   4.509 -1.4381 -0.2269 -0.9680
  675TIP3   OH2 1988   7.175   1.690   1.158  0.4129  0.7253 -0.2544
  675TIP3    H1 1989   7.109   1.639   1.111 -0.1208  0.8048  0.4010
  675TIP3    H2 1990   7.150   1.781   1.142 -2.9221  0.9235  4.2868
  676TIP3   OH2 1991   0.895   5.444   4.907  0.0466  0.1906 -0.0243
  676TIP3    H1 1992   0.900   5.503   4.831 -0.4859  1.3641  0.8192
  676TIP3    H2 1993   0.984   5.410   4.917  0.0073 -0.4309 -1.4983
  677TIP3   OH2 1994   6.412   2.047   0.173 -0.0414 -0.1983 -0.4982
  677TIP3    H1 1995   6.380   2.124   0.126 -1.0226  0.1519  0.6885
  677TIP3    H2 1996   6.339   1.985   0.169 -0.0257 -0.2740  0.2878
  678TIP3   OH2 1997   2.717   3.910   1.379  0.1979 -0.4357  0.2690
  678TIP3    H1 1998   2.678   3.865   1.454  0.7877 -0.3850  0.6136
  678TIP3    H2 1999   2.743   3.839   1.320 -1.9856 -0.4337 -0.8021
  679TIP3   OH2 2000   3.014   0.662   0.307  0.4147  0.7759 -0.2104
  679TIP3    H1 2001   2.991   0.746   0.347 -0.3480  0.4706  0.0082
  679TIP3    H2 2002   3.098   0.678   0.265 -0.1558  1.9016 -0.9685
  680TIP3   OH2 2003   7.167   3.895   5.339  0.0004  0.6106 -0.0869
  680TIP3    H1 2004   7.253   3.857   5.323 -0.2673 -0.2230  0.3981
  680TIP3    H2 2005   7.185   3.983   5.371  0.6900  0.2639  0.5108
  681TIP3   OH2 2006   4.838   2.381   5.825  0.0294  0.0784 -0.9323
  681TIP3    H1 2007   4.770   2.343   5.768 -1.0015 -1.1429  0.9838
  681TIP3    H2 2008   4.832   2.475   5.809 -1.2345 -0.1018 -1.7544
  682TIP3   OH2 2009   0.542   1.557   2.082 -0.0337  0.0332 -0.2917
  682TIP3    H1 2010   0.466   1.504   2.057  0.0880 -0.2618 -0.0484
  682TIP3    H2 2011   0.612   1.493   2.096  0.0316  0.2314  0.3073
  683TIP3   OH2 2012   5.234   5.033   3.946  0.3528  0.2883 -0.0210
  683TIP3    H1 2013   5.278   4.961   3.990  1.4689  0.4658 -0.7920
  683TIP3    H2 2014   5.305   5.091   3.918 -0.1720 -0.2781 -2.8535
  684TIP3   OH2 2015   4.557   2.836   4.698 -0.1387  0.4532 -0.2502
  684TIP3    H1 2016   4.551   2.765   4.634 -1.7578 -0.7599  1.1318
  684TIP3    H2 2017   4.471   2.877   4.696 -0.0384  0.7330  0.7639
  685TIP3   OH2 2018   4.068   0.042   1.180  0.0068  0.4669  0.2025
  685TIP3    H1 2019   4.089  -0.017   1.252 -0.2640 -0.5352 -0.5137
  685TIP3    H2 2020   4.153   0.075   1.151  0.3705 -1.0246 -0.5682
  686TIP3   OH2 2021   1.123   1.452   2.290 -0.1533 -0.2995  0.5055
  686TIP3    H1 2022   1.073   1.370   2.291 -0.1700 -0.2963  0.0099
  686TIP3    H2 2023   1.210   1.428   2.323 -0.6686 -0.1739  2.0397
  687TIP3   OH2 2024   2.053   1.661   1.978 -0.2474 -0.2268 -0.2594
  687TIP3    H1 2025   2.067   1.571   2.007 -2.6595 -0.4469  0.3966
  687TIP3    H2 2026   2.112   1.713   2.034  0.5141 -1.3029 -0.0309
  688TIP3   OH2 2027   6.479   6.491   0.533 -0.1124 -0.1338 -0.3925
  688TIP3    H1 2028   6.470   6.534   0.618  1.5683 -0.9596  0.2382
  688TIP3    H2 2029   6.389   6.465   0.510 -0.8241  1.5729  0.3100
  689TIP3   OH2 2030   4.677   6.630   3.914 -0.4970  0.4918  0.2504
  689TIP3    H1 2031   4.654   6.704   3.858 -1.6302  0.3532  0.5004
  689TIP3    H2 2032   4.738   6.578   3.862  0.4579  1.6763  0.1380
  690TIP3   OH2 2033   1.059   5.205   5.672  0.0777  0.2645  0.5470
  690TIP3    H1 2034   1.062   5.157   5.589  0.2539  0.7319  0.2778
  690TIP3    H2 2035   0.966   5.215   5.691  0.0123  0.9315 -0.0610
  691TIP3   OH2 2036   5.117   2.057   2.672  0.6911 -0.2370 -0.2551
  691TIP3    H1 2037   5.139   1.964   2.682  2.4057  0.0691 -0.9121
  691TIP3    H2 2038   5.152   2.099   2.750 -2.9471 -0.5009  1.7332
  692TIP3   OH2 2039   1.844   3.599   4.163 -0.0571  0.1094  0.0993
  692TIP3    H1 2040   1.926   3.591   4.211  0.8090  0.5152 -1.2512
  692TIP3    H2 2041   1.777   3.565   4.223  1.0700 -0.1084  1.2689
  693TIP3   OH2 2042   1.367   0.468   1.853 -0.4015 -0.1720  0.2416
  693TIP3    H1 2043   1.372   0.401   1.921 -1.8840  0.2406  0.8004
  693TIP3    H2 2044   1.285   0.514   1.871 -0.5649  0.2940 -1.5208
  694TIP3   OH2 2045   4.529   3.385   4.529 -0.0403  0.4352 -0.1140
  694TIP3    H1 2046   4.581   3.389   4.448  2.6745  0.9832  1.5425
  694TIP3    H2 2047   4.579   3.327   4.586 -2.0886 -0.2139  1.1011
  695TIP3   OH2 2048   6.082   0.271   0.780 -0.0761 -0.6861 -0.4136
  695TIP3    H1 2049   5.986   0.274   0.783 -0.1035  1.8787 -1.3301
  695TIP3    H2 2050   6.104   0.185   0.816 -2.6753 -1.0393  0.5940
  696TIP3   OH2 2051   4.237   4.605   4.503 -0.8830 -0.0591  0.1643
  696TIP3    H1 2052   4.231   4.689   4.549  1.4817  1.4362 -2.0656
  696TIP3    H2 2053   4.184   4.616   4.424 -0.9180 -0.8558  0.0611
  697TIP3   OH2 2054   4.949   2.830   0.983  0.0853  0.1908 -0.4802
  697TIP3    H1 2055   4.992   2.770   0.922 -3.1000 -0.9094 -1.8722
  697TIP3    H2 2056   4.915   2.901   0.927 -1.2474  0.1585  0.2388
  698TIP3   OH2 2057   2.732   2.840   4.253  0.1683 -0.3744  0.3939
  698TIP3    H1 2058   2.725   2.796   4.338  0.1743 -1.3675 -0.0969
  698TIP3    H2 2059   2.696   2.777   4.190  1.2221 -0.1450 -0.4825
  699TIP3   OH2 2060   6.926   4.461   4.891  0.1769 -0.7166 -0.1689
  699TIP3    H1 2061   6.860   4.396   4.914 -0.2458  0.5056  2.4463
  699TIP3    H2 2062   7.009   4.420   4.913 -0.0335 -0.7190  0.6726
  700TIP3   OH2 2063   4.037   6.532   2.697 -0.4233 -0.9668  0.6108
  700TIP3    H1 2064   3.968   6.534   2.631 -0.4171 -2.5855  0.5111
  700TIP3    H2 2065   4.078   6.446   2.687  2.7306  0.5094 -0.4198
  701TIP3   OH2 2066   3.373   1.234   5.162  0.3277  0.2790  0.4244
  701TIP3    H1 2067   3.466   1.255   5.153  0.6695 -0.7817  1.2650
  701TIP3    H2 2068   3.340   1.228   5.072  1.6148 -1.6177  0.0267
  702TIP3   OH2 2069   6.155   4.716   5.791  0.6236 -0.8067  0.4225
  702TIP3    H1 2070   6.151   4.621   5.780 -2.2420 -0.9892  2.0367
  702TIP3    H2 2071   6.170   4.729   5.885 -1.3722  0.2308  0.6690
  703TIP3   OH2 2072   2.499   2.747   4.781 -0.2273 -0.5988  0.1586
  703TIP3    H1 2073   2.454   2.816   4.830  0.4098  0.2371 -0.4197
  703TIP3    H2 2074   2.511   2.783   4.693 -2.7338 -2.6297 -1.1679
  704TIP3   OH2 2075   3.791   4.355   1.187 -0.1970 -0.0186 -0.3577
  704TIP3    H1 2076   3.757   4.290   1.248  0.2352  0.0923  0.0003
  704TIP3    H2 2077   3.874   4.383   1.225  0.5460 -0.6365 -1.4704
  705TIP3   OH2 2078   2.315   3.879   0.115 -0.4933  0.0652 -0.2895
  705TIP3    H1 2079   2.251   3.831   0.063 -0.3139 -1.5633  0.9228
  705TIP3    H2 2080   2.270   3.896   0.198 -0.4130  1.6832 -0.5466
  706TIP3   OH2 2081   0.454   0.049   2.097 -0.0190  0.1653 -0.1023
  706TIP3    H1 2082   0.519  -0.018   2.117  0.0152 -0.1616 -1.2396
  706TIP3    H2 2083   0.393   0.007   2.037 -0.0964  1.0842 -0.6936
  707TIP3   OH2 2084   2.884   4.684   2.454 -0.3959 -0.3740  0.3363
  707TIP3    H1 2085   2.883   4.773   2.490 -1.7935 -0.8378  1.5310
  707TIP3    H2 2086   2.937   4.634   2.516 -0.1740 -0.5305  0.0256
  708TIP3   OH2 2087   4.268   6.408   4.036  0.6674  0.6773  0.1481
  708TIP3    H1 2088   4.252   6.494   3.997  1.1121  0.9873  0.6245
  708TIP3    H2 2089   4.287   6.427   4.128 -0.7776 -0.0646  0.6298
  709TIP3   OH2 2090   4.051   2.518   0.328 -0.2915 -0.0245  0.4459
  709TIP3    H1 2091   3.988   2.586   0.305  0.7730  0.7150 -0.3772
  709TIP3    H2 2092   4.037   2.450   0.262 -0.4309  0.0006  0.4487
  710TIP3   OH2 2093   5.911   4.637   5.587  0.0537 -0.4081  0.1206
  710TIP3    H1 2094   5.995   4.673   5.559 -1.3323  1.9372 -1.3244
  710TIP3    H2 2095   5.934   4.574   5.655  3.0231 -0.5088 -0.8366
  711TIP3   OH2 2096   0.179   2.231   1.070  0.2587  0.1777 -0.5220
  711TIP3    H1 2097   0.162   2.243   1.163  1.3295 -1.6071 -0.0371
  711TIP3    H2 2098   0.207   2.317   1.038  0.4090  0.6782  0.9148
  712TIP3   OH2 2099   2.285   6.149   3.944 -0.4064 -0.4764  0.2735
  712TIP3    H1 2100   2.190   6.162   3.940 -0.2928  0.6451  0.8526
  712TIP3    H2 2101   2.302   6.078   3.882 -1.5948 -0.5664  0.0203
  713TIP3   OH2 2102   1.613   5.827   1.344  0.0300  0.2097  1.0073
  713TIP3    H1 2103   1.551   5.897   1.366 -0.7058 -0.5477  1.4166
  713TIP3    H2 2104   1.601   5.762   1.413 -0.7611 -1.2420 -0.4233
  714TIP3   OH2 2105   3.035   3.455   5.086  0.1043 -0.5210  0.0726
  714TIP3    H1 2106   3.050   3.429   4.995 -1.7918  1.0551 -0.7609
  714TIP3    H2 2107   3.102   3.521   5.104 -0.4953  0.3379 -0.7519
  715TIP3   OH2 2108   7.017   3.370   3.558 -0.3328 -0.4008 -0.1027
  715TIP3    H1 2109   6.966   3.291   3.572 -1.3422  0.5528  2.1781
  715TIP3    H2 2110   7.045   3.366   3.467 -0.4275 -3.3009 -0.0853
  716TIP3   OH2 2111   7.115   5.166   5.154  0.1576  0.4987  0.4933
  716TIP3    H1 2112   7.129   5.194   5.064  0.4140 -2.9897 -0.7091
  716TIP3    H2 2113   7.196   5.121   5.178 -1.0629 -1.4320  1.2236
  717TIP3   OH2 2114   7.083   2.215   1.039 -0.5127  0.0200 -0.2301
  717TIP3    H1 2115   7.015   2.246   0.979  0.3675 -0.6626 -1.6342
  717TIP3    H2 2116   7.164   2.250   1.002 -0.0527  0.5125  1.2085
  718TIP3   OH2 2117   6.081   3.205   0.236 -0.3906  0.6361 -0.2298
  718TIP3    H1 2118   5.987   3.186   0.240 -0.8035  2.4158 -0.3624
  718TIP3    H2 2119   6.085   3.301   0.242  1.4743  0.5375  0.6756
  719TIP3   OH2 2120   6.493   1.328   3.238 -0.1134 -0.0016 -0.0705
  719TIP3    H1 2121   6.504   1.423   3.245  1.3183 -0.2346  1.4004
  719TIP3    H2 2122   6.539   1.306   3.157 -0.4198  0.5363 -0.4028
  720TIP3   OH2 2123   4.749   2.734   0.688 -0.0839 -0.3376  0.6103
  720TIP3    H1 2124   4.716   2.752   0.600 -0.4928  1.3299  1.0596
  720TIP3    H2 2125   4.756   2.821   0.729 -0.8605 -1.1436  2.5567
  721TIP3   OH2 2126   2.360   5.200   0.074  0.2837 -0.2932 -0.1233
  721TIP3    H1 2127   2.328   5.268   0.134 -0.5307 -0.5368 -0.2592
  721TIP3    H2 2128   2.362   5.243  -0.012 -0.2451 -0.4299 -0.2118
  722TIP3   OH2 2129   0.311   0.977   1.998  0.5190  0.3104 -0.3777
  722TIP3    H1 2130   0.347   0.993   1.911  0.5303  0.1648 -0.4007
  722TIP3    H2 2131   0.222   1.011   1.994  0.5217  0.3094 -0.4446
  723TIP3   OH2 2132   0.090   6.123   4.775  0.3609 -0.3035 -0.5374
  723TIP3    H1 2133   0.004   6.113   4.814  0.5444 -1.2601 -0.3566
  723TIP3    H2 2134   0.148   6.144   4.848  0.3158  0.1835 -0.6369
  724TIP3   OH2 2135   4.622   1.862   0.977 -0.0278  0.0134  0.0059
  724TIP3    H1 2136   4.612   1.820   0.892 -0.1679  0.8383 -0.4005
  724TIP3    H2 2137   4.681   1.805   1.026  0.5642 -0.1429 -0.8725
  725TIP3   OH2 2138   0.487   5.042   4.725  0.0648 -0.0618 -0.1554
  725TIP3    H1 2139   0.505   5.130   4.758  0.9779 -0.8651  1.6049
  725TIP3    H2 2140   0.573   5.007   4.702 -0.0557 -1.1424  0.9304
  726TIP3   OH2 2141   6.598   1.022   0.292 -0.5796 -0.1928  0.3093
  726TIP3    H1 2142   6.667   1.083   0.266  0.0475 -0.7356  0.6473
  726TIP3    H2 2143   6.641   0.936   0.292 -1.3124 -0.5714  0.3306
  727TIP3   OH2 2144   2.488   4.525   1.540 -0.0307 -0.5351  0.2945
  727TIP3    H1 2145   2.578   4.525   1.574 -0.1916 -0.8517  0.7308
  727TIP3    H2 2146   2.449   4.445   1.575 -0.6139 -0.1871  0.4469
  728TIP3   OH2 2147   0.247   1.727   2.154 -0.4981 -0.0786 -0.0460
  728TIP3    H1 2148   0.234   1.702   2.063 -0.1316  2.4373 -0.8456
  728TIP3    H2 2149   0.179   1.678   2.202 -1.4183 -0.5803 -1.7974
  729TIP3   OH2 2150   1.056   3.382   2.138 -0.2972 -0.2633  0.1787
  729TIP3    H1 2151   1.041   3.340   2.054 -1.6118  0.5639 -0.0318
  729TIP3    H2 2152   1.040   3.313   2.203  0.1561 -0.7514 -0.2206
  730TIP3   OH2 2153   4.140   4.094   0.797  0.4649  0.2270  0.1238
  730TIP3    H1 2154   4.108   4.118   0.883 -0.0469  1.4822 -0.4025
  730TIP3    H2 2155   4.071   4.039   0.759 -0.1320  1.1785 -0.1854
  731TIP3   OH2 2156   1.697   0.049   0.507 -0.1516 -0.0462 -0.5388
  731TIP3    H1 2157   1.695   0.144   0.509  0.4260 -0.0382  0.8570
  731TIP3    H2 2158   1.772   0.025   0.561  0.5263 -1.2863 -1.9488
  732TIP3   OH2 2159   2.705   5.093   1.196 -0.1410 -0.3362 -0.1531
  732TIP3    H1 2160   2.766   5.110   1.124  0.5237 -0.9513  0.2478
  732TIP3    H2 2161   2.682   5.000   1.186  0.8108 -0.7253  1.0556
  733TIP3   OH2 2162   2.723   6.542   2.685 -0.1284 -0.3158 -0.0414
  733TIP3    H1 2163   2.683   6.458   2.665 -1.0852  0.4879 -1.6330
  733TIP3    H2 2164   2.755   6.532   2.775 -0.9211 -2.0933  0.0834
  734TIP3   OH2 2165   3.055   5.797   5.277  0.0592  0.1600 -0.4352
  734TIP3    H1 2166   3.041   5.729   5.211  0.5697  0.5826 -0.9906
  734TIP3    H2 2167   3.032   5.755   5.360  0.9705 -0.8984 -0.6966
  735TIP3   OH2 2168   5.723   6.633   5.556  0.1293 -0.0942  0.0326
  735TIP3    H1 2169   5.680   6.639   5.471 -1.7730 -0.7467  0.8999
  735TIP3    H2 2170   5.660   6.669   5.618  0.9581 -0.7853  1.3299
  736TIP3   OH2 2171   0.586   1.289   1.472 -0.4730 -0.2349  0.0767
  736TIP3    H1 2172   0.617   1.379   1.481  2.4564 -1.1642  0.4831
  736TIP3    H2 2173   0.537   1.288   1.389 -0.7801  1.7450  0.1994
  737TIP3   OH2 2174   3.993   4.860   3.509 -0.0256  0.2295  0.6026
  737TIP3    H1 2175   4.021   4.815   3.589  1.6613  1.2900  0.6540
  737TIP3    H2 2176   4.032   4.947   3.515  0.2205  0.3108 -1.4311
  738TIP3   OH2 2177   7.183   4.886   2.744  0.6962 -0.4915  0.0803
  738TIP3    H1 2178   7.227   4.948   2.686 -1.2212  0.3809 -0.5146
  738TIP3    H2 2179   7.165   4.936   2.824  1.3291 -1.0376  0.5807
  739TIP3   OH2 2180   2.112   3.878   3.057  0.1908 -0.5778 -0.3459
  739TIP3    H1 2181   2.071   3.927   2.986 -0.3779 -0.9092 -0.2502
  739TIP3    H2 2182   2.203   3.867   3.029  0.6970  1.6654  0.2256
  740TIP3   OH2 2183   4.900   3.591   1.631 -0.2350  0.9140  0.4377
  740TIP3    H1 2184   4.839   3.602   1.704 -0.6876  1.0355  0.0491
  740TIP3    H2 2185   4.892   3.673   1.581 -0.6332  0.4573 -0.2608
  741TIP3   OH2 2186   3.208   5.109   4.712  0.4998  0.5823 -0.6869
  741TIP3    H1 2187   3.289   5.140   4.753  1.0670  0.5887 -1.7784
  741TIP3    H2 2188   3.188   5.028   4.758  1.3665  0.3648 -0.6750
  742TIP3   OH2 2189   5.717   5.439   1.138  0.3645  0.5487  0.2010
  742TIP3    H1 2190   5.710   5.522   1.092 -0.1414  0.1852 -0.3858
  742TIP3    H2 2191   5.654   5.382   1.095  1.2356 -0.3709  0.1097
  743TIP3   OH2 2192   6.252   2.555   2.432  0.0306 -0.0594  0.0949
  743TIP3    H1 2193   6.194   2.599   2.371  0.5693  0.4855 -0.0250
  743TIP3    H2 2194   6.339   2.590   2.413  0.5336 -1.4424 -0.2595
  744TIP3   OH2 2195   1.009   1.200   0.577 -0.1026 -0.5116 -0.1562
  744TIP3    H1 2196   1.088   1.149   0.597  1.3025  1.6512  0.1723
  744TIP3    H2 2197   0.974   1.226   0.662 -0.5094 -0.4929 -0.3253
  745TIP3   OH2 2198   0.610   5.970   2.996 -0.4187  0.0268 -0.1489
  745TIP3    H1 2199   0.600   6.031   2.923 -1.9573 -1.2750 -1.0816
  745TIP3    H2 2200   0.547   5.901   2.979 -0.8195 -0.3535  2.4133
  746TIP3   OH2 2201   4.851   2.530   4.935  0.3903  0.4249  0.3807
  746TIP3    H1 2202   4.913   2.527   4.862  0.8290 -0.6767  0.7895
  746TIP3    H2 2203   4.854   2.443   4.974 -0.6752  0.6586  1.0321
  747TIP3   OH2 2204   2.797   3.843   1.986 -0.1434  0.1895  0.6238
  747TIP3    H1 2205   2.819   3.828   1.894 -0.3499  0.5178  0.5166
  747TIP3    H2 2206   2.701   3.844   1.987 -0.1400 -0.0199  0.8761
  748TIP3   OH2 2207   3.501   0.082   4.777 -0.1956 -0.4262 -0.5465
  748TIP3    H1 2208   3.533  -0.004   4.805 -1.2213 -0.4869  0.5022
  748TIP3    H2 2209   3.527   0.088   4.685 -2.1305 -2.8832 -1.3758
  749TIP3   OH2 2210   6.390   3.510   5.137  0.1420  0.3191 -0.4834
  749TIP3    H1 2211   6.356   3.444   5.078  0.7880 -2.2844  1.8572
  749TIP3    H2 2212   6.340   3.589   5.116  0.2922 -0.4211 -4.3291
  750TIP3   OH2 2213   6.915   6.451   3.224 -0.3945  0.4499 -0.9566
  750TIP3    H1 2214   7.007   6.454   3.196  0.9802  0.1866  2.8587
  750TIP3    H2 2215   6.906   6.366   3.266 -2.1361  0.8058 -0.5380
  751TIP3   OH2 2216   6.082   1.799   1.467  0.2869 -0.0221  0.4481
  751TIP3    H1 2217   6.099   1.751   1.386  1.2485  0.0321  0.5946
  751TIP3    H2 2218   6.136   1.878   1.460 -0.7733  0.7276  0.4926
  752TIP3   OH2 2219   3.423   0.985   3.218 -0.2086 -0.3604  0.0670
  752TIP3    H1 2220   3.516   0.964   3.214 -0.1259  0.1682 -1.8119
  752TIP3    H2 2221   3.379   0.900   3.212  0.1768 -0.4822 -1.8777
  753TIP3   OH2 2222   6.601   1.451   0.045  0.2198 -0.8111 -0.2603
  753TIP3    H1 2223   6.599   1.417  -0.044  3.1635 -2.8930  0.3241
  753TIP3    H2 2224   6.523   1.415   0.086  0.2424 -2.1070 -1.2863
  754TIP3   OH2 2225   5.249   6.536   0.509  0.1918 -0.5661  0.4379
  754TIP3    H1 2226   5.189   6.482   0.562  0.1900 -0.0515  0.9669
  754TIP3    H2 2227   5.329   6.541   0.561  0.5368 -0.8519 -0.0519
  755TIP3   OH2 2228   5.157   0.042   1.436  0.7109  0.6158  0.0158
  755TIP3    H1 2229   5.184   0.037   1.344 -0.5249  0.7091 -0.3687
  755TIP3    H2 2230   5.064   0.063   1.433  0.6703  0.7168  1.2987
  756TIP3   OH2 2231   3.226   0.914   5.243 -0.7094  0.3162  0.1684
  756TIP3    H1 2232   3.178   0.996   5.230 -0.3706  0.6246  0.8310
  756TIP3    H2 2233   3.317   0.936   5.223 -0.8783 -0.4073 -1.6708
  757TIP3   OH2 2234   6.260   4.784   0.010 -0.1182  0.9744 -0.0371
  757TIP3    H1 2235   6.330   4.755   0.068  0.4754  1.6979 -0.3787
  757TIP3    H2 2236   6.191   4.718   0.021  0.3326  0.6297  0.8216
  758TIP3   OH2 2237   4.274   3.462   0.203 -0.2756 -0.0401 -0.7224
  758TIP3    H1 2238   4.205   3.415   0.156  1.4706 -2.3521 -1.1289
  758TIP3    H2 2239   4.339   3.395   0.224  1.7750  1.9920 -0.1792
  759TIP3   OH2 2240   6.652   4.597   1.905  0.1022 -0.1264  0.0834
  759TIP3    H1 2241   6.688   4.521   1.952 -0.4984 -0.6776 -0.3271
  759TIP3    H2 2242   6.729   4.647   1.878  0.4850 -0.2951  0.8394
  760TIP3   OH2 2243   4.532   6.744   5.667 -0.2232  0.0388 -0.0439
  760TIP3    H1 2244   4.529   6.666   5.611 -1.0237 -0.2660  0.4017
  760TIP3    H2 2245   4.498   6.715   5.751  2.6093  0.0608  1.2078
  761TIP3   OH2 2246   3.134   1.361   3.325 -0.4590  0.2394  0.1505
  761TIP3    H1 2247   3.214   1.324   3.363  0.2458  1.2973 -0.2388
  761TIP3    H2 2248   3.102   1.422   3.392 -0.4757  0.4294 -0.0309
  762TIP3   OH2 2249   0.897   6.215   5.558 -0.1536  0.1078 -0.2305
  762TIP3    H1 2250   0.837   6.228   5.631  0.2788 -0.5935  0.2684
  762TIP3    H2 2251   0.886   6.293   5.503 -0.8606  0.4000  0.3090
  763TIP3   OH2 2252   2.271   2.913   4.767 -0.0834  0.1624  0.2470
  763TIP3    H1 2253   2.290   2.959   4.685 -0.6905 -0.2250 -0.1117
  763TIP3    H2 2254   2.204   2.967   4.809  1.0371  0.9926  1.0535
  764TIP3   OH2 2255   3.181   3.786   2.131 -0.1752 -0.4713 -0.0741
  764TIP3    H1 2256   3.119   3.714   2.117  2.3848 -2.8038 -0.3491
  764TIP3    H2 2257   3.258   3.761   2.080  2.4604  0.2910  3.2049
  765TIP3   OH2 2258   4.557   5.870   3.984  0.4297  0.3259  0.0107
  765TIP3    H1 2259   4.568   5.932   4.056  1.0064  0.7113 -0.4004
  765TIP3    H2 2260   4.465   5.845   3.988  0.7262 -0.5795  1.6193
  766TIP3   OH2 2261   3.418   2.927   5.060 -0.1780  0.4331 -0.3885
  766TIP3    H1 2262   3.478   2.880   5.118  0.0020  1.4597  0.2874
  766TIP3    H2 2263   3.371   2.858   5.014  0.8058 -0.4052 -0.1923
  767TIP3   OH2 2264   0.143   4.049   4.376 -0.2259 -0.2779  0.0999
  767TIP3    H1 2265   0.150   3.988   4.449  0.3147  1.7118  1.8320
  767TIP3    H2 2266   0.231   4.053   4.339 -0.2582 -0.5276 -0.0050
  768TIP3   OH2 2267   2.050   0.128   1.566 -0.2711  0.0545  0.1328
  768TIP3    H1 2268   2.100   0.201   1.601  0.3317 -1.0846  1.7949
  768TIP3    H2 2269   1.964   0.165   1.546  0.4735  1.5160 -0.4763
  769TIP3   OH2 2270   6.886   4.468   1.709 -0.0344  0.4073  0.2039
  769TIP3    H1 2271   6.889   4.555   1.668  0.1070  1.3351  2.0741
  769TIP3    H2 2272   6.953   4.471   1.777 -0.2210 -1.0950  0.4879
  770TIP3   OH2 2273   5.798   0.319   0.528 -0.4701 -0.2534 -0.5870
  770TIP3    H1 2274   5.797   0.320   0.624 -2.2662 -1.1757 -0.5564
  770TIP3    H2 2275   5.886   0.288   0.505 -0.3728 -1.0682  0.7837
  771TIP3   OH2 2276   3.438   2.181   0.171  0.3473 -0.0318 -0.4145
  771TIP3    H1 2277   3.358   2.129   0.185 -0.3763  0.4832 -2.3351
  771TIP3    H2 2278   3.421   2.263   0.218  0.4141 -0.4914  0.4484
  772TIP3   OH2 2279   5.444   0.419   5.076 -0.3323 -0.2177  0.0226
  772TIP3    H1 2280   5.421   0.472   5.152  0.1329 -0.1906  0.1500
  772TIP3    H2 2281   5.389   0.341   5.083 -0.3860 -0.1534  0.3188
  773TIP3   OH2 2282   0.317   4.120   3.050 -0.2099 -0.1141 -0.0418
  773TIP3    H1 2283   0.264   4.045   3.026  0.6886 -0.7301 -0.1490
  773TIP3    H2 2284   0.288   4.190   2.991  1.1035 -1.2538 -2.1777
  774TIP3   OH2 2285   5.412   5.749   0.701  0.6526 -0.1234 -0.0347
  774TIP3    H1 2286   5.431   5.698   0.780  0.4159 -1.0125 -0.5367
  774TIP3    H2 2287   5.318   5.762   0.703  0.6583 -0.0680 -0.1282
  775TIP3   OH2 2288   4.642   5.363   5.070 -0.3270 -0.3400 -0.3239
  775TIP3    H1 2289   4.599   5.447   5.090  0.3873 -0.2254  0.8201
  775TIP3    H2 2290   4.653   5.365   4.975 -0.4374  0.8105 -0.3347
  776TIP3   OH2 2291   4.707   3.334   2.190 -0.1898  0.1499 -0.0241
  776TIP3    H1 2292   4.646   3.385   2.243 -0.7813 -1.4537  0.9249
  776TIP3    H2 2293   4.651   3.291   2.125  0.0050 -0.7207  0.3635
  777TIP3   OH2 2294   3.473   2.296   4.563 -0.4354  0.3725  0.0486
  777TIP3    H1 2295   3.527   2.374   4.554 -0.0821  0.0372 -0.9257
  777TIP3    H2 2296   3.457   2.268   4.473 -1.6331  0.0511  0.3528
  778TIP3   OH2 2297   2.543   3.820   2.334  0.8622  0.4281 -0.0448
  778TIP3    H1 2298   2.562   3.727   2.322 -0.7431  0.0537  0.0140
  778TIP3    H2 2299   2.500   3.847   2.252  0.0182  0.7285  0.4780
  779TIP3   OH2 2300   0.849   1.518   5.285 -0.6366 -0.2943 -0.4368
  779TIP3    H1 2301   0.858   1.439   5.337 -1.3799 -0.2285 -0.1899
  779TIP3    H2 2302   0.853   1.488   5.194 -0.7479 -0.5911 -0.3425
  780TIP3   OH2 2303   2.343   1.582   4.603 -0.0573 -0.3470 -0.5417
  780TIP3    H1 2304   2.307   1.517   4.663 -0.9380 -0.5606 -1.2799
  780TIP3    H2 2305   2.297   1.567   4.520 -2.0499  2.7203 -0.1346
  781TIP3   OH2 2306   4.018   3.785   2.069 -0.4390 -0.1256 -0.2476
  781TIP3    H1 2307   3.974   3.818   1.990 -0.2316 -1.0150 -0.7435
  781TIP3    H2 2308   4.005   3.855   2.134 -0.6900  0.5797 -1.0337
  782TIP3   OH2 2309   4.767   3.163   3.917 -0.4365 -0.6449  0.1353
  782TIP3    H1 2310   4.819   3.183   3.995 -0.9101  0.0958  0.2687
  782TIP3    H2 2311   4.765   3.067   3.914 -0.9596 -0.6963  1.4127
  783TIP3   OH2 2312   5.538   2.789   1.856 -0.1491  0.0421 -0.4484
  783TIP3    H1 2313   5.534   2.875   1.898 -1.1098 -1.0009  1.7153
  783TIP3    H2 2314   5.473   2.794   1.786 -0.3644  1.0046 -0.1932
  784TIP3   OH2 2315   0.529   0.506   2.031  0.3338  0.4494 -0.3634
  784TIP3    H1 2316   0.546   0.457   2.111 -0.5103  1.0830  0.2302
  784TIP3    H2 2317   0.609   0.556   2.015  0.4893  0.3547  0.1156
  785TIP3   OH2 2318   2.495   3.598   5.889  0.0681  0.1581  0.1149
  785TIP3    H1 2319   2.576   3.600   5.939  0.0582 -0.2463  0.1498
  785TIP3    H2 2320   2.516   3.548   5.810  0.1114  0.8790 -0.3409
  786TIP3   OH2 2321   1.115   6.646   3.876 -0.8003  0.4283  0.1195
  786TIP3    H1 2322   1.107   6.556   3.907 -1.1259 -0.8794 -3.3153
  786TIP3    H2 2323   1.031   6.665   3.835  0.2391  1.1133 -1.8431
  787TIP3   OH2 2324  -0.004   4.795   3.543  0.0143  0.2928  0.2073
  787TIP3    H1 2325   0.075   4.741   3.549 -0.0833  0.2952  3.0174
  787TIP3    H2 2326   0.029   4.885   3.540  0.1286  0.2610  0.4955
  788TIP3   OH2 2327   7.070   3.023   5.169 -0.1846 -0.8049 -0.1406
  788TIP3    H1 2328   6.981   3.056   5.184  0.7732  1.0879  1.9369
  788TIP3    H2 2329   7.107   3.085   5.105 -0.9302 -2.8411 -2.7340
  789TIP3   OH2 2330   5.878   4.804   5.860 -0.1293 -0.2919  0.2647
  789TIP3    H1 2331   5.863   4.715   5.894  1.1476 -0.5407  0.2478
  789TIP3    H2 2332   5.953   4.794   5.801 -2.0966  0.1803 -2.5104
  790TIP3   OH2 2333   3.071   1.170   5.741  0.3665  0.1632  0.2811
  790TIP3    H1 2334   3.029   1.086   5.760 -0.5280  0.2726 -1.0774
  790TIP3    H2 2335   3.069   1.176   5.646  2.9024  0.4939  0.1972
  791TIP3   OH2 2336   1.524   6.134   0.628  0.1332 -0.2933  0.6030
  791TIP3    H1 2337   1.440   6.130   0.582  0.1432  0.5927  0.4850
  791TIP3    H2 2338   1.557   6.044   0.626  0.0678 -0.3111 -1.0133
  792TIP3   OH2 2339   5.468   1.959   1.662 -0.4383  0.1127 -0.1806
  792TIP3    H1 2340   5.400   1.892   1.663  0.0496 -0.5025 -2.1346
  792TIP3    H2 2341   5.548   1.911   1.637  0.0299  1.3015 -1.0927
  793TIP3   OH2 2342   0.252   1.351   3.939 -0.0784  0.0826 -0.0951
  793TIP3    H1 2343   0.243   1.446   3.935 -1.6055 -0.0429 -0.2194
  793TIP3    H2 2344   0.223   1.327   4.027 -0.4395 -0.3271 -0.3183
  794TIP3   OH2 2345   2.658   0.061   3.126  0.6713 -0.0032 -0.2137
  794TIP3    H1 2346   2.696   0.078   3.213  1.0458  1.0982 -0.5676
  794TIP3    H2 2347   2.646  -0.033   3.123  1.4229 -0.1486  0.7277
  795TIP3   OH2 2348   4.055   2.957   0.283  0.0757 -0.2307  0.6541
  795TIP3    H1 2349   4.020   2.943   0.372 -2.3974 -1.8161 -0.4353
  795TIP3    H2 2350   4.118   2.886   0.271  1.3607  0.7314  1.5411
  796TIP3   OH2 2351   2.151   1.268   0.269  0.2578  0.5466 -0.2847
  796TIP3    H1 2352   2.060   1.245   0.288  0.0116  0.2894 -1.6767
  796TIP3    H2 2353   2.178   1.205   0.202  1.5926  0.3794  0.3769
  797TIP3   OH2 2354   1.487   5.647   2.143 -0.2537  0.2325  0.8922
  797TIP3    H1 2355   1.434   5.577   2.104  0.4875 -0.5410  1.2210
  797TIP3    H2 2356   1.576   5.628   2.114  0.1480  0.2873  2.0418
  798TIP3   OH2 2357   0.761   3.588   3.282  0.3469  0.0352 -0.6002
  798TIP3    H1 2358   0.843   3.574   3.234  0.2490  0.5875 -0.9348
  798TIP3    H2 2359   0.777   3.550   3.369  0.8163 -0.2171 -0.7940
  799TIP3   OH2 2360   5.831   5.327   5.511  0.0334 -0.4177 -0.5841
  799TIP3    H1 2361   5.798   5.336   5.421  0.3669 -1.1072 -0.7833
  799TIP3    H2 2362   5.850   5.234   5.520  0.8527 -0.2112 -0.0929
  800TIP3   OH2 2363   7.195   6.040   2.352 -0.4543 -0.1507 -0.3002
  800TIP3    H1 2364   7.141   6.017   2.277 -0.0858 -0.0867 -0.5862
  800TIP3    H2 2365   7.150   6.115   2.392  0.4872  1.2296 -1.7205
  801TIP3   OH2 2366   1.351   1.083   1.114 -0.1820  0.3776  0.3024
  801TIP3    H1 2367   1.402   1.035   1.049  1.2761  1.1975  0.8044
  801TIP3    H2 2368   1.405   1.159   1.136 -0.6541  0.1570  2.4212
  802TIP3   OH2 2369   3.908   3.636   1.261  0.0011 -0.4530  0.4264
  802TIP3    H1 2370   3.826   3.646   1.310  0.1429  0.0477  0.5669
  802TIP3    H2 2371   3.893   3.686   1.181 -1.2024 -3.3328 -1.3067
  803TIP3   OH2 2372   6.841   2.529   1.629  0.1437 -0.6264  0.4061
  803TIP3    H1 2373   6.909   2.560   1.569 -0.4361  0.5785  0.3354
  803TIP3    H2 2374   6.774   2.491   1.572  0.5904 -1.5056  0.4537
  804TIP3   OH2 2375   4.574   4.500   3.831 -0.4762 -0.1051 -0.1233
  804TIP3    H1 2376   4.647   4.547   3.869  0.0143 -0.6906 -0.3263
  804TIP3    H2 2377   4.500   4.521   3.888  0.3448 -1.3503  1.4864
  805TIP3   OH2 2378   5.174   4.995   3.062 -0.9482 -0.5063 -0.1426
  805TIP3    H1 2379   5.225   5.058   3.111  2.3088 -3.1833  0.2819
  805TIP3    H2 2380   5.143   4.933   3.128 -2.1537 -0.6284 -0.7857
  806TIP3   OH2 2381   7.237   2.463   0.521 -0.3761  0.9336 -0.8027
  806TIP3    H1 2382   7.229   2.548   0.566 -1.6997  0.0197  0.8259
  806TIP3    H2 2383   7.153   2.420   0.537  0.9111 -1.4488  0.0927
  807TIP3   OH2 2384   5.506   5.039   0.482 -0.0748 -0.1538  0.0234
  807TIP3    H1 2385   5.429   5.096   0.484 -0.4020 -0.6134  0.8370
  807TIP3    H2 2386   5.528   5.024   0.574 -1.7093 -3.5907 -0.0155
  808TIP3   OH2 2387   5.845   5.813   0.531 -0.1755  0.2773 -0.3912
  808TIP3    H1 2388   5.776   5.790   0.470 -1.0713 -1.5383  1.1886
  808TIP3    H2 2389   5.821   5.899   0.564 -0.3971  0.6794 -1.5816
  809TIP3   OH2 2390   5.577   4.555   3.993 -0.0178 -0.3125  0.2425
  809TIP3    H1 2391   5.660   4.563   3.947 -0.0834 -0.1598  0.1509
  809TIP3    H2 2392   5.521   4.504   3.933 -0.2504  0.2755 -0.0463
  810TIP3   OH2 2393   6.804   3.974   0.863 -0.1418  0.1161  0.0449
  810TIP3    H1 2394   6.769   3.884   0.857 -1.1434  0.5140 -0.3240
  810TIP3    H2 2395   6.793   4.010   0.776 -0.1540  0.7432  0.3009
  811TIP3   OH2 2396   6.179   1.127   2.032  0.2154 -0.7266  0.5594
  811TIP3    H1 2397   6.196   1.036   2.009 -1.1305 -0.7443 -0.5234
  811TIP3    H2 2398   6.235   1.144   2.108  0.6522 -2.3725  0.6431
  812TIP3   OH2 2399   0.367   5.355   2.738 -0.1646  0.0212  0.1312
  812TIP3    H1 2400   0.334   5.363   2.827 -2.4562 -0.8724 -0.5530
  812TIP3    H2 2401   0.427   5.429   2.727 -1.4493  1.3822  1.7381
  813TIP3   OH2 2402   4.794   4.001   4.982  0.6995 -0.3965 -0.5163
  813TIP3    H1 2403   4.736   3.926   4.972 -1.5405  0.7730  2.2197
  813TIP3    H2 2404   4.875   3.965   5.017 -0.1525 -1.6079  0.2915
  814TIP3   OH2 2405   4.798   6.046   4.427  0.5203  0.2020 -0.4366
  814TIP3    H1 2406   4.818   6.089   4.510  0.7329  1.1228 -0.9533
  814TIP3    H2 2407   4.861   6.083   4.364  1.4001 -1.6132 -0.6956
  815TIP3   OH2 2408   6.792   1.825   4.326 -0.6149 -0.0671 -0.4148
  815TIP3    H1 2409   6.756   1.887   4.390 -0.5387 -2.4563  2.1729
  815TIP3    H2 2410   6.716   1.791   4.280 -0.8931  0.2196 -0.1755
  816TIP3   OH2 2411   0.455   6.721   1.685  0.1470 -0.0732  0.0189
  816TIP3    H1 2412   0.544   6.755   1.673  0.1280 -0.3038 -0.8337
  816TIP3    H2 2413   0.450   6.646   1.626 -0.0009 -1.2272  1.4414
  817TIP3   OH2 2414   6.020   4.390   2.035  0.3466  0.2082 -0.0205
  817TIP3    H1 2415   6.087   4.459   2.033 -1.5332  2.2301  1.4498
  817TIP3    H2 2416   6.032   4.346   2.119 -0.6952  1.2203  0.6910
  818TIP3   OH2 2417   4.656   1.400   5.227 -0.2448  0.4035  0.0366
  818TIP3    H1 2418   4.585   1.362   5.176 -0.1896  2.2718 -1.5857
  818TIP3    H2 2419   4.733   1.394   5.169  0.5136  0.0474  1.0424
  819TIP3   OH2 2420   5.162   5.607   5.168 -0.5205 -0.0207  0.3199
  819TIP3    H1 2421   5.089   5.547   5.152  0.2873 -0.6222 -1.3813
  819TIP3    H2 2422   5.228   5.582   5.104  0.6767  1.3570  0.9543
  820TIP3   OH2 2423   3.349   6.782   1.409 -0.6605  0.0652 -0.3090
  820TIP3    H1 2424   3.286   6.797   1.480 -3.2918  0.7650 -2.6281
  820TIP3    H2 2425   3.361   6.687   1.407  1.8464  0.1272  2.8278
  821TIP3   OH2 2426   1.045   3.865   2.061 -0.5100 -0.3982 -0.5187
  821TIP3    H1 2427   0.956   3.836   2.038 -0.3530 -2.6158  1.2972
  821TIP3    H2 2428   1.090   3.785   2.087  1.0448  1.0959  1.6988
  822TIP3   OH2 2429   2.575   0.929   5.836  0.1574 -0.5483 -0.6792
  822TIP3    H1 2430   2.624   0.992   5.889 -2.5965  0.9254  0.3019
  822TIP3    H2 2431   2.626   0.848   5.844  1.3038  0.2827  2.0513
  823TIP3   OH2 2432   1.745   6.555   3.668  0.2196  0.0635 -0.2249
  823TIP3    H1 2433   1.755   6.614   3.743  1.9602  0.5479 -0.7838
  823TIP3    H2 2434   1.780   6.605   3.593 -0.8814 -0.6424 -1.2505
  824TIP3   OH2 2435   5.708   0.655   5.903  0.3282  0.5567  0.4119
  824TIP3    H1 2436   5.643   0.690   5.843  0.4025 -1.4001 -0.9036
  824TIP3    H2 2437   5.781   0.627   5.847 -0.1099 -2.4675  1.1444
  825TIP3   OH2 2438   7.076   3.557   3.760 -0.0795  0.1652 -0.2055
  825TIP3    H1 2439   7.065   3.512   3.676  2.8167  0.1135 -0.6641
  825TIP3    H2 2440   7.164   3.534   3.788 -0.1062  2.0732  1.7043
  826TIP3   OH2 2441   4.536   4.825   2.538 -0.2163 -0.5277  0.2758
  826TIP3    H1 2442   4.446   4.820   2.568 -0.1290 -1.2721  0.4359
  826TIP3    H2 2443   4.529   4.832   2.442 -0.5150  2.5632  0.4324
  827TIP3   OH2 2444   2.948   0.492   2.340 -0.3411  0.4272 -0.1863
  827TIP3    H1 2445   2.860   0.522   2.364 -0.7877  0.4869 -1.7246
  827TIP3    H2 2446   2.936   0.399   2.319 -0.1771  0.5738 -0.9616
  828TIP3   OH2 2447   2.879   0.668   4.255 -0.2393 -0.1511 -0.1675
  828TIP3    H1 2448   2.874   0.711   4.340  2.1437 -1.1142  0.5593
  828TIP3    H2 2449   2.958   0.705   4.214 -1.4421  0.4381 -2.0809
  829TIP3   OH2 2450   4.717   4.017   2.914 -0.8965  0.0896 -0.1607
  829TIP3    H1 2451   4.706   4.008   3.009 -0.4605 -2.7510 -0.2874
  829TIP3    H2 2452   4.689   3.932   2.879  1.5774  0.0378 -2.3043
  830TIP3   OH2 2453   5.884   4.099   2.854  0.0113  0.1107 -0.2509
  830TIP3    H1 2454   5.971   4.123   2.887  0.3872 -0.0270 -1.1164
  830TIP3    H2 2455   5.893   4.103   2.759 -1.4287  1.9175 -0.3682
  831TIP3   OH2 2456   1.305   2.799   2.202 -0.6115  0.0100  0.0979
  831TIP3    H1 2457   1.280   2.710   2.229  1.6007 -0.4128  0.9675
  831TIP3    H2 2458   1.386   2.787   2.153 -0.8767  1.4668 -0.7369
  832TIP3   OH2 2459   5.044   3.865   2.811 -0.4909  0.0566 -0.3123
  832TIP3    H1 2460   5.061   3.839   2.902  1.0539 -2.4226 -1.1975
  832TIP3    H2 2461   4.981   3.800   2.779 -0.2641  0.2867 -1.2666
  833TIP3   OH2 2462   1.513   5.839   5.844  0.1590 -0.5459 -0.5711
  833TIP3    H1 2463   1.462   5.759   5.855 -0.2894 -0.0177  1.8633
  833TIP3    H2 2464   1.473   5.901   5.905  1.5997  0.9782 -1.0973
  834TIP3   OH2 2465   0.825   4.310   4.831 -0.2787  0.2516 -0.1909
  834TIP3    H1 2466   0.858   4.274   4.748 -1.4804 -0.1477 -0.5074
  834TIP3    H2 2467   0.751   4.255   4.854  1.3344 -1.0717  2.3499
  835TIP3   OH2 2468   5.220   6.386   1.057  0.2789  0.1319 -0.0104
  835TIP3    H1 2469   5.290   6.428   1.108  0.3952 -1.9295  1.6746
  835TIP3    H2 2470   5.267   6.325   1.000 -0.0684 -0.8978  0.7728
  836TIP3   OH2 2471   4.438   2.764   2.710  0.0873  0.6644  0.0589
  836TIP3    H1 2472   4.418   2.857   2.720  0.7093  0.7541  0.6367
  836TIP3    H2 2473   4.522   2.763   2.663  0.2074  0.4146  0.2742
  837TIP3   OH2 2474   2.407   2.941   2.157  0.1651  0.2743 -0.4095
  837TIP3    H1 2475   2.484   2.997   2.150  0.2853  0.3294  1.0442
  837TIP3    H2 2476   2.335   3.002   2.176 -0.3274  0.2546 -2.0184
  838TIP3   OH2 2477   0.671   1.954   0.220 -0.0134  0.0531 -0.1827
  838TIP3    H1 2478   0.698   2.039   0.253 -0.9312  0.4938 -0.5520
  838TIP3    H2 2479   0.706   1.891   0.284  1.9463  0.5677 -0.6622
  839TIP3   OH2 2480   4.643   6.631   3.459 -0.4019 -0.6474 -0.4242
  839TIP3    H1 2481   4.555   6.614   3.493 -1.5807  1.0357 -2.3380
  839TIP3    H2 2482   4.689   6.674   3.531 -1.3676 -0.9684  0.4133
  840TIP3   OH2 2483   3.081   0.120   0.899 -0.1288  0.0160  0.0584
  840TIP3    H1 2484   3.127   0.203   0.912 -0.6252  0.3122 -0.0705
  840TIP3    H2 2485   3.125   0.080   0.824 -0.7869  0.8007 -0.7554
  841TIP3   OH2 2486   7.179   3.339   2.632 -0.0312 -0.0538 -0.2320
  841TIP3    H1 2487   7.111   3.272   2.629 -1.1846  1.1049 -0.8110
  841TIP3    H2 2488   7.260   3.292   2.611 -0.7882 -1.2801 -0.5006
  842TIP3   OH2 2489   3.011   4.262   0.090  0.6215  0.2692  0.3634
  842TIP3    H1 2490   3.037   4.203   0.019  0.0155  0.2081  0.1816
  842TIP3    H2 2491   3.066   4.339   0.078  0.7227  0.1434 -0.0018
  843TIP3   OH2 2492   2.814   1.588   2.642  0.1763  0.1649  0.0250
  843TIP3    H1 2493   2.844   1.631   2.722  0.3275  0.3658 -0.1396
  843TIP3    H2 2494   2.803   1.659   2.579  1.5779 -0.1473 -0.6092
  844TIP3   OH2 2495   2.319   3.262   5.703  0.5034  0.8574 -0.1050
  844TIP3    H1 2496   2.395   3.209   5.730  0.2913  1.1449  1.1463
  844TIP3    H2 2497   2.244   3.212   5.734  0.2718  1.5169  0.4175
  845TIP3   OH2 2498   1.986   2.576   5.171 -0.2256  0.1356  0.0689
  845TIP3    H1 2499   1.946   2.525   5.100 -0.7519 -1.2022  1.2741
  845TIP3    H2 2500   2.076   2.591   5.141 -0.0211 -1.6083 -0.3057
  846TIP3   OH2 2501   4.088   1.496   2.249 -0.5264  0.0395  0.0938
  846TIP3    H1 2502   4.022   1.540   2.302 -0.7222  0.1124 -0.2095
  846TIP3    H2 2503   4.171   1.522   2.288 -0.6909 -0.5333  0.8506
  847TIP3   OH2 2504   4.958   1.991   0.797 -0.9671 -0.3767 -0.0607
  847TIP3    H1 2505   4.901   2.033   0.733 -1.6918 -0.8503  0.2526
  847TIP3    H2 2506   5.045   2.026   0.779 -0.8132 -1.7899 -2.4228
  848TIP3   OH2 2507   2.796   5.900   2.430  0.4120 -0.0551  0.1664
  848TIP3    H1 2508   2.845   5.977   2.459  0.4726  0.0738 -0.2664
  848TIP3    H2 2509   2.707   5.932   2.417 -0.0387 -0.5086  1.9116
  849TIP3   OH2 2510   6.853   4.316   5.550 -0.1650  0.8775  0.0077
  849TIP3    H1 2511   6.902   4.304   5.469 -0.6594  3.5040 -0.7764
  849TIP3    H2 2512   6.781   4.255   5.544 -0.4491  1.3366 -1.7988
  850TIP3   OH2 2513   6.825   3.763   2.439  0.2990 -0.1916 -0.5366
  850TIP3    H1 2514   6.736   3.727   2.442  0.1611  0.1884  0.4802
  850TIP3    H2 2515   6.855   3.759   2.530  1.4690 -0.6505 -0.9221
  851TIP3   OH2 2516   7.125   4.142   1.982 -0.0500  0.1507 -0.4453
  851TIP3    H1 2517   7.134   4.114   2.073 -0.5537 -1.0640 -0.7490
  851TIP3    H2 2518   7.215   4.141   1.948  0.3623  2.1346  0.4207
  852TIP3   OH2 2519   0.300   6.619   3.647 -0.0549 -0.0866 -0.1089
  852TIP3    H1 2520   0.306   6.687   3.715 -1.0528 -0.2155  0.1137
  852TIP3    H2 2521   0.268   6.665   3.570  1.2862  0.1050 -0.5893
  853TIP3   OH2 2522   6.535   6.759   1.064  0.0801 -0.0544  0.0719
  853TIP3    H1 2523   6.476   6.767   1.139  0.8049 -1.2486  0.8156
  853TIP3    H2 2524   6.602   6.697   1.094  1.7267  1.2652 -0.7235
  854TIP3   OH2 2525   2.316   6.119   2.607 -0.0124  0.2181  0.5987
  854TIP3    H1 2526   2.290   6.074   2.527  2.5170 -1.9211  0.8676
  854TIP3    H2 2527   2.271   6.072   2.677 -0.1002  0.3749  0.6499
  855TIP3   OH2 2528   3.640   3.128   4.967 -1.0211  0.4631  0.0966
  855TIP3    H1 2529   3.622   3.033   4.967 -0.0790  0.2748 -0.0791
  855TIP3    H2 2530   3.637   3.153   4.875  1.5890  0.0077 -0.1837
  856TIP3   OH2 2531   3.403   6.524   1.504  0.4928 -0.3301 -0.1813
  856TIP3    H1 2532   3.433   6.541   1.594 -1.9937  0.7385  0.5075
  856TIP3    H2 2533   3.436   6.436   1.485  0.2971 -0.9797  2.1426
  857TIP3   OH2 2534   7.191   4.309   4.845 -0.1996 -0.3395 -0.2106
  857TIP3    H1 2535   7.184   4.241   4.777 -2.2355 -0.2342 -0.1712
  857TIP3    H2 2536   7.243   4.378   4.805 -0.9165 -0.5111 -1.5114
  858TIP3   OH2 2537   4.329   1.608   5.774  0.1138 -0.1901 -0.7561
  858TIP3    H1 2538   4.246   1.647   5.748 -2.2175 -3.4512  1.0969
  858TIP3    H2 2539   4.357   1.658   5.850 -1.5898 -0.6218  0.1899
  859TIP3   OH2 2540   2.346   5.695   3.621  0.0061  0.0992  0.4450
  859TIP3    H1 2541   2.331   5.606   3.589 -0.4016  0.6637 -1.0115
  859TIP3    H2 2542   2.356   5.747   3.541 -0.1334  1.4254  1.2753
  860TIP3   OH2 2543   1.176   5.757   4.712 -0.0908 -0.1540 -0.0780
  860TIP3    H1 2544   1.182   5.834   4.769 -1.4458 -0.8088  1.0218
  860TIP3    H2 2545   1.267   5.736   4.690  0.2738  2.3178 -1.2348
  861TIP3   OH2 2546   4.676   3.780   2.070  0.4633  0.2594  0.0668
  861TIP3    H1 2547   4.702   3.717   2.002  1.3189 -0.8843  1.3993
  861TIP3    H2 2548   4.717   3.862   2.043 -0.0093  0.0791 -1.2848
  862TIP3   OH2 2549   1.118   5.906   4.484  0.2428  0.2183  0.0487
  862TIP3    H1 2550   1.114   5.840   4.553 -1.5116 -0.9625 -1.1001
  862TIP3    H2 2551   1.171   5.865   4.415 -3.1064 -1.3368 -1.8492
  863TIP3   OH2 2552   2.723   6.475   5.340 -0.0778  0.4473  0.6464
  863TIP3    H1 2553   2.806   6.454   5.383  0.5360  2.0111  0.2917
  863TIP3    H2 2554   2.656   6.439   5.399  0.8155 -0.4333  1.1694
  864TIP3   OH2 2555   3.860   1.544   1.908  0.5157  0.2647 -0.5967
  864TIP3    H1 2556   3.892   1.516   1.823  1.7775  1.9527 -0.7051
  864TIP3    H2 2557   3.810   1.468   1.940  0.0780 -0.4295 -2.7653
  865TIP3   OH2 2558   2.990   5.951   0.602 -0.8977  0.1782 -0.4721
  865TIP3    H1 2559   2.938   5.993   0.533  0.9691  0.9303 -1.4820
  865TIP3    H2 2560   3.049   6.020   0.633  0.3800 -0.9672 -0.2564
  866TIP3   OH2 2561   5.357   5.357   1.971 -0.3630  0.5835  0.0590
  866TIP3    H1 2562   5.345   5.280   1.916  1.1794 -0.1591  0.7062
  866TIP3    H2 2563   5.318   5.429   1.920 -0.8156 -0.4177 -1.0580
  867TIP3   OH2 2564   1.288   3.987   3.504  0.6195  0.5101  0.1003
  867TIP3    H1 2565   1.276   3.970   3.597 -0.2584  0.2904 -0.0417
  867TIP3    H2 2566   1.341   3.914   3.472 -0.1673 -0.1085  0.1824
  868TIP3   OH2 2567   2.406   4.409   3.573  0.3226  0.0608  0.0560
  868TIP3    H1 2568   2.453   4.333   3.607  2.3498  1.6101  0.9965
  868TIP3    H2 2569   2.314   4.389   3.587  0.7778 -2.2783  0.0788
  869TIP3   OH2 2570   6.900   2.099   2.301 -0.0481 -0.8214  0.0189
  869TIP3    H1 2571   6.806   2.096   2.282 -0.3476  0.9167  1.0066
  869TIP3    H2 2572   6.936   2.160   2.237  0.4730 -1.6898 -0.5288
  870TIP3   OH2 2573   0.345   2.999   5.559  0.2551 -0.4617  0.3527
  870TIP3    H1 2574   0.382   2.911   5.560 -1.8003 -1.3709  1.2181
  870TIP3    H2 2575   0.275   2.995   5.494 -0.1536  0.4018  0.7214
  871TIP3   OH2 2576   4.347   3.000   1.464 -0.1522 -0.2072 -0.1342
  871TIP3    H1 2577   4.281   2.979   1.529  0.2763  1.0472  0.7436
  871TIP3    H2 2578   4.401   2.920   1.457 -0.8146 -0.6970  0.2809
  872TIP3   OH2 2579   3.861   4.787   2.601  0.4684 -0.2106 -0.1533
  872TIP3    H1 2580   3.813   4.704   2.597  1.7257 -0.9417 -1.3610
  872TIP3    H2 2581   3.799   4.853   2.572  0.4151 -1.2854 -2.7690
  873TIP3   OH2 2582   7.143   0.461  -0.006 -0.5414  0.4541 -0.0708
  873TIP3    H1 2583   7.188   0.379  -0.023 -0.4585  0.6188 -0.6661
  873TIP3    H2 2584   7.062   0.435   0.037 -0.6223  0.0395 -0.4606
  874TIP3   OH2 2585   4.853   5.333   4.015 -0.2289  0.0292 -0.2606
  874TIP3    H1 2586   4.801   5.253   4.002  0.3210 -0.2685 -0.6413
  874TIP3    H2 2587   4.934   5.302   4.055 -1.0497  0.6895  2.0800
  875TIP3   OH2 2588   2.472   4.076   2.742  0.1068 -0.0615  0.1976
  875TIP3    H1 2589   2.507   4.137   2.807  0.5087 -0.5997  0.4961
  875TIP3    H2 2590   2.441   4.132   2.671 -2.0046  0.6532  1.6085
  876TIP3   OH2 2591   4.629   1.184   3.050  0.3607 -0.0102  0.6545
  876TIP3    H1 2592   4.698   1.226   2.998 -0.0367  0.4245  0.4736
  876TIP3    H2 2593   4.625   1.235   3.131 -1.2158  1.3465 -0.2118
  877TIP3   OH2 2594   6.416   1.587   1.762  0.3774  0.2878  0.4976
  877TIP3    H1 2595   6.500   1.569   1.806  0.8616 -2.5544 -1.3358
  877TIP3    H2 2596   6.351   1.547   1.819  0.6250 -0.2882  0.3834
  878TIP3   OH2 2597   0.407   4.760   2.277  0.1748  0.4435 -0.0842
  878TIP3    H1 2598   0.437   4.830   2.335  0.4283 -0.8113  1.3943
  878TIP3    H2 2599   0.451   4.682   2.310  0.7593 -0.2603 -2.3575
  879TIP3   OH2 2600   0.956   0.408   3.881  0.0414 -0.2299 -0.1551
  879TIP3    H1 2601   0.961   0.429   3.975 -2.2503 -1.7406  0.3842
  879TIP3    H2 2602   0.980   0.490   3.838 -1.8040  1.4662  1.7830
  880TIP3   OH2 2603   1.878   6.450   4.915  0.0324  0.2409 -0.0822
  880TIP3    H1 2604   1.973   6.465   4.911 -0.1706  1.6779  0.1416
  880TIP3    H2 2605   1.851   6.445   4.823  0.1861  0.7776 -0.1595
  881TIP3   OH2 2606   1.464   1.324   2.716  0.2486 -0.0218 -0.6328
  881TIP3    H1 2607   1.555   1.328   2.746 -0.5008 -0.7901  2.0674
  881TIP3    H2 2608   1.466   1.267   2.639  2.1712  0.9104 -1.3356
  882TIP3   OH2 2609   2.916   0.170   2.309  0.4650  0.5599 -0.3884
  882TIP3    H1 2610   2.898   0.076   2.304  1.1011  0.4214 -0.1356
  882TIP3    H2 2611   2.937   0.186   2.400  0.9881  0.8321 -0.5524
  883TIP3   OH2 2612   0.374   3.578   4.607  0.2400 -0.8825  0.2726
  883TIP3    H1 2613   0.335   3.499   4.644  0.6454 -0.7558  0.9954
  883TIP3    H2 2614   0.448   3.597   4.665  2.3035 -1.9402 -1.8357
  884TIP3   OH2 2615   5.917   3.503   0.912  0.1390 -0.0290 -0.2896
  884TIP3    H1 2616   5.868   3.421   0.917  2.6278 -1.5532  3.2982
  884TIP3    H2 2617   6.008   3.478   0.925  1.3621  3.1312 -1.6377
  885TIP3   OH2 2618   3.685   6.263   1.763 -0.3283 -0.3501  0.2487
  885TIP3    H1 2619   3.686   6.168   1.747  2.0172 -0.1504 -1.4056
  885TIP3    H2 2620   3.644   6.300   1.684 -0.0293  0.0672  0.2856
  886TIP3   OH2 2621   0.624   1.420   0.590  0.1455 -0.3159 -0.1802
  886TIP3    H1 2622   0.571   1.500   0.584  0.8507  0.1150 -0.8280
  886TIP3    H2 2623   0.647   1.399   0.500  0.8535 -0.6494  0.0689
  887TIP3   OH2 2624   0.492   1.284   3.026  0.1789  0.4961  0.0966
  887TIP3    H1 2625   0.566   1.278   2.965  0.1943 -0.2166  0.1747
  887TIP3    H2 2626   0.426   1.225   2.988  0.5693 -0.7469  1.2957
  888TIP3   OH2 2627   0.185   2.904   3.952  0.3181 -0.1310  0.5613
  888TIP3    H1 2628   0.268   2.868   3.983  0.0511  0.9444  2.6787
  888TIP3    H2 2629   0.207   2.944   3.868  1.6775 -0.8689  0.5287
  889TIP3   OH2 2630   5.194   3.540   5.177  0.5014 -0.2325 -0.0896
  889TIP3    H1 2631   5.175   3.519   5.268 -0.0535 -0.5879 -0.2851
  889TIP3    H2 2632   5.230   3.629   5.180 -0.1169  0.0089  0.4074
  890TIP3   OH2 2633   0.220   3.311   4.129 -0.1091  0.6536 -0.4742
  890TIP3    H1 2634   0.223   3.361   4.211  0.0943  0.1210 -0.1528
  890TIP3    H2 2635   0.310   3.282   4.114 -0.5757 -1.6228  0.6264
  891TIP3   OH2 2636   2.416   1.870   3.494  0.6098  0.1801 -0.5051
  891TIP3    H1 2637   2.426   1.932   3.566  1.0026  0.5676 -0.8819
  891TIP3    H2 2638   2.467   1.793   3.521 -0.0977 -0.0955  0.0803
  892TIP3   OH2 2639   1.740   1.361   2.832  0.1556  0.0302  0.3841
  892TIP3    H1 2640   1.700   1.369   2.919  0.6654  2.6628  0.4823
  892TIP3    H2 2641   1.807   1.429   2.831  0.4552 -0.2202 -1.9342
  893TIP3   OH2 2642   6.988   2.713   2.232  0.2159  0.0592 -0.2608
  893TIP3    H1 2643   7.065   2.730   2.178  1.0268 -0.8332  0.5640
  893TIP3    H2 2644   6.952   2.631   2.197  0.1473  0.0207 -0.1008
  894TIP3   OH2 2645   6.988   0.593   5.233  0.0228  0.5084 -0.2446
  894TIP3    H1 2646   6.925   0.602   5.304  1.0581 -0.2234  0.7905
  894TIP3    H2 2647   7.052   0.663   5.248 -0.6769  1.4745 -1.4911
  895TIP3   OH2 2648   6.727   3.927   4.570 -0.4519 -0.3986  0.0143
  895TIP3    H1 2649   6.799   3.978   4.606  0.0295 -0.2546 -1.1430
  895TIP3    H2 2650   6.666   3.992   4.536  0.2212 -0.5663 -1.5766
  896TIP3   OH2 2651   4.580   1.097   0.617 -0.0330 -0.1684 -0.6620
  896TIP3    H1 2652   4.621   1.184   0.622  1.3005 -0.8211  0.3008
  896TIP3    H2 2653   4.533   1.088   0.699  0.4420 -0.6353 -0.4352
  897TIP3   OH2 2654   3.465   5.412   3.833 -0.2262 -0.3862 -0.0410
  897TIP3    H1 2655   3.552   5.451   3.840 -0.7215  1.1415 -1.5833
  897TIP3    H2 2656   3.452   5.366   3.916  1.1647  1.2528  1.1631
  898TIP3   OH2 2657   3.720   4.528   2.175 -0.3708 -0.2877 -0.1980
  898TIP3    H1 2658   3.786   4.474   2.220  0.3520  1.2490  0.6620
  898TIP3    H2 2659   3.709   4.604   2.232 -3.5797 -0.8850  0.1439
  899TIP3   OH2 2660   4.719   1.650   3.478  0.6753  0.5835  0.2887
  899TIP3    H1 2661   4.789   1.592   3.506  0.3232 -0.6855 -1.3120
  899TIP3    H2 2662   4.763   1.720   3.429  1.0953  1.6989  2.1817
  900TIP3   OH2 2663   0.595   4.350   5.067  0.3557 -0.7417  0.2678
  900TIP3    H1 2664   0.600   4.276   5.007  2.1562 -0.0525 -0.5089
  900TIP3    H2 2665   0.670   4.338   5.125  0.0967 -0.0518  0.7532
  901TIP3   OH2 2666   5.308   0.388   0.485 -0.5089  0.0043 -0.2624
  901TIP3    H1 2667   5.391   0.350   0.456 -0.1473  0.8318 -0.3280
  901TIP3    H2 2668   5.286   0.452   0.418 -1.4397 -0.5271 -0.4785
  902TIP3   OH2 2669   6.640   1.308   1.511  0.2517  0.1116 -0.0506
  902TIP3    H1 2670   6.656   1.349   1.425 -0.4269  1.4711  0.4374
  902TIP3    H2 2671   6.548   1.327   1.529  0.2793 -0.5287  0.7974
  903TIP3   OH2 2672   6.892   5.726   3.718 -0.1282 -0.0090 -0.6278
  903TIP3    H1 2673   6.967   5.744   3.775 -0.1858  2.0012 -1.0936
  903TIP3    H2 2674   6.929   5.671   3.648  1.2007  1.6391 -1.3156
  904TIP3   OH2 2675   5.447   1.542   4.830  0.2360  0.1879 -0.5588
  904TIP3    H1 2676   5.439   1.549   4.925  0.1142 -0.5323 -0.5135
  904TIP3    H2 2677   5.481   1.454   4.814  0.1010  0.2384 -1.1881
  905TIP3   OH2 2678   3.387   5.391   1.727  0.0757  0.0266  0.6607
  905TIP3    H1 2679   3.295   5.368   1.737  0.1910 -0.8589 -0.0993
  905TIP3    H2 2680   3.414   5.420   1.814 -0.7328 -0.4129  1.0728
  906TIP3   OH2 2681   4.112   6.547   2.259  0.0845 -0.6782  0.0040
  906TIP3    H1 2682   4.122   6.619   2.321 -0.2520 -0.2475 -0.4316
  906TIP3    H2 2683   4.060   6.482   2.305 -1.4330  0.2591 -0.3018
  907TIP3   OH2 2684   4.418   2.002   0.813  0.1332 -0.1121 -0.1636
  907TIP3    H1 2685   4.475   1.957   0.876 -0.4598  0.1528  0.5812
  907TIP3    H2 2686   4.340   2.025   0.864 -0.2179  0.4064 -0.9198
  908TIP3   OH2 2687   6.775   6.497   0.574 -0.2220 -0.5184 -0.2869
  908TIP3    H1 2688   6.752   6.585   0.604 -0.3018 -0.7140  0.2370
  908TIP3    H2 2689   6.692   6.459   0.547  0.0358  0.1879 -2.2367
  909TIP3   OH2 2690   5.092   4.944   3.524  0.3487 -0.0101  0.0958
  909TIP3    H1 2691   5.047   5.027   3.539 -1.2307 -1.0210  1.2870
  909TIP3    H2 2692   5.123   4.918   3.610  0.0041 -1.1023 -0.0973
  910TIP3   OH2 2693   5.089   1.137   2.442 -0.1638 -0.5153 -0.1017
  910TIP3    H1 2694   5.178   1.111   2.464  0.0193 -0.1389 -0.3944
  910TIP3    H2 2695   5.046   1.055   2.418  0.4397 -0.5412 -1.1232
  911TIP3   OH2 2696   1.945   4.150   0.539  0.3540  0.9193  0.2016
  911TIP3    H1 2697   1.965   4.103   0.621  1.0783  1.6146  0.4343
  911TIP3    H2 2698   1.866   4.199   0.559 -0.8021 -0.6703 -0.2461
  912TIP3   OH2 2699   6.815   6.760   2.501  0.0392 -0.5389  0.0910
  912TIP3    H1 2700   6.778   6.846   2.482 -0.1307 -0.8665 -1.1169
  912TIP3    H2 2701   6.889   6.779   2.560  0.7235  0.5686 -1.0575
  913TIP3   OH2 2702   5.358   6.250   2.792 -0.5246  0.3204  0.7087
  913TIP3    H1 2703   5.403   6.175   2.829 -1.4499 -0.2827  0.6402
  913TIP3    H2 2704   5.371   6.320   2.857  0.4082  0.1396  0.7321
  914TIP3   OH2 2705   1.526   1.466   1.763 -0.0310 -0.4443 -0.5676
  914TIP3    H1 2706   1.616   1.440   1.786 -0.0205 -1.0126 -1.2173
  914TIP3    H2 2707   1.499   1.402   1.697 -0.6392  0.1875 -0.9398
  915TIP3   OH2 2708   0.956   0.839   4.616 -0.4618 -0.1267 -0.2550
  915TIP3    H1 2709   0.898   0.913   4.602 -1.4263 -0.4188  1.8547
  915TIP3    H2 2710   1.009   0.863   4.692 -1.5617 -1.9926  1.1671
  916TIP3   OH2 2711   0.940   4.282   2.781  0.0680 -0.1063 -0.0201
  916TIP3    H1 2712   0.905   4.246   2.862  0.1654  0.0259  0.0807
  916TIP3    H2 2713   0.951   4.375   2.798  1.2724 -0.2815  0.2474
  917TIP3   OH2 2714   5.917   4.023   3.272 -0.2087 -0.1207  0.5168
  917TIP3    H1 2715   5.920   3.951   3.209 -0.0189 -0.3074  0.7354
  917TIP3    H2 2716   6.003   4.065   3.264  0.9824 -1.9056  2.6707
  918TIP3   OH2 2717   1.645   4.870   1.467  0.4993  0.3642  0.3211
  918TIP3    H1 2718   1.718   4.897   1.522  1.5721 -0.6913 -0.5388
  918TIP3    H2 2719   1.665   4.779   1.443 -0.1924  0.6120 -1.3607
  919TIP3   OH2 2720   6.623   0.243   4.667 -0.6594  0.1077 -0.6066
  919TIP3    H1 2721   6.621   0.230   4.762 -0.7893 -0.4514 -0.6834
  919TIP3    H2 2722   6.534   0.221   4.638 -0.4598 -0.2885 -0.9281
  920TIP3   OH2 2723   6.583   6.067   3.698  0.1112  0.2379  0.5797
  920TIP3    H1 2724   6.664   6.117   3.706  0.3504  0.1907 -1.2289
  920TIP3    H2 2725   6.606   5.979   3.730  0.5496  0.4349  0.8099
  921TIP3   OH2 2726   0.733   4.205   1.569  0.3424  0.1982  0.4118
  921TIP3    H1 2727   0.777   4.281   1.532 -1.1099  2.1438  2.4553
  921TIP3    H2 2728   0.800   4.136   1.568  1.9066  1.6437 -0.9004
  922TIP3   OH2 2729   4.806   2.421   3.985 -0.8460  0.1903 -0.1888
  922TIP3    H1 2730   4.852   2.347   4.024 -0.6373  0.3106 -0.2086
  922TIP3    H2 2731   4.763   2.464   4.059 -0.4930  0.3879 -0.0981
  923TIP3   OH2 2732   4.556   4.366   1.804 -0.4159  0.0501  0.4546
  923TIP3    H1 2733   4.652   4.361   1.797 -0.1033  2.7129  1.6120
  923TIP3    H2 2734   4.529   4.415   1.727 -0.7466 -0.0018  0.5387
  924TIP3   OH2 2735   0.744   6.336   5.220 -0.1962  0.4605 -0.4826
  924TIP3    H1 2736   0.695   6.262   5.183 -0.3298  0.2664  0.0751
  924TIP3    H2 2737   0.677   6.389   5.264  0.2795 -0.7308  1.8319
  925TIP3   OH2 2738   1.223   1.500   3.329  0.7647 -0.0747 -0.9477
  925TIP3    H1 2739   1.158   1.552   3.375  1.5994  0.4786 -0.3627
  925TIP3    H2 2740   1.185   1.484   3.242 -0.2303  0.0471 -0.5386
  926TIP3   OH2 2741   1.433   1.292   1.584 -0.8162  0.5841  0.2264
  926TIP3    H1 2742   1.427   1.294   1.489 -1.4629  2.8867  0.2449
  926TIP3    H2 2743   1.413   1.202   1.608 -2.4567  0.3665 -1.7223
  927TIP3   OH2 2744   2.872   6.318   5.516 -0.0791  0.1035  0.4124
  927TIP3    H1 2745   2.829   6.349   5.596 -2.6742  1.0668 -1.1916
  927TIP3    H2 2746   2.856   6.224   5.515 -1.4405  0.3063  0.3357
  928TIP3   OH2 2747   2.244   4.383   2.657  0.0993  0.1938  0.3315
  928TIP3    H1 2748   2.207   4.300   2.686 -0.2569  0.2154 -0.0406
  928TIP3    H2 2749   2.294   4.415   2.732  2.0409 -1.3638 -0.2086
  929TIP3   OH2 2750   1.007   0.739   5.117 -0.0598 -0.1933 -0.2096
  929TIP3    H1 2751   1.007   0.829   5.084  1.2247 -0.5537 -1.2860
  929TIP3    H2 2752   0.919   0.726   5.150  0.2532  2.1163  1.8541
  930TIP3   OH2 2753   1.828   0.647   1.835 -0.2368  0.3210  0.6760
  930TIP3    H1 2754   1.901   0.637   1.895 -0.6836 -2.4807  0.9130
  930TIP3    H2 2755   1.757   0.596   1.875 -0.9154 -0.6879 -1.6111
  931TIP3   OH2 2756   6.463   0.129   2.161 -0.2288  0.1309  0.0093
  931TIP3    H1 2757   6.511   0.170   2.090  0.8737  1.3821  1.3944
  931TIP3    H2 2758   6.403   0.197   2.192 -1.5165 -0.7655 -0.4141
  932TIP3   OH2 2759   5.349   3.254   1.065  0.6399 -0.5811  0.7700
  932TIP3    H1 2760   5.381   3.164   1.063  1.0842 -0.4606 -1.6483
  932TIP3    H2 2761   5.429   3.308   1.065  0.4130 -0.2316  0.4735
  933TIP3   OH2 2762   2.622   5.660   2.079  0.2899 -0.0612  0.0293
  933TIP3    H1 2763   2.578   5.694   2.001  1.2465  0.1706 -0.4271
  933TIP3    H2 2764   2.643   5.739   2.130  0.4343 -0.1450  0.0997
  934TIP3   OH2 2765   6.480   0.190   5.373 -0.2579  0.0836  0.1183
  934TIP3    H1 2766   6.494   0.098   5.352  1.0866  0.3816 -0.4126
  934TIP3    H2 2767   6.444   0.228   5.292 -0.0091  0.1910  0.0571
  935TIP3   OH2 2768   2.654   2.175   4.142  0.0970  0.5202 -0.6450
  935TIP3    H1 2769   2.663   2.114   4.069 -1.6823 -0.0498 -0.4468
  935TIP3    H2 2770   2.684   2.127   4.218 -0.2871  0.2599 -0.6545
  936TIP3   OH2 2771   6.397   2.445   1.449 -0.3208  0.6850 -0.2867
  936TIP3    H1 2772   6.305   2.452   1.424 -0.8808 -0.0026  1.4878
  936TIP3    H2 2773   6.402   2.367   1.504  1.1568  1.1768  0.3271
  937TIP3   OH2 2774   0.985   4.279   3.182  0.0836 -0.1298 -0.3263
  937TIP3    H1 2775   1.079   4.268   3.169  0.2759 -1.7455  1.7743
  937TIP3    H2 2776   0.958   4.198   3.226 -2.2803  0.3512 -0.7682
  938TIP3   OH2 2777   3.391   5.569   3.130 -0.3151  0.7811 -0.0378
  938TIP3    H1 2778   3.437   5.499   3.083  1.0470  1.6972 -0.1190
  938TIP3    H2 2779   3.380   5.535   3.219 -0.2203  0.2225 -0.2389
  939TIP3   OH2 2780   5.746   3.430   4.980  0.0859 -0.9443 -0.6490
  939TIP3    H1 2781   5.722   3.396   4.893 -0.3789 -0.2838 -0.7891
  939TIP3    H2 2782   5.828   3.476   4.966  0.0503 -0.9034 -0.7245
  940TIP3   OH2 2783   5.751   3.008   4.437  0.2088 -0.3153  0.1769
  940TIP3    H1 2784   5.761   2.998   4.342  0.9346 -0.2448  0.2433
  940TIP3    H2 2785   5.838   3.032   4.468 -0.0298 -0.3179  0.8621
  941TIP3   OH2 2786   3.927   2.072   0.390 -0.1442 -0.3039  0.4222
  941TIP3    H1 2787   3.868   2.072   0.314  0.3232 -0.5285  0.0604
  941TIP3    H2 2788   3.994   2.008   0.369  1.0579  0.9911  0.1964
  942TIP3   OH2 2789   2.989   0.578   0.001 -0.1681  0.1814 -0.2600
  942TIP3    H1 2790   2.991   0.578   0.097 -1.4842  0.1705 -0.2147
  942TIP3    H2 2791   3.017   0.490  -0.023 -0.9046 -0.1782  0.1619
  943TIP3   OH2 2792   6.891   0.533   4.206 -0.3953 -0.0727  0.3986
  943TIP3    H1 2793   6.849   0.477   4.141  0.5602 -0.0649 -0.2460
  943TIP3    H2 2794   6.921   0.472   4.274  0.5607 -0.3640 -0.2565
  944TIP3   OH2 2795   0.112   2.434   4.776  0.2331 -0.4257 -0.3979
  944TIP3    H1 2796   0.169   2.504   4.744  0.9400  0.3067  2.1683
  944TIP3    H2 2797   0.041   2.429   4.712 -0.4914  3.5154 -0.1234
  945TIP3   OH2 2798   5.665   5.472   2.777 -0.4172 -0.3357 -0.5226
  945TIP3    H1 2799   5.687   5.382   2.756 -0.0431 -0.1922 -0.7470
  945TIP3    H2 2800   5.581   5.466   2.822  0.0190 -0.8798  0.2498
  946TIP3   OH2 2801   2.242   4.058   3.934  0.0315 -0.0127 -0.3489
  946TIP3    H1 2802   2.249   3.986   3.996  1.2609  1.1240  0.9112
  946TIP3    H2 2803   2.321   4.051   3.880  0.2515  0.4738 -0.0988
  947TIP3   OH2 2804   2.306   5.432   5.792 -0.0221 -0.0541  0.0941
  947TIP3    H1 2805   2.283   5.484   5.869 -0.5582 -0.9363  0.5540
  947TIP3    H2 2806   2.399   5.449   5.778  0.2607 -0.4205  1.3907
  948TIP3   OH2 2807   6.488   2.228   5.804 -0.1318  0.5420  0.2601
  948TIP3    H1 2808   6.526   2.217   5.717 -0.5553 -1.0236  0.2454
  948TIP3    H2 2809   6.415   2.288   5.791 -1.0703 -0.7556 -0.7639
  949TIP3   OH2 2810   3.846   0.114   2.910 -0.0797 -0.1107  1.0423
  949TIP3    H1 2811   3.805   0.028   2.914 -0.8315 -0.1843 -3.4009
  949TIP3    H2 2812   3.800   0.166   2.976 -1.0388 -2.5496  2.3815
  950TIP3   OH2 2813   0.906   2.464   0.090  0.1017  0.7436 -0.2802
  950TIP3    H1 2814   0.864   2.401   0.031 -0.3808  0.3895  0.4244
  950TIP3    H2 2815   0.987   2.489   0.045  0.8201 -1.1581 -0.1247
  951TIP3   OH2 2816   2.033   3.968   2.723 -0.4776 -0.2606  0.2210
  951TIP3    H1 2817   2.029   3.901   2.655 -0.9999  0.9550 -1.0113
  951TIP3    H2 2818   2.110   4.020   2.701 -0.9249  0.4334  0.2472
  952TIP3   OH2 2819   7.153   5.175   2.238  0.9374 -0.1412  0.5033
  952TIP3    H1 2820   7.140   5.269   2.254  0.5056 -0.5538  2.9369
  952TIP3    H2 2821   7.131   5.164   2.145  0.3953  2.0501  0.3063
  953TIP3   OH2 2822   1.715   3.200   2.119 -0.1912 -0.1894  0.7597
  953TIP3    H1 2823   1.780   3.138   2.086  0.4074 -0.5105  2.4189
  953TIP3    H2 2824   1.762   3.283   2.125 -0.3375 -0.0995  0.6683
  954TIP3   OH2 2825   3.508   2.793   2.246 -0.1302  0.1088  0.1390
  954TIP3    H1 2826   3.469   2.706   2.254 -0.4196  0.2510  0.2980
  954TIP3    H2 2827   3.456   2.848   2.305 -1.8670  1.0567 -2.1463
  955TIP3   OH2 2828   0.350   0.255   0.114 -0.8702 -0.4989  0.4274
  955TIP3    H1 2829   0.418   0.297   0.167 -0.3542  0.1411 -0.6853
  955TIP3    H2 2830   0.389   0.248   0.027 -2.1024 -0.4237 -0.1566
  956TIP3   OH2 2831   3.357   6.347   3.807 -0.3994 -0.7060 -0.4028
  956TIP3    H1 2832   3.308   6.385   3.733  1.5437  0.8290 -1.0036
  956TIP3    H2 2833   3.427   6.296   3.765  0.6103  0.0247  0.3218
  957TIP3   OH2 2834   1.610   6.754   4.981 -0.2549  0.4698 -0.2981
  957TIP3    H1 2835   1.690   6.738   5.031 -0.3804  0.2859 -0.1536
  957TIP3    H2 2836   1.541   6.760   5.048 -0.4496  0.0479 -0.4632
  958TIP3   OH2 2837   1.500   5.281   3.910 -0.0719 -0.1160 -0.2243
  958TIP3    H1 2838   1.537   5.370   3.904  2.2037 -1.0199 -0.4828
  958TIP3    H2 2839   1.466   5.264   3.822 -2.1470  1.0893  0.2662
  959TIP3   OH2 2840   5.193   0.140   0.106  0.2888  0.0722  0.3829
  959TIP3    H1 2841   5.239   0.154   0.023 -0.3662  2.1435  0.3250
  959TIP3    H2 2842   5.263   0.136   0.171  0.6785  3.4985  0.3437
  960TIP3   OH2 2843   2.481   4.074   1.574  0.0132 -0.5081 -0.6848
  960TIP3    H1 2844   2.449   4.111   1.492 -2.0698  0.6348  0.5391
  960TIP3    H2 2845   2.490   3.980   1.557 -0.7343 -0.3516 -2.0985
  961TIP3   OH2 2846   3.548   0.179   2.148 -0.2405  0.1752 -0.2119
  961TIP3    H1 2847   3.626   0.192   2.202 -0.1084 -0.0131 -0.3569
  961TIP3    H2 2848   3.486   0.135   2.207  0.3443 -1.1668 -0.5672
  962TIP3   OH2 2849   6.563   6.732   2.068  0.2121 -0.1154 -0.2488
  962TIP3    H1 2850   6.507   6.796   2.112  0.7504 -0.6372  1.2548
  962TIP3    H2 2851   6.649   6.744   2.108  0.2976 -1.8393  0.1618
  963TIP3   OH2 2852   0.774   3.596   5.423 -0.6056  0.1334  0.2968
  963TIP3    H1 2853   0.685   3.616   5.451 -0.5122 -0.3924  1.0153
  963TIP3    H2 2854   0.829   3.661   5.468 -0.6067  0.3864 -0.0569
  964TIP3   OH2 2855   6.997   6.337   2.175 -0.0724 -0.0710 -0.3971
  964TIP3    H1 2856   7.001   6.418   2.225 -0.1354  0.5236 -1.3173
  964TIP3    H2 2857   6.968   6.364   2.088  1.6594 -0.8102 -1.2631
  965TIP3   OH2 2858   0.668   1.472   0.048  0.0440 -0.9900  0.1778
  965TIP3    H1 2859   0.659   1.441  -0.042  1.5519  1.5622 -0.9800
  965TIP3    H2 2860   0.596   1.534   0.060 -0.5442 -1.8081  0.9999
  966TIP3   OH2 2861   2.707   1.341   2.984  0.3421  0.2834 -0.1842
  966TIP3    H1 2862   2.740   1.375   3.067 -2.3120 -0.4653  1.2801
  966TIP3    H2 2863   2.776   1.281   2.954  0.9386 -0.2163  2.0132
  967TIP3   OH2 2864   1.586   6.492   5.231 -0.4385  0.1094 -0.2203
  967TIP3    H1 2865   1.532   6.429   5.182 -1.7506  1.0140  0.0005
  967TIP3    H2 2866   1.526   6.527   5.297  0.4535  1.1220  0.0709
  968TIP3   OH2 2867   2.984   6.337   0.698 -0.3338 -0.3398  0.0221
  968TIP3    H1 2868   3.056   6.395   0.721 -0.6545  0.0312  0.1066
  968TIP3    H2 2869   2.941   6.380   0.624 -0.9061 -0.1803  0.4345
  969TIP3   OH2 2870   2.041   0.114   1.952  0.1483 -0.3288 -0.0719
  969TIP3    H1 2871   2.025   0.141   2.042  0.4524  2.9322 -0.8565
  969TIP3    H2 2872   1.994   0.178   1.899  2.3178 -0.3787 -2.2572
  970TIP3   OH2 2873   5.859   2.652   5.109  0.8155  1.1512  0.1770
  970TIP3    H1 2874   5.808   2.725   5.074  0.4696  1.1716  0.7111
  970TIP3    H2 2875   5.942   2.657   5.062  1.3112  2.7140  1.1572
  971TIP3   OH2 2876   6.169   0.703   4.306 -0.3408  0.0187  0.4743
  971TIP3    H1 2877   6.166   0.613   4.340 -0.6880 -0.3890 -0.5941
  971TIP3    H2 2878   6.260   0.716   4.281 -0.8022 -1.1687 -2.1991
  972TIP3   OH2 2879   1.105   2.177   3.213 -0.0044  0.5038 -0.3219
  972TIP3    H1 2880   1.095   2.129   3.131  0.8109 -0.8675  0.3360
  972TIP3    H2 2881   1.195   2.212   3.209 -0.3320  1.3677 -0.4614
  973TIP3   OH2 2882   1.532   0.952   2.191 -0.1634 -0.2882 -0.0394
  973TIP3    H1 2883   1.484   0.882   2.235 -0.3907  0.6627  1.3059
  973TIP3    H2 2884   1.600   0.977   2.255 -0.6799  1.3317 -0.0772
  974TIP3   OH2 2885   0.175   2.553   5.743 -0.0267 -0.2098  0.4778
  974TIP3    H1 2886   0.121   2.539   5.664  0.2262 -1.9759  0.5662
  974TIP3    H2 2887   0.194   2.464   5.774  0.0040  0.4528  2.4637
  975TIP3   OH2 2888   0.943   4.030   0.274  0.5371 -0.2529  0.3947
  975TIP3    H1 2889   0.885   4.093   0.317 -0.9143 -2.0282  1.1518
  975TIP3    H2 2890   0.925   4.042   0.180  0.6759  0.7939  0.4873
  976TIP3   OH2 2891   6.473   3.496   5.389 -0.2498 -0.0648 -0.1932
  976TIP3    H1 2892   6.566   3.500   5.367 -0.7042  1.9994 -2.1062
  976TIP3    H2 2893   6.429   3.493   5.304 -1.9578 -3.5065  0.6209
  977TIP3   OH2 2894   5.363   3.514   1.433  0.2745  0.2428  0.4353
  977TIP3    H1 2895   5.424   3.518   1.507  1.7550 -1.8007 -0.5941
  977TIP3    H2 2896   5.392   3.440   1.381 -2.7296 -0.4439 -0.4890
  978TIP3   OH2 2897   5.456   4.506   1.348 -0.2639  1.0236 -0.0856
  978TIP3    H1 2898   5.491   4.456   1.422 -0.9509  0.8486  0.1284
  978TIP3    H2 2899   5.496   4.593   1.357 -0.0206  0.8791  0.2515
  979TIP3   OH2 2900   5.460   0.915   2.729  0.2717 -0.3580  0.2143
  979TIP3    H1 2901   5.380   0.870   2.757  0.1080  0.6334  1.4144
  979TIP3    H2 2902   5.499   0.855   2.665 -1.3743 -0.9033 -0.3609
  980TIP3   OH2 2903   6.701   0.979   4.949 -0.2165 -0.8744  0.1991
  980TIP3    H1 2904   6.715   0.997   4.856 -0.6702 -1.2476  0.0507
  980TIP3    H2 2905   6.610   0.948   4.954 -0.6201  0.3173  0.9320
  981TIP3   OH2 2906   3.859   5.667   3.245 -0.2886 -0.4808 -0.1433
  981TIP3    H1 2907   3.873   5.620   3.328 -0.5663 -0.9128 -0.3370
  981TIP3    H2 2908   3.947   5.693   3.217 -0.3024  0.9294  1.0049
  982TIP3   OH2 2909   4.000   6.636   4.653  0.2609 -0.5313 -0.1494
  982TIP3    H1 2910   3.996   6.557   4.707 -3.7716 -0.3007  0.2423
  982TIP3    H2 2911   3.996   6.708   4.716  2.4125 -0.0040 -0.5673
  983TIP3   OH2 2912   1.641   5.845   2.625  0.6043  0.1569 -0.1766
  983TIP3    H1 2913   1.553   5.877   2.604  0.0484 -0.1878  1.5352
  983TIP3    H2 2914   1.659   5.781   2.556 -1.0433 -0.7492  0.1767
  984TIP3   OH2 2915   4.010   1.996   3.182 -0.1401 -0.0319  0.0817
  984TIP3    H1 2916   4.017   1.960   3.093  0.3342 -2.6815  1.0997
  984TIP3    H2 2917   4.017   2.090   3.170  0.3061 -0.3287 -2.6589
  985TIP3   OH2 2918   3.973   6.185   4.698  0.2709 -0.7248 -0.1027
  985TIP3    H1 2919   3.889   6.228   4.683  0.9185  0.6597  0.1431
  985TIP3    H2 2920   3.949   6.094   4.720 -1.2433 -0.0575  1.2228
  986TIP3   OH2 2921   3.687   6.062   3.401 -0.2424 -0.3224  0.3717
  986TIP3    H1 2922   3.741   6.096   3.329 -2.6769 -1.0080 -1.9496
  986TIP3    H2 2923   3.683   5.968   3.385  0.0422 -0.6495  2.1041
  987TIP3   OH2 2924   2.158   1.511   4.177  0.1081 -0.3129 -0.1896
  987TIP3    H1 2925   2.239   1.554   4.149 -0.1796  1.1223  1.0288
  987TIP3    H2 2926   2.089   1.554   4.127 -0.0766 -0.1215  0.2194
  988TIP3   OH2 2927   1.989   2.963   3.534  0.5986  0.3754  0.0507
  988TIP3    H1 2928   1.917   2.927   3.585  0.7965 -0.5432 -0.3121
  988TIP3    H2 2929   1.978   2.929   3.446  1.0213  0.8801 -0.2105
  989TIP3   OH2 2930   4.466   1.640   1.464 -0.4378  0.2199 -0.0523
  989TIP3    H1 2931   4.453   1.606   1.376  0.5177  0.3441 -0.2448
  989TIP3    H2 2932   4.407   1.587   1.519 -0.0474 -0.7556 -0.5657
  990TIP3   OH2 2933   4.900   0.272   4.826  0.0466  0.5330 -0.0083
  990TIP3    H1 2934   4.858   0.358   4.821 -0.0791  0.4864  0.2363
  990TIP3    H2 2935   4.905   0.253   4.920  0.4342  0.4494 -0.0451
  991TIP3   OH2 2936   2.314   6.743   3.737  0.2370  0.0382 -0.6941
  991TIP3    H1 2937   2.346   6.705   3.655  1.1069  0.7434 -0.6873
  991TIP3    H2 2938   2.249   6.679   3.768 -0.4174 -0.0474 -2.1263
  992TIP3   OH2 2939   3.597   3.491   1.017  0.4609  0.4234  0.0480
  992TIP3    H1 2940   3.522   3.457   0.968 -1.3902  1.5494  1.9360
  992TIP3    H2 2941   3.633   3.414   1.063  0.1877 -0.0316 -0.4830
  993TIP3   OH2 2942   4.582   6.468   5.076 -0.3789  0.3468 -0.0468
  993TIP3    H1 2943   4.525   6.392   5.083 -1.5177  1.3188  2.9485
  993TIP3    H2 2944   4.651   6.452   5.140  0.9926  0.5999 -1.4190
  994TIP3   OH2 2945   2.822   0.378   3.312 -0.1027  0.5389  0.2920
  994TIP3    H1 2946   2.857   0.467   3.310 -1.1919  0.9791 -1.2313
  994TIP3    H2 2947   2.854   0.337   3.231  1.0547 -0.7686  1.3463
  995TIP3   OH2 2948   3.563   1.593   2.698 -0.0411 -0.3451 -0.1161
  995TIP3    H1 2949   3.616   1.587   2.778 -0.9779 -1.0821  0.4750
  995TIP3    H2 2950   3.534   1.684   2.695  0.0618 -0.2927  0.3427
  996TIP3   OH2 2951   1.180   4.889   1.744  0.2128  0.3097 -0.1010
  996TIP3    H1 2952   1.174   4.982   1.763  0.5638  0.6060 -1.3616
  996TIP3    H2 2953   1.181   4.847   1.830  0.4752  1.4866  0.4893
  997TIP3   OH2 2954   6.401   0.371   5.843  0.2163 -0.2772 -0.0111
  997TIP3    H1 2955   6.387   0.426   5.920  0.5065 -0.1941 -0.0165
  997TIP3    H2 2956   6.493   0.344   5.849  0.2268 -0.3076 -0.3048
  998TIP3   OH2 2957   6.239   3.384   4.298 -0.0627 -0.2039 -0.0078
  998TIP3    H1 2958   6.259   3.377   4.392  0.5044 -0.6323 -0.1537
  998TIP3    H2 2959   6.249   3.478   4.279  1.2266 -0.3009  0.0734
  999TIP3   OH2 2960   6.180   0.414   1.051 -0.1772  1.0635  0.2724
  999TIP3    H1 2961   6.167   0.351   0.980  1.4258  3.0295 -1.8930
  999TIP3    H2 2962   6.174   0.500   1.009  2.0419  2.3157  2.2793
 1000TIP3   OH2 2963   2.173   0.601   3.315 -0.9091 -0.0112 -0.1336
 1000TIP3    H1 2964   2.126   0.518   3.300  0.3717 -0.7505 -0.1817
 1000TIP3    H2 2965   2.117   0.667   3.274 -1.2772 -1.0360 -1.3733
 1001TIP3   OH2 2966   6.716   4.939   4.936  0.1666  0.0494  0.0789
 1001TIP3    H1 2967   6.790   5.000   4.929  1.0937 -0.9825  0.5982
 1001TIP3    H2 2968   6.757   4.853   4.941 -1.0874 -0.5374  0.4431
 1002TIP3   OH2 2969   1.874   4.497   3.507  0.1427 -0.3448 -0.5230
 1002TIP3    H1 2970   1.813   4.555   3.552  0.0241 -0.2298 -0.8299
 1002TIP3    H2 2971   1.922   4.453   3.578 -0.2909 -0.4350 -0.2855
 1003TIP3   OH2 2972   5.655   4.762   5.564  0.2816  0.0936 -0.5877
 1003TIP3    H1 2973   5.735   4.719   5.593 -0.2600 -0.2038  0.5056
 1003TIP3    H2 2974   5.588   4.694   5.567 -0.9434  1.2524  2.6961
 1004TIP3   OH2 2975   3.094   3.584   0.392  0.2480  0.0292  0.0464
 1004TIP3    H1 2976   3.108   3.506   0.444 -1.5524  0.1143  0.7436
 1004TIP3    H2 2977   3.075   3.653   0.456 -0.9188  0.3795 -0.6460
 1005TIP3   OH2 2978   3.444   6.716   3.300  0.2449 -0.1886 -0.4266
 1005TIP3    H1 2979   3.462   6.738   3.391 -2.1121 -1.5997  0.4621
 1005TIP3    H2 2980   3.461   6.622   3.294 -0.8589 -0.3653 -1.0784
 1006TIP3   OH2 2981   6.552   3.211   5.122 -0.6303 -0.0483  0.5021
 1006TIP3    H1 2982   6.473   3.232   5.173 -1.7958  2.5240 -2.1165
 1006TIP3    H2 2983   6.585   3.296   5.093  1.7313 -1.2330 -0.4930
 1007TIP3   OH2 2984   3.507   3.852   3.394 -0.3691 -0.4941  0.4034
 1007TIP3    H1 2985   3.485   3.914   3.464  0.0561 -1.2867  1.2527
 1007TIP3    H2 2986   3.453   3.880   3.320 -0.2835  0.8025  0.8146
 1008TIP3   OH2 2987   6.792   6.574   4.867  0.4337  0.1247  0.0375
 1008TIP3    H1 2988   6.847   6.569   4.945  2.7008 -1.7305 -1.5145
 1008TIP3    H2 2989   6.767   6.483   4.850 -1.2760  0.6778 -0.6070
 1009TIP3   OH2 2990   2.763   3.793   1.709  0.0912  0.6313 -0.4410
 1009TIP3    H1 2991   2.706   3.718   1.693 -0.1689  1.0182 -1.4092
 1009TIP3    H2 2992   2.821   3.796   1.634  3.2282 -1.2981  1.6654
 1010TIP3   OH2 2993   6.045   5.737   1.984  0.1395 -0.5293  0.1402
 1010TIP3    H1 2994   6.098   5.754   2.061 -1.0897  1.5673  0.5763
 1010TIP3    H2 2995   5.965   5.696   2.018  0.0894 -0.6731 -0.1477
 1011TIP3   OH2 2996   7.110   1.438   0.390 -0.2216  0.0517  0.1116
 1011TIP3    H1 2997   7.058   1.473   0.317  1.0897  0.7682 -0.5285
 1011TIP3    H2 2998   7.127   1.514   0.445 -1.8895 -0.6356  1.6421
 1012TIP3   OH2 2999   5.673   1.640   2.662  0.1470 -0.0426  0.1791
 1012TIP3    H1 3000   5.755   1.665   2.704  0.6069  0.0497 -0.7576
 1012TIP3    H2 3001   5.697   1.620   2.571 -1.0408  1.1595 -0.4328
 1013TIP3   OH2 3002   1.153   4.828   1.444 -0.2069 -0.8006  0.3310
 1013TIP3    H1 3003   1.233   4.851   1.493  0.4272  0.1047 -1.0646
 1013TIP3    H2 3004   1.108   4.912   1.433  0.2001 -0.7853 -1.5217
 1014TIP3   OH2 3005   3.149   1.460   2.091  0.0005  0.7878 -0.6901
 1014TIP3    H1 3006   3.081   1.452   2.158  0.1144  0.7928 -0.5733
 1014TIP3    H2 3007   3.189   1.373   2.087 -1.2863  0.2223 -2.1301
 1015TIP3   OH2 3008   3.281   5.149   5.021 -0.0462  0.1512  0.0176
 1015TIP3    H1 3009   3.239   5.234   5.033 -0.5279  0.0648 -0.9646
 1015TIP3    H2 3010   3.226   5.088   5.069  0.1908  0.3626  0.5621
 1016TIP3   OH2 3011   2.754   4.629   3.040 -0.4494  0.0529  0.1910
 1016TIP3    H1 3012   2.751   4.578   3.121 -0.3258 -2.8095 -1.4502
 1016TIP3    H2 3013   2.717   4.570   2.974 -0.9572  2.4233 -1.7885
 1017TIP3   OH2 3014   2.805   1.667   4.126 -0.6514 -0.1132 -0.3374
 1017TIP3    H1 3015   2.716   1.686   4.095 -0.5917  0.3200 -0.2517
 1017TIP3    H2 3016   2.795   1.650   4.220 -0.2811  2.8448  0.3209
 1018TIP3   OH2 3017   6.015   4.431   2.820 -0.0509  0.0516 -0.4238
 1018TIP3    H1 3018   5.949   4.487   2.861 -0.4373 -0.7405  0.0577
 1018TIP3    H2 3019   6.007   4.347   2.865  3.2148  0.6832  1.6450
 1019TIP3   OH2 3020   0.421   0.148   3.651  0.3543  0.0209 -0.0267
 1019TIP3    H1 3021   0.508   0.111   3.668  0.4167  0.2758  0.2271
 1019TIP3    H2 3022   0.360   0.087   3.691  0.4676  0.2964  0.5904
 1020TIP3   OH2 3023   3.788   6.105   2.507 -0.2952  0.8129 -0.6219
 1020TIP3    H1 3024   3.761   6.101   2.599 -1.7685  1.7818 -0.9913
 1020TIP3    H2 3025   3.760   6.021   2.471  0.8384  0.1695 -0.0790
 1021TIP3   OH2 3026   1.518   5.704   3.189 -0.0885  0.4377 -0.3359
 1021TIP3    H1 3027   1.567   5.646   3.132  1.9758  1.1338  0.6509
 1021TIP3    H2 3028   1.477   5.767   3.129 -1.4502 -1.2619 -1.3191
 1022TIP3   OH2 3029   6.475   1.731   2.621  0.0197  0.1675 -0.9149
 1022TIP3    H1 3030   6.466   1.804   2.682  0.1341 -0.7032  0.1785
 1022TIP3    H2 3031   6.514   1.661   2.673  0.2004 -0.5786 -2.0180
 1023TIP3   OH2 3032   3.668   6.353   5.694 -0.3064 -0.1621 -0.3312
 1023TIP3    H1 3033   3.684   6.283   5.757 -2.1934  0.5382  1.0352
 1023TIP3    H2 3034   3.707   6.431   5.733 -1.0783  0.1842 -0.2279
 1024TIP3   OH2 3035   3.194   1.663   1.064  0.5721 -0.6136  0.1427
 1024TIP3    H1 3036   3.276   1.651   1.112  1.4774  0.1984 -1.1444
 1024TIP3    H2 3037   3.126   1.651   1.131  1.7761  1.8053  1.9729
 1025TIP3   OH2 3038   5.323   0.629   4.916 -0.5923 -0.0483 -0.0139
 1025TIP3    H1 3039   5.373   0.560   4.961 -1.9293 -0.2958  1.1465
 1025TIP3    H2 3040   5.367   0.710   4.942 -1.5381 -0.1552  2.0919
 1026TIP3   OH2 3041   6.575   6.677   0.282 -0.2499  0.0057 -0.1696
 1026TIP3    H1 3042   6.559   6.691   0.375 -1.8917  0.5204 -0.5014
 1026TIP3    H2 3043   6.506   6.616   0.255 -0.8039  1.1105 -1.3616
 1027TIP3   OH2 3044   4.697   1.716   1.566  0.1186 -0.4873 -0.4229
 1027TIP3    H1 3045   4.658   1.749   1.647  1.7831  2.2767 -0.6314
 1027TIP3    H2 3046   4.622   1.682   1.516 -1.7526  2.3468  0.2036
 1028TIP3   OH2 3047   3.489   2.559   1.625 -0.4901  0.3646  0.4184
 1028TIP3    H1 3048   3.472   2.473   1.666  1.3201  0.5976  1.7873
 1028TIP3    H2 3049   3.558   2.542   1.562  0.7507  1.0004  1.5727
 1029TIP3   OH2 3050   2.094   6.382   3.549  0.3983  0.1786  0.0658
 1029TIP3    H1 3051   2.117   6.427   3.630 -0.5147  2.1036 -0.6867
 1029TIP3    H2 3052   2.065   6.451   3.490  0.7361 -1.1988 -1.8266
 1030TIP3   OH2 3053   4.399   3.595   2.425 -0.2248 -0.2157  0.2248
 1030TIP3    H1 3054   4.435   3.528   2.367  1.0941  0.6650 -0.0165
 1030TIP3    H2 3055   4.405   3.676   2.375 -1.6560  0.1247  0.5657
 1031TIP3   OH2 3056   3.106   0.974   4.746  1.0639 -0.3587  0.2795
 1031TIP3    H1 3057   3.074   1.064   4.748  0.7291 -0.4862  2.0826
 1031TIP3    H2 3058   3.074   0.940   4.662 -2.5370 -0.0737  1.3698
 1032TIP3   OH2 3059   3.451   4.860   5.638  0.4141 -0.1804  0.1785
 1032TIP3    H1 3060   3.423   4.826   5.723 -0.2366  0.0392  0.0565
 1032TIP3    H2 3061   3.456   4.782   5.581  2.3396 -0.5560  0.7899
 1033TIP3   OH2 3062   1.871   0.905   1.699 -0.1016  0.0039 -0.0573
 1033TIP3    H1 3063   1.907   0.920   1.786  0.0257 -0.7431  0.0271
 1033TIP3    H2 3064   1.870   0.810   1.690 -1.1313  0.0461 -0.4514
 1034TIP3   OH2 3065   0.223   5.775   2.492  0.1404 -0.5420  0.3869
 1034TIP3    H1 3066   0.206   5.787   2.399 -1.1584 -0.5007  0.6175
 1034TIP3    H2 3067   0.291   5.708   2.495  0.7929  0.0385 -0.6004
 1035TIP3   OH2 3068   6.524   5.166   0.704  0.0262  0.1801 -0.5798
 1035TIP3    H1 3069   6.480   5.241   0.664  0.7525  1.7208  1.3597
 1035TIP3    H2 3070   6.604   5.202   0.742  0.0374 -1.4104  1.0358
 1036TIP3   OH2 3071   4.774   3.334   1.675 -0.3940 -0.1947  0.3741
 1036TIP3    H1 3072   4.702   3.309   1.616 -1.7623  0.1042  1.8434
 1036TIP3    H2 3073   4.816   3.407   1.630 -0.1976 -1.1612 -1.0951
 1037TIP3   OH2 3074   5.639   4.704   1.099 -0.3229 -0.4421  0.7145
 1037TIP3    H1 3075   5.665   4.782   1.051 -1.7178 -0.0818  0.4971
 1037TIP3    H2 3076   5.571   4.663   1.044 -0.5673 -1.0662  1.4568
 1038TIP3   OH2 3077   3.284   1.413   4.250  0.2426  0.2449 -0.3809
 1038TIP3    H1 3078   3.223   1.487   4.249  1.4597  1.4066  1.8185
 1038TIP3    H2 3079   3.283   1.379   4.161 -3.1641  0.5347 -0.5828
 1039TIP3   OH2 3080   3.391   6.496   4.535 -0.0034  0.1104  0.1582
 1039TIP3    H1 3081   3.380   6.455   4.449  0.8538  0.4771 -0.1389
 1039TIP3    H2 3082   3.461   6.560   4.522  1.3119 -0.9924  1.5325
 1040TIP3   OH2 3083   3.091   3.840   4.668 -0.2165  0.0261 -0.3192
 1040TIP3    H1 3084   3.132   3.762   4.631  1.7495  1.0602 -0.4408
 1040TIP3    H2 3085   3.108   3.908   4.603  0.7018  1.2094  1.0962
 1041TIP3   OH2 3086   4.986   5.902   2.058  0.1115 -0.4550  0.1166
 1041TIP3    H1 3087   4.945   5.816   2.061 -0.6229 -0.2435 -2.0208
 1041TIP3    H2 3088   5.074   5.887   2.026  0.3137 -0.5002  0.6890
 1042TIP3   OH2 3089   3.684   0.404   4.504  0.5815  0.0204  0.0438
 1042TIP3    H1 3090   3.618   0.425   4.438  0.1451 -0.7777  0.2175
 1042TIP3    H2 3091   3.747   0.476   4.498  0.4636  0.0447 -1.1203
 1043TIP3   OH2 3092   2.601   0.356   1.912  0.3236  0.4966  0.0021
 1043TIP3    H1 3093   2.627   0.296   1.842  2.4735 -0.0945  1.1989
 1043TIP3    H2 3094   2.559   0.429   1.867  3.4079  1.1116 -2.1797
 1044TIP3   OH2 3095   2.065   0.191   4.321 -0.0013 -0.0307 -0.3078
 1044TIP3    H1 3096   2.113   0.263   4.362  1.2736 -0.5039 -0.9122
 1044TIP3    H2 3097   1.973   0.209   4.340  0.4964 -0.4137  3.0891
 1045TIP3   OH2 3098   0.850   5.228   0.947  0.4993  0.5579  0.0042
 1045TIP3    H1 3099   0.798   5.286   1.002 -0.4537 -0.9414  0.7376
 1045TIP3    H2 3100   0.930   5.212   0.997  0.0847  0.0221  0.5093
 1046TIP3   OH2 3101   1.935   3.786   2.121  0.0547 -0.3956 -0.1135
 1046TIP3    H1 3102   1.926   3.729   2.044  1.3363  0.7795 -1.1852
 1046TIP3    H2 3103   1.861   3.763   2.177 -1.4388 -0.6445 -2.1137
 1047TIP3   OH2 3104   2.189   1.143   2.952 -0.3069  0.2780 -0.4754
 1047TIP3    H1 3105   2.277   1.173   2.975  0.2567 -0.6987 -1.2214
 1047TIP3    H2 3106   2.173   1.180   2.865 -1.0951  1.3462  0.1140
 1048TIP3   OH2 3107   5.503   1.151   1.250  0.2421 -0.3880  0.3550
 1048TIP3    H1 3108   5.479   1.167   1.159 -0.6580  0.8389  0.7872
 1048TIP3    H2 3109   5.435   1.092   1.283 -0.0602  0.0553  0.5316
 1049TIP3   OH2 3110   4.075   4.745   3.746  0.5483 -0.1130 -0.1074
 1049TIP3    H1 3111   4.124   4.677   3.699  0.6022  0.5689 -1.0557
 1049TIP3    H2 3112   4.019   4.696   3.807 -0.1884 -1.0763 -1.4956
 1050TIP3   OH2 3113   6.029   3.800   2.627 -0.5834  0.2582  0.0021
 1050TIP3    H1 3114   5.948   3.848   2.611  0.1480  2.2752  1.8848
 1050TIP3    H2 3115   6.086   3.824   2.553 -0.8610  0.8406 -0.0287
 1051TIP3   OH2 3116   0.497   1.413   3.528  0.3643 -0.1069  0.8545
 1051TIP3    H1 3117   0.444   1.353   3.579 -0.0748  0.8077  1.5014
 1051TIP3    H2 3118   0.437   1.484   3.503  0.4130 -0.7834 -1.4321
 1052TIP3   OH2 3119   6.272   2.845   4.303 -0.0757  0.5610  0.6798
 1052TIP3    H1 3120   6.183   2.815   4.322  0.0991  0.2593  1.0565
 1052TIP3    H2 3121   6.266   2.940   4.303 -1.1641  0.6463 -2.9533
 1053TIP3   OH2 3122   2.490   1.843   0.511  0.0563 -0.1713  0.8111
 1053TIP3    H1 3123   2.461   1.825   0.601 -0.2966 -2.6406  0.2748
 1053TIP3    H2 3124   2.427   1.906   0.477 -0.8813 -0.5658  1.7526
 1054TIP3   OH2 3125   4.777   2.099   5.341 -0.3741  0.8286  0.5055
 1054TIP3    H1 3126   4.798   2.013   5.379  0.6414  0.3983 -0.9325
 1054TIP3    H2 3127   4.844   2.157   5.376  0.9519  0.2973 -1.0198
 1055TIP3   OH2 3128   4.428   2.513   0.930 -0.1883 -0.5459  0.2328
 1055TIP3    H1 3129   4.414   2.597   0.886 -2.0633  0.0709  1.8741
 1055TIP3    H2 3130   4.523   2.503   0.933  0.1519  2.1366  1.0343
 1056TIP3   OH2 3131   4.337   5.385   1.636  0.1412 -0.1085 -0.0492
 1056TIP3    H1 3132   4.348   5.406   1.729 -0.6002 -0.0649  0.0382
 1056TIP3    H2 3133   4.243   5.367   1.627 -0.1473  1.7684 -1.1608
 1057TIP3   OH2 3134   5.715   4.363   1.117 -0.4390 -0.3653 -0.8488
 1057TIP3    H1 3135   5.799   4.324   1.092  0.9323 -0.0775  2.7790
 1057TIP3    H2 3136   5.727   4.457   1.104  0.7452 -0.0772  1.6804
 1058TIP3   OH2 3137   3.143   4.941   1.819  0.0996  0.0471 -0.0826
 1058TIP3    H1 3138   3.218   4.886   1.843 -0.1610  0.3673  1.5614
 1058TIP3    H2 3139   3.170   5.029   1.842  0.3786  0.6478 -2.3860
 1059TIP3   OH2 3140   1.506   0.047   4.743 -0.1601  0.4765 -0.3545
 1059TIP3    H1 3141   1.541   0.135   4.730 -1.6178  0.8387 -2.4098
 1059TIP3    H2 3142   1.488   0.015   4.654 -2.1086 -0.8416  0.4368
 1060TIP3   OH2 3143   5.476   3.148   3.435 -0.1064 -0.1077 -0.4655
 1060TIP3    H1 3144   5.548   3.084   3.436 -0.5334 -0.6072  0.9745
 1060TIP3    H2 3145   5.517   3.230   3.407  1.3652 -0.0346  1.6537
 1061TIP3   OH2 3146   3.831   4.814   4.041  0.4257  0.6333  0.0691
 1061TIP3    H1 3147   3.864   4.726   4.023 -0.3151  0.4095 -0.2105
 1061TIP3    H2 3148   3.744   4.800   4.078  0.5863  1.2239  0.6993
 1062TIP3   OH2 3149   3.331   5.927   0.848  0.0214  0.7192 -0.1678
 1062TIP3    H1 3150   3.406   5.983   0.829 -0.0213  0.2891 -1.7009
 1062TIP3    H2 3151   3.360   5.873   0.922  0.8470  1.2407 -0.0986
 1063TIP3   OH2 3152   4.055   4.030   4.566 -0.5157 -0.4206 -0.6620
 1063TIP3    H1 3153   3.976   3.981   4.544 -1.6406  1.2965 -0.6630
 1063TIP3    H2 3154   4.115   3.965   4.604 -1.7376 -1.8417 -1.0865
 1064TIP3   OH2 3155   1.843   1.024   2.215  0.0586  0.0388 -0.4085
 1064TIP3    H1 3156   1.801   1.047   2.298  0.1568 -0.5488 -0.1913
 1064TIP3    H2 3157   1.919   1.082   2.210  0.7482 -0.7525  0.5096
 1065TIP3   OH2 3158   3.284   0.249   2.619 -0.0988 -0.0886 -0.0270
 1065TIP3    H1 3159   3.262   0.263   2.711  1.7943 -1.3087  0.6636
 1065TIP3    H2 3160   3.370   0.209   2.621 -0.6038 -1.4441 -2.2974
 1066TIP3   OH2 3161   6.546   2.450   0.131 -0.5068  0.4035 -0.3314
 1066TIP3    H1 3162   6.474   2.449   0.068 -0.8448 -0.6562  0.0398
 1066TIP3    H2 3163   6.605   2.518   0.100 -1.6766  1.3073 -0.6421
 1067TIP3   OH2 3164   1.245   2.437   3.423  0.5475  1.0852  0.3534
 1067TIP3    H1 3165   1.278   2.519   3.387 -0.2406  0.8150 -1.0792
 1067TIP3    H2 3166   1.306   2.370   3.391 -0.5509  0.7517 -1.2077
 1068TIP3   OH2 3167   2.487   6.445   5.520 -0.2354  0.6725 -0.2522
 1068TIP3    H1 3168   2.400   6.411   5.496 -0.3849 -0.1210  1.2914
 1068TIP3    H2 3169   2.469   6.516   5.581  0.1795 -0.1679  0.8988
 1069TIP3   OH2 3170   1.893   5.531   2.934  0.0080  0.4696 -0.1592
 1069TIP3    H1 3171   1.876   5.565   2.846 -0.9064  0.2248 -0.0865
 1069TIP3    H2 3172   1.862   5.599   2.993 -0.6260  0.0697 -0.0239
 1070TIP3   OH2 3173   0.073   1.425   3.113  0.3297  0.4821 -0.1501
 1070TIP3    H1 3174   0.143   1.406   3.176  0.0209  1.3748  0.4765
 1070TIP3    H2 3175   0.116   1.418   3.027  0.5816 -1.4709  0.0992
 1071TIP3   OH2 3176   5.585   6.277   5.415  0.3047  0.0181 -0.4427
 1071TIP3    H1 3177   5.598   6.299   5.507  1.3435  0.0141 -0.5774
 1071TIP3    H2 3178   5.571   6.183   5.414 -2.7538  0.3838 -0.0069
 1072TIP3   OH2 3179   2.384   4.779   2.391  0.9363  0.5908 -0.1857
 1072TIP3    H1 3180   2.359   4.780   2.484  1.1945  0.6014 -0.1171
 1072TIP3    H2 3181   2.468   4.733   2.389 -0.3738 -1.9736 -0.7378
 1073TIP3   OH2 3182   5.711   1.038   4.565 -0.1608 -0.3732 -0.2475
 1073TIP3    H1 3183   5.749   0.971   4.621  0.3292  1.0865  1.2636
 1073TIP3    H2 3184   5.616   1.027   4.576 -0.3124 -3.1194 -2.9373
 1074TIP3   OH2 3185   2.985   5.972   3.447  0.0730  0.2340 -0.1233
 1074TIP3    H1 3186   2.899   6.004   3.418  0.1775 -0.1283 -0.8458
 1074TIP3    H2 3187   2.998   5.891   3.398  0.0652 -0.6445  1.2839
 1075TIP3   OH2 3188   0.450   1.279   4.395 -0.3831  0.0060 -0.4705
 1075TIP3    H1 3189   0.528   1.293   4.341 -0.5836  1.0926 -0.5171
 1075TIP3    H2 3190   0.385   1.242   4.335 -0.9395  2.1576 -1.2935
 1076TIP3   OH2 3191   5.551   2.604   3.022  0.5333 -0.0771 -0.0948
 1076TIP3    H1 3192   5.592   2.594   3.108 -1.0163  0.2909  0.7156
 1076TIP3    H2 3193   5.490   2.531   3.016 -0.0953  0.4652 -0.4371
 1077TIP3   OH2 3194   4.323   3.922   2.628  0.3264  0.5071 -0.0596
 1077TIP3    H1 3195   4.414   3.930   2.600 -0.0123  0.2908 -1.2514
 1077TIP3    H2 3196   4.319   3.836   2.672  0.2509 -0.4595 -1.8657
 1078TIP3   OH2 3197   4.604   1.644   4.529  0.2541  0.4623  0.1180
 1078TIP3    H1 3198   4.657   1.564   4.529 -0.4749 -0.0506 -1.3507
 1078TIP3    H2 3199   4.602   1.671   4.437 -0.9680  1.1818  0.3378
 1079TIP3   OH2 3200   0.673   3.920   0.211  0.2897 -0.6275  0.1470
 1079TIP3    H1 3201   0.589   3.925   0.164  1.3510 -0.9025 -1.9013
 1079TIP3    H2 3202   0.693   4.011   0.233  0.2814 -0.3278 -0.9830
 1080TIP3   OH2 3203   5.369   1.027   1.605  0.1056  0.0376 -0.3660
 1080TIP3    H1 3204   5.336   1.103   1.558  1.8846  0.8674 -0.3839
 1080TIP3    H2 3205   5.310   0.956   1.581 -0.6817  1.0583 -1.5994
 1081TIP3   OH2 3206   4.593   3.557   0.900 -0.3298 -0.5707 -0.2064
 1081TIP3    H1 3207   4.533   3.575   0.973  1.2017  1.1302  0.6985
 1081TIP3    H2 3208   4.551   3.485   0.853 -2.7976  0.1471  0.7053
 1082TIP3   OH2 3209   3.893   6.778   2.313  0.6240  0.0607  0.2792
 1082TIP3    H1 3210   3.880   6.725   2.234 -1.7304  0.6710  0.2004
 1082TIP3    H2 3211   3.949   6.850   2.284 -2.3733  1.8378 -1.7064
 1083TIP3   OH2 3212   4.828   5.148   0.682 -0.0989 -0.7163  0.1292
 1083TIP3    H1 3213   4.738   5.181   0.678  0.3548  0.5161 -0.5633
 1083TIP3    H2 3214   4.822   5.068   0.733 -1.8188 -1.4071 -1.0561
 1084TIP3   OH2 3215   1.520   6.558   1.839  0.3812 -0.0788 -0.2098
 1084TIP3    H1 3216   1.555   6.500   1.906 -0.0614  0.9504  0.9529
 1084TIP3    H2 3217   1.481   6.631   1.888  0.5883  1.0164 -1.5994
 1085TIP3   OH2 3218   5.820   3.919   2.464 -0.2436 -0.6243  0.5630
 1085TIP3    H1 3219   5.748   3.944   2.522  0.9868  1.6755  1.2359
 1085TIP3    H2 3220   5.815   3.981   2.391  0.1045 -1.4757 -0.2053
 1086TIP3   OH2 3221   6.792   0.944   1.213  0.7081  0.0865 -0.1500
 1086TIP3    H1 3222   6.821   1.035   1.214 -0.7099  0.5586 -0.5293
 1086TIP3    H2 3223   6.834   0.906   1.135  0.0627  0.8515 -0.8885
 1087TIP3   OH2 3224   2.234   0.349   2.129  0.0219 -0.5259 -0.1558
 1087TIP3    H1 3225   2.247   0.335   2.223  0.1150  0.1443 -0.0574
 1087TIP3    H2 3226   2.194   0.436   2.124  0.8665 -0.1580 -0.7820
 1088TIP3   OH2 3227   6.178   4.593   5.152  0.3419 -0.1614 -0.6743
 1088TIP3    H1 3228   6.163   4.585   5.057  0.7525  0.6020 -0.8118
 1088TIP3    H2 3229   6.105   4.545   5.192  0.1047 -0.3970 -1.3758
 1089TIP3   OH2 3230   3.839   6.113   1.517 -0.1236  0.3019  0.8275
 1089TIP3    H1 3231   3.799   6.165   1.447 -0.8744  0.5133  1.3995
 1089TIP3    H2 3232   3.886   6.043   1.471 -2.7903 -1.1901  0.0973
 1090TIP3   OH2 3233   4.829   0.743   1.798 -0.2491  0.3796 -0.3681
 1090TIP3    H1 3234   4.892   0.689   1.846 -1.3412  0.2490  0.9566
 1090TIP3    H2 3235   4.749   0.740   1.850 -0.8946  1.8186 -1.2150
 1091TIP3   OH2 3236   4.705   5.208   5.715 -0.3819 -0.1389  0.0162
 1091TIP3    H1 3237   4.662   5.134   5.673  1.2758 -0.5673 -1.0288
 1091TIP3    H2 3238   4.798   5.184   5.716  0.2272  1.9712 -0.4900
 1092TIP3   OH2 3239   4.717   2.361   1.773  0.1366  0.3531  0.1772
 1092TIP3    H1 3240   4.796   2.356   1.720 -0.7126  2.2373 -1.4065
 1092TIP3    H2 3241   4.747   2.343   1.862  1.7749 -1.9473 -0.7531
 1093TIP3   OH2 3242   4.565   3.329   5.363 -0.1907 -0.1025 -0.1234
 1093TIP3    H1 3243   4.496   3.310   5.427  0.0109  0.0806  0.1518
 1093TIP3    H2 3244   4.559   3.424   5.350 -0.6608 -0.2290 -0.8746
 1094TIP3   OH2 3245   5.025   4.993   2.828 -0.1055  0.2814  0.4657
 1094TIP3    H1 3246   4.985   4.907   2.811 -0.4566  0.2208  1.5606
 1094TIP3    H2 3247   5.051   4.990   2.920  3.5775 -0.1182 -0.4461
 1095TIP3   OH2 3248   5.722   1.879   1.652  0.4100 -0.6961 -0.1409
 1095TIP3    H1 3249   5.766   1.962   1.672 -0.3395 -0.3934  0.2955
 1095TIP3    H2 3250   5.712   1.880   1.557  0.9693 -0.5793 -0.2041
 1096TIP3   OH2 3251   1.847   5.329   1.497 -0.2255 -0.0366 -0.1128
 1096TIP3    H1 3252   1.813   5.241   1.507  1.8964 -1.0523 -1.1834
 1096TIP3    H2 3253   1.941   5.321   1.516  0.2294  1.7391 -1.3286
 1097TIP3   OH2 3254   5.735   4.793   4.915 -0.2983  0.2726  0.2515
 1097TIP3    H1 3255   5.749   4.828   4.827 -1.2867  2.1301  0.7889
 1097TIP3    H2 3256   5.817   4.747   4.935 -0.5851 -1.4907 -2.1672
 1098TIP3   OH2 3257   4.523   4.386   4.239 -0.7215  0.4958 -0.0203
 1098TIP3    H1 3258   4.511   4.348   4.152 -1.4360 -0.4763  0.4790
 1098TIP3    H2 3259   4.484   4.473   4.234 -1.1629  0.2696 -0.5518
 1099TIP3   OH2 3260   5.888   0.586   4.782 -0.4994 -0.3496  0.0230
 1099TIP3    H1 3261   5.883   0.544   4.696 -0.9749  0.6580 -0.4568
 1099TIP3    H2 3262   5.856   0.675   4.767  0.4472  0.1802  1.0222
 1100TIP3   OH2 3263   5.230   3.124   2.778 -0.7725 -0.1910  0.3647
 1100TIP3    H1 3264   5.255   3.189   2.713 -0.3537  0.4752  1.1773
 1100TIP3    H2 3265   5.197   3.050   2.727  0.2518  0.0205 -0.6300
 1101TIP3   OH2 3266   1.887   5.046   1.566 -0.0358  0.0250 -0.0289
 1101TIP3    H1 3267   1.941   5.044   1.487 -1.0426 -0.7985 -0.7184
 1101TIP3    H2 3268   1.934   4.990   1.628  1.0403  1.1098  0.1642
 1102TIP3   OH2 3269   2.546   1.985   4.348  0.1068  0.0905  0.2498
 1102TIP3    H1 3270   2.480   2.033   4.298  1.2438  0.3592 -1.0583
 1102TIP3    H2 3271   2.513   1.985   4.437 -1.7046  0.1195 -0.3738
 1103TIP3   OH2 3272   0.285   2.150   4.510  0.1030 -0.4766  0.5717
 1103TIP3    H1 3273   0.237   2.111   4.584  0.2133 -0.1293  0.8274
 1103TIP3    H2 3274   0.224   2.143   4.436  0.3194 -1.6116  0.4857
 1104TIP3   OH2 3275   6.641   4.250   4.389  0.0453  0.3640  0.1521
 1104TIP3    H1 3276   6.670   4.257   4.298 -0.0077  0.0645  0.1121
 1104TIP3    H2 3277   6.639   4.341   4.420 -1.6119  0.6411 -0.6602
 1105TIP3   OH2 3278   0.155   4.195   1.875 -0.2472 -0.1461  0.7709
 1105TIP3    H1 3279   0.191   4.284   1.876 -1.5358  0.3944  0.7804
 1105TIP3    H2 3280   0.196   4.154   1.799  0.2536  0.5058  0.6817
 1106TIP3   OH2 3281   3.105   0.811   0.031 -0.3237  0.0252 -0.0268
 1106TIP3    H1 3282   3.060   0.732   0.001 -1.5456  0.2945  0.9890
 1106TIP3    H2 3283   3.036   0.863   0.073  0.6247  1.2361  0.0886
 1107TIP3   OH2 3284   1.655   1.038   2.437 -0.6557  0.0916  0.1259
 1107TIP3    H1 3285   1.684   0.947   2.450  0.0995  0.2237 -0.5297
 1107TIP3    H2 3286   1.673   1.081   2.520  0.2504 -0.0400  0.0039
 1108TIP3   OH2 3287   0.779   4.393   5.278  0.5627 -0.1963 -0.1952
 1108TIP3    H1 3288   0.783   4.489   5.285 -0.4408 -0.1623  0.0856
 1108TIP3    H2 3289   0.857   4.369   5.228  0.2149  0.8727 -1.2837
 1109TIP3   OH2 3290   4.434   3.042   0.363 -0.1340  0.3191 -0.1218
 1109TIP3    H1 3291   4.417   3.116   0.305  0.6534  0.5550 -0.0540
 1109TIP3    H2 3292   4.405   2.965   0.314 -1.9490  0.7440  0.2145
 1110TIP3   OH2 3293   3.769   4.138   5.439 -0.2473  0.6051 -0.0889
 1110TIP3    H1 3294   3.735   4.172   5.356  1.6515  0.6350 -0.9264
 1110TIP3    H2 3295   3.747   4.205   5.504 -2.2120  0.3454 -0.4455
 1111TIP3   OH2 3296   2.827   5.694   0.319  0.1558  0.4607 -0.0957
 1111TIP3    H1 3297   2.796   5.772   0.364 -0.0683  0.8968 -0.9713
 1111TIP3    H2 3298   2.912   5.675   0.359 -0.3091  0.4734  0.9050
 1112TIP3   OH2 3299   2.427   5.508   3.455 -0.1816  0.0503 -0.1777
 1112TIP3    H1 3300   2.371   5.526   3.380  0.1942  0.8854 -0.2676
 1112TIP3    H2 3301   2.508   5.556   3.436  0.2486 -0.4581  0.3431
 1113TIP3   OH2 3302   4.157   1.157   0.983  0.6437 -0.1528  0.0120
 1113TIP3    H1 3303   4.124   1.229   0.928  2.7703 -0.7753 -2.2139
 1113TIP3    H2 3304   4.083   1.097   0.989 -0.4032  1.0605 -0.0962
 1114TIP3   OH2 3305   3.781   1.285   2.327  0.6001 -0.1793 -0.6515
 1114TIP3    H1 3306   3.869   1.296   2.363  0.4793  0.7078 -0.6083
 1114TIP3    H2 3307   3.733   1.238   2.395  1.6912 -3.0191 -1.6712
 1115TIP3   OH2 3308   0.965   3.467   3.132 -0.2833 -0.4031  0.1371
 1115TIP3    H1 3309   1.007   3.407   3.193  0.2964  0.4573  0.5915
 1115TIP3    H2 3310   1.035   3.495   3.074 -0.4486  0.2182  0.2341
 1116TIP3   OH2 3311   1.949   4.793   3.255  0.4412 -0.1294  0.1864
 1116TIP3    H1 3312   1.977   4.800   3.346  1.2490 -0.6031 -0.0148
 1116TIP3    H2 3313   1.882   4.860   3.245 -0.8773 -1.1823  1.5823
 1117TIP3   OH2 3314   0.302   3.268   0.835 -0.1731  0.0445  0.0862
 1117TIP3    H1 3315   0.244   3.227   0.771  1.0305 -1.2147 -0.2337
 1117TIP3    H2 3316   0.315   3.357   0.803 -0.8688 -0.0749 -0.5362
 1118TIP3   OH2 3317   0.958   2.864   1.469 -0.2037 -0.1003 -0.1754
 1118TIP3    H1 3318   0.890   2.915   1.424  0.9252 -0.1195 -1.9913
 1118TIP3    H2 3319   0.939   2.876   1.562 -1.6406  1.3241 -0.6058
 1119TIP3   OH2 3320   5.102   6.303   2.709  0.3211  0.6902  0.2361
 1119TIP3    H1 3321   5.124   6.385   2.666  0.8031  0.3782 -0.1147
 1119TIP3    H2 3322   5.185   6.268   2.740  0.6328 -1.3051 -2.5249
 1120TIP3   OH2 3323   4.688   1.164   4.450 -0.1280  0.4718 -0.1724
 1120TIP3    H1 3324   4.634   1.127   4.379  0.1566 -0.6858  0.1962
 1120TIP3    H2 3325   4.774   1.178   4.410 -0.1129  0.3098 -0.1972
 1121TIP3   OH2 3326   1.895   0.868   1.997  0.1118 -0.0233  0.3140
 1121TIP3    H1 3327   1.819   0.811   1.987 -0.2210  0.1688  1.5644
 1121TIP3    H2 3328   1.874   0.922   2.074  0.5611  1.5508 -0.6168
 1122TIP3   OH2 3329   6.404   6.110   5.154 -0.1490 -0.2270  0.7719
 1122TIP3    H1 3330   6.390   6.058   5.234  1.8013 -0.1442  1.2288
 1122TIP3    H2 3331   6.316   6.127   5.121 -0.9732 -4.3051  0.2373
 1123TIP3   OH2 3332   3.287   0.755   3.570  0.1063 -0.3386  0.2071
 1123TIP3    H1 3333   3.342   0.784   3.642  0.7934 -1.5774  0.1989
 1123TIP3    H2 3334   3.330   0.677   3.536 -0.3048  0.1017 -1.4274
 1124TIP3   OH2 3335   5.922   5.962   2.519  0.2885 -0.5519  0.0261
 1124TIP3    H1 3336   6.003   5.987   2.563 -0.7181  2.3856  0.4493
 1124TIP3    H2 3337   5.855   5.968   2.588 -0.8983  1.5185 -1.1965
 1125TIP3   OH2 3338   3.587   1.539   4.976 -0.3284 -0.7188 -0.3042
 1125TIP3    H1 3339   3.560   1.631   4.980 -0.2863 -0.6207 -1.6162
 1125TIP3    H2 3340   3.602   1.514   5.067  0.4385  0.8044  0.0223
 1126TIP3   OH2 3341   6.076   6.668   3.545 -0.2673  0.3920 -0.4560
 1126TIP3    H1 3342   6.085   6.763   3.551  0.5575  0.2372  2.5322
 1126TIP3    H2 3343   6.009   6.646   3.610 -0.4637 -1.0652 -1.1166
 1127TIP3   OH2 3344   5.796   3.461   0.508 -0.4303 -0.0734 -0.1301
 1127TIP3    H1 3345   5.827   3.529   0.567  0.3711  0.2754 -0.9359
 1127TIP3    H2 3346   5.703   3.479   0.497 -0.0053  1.6266 -1.2555
 1128TIP3   OH2 3347   7.053   1.782   5.278  0.6970  0.6087 -0.5054
 1128TIP3    H1 3348   7.139   1.756   5.310 -0.5270 -0.6895  1.9862
 1128TIP3    H2 3349   7.049   1.876   5.296  0.7627  0.2579  1.6158
 1129TIP3   OH2 3350   0.674   0.531   4.525  0.0646  0.1518  0.2176
 1129TIP3    H1 3351   0.610   0.600   4.509  1.0636  1.1991  0.5628
 1129TIP3    H2 3352   0.686   0.531   4.620  0.3706 -0.2266  0.1830
 1130TIP3   OH2 3353   0.049   0.212   4.339  0.2312 -0.1930  0.1357
 1130TIP3    H1 3354   0.104   0.291   4.338 -0.5981  0.4094 -1.4645
 1130TIP3    H2 3355   0.100   0.148   4.390  2.2346  0.4644 -0.9242
 1131TIP3   OH2 3356   2.546   0.828   1.252 -0.5435 -0.2549 -0.4368
 1131TIP3    H1 3357   2.458   0.792   1.260  0.2542 -2.3734 -0.6154
 1131TIP3    H2 3358   2.583   0.785   1.175  0.4440  1.0915 -0.7623
 1132TIP3   OH2 3359   4.876   0.104   3.908 -0.5830 -0.4498  0.1611
 1132TIP3    H1 3360   4.926   0.037   3.954 -0.4812 -0.2120  0.3933
 1132TIP3    H2 3361   4.814   0.054   3.854  0.8399 -0.8043 -1.2258
 1133TIP3   OH2 3362   1.092   3.781   1.414 -0.4027  0.0237  0.3594
 1133TIP3    H1 3363   1.072   3.690   1.391  1.9049 -0.3521 -0.4735
 1133TIP3    H2 3364   1.138   3.775   1.498  0.9887  0.2360 -0.3589
 1134TIP3   OH2 3365   3.757   0.789   5.757  0.0836 -0.7100 -0.0996
 1134TIP3    H1 3366   3.713   0.798   5.841  0.5247  0.1696  0.0489
 1134TIP3    H2 3367   3.803   0.872   5.745  0.1631 -0.8879 -1.1312
 1135TIP3   OH2 3368   4.230   6.048   4.629  0.0739  0.1014  1.2011
 1135TIP3    H1 3369   4.219   6.095   4.712 -1.8572  1.2482  0.3693
 1135TIP3    H2 3370   4.166   5.977   4.633  2.3107 -2.0107  2.0341
 1136TIP3   OH2 3371   3.875   0.862   2.552  0.2352  0.3662 -0.4222
 1136TIP3    H1 3372   3.792   0.871   2.600  0.3941 -0.2960 -0.0058
 1136TIP3    H2 3373   3.941   0.850   2.620  0.3735 -1.2882 -0.7994
 1137TIP3   OH2 3374   1.614   4.449   4.396  0.0886 -0.3664 -0.2203
 1137TIP3    H1 3375   1.533   4.459   4.445  1.2114  0.2871  1.6362
 1137TIP3    H2 3376   1.629   4.354   4.394 -1.2750 -0.5836 -1.6237
 1138TIP3   OH2 3377   4.972   0.847   1.202  0.1650 -0.1286 -0.6385
 1138TIP3    H1 3378   5.011   0.772   1.156  2.3634  1.0885 -0.8987
 1138TIP3    H2 3379   5.004   0.838   1.292  1.8225  1.2949 -1.0260
 1139TIP3   OH2 3380   0.117   2.480   4.350 -0.2749  0.0800 -0.4257
 1139TIP3    H1 3381   0.141   2.397   4.309  2.8599  0.0288  1.2127
 1139TIP3    H2 3382   0.174   2.545   4.307 -1.5255  1.1366 -0.5464
 1140TIP3   OH2 3383   2.096   6.001   4.608  0.5705 -0.9100  0.8299
 1140TIP3    H1 3384   2.178   6.032   4.645  1.0331 -1.3083  0.1640
 1140TIP3    H2 3385   2.056   5.949   4.678 -0.2098  1.0887  1.9556
 1141TIP3   OH2 3386   4.808   1.263   0.715 -0.0079 -0.6274 -0.1242
 1141TIP3    H1 3387   4.876   1.237   0.777 -0.1696  1.5081  1.0607
 1141TIP3    H2 3388   4.852   1.323   0.655 -0.7244  0.5381  0.4720
 1142TIP3   OH2 3389   4.180   5.270   0.856 -0.2247  0.1827  0.0720
 1142TIP3    H1 3390   4.228   5.352   0.854  1.4216 -0.7399 -1.3344
 1142TIP3    H2 3391   4.219   5.218   0.785 -2.8136 -0.9208 -0.6724
 1143TIP3   OH2 3392   6.747   1.628   3.682  0.9020  0.8181 -0.5983
 1143TIP3    H1 3393   6.736   1.616   3.587  1.8604  0.8135 -0.7247
 1143TIP3    H2 3394   6.698   1.556   3.721 -0.8623  1.7477 -1.0153
 1144TIP3   OH2 3395   5.616   6.376   2.313 -0.5063  0.1335 -0.3406
 1144TIP3    H1 3396   5.664   6.294   2.318  1.0560  1.0408  0.4155
 1144TIP3    H2 3397   5.531   6.358   2.353 -0.0723 -1.0282  0.0907
 1145TIP3   OH2 3398   1.014   5.520   5.888  0.6128  0.1189  0.1409
 1145TIP3    H1 3399   0.956   5.521   5.812  1.4660 -0.3046 -0.5430
 1145TIP3    H2 3400   1.091   5.570   5.860  0.7841  0.2512  0.8459
 1146TIP3   OH2 3401   4.838   6.449   5.547 -0.0356 -0.0202 -0.6339
 1146TIP3    H1 3402   4.883   6.381   5.496 -1.3901 -1.4322 -0.0552
 1146TIP3    H2 3403   4.907   6.498   5.590  1.0516 -3.5692  2.1357
 1147TIP3   OH2 3404   2.572   2.350   0.162 -0.6288  0.2552 -0.4578
 1147TIP3    H1 3405   2.626   2.338   0.084 -0.3365  0.4349 -0.2861
 1147TIP3    H2 3406   2.521   2.429   0.144  1.3547  1.8718  0.5819
 1148TIP3   OH2 3407   2.428   1.714   3.019 -0.2333  0.3868 -0.1786
 1148TIP3    H1 3408   2.333   1.705   3.025 -0.5091  2.9576  0.6992
 1148TIP3    H2 3409   2.461   1.660   3.090 -1.0776 -0.1800 -0.2039
 1149TIP3   OH2 3410   2.265   5.116   4.695 -0.3598 -0.1867 -0.0291
 1149TIP3    H1 3411   2.200   5.079   4.636  0.0654  0.6867 -1.0699
 1149TIP3    H2 3412   2.217   5.132   4.777 -1.3263 -0.0354 -0.6124
 1150TIP3   OH2 3413   2.920   1.654   4.697  0.2703  0.2677  0.1107
 1150TIP3    H1 3414   2.841   1.705   4.682 -0.5142 -1.0639 -0.4980
 1150TIP3    H2 3415   2.907   1.615   4.784  0.5604  0.5624  0.2882
 1151TIP3   OH2 3416   4.919   3.501   2.168  0.2479 -0.2577  0.1484
 1151TIP3    H1 3417   4.865   3.426   2.196  0.2505 -0.2600  0.1473
 1151TIP3    H2 3418   4.950   3.476   2.081  0.5570 -0.4197  0.3049
 1152TIP3   OH2 3419   6.334   1.002   4.461  0.6159 -0.7442 -0.0593
 1152TIP3    H1 3420   6.283   0.953   4.525 -1.1927 -0.5078 -1.2433
 1152TIP3    H2 3421   6.309   1.093   4.475  1.7479 -0.4582  0.2092
 1153TIP3   OH2 3422   6.257   0.706   3.949  0.4852  0.1845 -0.0226
 1153TIP3    H1 3423   6.268   0.737   4.039 -2.2372 -1.8614  1.1508
 1153TIP3    H2 3424   6.219   0.781   3.902 -0.3573  0.5292  1.1723
 1154TIP3   OH2 3425   3.394   6.212   2.985 -0.5375 -0.1503  0.2339
 1154TIP3    H1 3426   3.347   6.167   2.914 -0.5822  0.9248 -0.4371
 1154TIP3    H2 3427   3.360   6.301   2.984  1.7077  0.7861 -0.5160
 1155TIP3   OH2 3428   4.062   2.909   2.581  0.2973 -0.4938 -0.0942
 1155TIP3    H1 3429   4.029   2.999   2.577  0.6282 -0.4026 -0.8033
 1155TIP3    H2 3430   4.097   2.901   2.670 -0.1460 -0.0736  0.1276
 1156TIP3   OH2 3431   4.291   5.546   0.878  0.3940  0.0380 -0.0203
 1156TIP3    H1 3432   4.244   5.592   0.948  0.8608  0.5462 -0.0369
 1156TIP3    H2 3433   4.375   5.521   0.917  0.1222 -0.8785  0.0105
 1157TIP3   OH2 3434   4.846   6.567   4.275  0.0094 -0.2857  0.0942
 1157TIP3    H1 3435   4.904   6.575   4.351 -0.0278  0.1926  0.0739
 1157TIP3    H2 3436   4.893   6.609   4.204  0.1964 -1.0462 -0.2408
 1158TIP3   OH2 3437   5.924   5.034   4.520 -0.7412  0.3636  0.1696
 1158TIP3    H1 3438   5.832   5.024   4.497 -0.6202  3.6615 -2.5300
 1158TIP3    H2 3439   5.948   5.121   4.487  3.5204 -0.6057  0.0815
 1159TIP3   OH2 3440   2.384   5.753   0.432  0.5171  0.0637 -0.2041
 1159TIP3    H1 3441   2.394   5.716   0.520  0.1847 -0.5913 -0.4384
 1159TIP3    H2 3442   2.309   5.813   0.440  0.0991 -0.4557 -0.1834
 1160TIP3   OH2 3443   0.758   1.594   3.351  0.2563 -0.7291 -0.1658
 1160TIP3    H1 3444   0.808   1.515   3.328  0.6916  0.1422 -2.5543
 1160TIP3    H2 3445   0.790   1.661   3.290 -1.9702  0.5934  0.0053
 1161TIP3   OH2 3446   5.406   0.653   2.017 -0.5406 -0.2477  0.5105
 1161TIP3    H1 3447   5.404   0.605   1.934 -3.3006  0.4246  0.0959
 1161TIP3    H2 3448   5.485   0.707   2.012  1.6296 -3.2119  0.1779
 1162TIP3   OH2 3449   2.247   0.450   2.610 -0.0098 -0.1419 -0.4756
 1162TIP3    H1 3450   2.162   0.450   2.654 -0.2171  0.7657 -0.8655
 1162TIP3    H2 3451   2.306   0.408   2.673 -0.3674  0.8356  0.5464
 1163TIP3   OH2 3452   3.635   5.611   5.740 -0.3544  0.6559 -0.9305
 1163TIP3    H1 3453   3.547   5.620   5.704 -0.9003 -1.1456 -0.1977
 1163TIP3    H2 3454   3.659   5.520   5.720  1.9033  1.4806 -2.2805
 1164TIP3   OH2 3455   3.337   1.165   4.874 -0.2610  0.0183  0.1045
 1164TIP3    H1 3456   3.403   1.222   4.834 -1.4278  1.6054  0.3254
 1164TIP3    H2 3457   3.330   1.091   4.814  1.7613 -0.2562  0.1361
 1165TIP3   OH2 3458   1.034   4.609   1.577 -0.2163 -0.1002 -0.4206
 1165TIP3    H1 3459   1.069   4.688   1.536 -0.6203  0.7628  0.8247
 1165TIP3    H2 3460   0.989   4.641   1.656 -1.4008 -1.4512 -0.5059
 1166TIP3   OH2 3461   5.445   4.091   4.462  0.0421  0.5139 -0.0695
 1166TIP3    H1 3462   5.366   4.087   4.516  0.1285 -1.1251 -0.0180
 1166TIP3    H2 3463   5.477   4.181   4.474 -0.3205  0.4131  2.0661
 1167TIP3   OH2 3464   1.296   1.575   1.119  0.2027 -0.1304  0.1679
 1167TIP3    H1 3465   1.279   1.481   1.116  0.5652 -0.3162  2.2080
 1167TIP3    H2 3466   1.211   1.616   1.104  0.1670 -0.7417 -1.4302
 1168TIP3   OH2 3467   0.684   4.205   0.218 -0.1021 -0.9173 -0.4568
 1168TIP3    H1 3468   0.598   4.246   0.229 -0.1766 -1.1274 -0.2651
 1168TIP3    H2 3469   0.704   4.217   0.125  0.6404  1.0843 -0.0901
 1169TIP3   OH2 3470   2.995   4.517   0.195  0.0788  0.2167 -0.1005
 1169TIP3    H1 3471   3.011   4.467   0.276  0.6571  1.0593  0.3162
 1169TIP3    H2 3472   3.049   4.595   0.204 -0.6222  0.8043 -0.8640
 1170TIP3   OH2 3473   7.141   6.486   0.941  0.2098 -0.8037 -0.6091
 1170TIP3    H1 3474   7.219   6.467   0.888  1.3891 -1.2720  1.2069
 1170TIP3    H2 3475   7.171   6.478   1.032 -1.1499  2.1096  0.2325
 1171TIP3   OH2 3476   6.193   0.995   2.296  0.0506 -0.1513  0.1567
 1171TIP3    H1 3477   6.212   0.996   2.390 -0.9432  0.5010  0.3712
 1171TIP3    H2 3478   6.114   0.940   2.289 -0.3908  0.5104 -0.1740
 1172TIP3   OH2 3479   4.856   3.885   0.546 -0.1712  0.5259  0.2801
 1172TIP3    H1 3480   4.946   3.889   0.514 -0.2326  0.6554  0.1228
 1172TIP3    H2 3481   4.857   3.817   0.614  0.2527  1.2028  0.9575
 1173TIP3   OH2 3482   2.659   0.708   1.461  0.0035 -0.3871 -0.6805
 1173TIP3    H1 3483   2.634   0.734   1.372  0.8302 -0.2865 -0.8885
 1173TIP3    H2 3484   2.669   0.613   1.456  0.0210 -0.3850 -0.6862
 1174TIP3   OH2 3485   2.203   0.067   0.777  0.0742  0.1618 -0.0266
 1174TIP3    H1 3486   2.205   0.154   0.816  1.6299 -0.0286  0.3846
 1174TIP3    H2 3487   2.189   0.082   0.684 -0.0483  0.8214  0.0922
 1175TIP3   OH2 3488   5.832   6.117   3.734 -0.4207  0.5208 -0.5663
 1175TIP3    H1 3489   5.876   6.069   3.804  0.8968 -0.2536 -1.8932
 1175TIP3    H2 3490   5.754   6.064   3.715 -1.1170  1.0474  0.6784
 1176TIP3   OH2 3491   2.197   3.325   5.412 -0.3300 -0.1224  0.1592
 1176TIP3    H1 3492   2.256   3.326   5.487 -1.3689 -0.9165  1.0239
 1176TIP3    H2 3493   2.202   3.413   5.375  0.9969 -0.0307  0.5078
 1177TIP3   OH2 3494   3.222   3.765   5.371  0.8774  0.0654  0.3338
 1177TIP3    H1 3495   3.212   3.829   5.441  1.2576  1.8708 -1.2049
 1177TIP3    H2 3496   3.153   3.700   5.388  1.9217 -0.4307  3.2181
 1178TIP3   OH2 3497   1.595   4.677   3.288  0.0567 -0.0992  0.5785
 1178TIP3    H1 3498   1.515   4.625   3.282 -0.0839 -0.2200  2.6916
 1178TIP3    H2 3499   1.580   4.735   3.363  0.6991  2.1649 -0.9334
 1179TIP3   OH2 3500   2.306   0.985   3.789 -0.4700 -0.2374 -0.1093
 1179TIP3    H1 3501   2.289   0.918   3.723 -0.3146 -1.5838  1.1734
 1179TIP3    H2 3502   2.219   1.017   3.814 -0.6401 -0.9940  0.2941
 1180TIP3   OH2 3503   1.350   0.090   4.171  0.2662  0.1685 -0.2926
 1180TIP3    H1 3504   1.314   0.009   4.208 -0.8885  0.5421 -0.5605
 1180TIP3    H2 3505   1.360   0.071   4.077  1.7023 -0.2474 -0.0828
 1181TIP3   OH2 3506   2.253   4.909   4.258  0.2911  0.6687  0.3077
 1181TIP3    H1 3507   2.188   4.839   4.270 -0.1710  0.9694 -0.3792
 1181TIP3    H2 3508   2.337   4.865   4.261 -0.0364 -0.4036 -3.0125
 1182TIP3   OH2 3509   6.232   0.693   5.869  0.1249 -0.3489 -0.1012
 1182TIP3    H1 3510   6.161   0.674   5.930 -1.4859  1.4106 -1.3009
 1182TIP3    H2 3511   6.209   0.643   5.790  1.0386 -0.9227 -0.0198
 1183TIP3   OH2 3512   2.776   6.173   2.245 -0.0138 -0.2397  0.0299
 1183TIP3    H1 3513   2.864   6.176   2.207 -0.1838  3.1760 -0.3626
 1183TIP3    H2 3514   2.790   6.156   2.338  0.9714 -0.6686 -0.1839
 1184TIP3   OH2 3515   6.287   3.795   3.234 -0.3523  0.0469 -0.2828
 1184TIP3    H1 3516   6.206   3.821   3.190  1.2365  3.8243 -1.3753
 1184TIP3    H2 3517   6.335   3.744   3.169 -0.7762 -0.0183 -0.5470
 1185TIP3   OH2 3518   6.772   5.133   2.053 -0.1661  0.7277  0.1171
 1185TIP3    H1 3519   6.711   5.178   1.994 -0.7848 -0.8870 -0.5594
 1185TIP3    H2 3520   6.858   5.169   2.031 -0.5252  0.9265 -1.0290
 1186TIP3   OH2 3521   1.981   3.735   1.640  0.1348  0.4037  0.0236
 1186TIP3    H1 3522   2.073   3.740   1.613  0.7749 -0.9082  1.7330
 1186TIP3    H2 3523   1.949   3.654   1.599  0.3595 -0.2034  1.0028
 1187TIP3   OH2 3524   2.621   3.929   5.015 -0.1694  0.4271 -0.4230
 1187TIP3    H1 3525   2.685   3.878   5.064  0.7794  1.2380 -0.7895
 1187TIP3    H2 3526   2.615   3.886   4.930 -0.2976  0.2136 -0.3072
 1188TIP3   OH2 3527   4.862   4.644   1.932 -0.7822 -0.0225 -1.0519
 1188TIP3    H1 3528   4.918   4.671   1.859 -2.0962  0.1580 -2.0403
 1188TIP3    H2 3529   4.793   4.711   1.935 -0.9530 -0.2309  0.1286
 1189TIP3   OH2 3530   4.883   2.766   1.974 -0.1686 -0.4153  0.0383
 1189TIP3    H1 3531   4.945   2.773   1.902 -0.5342  0.4233 -0.2080
 1189TIP3    H2 3532   4.846   2.854   1.983 -0.2154 -0.5266  1.1710
 1190TIP3   OH2 3533   1.202   2.945   1.370 -0.5031  0.5828 -0.1258
 1190TIP3    H1 3534   1.133   2.911   1.426 -1.6775  0.7787 -1.4024
 1190TIP3    H2 3535   1.157   2.975   1.291  0.2150  5.8400  1.1056
 1191TIP3   OH2 3536   3.066   0.794   2.038  0.3324 -0.3028 -0.0845
 1191TIP3    H1 3537   3.056   0.735   1.963  0.9399 -1.8806  1.0176
 1191TIP3    H2 3538   3.085   0.736   2.111 -1.9486  1.0063  1.6805
 1192TIP3   OH2 3539   0.402   3.341   0.384  0.2981  0.6832  0.1288
 1192TIP3    H1 3540   0.440   3.323   0.470  0.4004  1.2961  0.2163
 1192TIP3    H2 3541   0.442   3.424   0.357  0.5177  0.3313 -0.6544
 1193TIP3   OH2 3542   3.654   1.166   0.178 -0.1735  0.0576  0.3688
 1193TIP3    H1 3543   3.662   1.169   0.274  1.0043 -1.0992  0.3391
 1193TIP3    H2 3544   3.560   1.159   0.161 -0.6383  2.6701  1.3236
 1194TIP3   OH2 3545   6.569   5.459   4.338 -0.7697  0.1522 -0.0832
 1194TIP3    H1 3546   6.533   5.541   4.304 -3.9456 -1.5687 -1.3355
 1194TIP3    H2 3547   6.504   5.393   4.315  0.1135 -2.3040  3.5474
 1195TIP3   OH2 3548   4.016   1.607   2.952 -0.3021 -0.2161 -0.5657
 1195TIP3    H1 3549   4.068   1.558   2.888  0.9529  0.1627  0.1341
 1195TIP3    H2 3550   4.080   1.641   3.014 -1.5568 -1.2972  1.4080
 1196TIP3   OH2 3551   2.711   2.573   4.868  0.1764 -0.0903 -0.1967
 1196TIP3    H1 3552   2.650   2.632   4.825  0.7891  1.0392  0.4328
 1196TIP3    H2 3553   2.660   2.494   4.885 -1.0236  0.7106  0.0490
 1197TIP3   OH2 3554   2.963   3.288   2.245 -0.1237 -0.4813  0.0020
 1197TIP3    H1 3555   2.924   3.201   2.231 -0.1813 -0.3790 -0.4926
 1197TIP3    H2 3556   2.889   3.347   2.252 -0.1110 -0.0201 -2.6323
 1198TIP3   OH2 3557   4.998   6.208   5.705 -0.6831  0.1770  0.6893
 1198TIP3    H1 3558   5.053   6.141   5.746  0.1406  0.6669  0.3919
 1198TIP3    H2 3559   5.016   6.200   5.611  1.2241  2.3242  0.7863
 1199TIP3   OH2 3560   5.610   3.358   1.033  0.5093  0.6835 -0.8498
 1199TIP3    H1 3561   5.663   3.312   0.968  0.4360  0.6654 -0.8969
 1199TIP3    H2 3562   5.666   3.362   1.111  0.2491 -0.1373 -0.6051
 1200TIP3   OH2 3563   2.348   1.718   5.564 -0.0937 -0.3386 -0.1748
 1200TIP3    H1 3564   2.430   1.689   5.604  0.2005  0.2601 -0.3424
 1200TIP3    H2 3565   2.336   1.661   5.488  0.2834 -0.2766 -0.2806
 1201TIP3   OH2 3566   0.652   2.366   4.589  0.6173 -0.0469 -0.1788
 1201TIP3    H1 3567   0.661   2.279   4.550  0.3595 -0.6450  1.0514
 1201TIP3    H2 3568   0.562   2.370   4.619  0.8311  0.3515  0.4334
 1202TIP3   OH2 3569   5.724   0.550   0.015 -0.1757  0.1768 -0.1139
 1202TIP3    H1 3570   5.787   0.576   0.082 -1.5400 -1.1602  1.8094
 1202TIP3    H2 3571   5.776   0.501  -0.049  0.9471  0.2274  0.7217
 1203TIP3   OH2 3572   4.353   3.728   1.669  0.2066  0.2956 -0.0951
 1203TIP3    H1 3573   4.436   3.737   1.624  0.2602  1.5273  0.1987
 1203TIP3    H2 3574   4.342   3.811   1.716 -0.7337 -0.2142  0.6304
 1204TIP3   OH2 3575   4.207   2.087   1.003 -0.3657  0.5200  0.4009
 1204TIP3    H1 3576   4.124   2.132   0.997  0.0586  1.1792 -0.7943
 1204TIP3    H2 3577   4.266   2.150   1.045 -0.4708  0.0297  1.3126
 1205TIP3   OH2 3578   4.337   2.827   4.159 -0.2913 -0.0443  0.7917
 1205TIP3    H1 3579   4.317   2.919   4.177  1.4520  0.2486  1.3232
 1205TIP3    H2 3580   4.261   2.796   4.108 -0.2927  2.0458 -0.5851
 1206TIP3   OH2 3581   5.852   3.792   5.354  0.4274  0.1529 -0.1292
 1206TIP3    H1 3582   5.844   3.839   5.271 -0.1913 -0.3081 -0.3331
 1206TIP3    H2 3583   5.842   3.700   5.331  0.0881  0.0323  0.4739
 1207TIP3   OH2 3584   1.479   5.629   0.412  0.1478  0.2808 -0.4133
 1207TIP3    H1 3585   1.396   5.601   0.373  0.1022  0.6620 -0.6040
 1207TIP3    H2 3586   1.453   5.674   0.493  0.2773 -0.9989  0.3718
 1208TIP3   OH2 3587   7.000   3.917   4.028 -0.4655  0.1904  0.3383
 1208TIP3    H1 3588   7.039   3.912   3.941 -0.6197  1.6853  0.1431
 1208TIP3    H2 3589   6.943   3.841   4.033  0.5872 -0.6693 -0.3265
 1209TIP3   OH2 3590   4.605   4.756   5.426 -0.4858 -0.0217 -0.0734
 1209TIP3    H1 3591   4.644   4.688   5.481  0.2408  0.3062 -0.1771
 1209TIP3    H2 3592   4.602   4.717   5.338 -2.8399 -1.0427  0.3805
 1210TIP3   OH2 3593   4.978   4.681   3.620 -0.0362  0.0095 -0.5216
 1210TIP3    H1 3594   5.069   4.662   3.645  0.8370  1.6881 -2.1820
 1210TIP3    H2 3595   4.968   4.775   3.633 -1.3490 -0.0572 -0.9170
 1211TIP3   OH2 3596   1.768   3.620   3.388 -0.4121  0.3384 -0.1544
 1211TIP3    H1 3597   1.833   3.638   3.456 -0.4024  0.4275 -0.1865
 1211TIP3    H2 3598   1.816   3.631   3.305 -1.5177  5.3681 -0.4334
 1212TIP3   OH2 3599   1.439   2.771   1.441  0.0404  0.1192 -0.0053
 1212TIP3    H1 3600   1.367   2.735   1.494  1.2100  0.0223  1.5666
 1212TIP3    H2 3601   1.451   2.706   1.371  0.7588 -1.5831  1.6181
 1213TIP3   OH2 3602   4.815   2.049   1.020 -0.3308 -0.1492 -0.0471
 1213TIP3    H1 3603   4.732   2.005   1.002 -0.1763 -1.5499  2.1870
 1213TIP3    H2 3604   4.864   2.044   0.937 -1.0358 -2.6933 -0.3988
 1214TIP3   OH2 3605   1.196   4.954   2.396 -0.2178  0.3568  0.1135
 1214TIP3    H1 3606   1.217   5.020   2.462 -0.2736  0.4356  0.0521
 1214TIP3    H2 3607   1.196   4.871   2.445  0.0317  0.3786  0.1550
 1215TIP3   OH2 3608   4.520   2.212   5.666  0.4636 -0.1996  0.3166
 1215TIP3    H1 3609   4.567   2.263   5.600  1.0845  0.7176  1.4219
 1215TIP3    H2 3610   4.464   2.153   5.616  2.5455 -1.1136 -1.0863
 1216TIP3   OH2 3611   4.391   4.660   0.898  0.2251 -0.7600  0.4773
 1216TIP3    H1 3612   4.454   4.714   0.946 -0.3660 -0.7538  1.2711
 1216TIP3    H2 3613   4.443   4.587   0.864  1.3309  0.9267 -1.7743
 1217TIP3   OH2 3614   4.486   2.272   0.631  0.0025 -0.4130 -0.4144
 1217TIP3    H1 3615   4.492   2.176   0.632 -1.1887 -0.5864 -2.8349
 1217TIP3    H2 3616   4.563   2.301   0.582  1.4944  0.0976  2.0530
 1218TIP3   OH2 3617   3.060   4.065   4.515 -0.1559  0.5541 -0.4494
 1218TIP3    H1 3618   3.097   4.088   4.430 -1.3901  2.4087 -0.5394
 1218TIP3    H2 3619   2.965   4.064   4.501 -0.3268 -1.0815  0.4732
 1219TIP3   OH2 3620   4.368   2.658   3.452 -0.1607 -0.0492 -0.3017
 1219TIP3    H1 3621   4.329   2.621   3.531 -1.0974  1.6530  0.0667
 1219TIP3    H2 3622   4.297   2.706   3.411  1.1781  1.9668 -0.3611
 1220TIP3   OH2 3623   0.023   4.179   1.484  0.3795 -0.1689  0.0551
 1220TIP3    H1 3624   0.089   4.229   1.436  0.5541 -0.8338 -0.4215
 1220TIP3    H2 3625   0.073   4.129   1.549  0.2265  0.1223  0.4036
 1221TIP3   OH2 3626   4.595   3.838   1.309  0.4941  0.0688  0.4661
 1221TIP3    H1 3627   4.566   3.765   1.363  2.5132 -1.0889  0.0986
 1221TIP3    H2 3628   4.672   3.804   1.263  0.2089  1.7495 -1.3781
 1222TIP3   OH2 3629   2.970   4.057   5.227  0.1513  0.9710  0.0141
 1222TIP3    H1 3630   2.947   4.121   5.160  0.2732  0.8332 -0.1619
 1222TIP3    H2 3631   2.886   4.021   5.256  0.1665 -0.2941 -1.3772
 1223TIP3   OH2 3632   3.390   1.515   0.930  0.1546 -0.0695 -0.7457
 1223TIP3    H1 3633   3.318   1.539   0.988  0.7468 -2.1665  1.0167
 1223TIP3    H2 3634   3.454   1.586   0.940 -0.4957  0.4389 -0.1280
 1224TIP3   OH2 3635   4.062   2.419   4.845  0.6210  0.9088 -0.0253
 1224TIP3    H1 3636   4.000   2.444   4.913 -0.2410 -0.2533 -0.3399
 1224TIP3    H2 3637   4.105   2.341   4.879 -1.9902 -1.5919 -1.8971
 1225TIP3   OH2 3638   5.518   5.460   2.516 -0.0406  0.7216  0.6622
 1225TIP3    H1 3639   5.568   5.418   2.446  0.4009  1.3655  0.5793
 1225TIP3    H2 3640   5.484   5.388   2.568 -0.7677  0.2089 -0.4858
 1226TIP3   OH2 3641   4.233   1.738   4.608  0.1075 -0.5963 -0.2522
 1226TIP3    H1 3642   4.242   1.682   4.685 -2.3382 -1.4886 -0.5231
 1226TIP3    H2 3643   4.166   1.802   4.633  2.2183  1.7579 -0.2553
 1227TIP3   OH2 3644   1.865   5.007   0.736  0.1535 -0.2853  0.1386
 1227TIP3    H1 3645   1.834   4.974   0.652 -0.7439  0.0498  0.3288
 1227TIP3    H2 3646   1.911   5.088   0.714 -1.5872  0.7527  0.1124
 1228TIP3   OH2 3647   3.091   3.495   5.901  0.2849  0.3749  0.1796
 1228TIP3    H1 3648   3.063   3.426   5.842  0.9402  0.1169  0.1664
 1228TIP3    H2 3649   3.049   3.574   5.867 -1.6108 -0.2051  0.9915
 1229TIP3   OH2 3650   6.962   6.126   4.506  0.4518 -0.6150 -0.0114
 1229TIP3    H1 3651   7.026   6.172   4.559  0.8314 -1.3447  0.1697
 1229TIP3    H2 3652   7.008   6.104   4.425  0.3474 -0.8855 -0.0003
 1230TIP3   OH2 3653   5.803   2.777   3.720  0.2064  0.4630  0.1647
 1230TIP3    H1 3654   5.755   2.700   3.751  0.1159  0.4755  0.0599
 1230TIP3    H2 3655   5.880   2.783   3.777  0.0646  0.4628  0.3582
 1231TIP3   OH2 3656   3.070   1.601   5.841  0.9573  0.5670  0.2404
 1231TIP3    H1 3657   3.163   1.620   5.856  0.8840  0.0825  1.4559
 1231TIP3    H2 3658   3.024   1.673   5.884  0.7641  0.5840  0.0039
 1232TIP3   OH2 3659   0.978   2.912   3.726 -0.2277  0.0529  0.3481
 1232TIP3    H1 3660   1.023   2.843   3.677  1.0012  1.6445 -0.8747
 1232TIP3    H2 3661   0.986   2.990   3.671 -4.3212  0.5673  0.1604
 1233TIP3   OH2 3662   2.245   2.362   0.233 -0.3988  0.4328 -0.1007
 1233TIP3    H1 3663   2.159   2.405   0.227 -0.5740  0.1235  0.2048
 1233TIP3    H2 3664   2.305   2.423   0.188 -0.4679  1.4680  1.1603
 1234TIP3   OH2 3665   3.500   1.993   1.574  0.6835  0.4711 -0.5011
 1234TIP3    H1 3666   3.560   2.047   1.523  0.1330  1.1009 -0.4884
 1234TIP3    H2 3667   3.414   2.030   1.558  0.4250  0.2647  0.3618
 1235TIP3   OH2 3668   1.082   1.317   4.235 -0.1699  0.7762  0.0026
 1235TIP3    H1 3669   1.025   1.355   4.302 -0.3192 -0.4345  0.5906
 1235TIP3    H2 3670   1.025   1.256   4.188  0.2961  0.5612 -0.2876
 1236TIP3   OH2 3671   6.672   5.809   1.966  0.4150 -0.1326  0.3310
 1236TIP3    H1 3672   6.735   5.873   2.001  2.3865 -0.9248 -1.5421
 1236TIP3    H2 3673   6.653   5.840   1.878  0.4892 -1.4981 -0.1765
 1237TIP3   OH2 3674  -0.001   2.740   2.050 -0.0159 -0.0504  0.4551
 1237TIP3    H1 3675  -0.023   2.754   1.957  1.2141 -0.8758  0.0106
 1237TIP3    H2 3676   0.042   2.821   2.077  3.6264 -1.2671 -1.0203
 1238TIP3   OH2 3677   6.040   2.415   2.151  0.0378  0.3978  0.8678
 1238TIP3    H1 3678   6.043   2.500   2.194  1.0799 -0.5159  2.6974
 1238TIP3    H2 3679   6.114   2.366   2.187  2.9349  0.4843 -4.1412
 1239TIP3   OH2 3680   5.895   3.502   1.412 -0.7262 -0.0449  0.3471
 1239TIP3    H1 3681   5.877   3.593   1.389 -0.2511  0.4691  1.8889
 1239TIP3    H2 3682   5.991   3.496   1.415 -0.7510 -0.6136  0.1792
 1240TIP3   OH2 3683   2.542   3.097   4.595 -0.1480  0.3981 -0.3480
 1240TIP3    H1 3684   2.553   3.112   4.501 -0.3346 -2.0279 -0.8407
 1240TIP3    H2 3685   2.511   3.006   4.601 -0.8366  0.7187  2.0328
 1241TIP3   OH2 3686   0.165   1.120   2.428 -0.1577  0.2093  0.2736
 1241TIP3    H1 3687   0.158   1.137   2.334 -0.0512  0.8222  0.3754
 1241TIP3    H2 3688   0.254   1.087   2.440 -0.8618 -1.9836 -0.1546
 1242TIP3   OH2 3689   1.711   6.232   5.015  0.6900 -0.0964  0.1654
 1242TIP3    H1 3690   1.626   6.274   5.007 -0.6757 -2.8038 -0.6055
 1242TIP3    H2 3691   1.770   6.288   4.966 -0.5309  2.0260  0.9979
 1243TIP3   OH2 3692   5.453   2.911   4.756 -0.0430  0.9374 -0.0068
 1243TIP3    H1 3693   5.511   2.986   4.750  1.3269 -0.1153 -0.6274
 1243TIP3    H2 3694   5.508   2.841   4.793 -1.7068  0.6470  2.0914
 1244TIP3   OH2 3695   0.733   2.347   5.850 -0.1330 -0.3775  0.3658
 1244TIP3    H1 3696   0.723   2.255   5.823  1.6479 -1.2897  2.5500
 1244TIP3    H2 3697   0.815   2.375   5.810  1.0423 -0.8503  2.3117
 1245TIP3   OH2 3698   3.980   1.496   4.629  0.9410  0.0313 -0.3475
 1245TIP3    H1 3699   4.058   1.441   4.644  0.3097 -0.4314  1.6398
 1245TIP3    H2 3700   3.988   1.566   4.694  0.7184  1.1579 -1.5181
 1246TIP3   OH2 3701   3.518   4.347   0.058  0.1882  0.0310 -0.2613
 1246TIP3    H1 3702   3.578   4.274   0.039 -1.8331 -1.5828 -0.8618
 1246TIP3    H2 3703   3.528   4.406  -0.017  1.0492 -0.1640 -0.3150
 1247TIP3   OH2 3704   0.555   0.302   2.491 -0.3115 -0.1192 -0.4219
 1247TIP3    H1 3705   0.643   0.329   2.515  0.1053 -1.3080 -0.5650
 1247TIP3    H2 3706   0.505   0.383   2.487 -0.1996  0.3072  3.5253
 1248TIP3   OH2 3707   4.903   6.261   1.791  0.2648 -0.0310 -0.5444
 1248TIP3    H1 3708   4.927   6.312   1.868 -0.8858  1.6280 -1.2380
 1248TIP3    H2 3709   4.853   6.187   1.825  0.9530 -0.0879  0.3828
 1249TIP3   OH2 3710   0.605   5.633   4.674  0.0390 -1.3266  0.7516
 1249TIP3    H1 3711   0.653   5.637   4.757  3.9455 -0.6007 -1.2847
 1249TIP3    H2 3712   0.571   5.722   4.661  2.6479 -0.3381  0.0217
 1250TIP3   OH2 3713   4.154   1.727   0.672 -0.5587  0.0481 -0.0038
 1250TIP3    H1 3714   4.095   1.743   0.599  0.2238 -2.0217 -1.1685
 1250TIP3    H2 3715   4.238   1.707   0.631  0.5121  1.1232  1.5521
 1251TIP3   OH2 3716   3.933   2.280   2.352  0.2382 -0.5691 -0.1163
 1251TIP3    H1 3717   3.968   2.302   2.265  1.1520 -0.4019  0.2830
 1251TIP3    H2 3718   3.894   2.362   2.384 -2.6755 -1.2725 -1.4956
 1252TIP3   OH2 3719   5.496   3.312   2.983 -0.6292  0.5199 -0.5665
 1252TIP3    H1 3720   5.502   3.365   3.063  3.0445  1.9114 -1.5590
 1252TIP3    H2 3721   5.444   3.365   2.923 -0.4215  1.1416 -0.2108
 1253TIP3   OH2 3722   3.449   1.390   3.067 -0.2798 -0.0809 -0.0164
 1253TIP3    H1 3723   3.435   1.484   3.071  2.0439  0.4240 -1.8098
 1253TIP3    H2 3724   3.364   1.355   3.040 -0.7237  1.6939 -1.0969
 1254TIP3   OH2 3725   1.807   5.611   2.178  0.0818  0.4344  0.5322
 1254TIP3    H1 3726   1.817   5.676   2.108 -1.4161  0.3321  0.1731
 1254TIP3    H2 3727   1.872   5.544   2.159 -0.6098  0.1800 -1.0493
 1255TIP3   OH2 3728   7.107   0.400   0.327 -0.4001  0.1820  0.8075
 1255TIP3    H1 3729   7.100   0.350   0.409  0.5919 -1.9293 -0.3336
 1255TIP3    H2 3730   7.022   0.389   0.285 -0.6050  0.5320  1.1153
 1256TIP3   OH2 3731   4.148   0.300   3.663 -0.3148  0.2073  0.2699
 1256TIP3    H1 3732   4.102   0.239   3.605  0.1506  1.2219 -1.2191
 1256TIP3    H2 3733   4.206   0.245   3.715  0.0094 -0.6630 -0.9614
 1257TIP3   OH2 3734   4.355   3.685   2.762 -0.7426  0.0960 -0.4916
 1257TIP3    H1 3735   4.388   3.596   2.752  2.4864  0.9846  0.9979
 1257TIP3    H2 3736   4.261   3.675   2.775 -0.4506 -3.0874 -0.2360
 1258TIP3   OH2 3737   2.569   0.506   1.120 -0.4894  0.0353 -0.2762
 1258TIP3    H1 3738   2.614   0.523   1.037 -0.0922  3.4840  0.4935
 1258TIP3    H2 3739   2.476   0.513   1.098 -0.4996 -1.4758 -0.8198
 1259TIP3   OH2 3740   2.898   6.137   1.012 -0.6327  0.5952  0.3102
 1259TIP3    H1 3741   2.828   6.114   0.951 -0.7673  0.0727  0.6540
 1259TIP3    H2 3742   2.865   6.214   1.058 -1.3893 -0.1968  1.1248
 1260TIP3   OH2 3743   2.381   5.922   0.953 -0.7025  0.2043 -0.2226
 1260TIP3    H1 3744   2.441   5.850   0.969 -0.7989  0.0548 -0.5372
 1260TIP3    H2 3745   2.294   5.882   0.957 -0.7844  0.4084  0.1722
 1261TIP3   OH2 3746   4.851   4.833   0.568  0.3412  0.0294  0.2708
 1261TIP3    H1 3747   4.886   4.897   0.507 -0.2114  0.4742  0.4101
 1261TIP3    H2 3748   4.862   4.748   0.524  0.7230  0.2568 -0.0752
 1262TIP3   OH2 3749   3.045   2.746   2.286 -0.8405  0.4982  0.0291
 1262TIP3    H1 3750   3.035   2.817   2.350  0.6170 -0.6808  1.6560
 1262TIP3    H2 3751   3.031   2.666   2.337 -1.4871 -0.4449 -1.5594
 1263TIP3   OH2 3752   4.769   1.857   5.494 -0.1462  0.0441  0.4024
 1263TIP3    H1 3753   4.818   1.781   5.525  0.0281  0.3299  0.8384
 1263TIP3    H2 3754   4.680   1.841   5.524 -0.4793 -0.7876 -0.9440
 1264TIP3   OH2 3755   0.895   4.074   3.354  0.1403  0.4314  0.2868
 1264TIP3    H1 3756   0.810   4.065   3.310 -0.3283 -1.3482  1.4402
 1264TIP3    H2 3757   0.943   3.996   3.329  0.7653  0.5724  1.0318
 1265TIP3   OH2 3758   1.673   2.471   1.378  0.0631  0.1138 -0.7587
 1265TIP3    H1 3759   1.735   2.450   1.308 -1.5148 -2.3966 -1.5162
 1265TIP3    H2 3760   1.587   2.449   1.343 -0.9508  0.3163  1.3912
 1266TIP3   OH2 3761   5.867   2.644   2.402 -0.1889  0.2538  0.6670
 1266TIP3    H1 3762   5.857   2.551   2.381 -0.8116  0.0060  1.9468
 1266TIP3    H2 3763   5.777   2.678   2.404  0.1221  1.7382 -3.1602
 1267TIP3   OH2 3764   0.911   0.140   0.771 -0.2755  0.8477 -0.1899
 1267TIP3    H1 3765   0.929   0.233   0.782  0.9950  0.6085 -0.1562
 1267TIP3    H2 3766   0.841   0.121   0.834  1.1326  1.2700  1.5701
 1268TIP3   OH2 3767   5.110   4.353   0.429  0.2994 -0.2511  0.6630
 1268TIP3    H1 3768   5.190   4.348   0.481  0.4294 -2.9193  0.3233
 1268TIP3    H2 3769   5.053   4.285   0.464 -0.3563 -0.8785 -1.4353
 1269TIP3   OH2 3770   4.725   1.125   2.498  0.6105 -0.6336 -0.0024
 1269TIP3    H1 3771   4.693   1.167   2.419 -1.5934 -2.4473 -0.1867
 1269TIP3    H2 3772   4.793   1.064   2.468 -0.6990 -1.8257 -0.6747
 1270TIP3   OH2 3773   3.682   4.819   2.325  0.7491  0.1923  0.2699
 1270TIP3    H1 3774   3.677   4.859   2.238  2.5603 -0.7418 -0.3109
 1270TIP3    H2 3775   3.611   4.861   2.374  1.2661  2.6220 -0.8772
 1271TIP3   OH2 3776   3.990   6.798   0.539 -0.1100  0.3039  0.3550
 1271TIP3    H1 3777   3.911   6.756   0.503 -0.0543  0.0585  0.5138
 1271TIP3    H2 3778   3.964   6.826   0.626  0.2381 -0.5791  0.7521
 1272TIP3   OH2 3779   6.668   0.157   1.417  0.0870  0.8789  0.7356
 1272TIP3    H1 3780   6.625   0.087   1.367  0.0566  1.4991 -0.1187
 1272TIP3    H2 3781   6.747   0.177   1.368 -0.5729  2.3696  0.2123
 1273TIP3   OH2 3782   4.053   0.282   4.455  0.4369 -0.0371 -0.6452
 1273TIP3    H1 3783   4.143   0.310   4.435  1.3937 -2.1317  0.4043
 1273TIP3    H2 3784   4.050   0.277   4.551 -1.0690  0.7533 -0.6282
 1274TIP3   OH2 3785   4.253   5.057   2.469  0.9069 -0.1160  0.4603
 1274TIP3    H1 3786   4.165   5.078   2.438  0.7023  0.6183  1.4584
 1274TIP3    H2 3787   4.258   4.962   2.468 -0.4269 -0.2269  1.7443
 1275TIP3   OH2 3788   1.146   1.282   0.924 -0.0068 -0.1698 -0.0244
 1275TIP3    H1 3789   1.120   1.303   1.014  0.7222 -0.8949  0.3748
 1275TIP3    H2 3790   1.112   1.354   0.872 -0.7845  0.0651  0.7773
 1276TIP3   OH2 3791   5.970   1.309   0.698  0.7515 -0.1866 -0.0223
 1276TIP3    H1 3792   5.971   1.251   0.774  1.6284  0.4513  0.4656
 1276TIP3    H2 3793   5.993   1.252   0.624 -0.5172 -0.8991  0.0899
 1277TIP3   OH2 3794   5.273   5.586   3.774 -0.1260 -0.1467  0.5706
 1277TIP3    H1 3795   5.281   5.644   3.851 -3.0300  0.7045  0.3468
 1277TIP3    H2 3796   5.286   5.498   3.809 -0.6703  0.2836  1.9280
 1278TIP3   OH2 3797   0.859   6.109   4.710  0.0781  0.2041  0.3188
 1278TIP3    H1 3798   0.796   6.160   4.660 -0.1934 -0.7355 -0.3311
 1278TIP3    H2 3799   0.884   6.166   4.783 -0.6930  1.0035 -0.0231
 1279TIP3   OH2 3800   4.046   4.957   5.721  0.2845  0.4272  0.1201
 1279TIP3    H1 3801   3.955   4.969   5.750 -0.0967 -1.1212 -0.3674
 1279TIP3    H2 3802   4.039   4.906   5.641  1.5937  0.4823 -0.0450
 1280TIP3   OH2 3803   4.048   5.309   4.045 -0.0768  0.2390  0.0710
 1280TIP3    H1 3804   4.026   5.218   4.064 -0.6329 -0.1725 -2.2260
 1280TIP3    H2 3805   3.964   5.354   4.046  0.0071  0.4088 -0.2317
 1281TIP3   OH2 3806   4.213   5.945   2.941  0.8099  0.0105  0.2410
 1281TIP3    H1 3807   4.299   5.927   2.904  0.4003 -1.6023  0.0003
 1281TIP3    H2 3808   4.231   6.006   3.013  1.8330  1.6430 -1.2996
 1282TIP3   OH2 3809   0.046   4.182   3.609  0.7842  0.2836  0.0363
 1282TIP3    H1 3810   0.030   4.266   3.566 -0.6577  0.2857  0.5142
 1282TIP3    H2 3811   0.035   4.201   3.702  0.0703 -0.4920  0.1249
 1283TIP3   OH2 3812   3.411   0.027   5.153  0.1488 -0.3383  0.1129
 1283TIP3    H1 3813   3.433   0.086   5.224  0.0150 -0.1776  0.0230
 1283TIP3    H2 3814   3.458  -0.054   5.172  1.7150  0.3505 -0.6553
 1284TIP3   OH2 3815   6.311   5.835   3.340 -0.3486 -0.0712 -0.1202
 1284TIP3    H1 3816   6.336   5.746   3.365 -0.1474 -0.2001 -0.7559
 1284TIP3    H2 3817   6.384   5.890   3.369 -0.3640 -0.1433  0.0572
 1285TIP3   OH2 3818   4.020   5.900   2.748 -0.4143  0.0764 -0.0078
 1285TIP3    H1 3819   4.068   5.929   2.670  0.1913 -0.7289  0.0465
 1285TIP3    H2 3820   4.076   5.928   2.821 -0.4049 -0.1871  0.0864
 1286TIP3   OH2 3821   6.557   1.370   4.256 -0.1055 -0.2359 -0.0531
 1286TIP3    H1 3822   6.578   1.461   4.278  1.3373 -0.5980  0.1955
 1286TIP3    H2 3823   6.501   1.376   4.179  1.3952  0.8405 -1.1117
 1287TIP3   OH2 3824   5.747   5.319   0.549 -0.0247  0.2862 -0.2759
 1287TIP3    H1 3825   5.761   5.384   0.480  0.0767 -0.7941 -1.3072
 1287TIP3    H2 3826   5.655   5.331   0.575 -0.4874 -0.1820 -1.5897
 1288TIP3   OH2 3827   7.187   2.747   3.002 -0.1780 -0.1066 -0.0119
 1288TIP3    H1 3828   7.223   2.835   3.013  0.3147 -0.2684 -0.2883
 1288TIP3    H2 3829   7.093   2.761   2.987 -0.0901  0.3750 -0.1308
 1289TIP3   OH2 3830   5.942   6.577   3.775 -0.2606 -0.5137 -0.2873
 1289TIP3    H1 3831   5.903   6.644   3.830  1.6689 -0.0003  0.5508
 1289TIP3    H2 3832   5.868   6.534   3.732 -1.6561  0.7428  0.7772
 1290TIP3   OH2 3833   2.162   5.773   1.707  0.2400  0.4280  0.1797
 1290TIP3    H1 3834   2.168   5.707   1.776  0.1640  0.9913  0.7396
 1290TIP3    H2 3835   2.094   5.741   1.648 -0.3399  0.3709  0.8615
 1291TIP3   OH2 3836   0.947   1.683   1.808  0.9418  0.2844 -0.3227
 1291TIP3    H1 3837   0.880   1.744   1.840  0.6043 -0.3644  0.2395
 1291TIP3    H2 3838   0.951   1.615   1.875 -0.5437 -1.7209 -2.1419
 1292TIP3   OH2 3839   6.826   4.441   0.314  0.0872 -0.3131 -0.1723
 1292TIP3    H1 3840   6.900   4.494   0.282  1.2698 -2.1268 -0.5707
 1292TIP3    H2 3841   6.857   4.406   0.398 -1.2890  0.8095  0.8648
 1293TIP3   OH2 3842   2.991   1.520   4.463 -0.2538  0.3672 -0.0609
 1293TIP3    H1 3843   3.029   1.567   4.389  0.6086 -0.5162 -0.1987
 1293TIP3    H2 3844   3.054   1.534   4.535  1.1535 -2.2605 -0.6636
 1294TIP3   OH2 3845   0.355   5.273   0.037 -0.3233 -0.3214 -0.0587
 1294TIP3    H1 3846   0.392   5.337   0.098 -0.2702  1.3010 -1.6954
 1294TIP3    H2 3847   0.279   5.236   0.084  1.5069 -1.5015  2.1649
 1295TIP3   OH2 3848   1.042   1.769   0.223 -0.3944 -0.9147  0.2671
 1295TIP3    H1 3849   0.996   1.747   0.142  1.0640  0.4748 -1.0278
 1295TIP3    H2 3850   0.975   1.803   0.281 -1.1919  0.0213 -1.1480
 1296TIP3   OH2 3851   6.547   6.741   5.506  0.2499 -0.0805 -0.0861
 1296TIP3    H1 3852   6.482   6.806   5.477  0.5736  0.4152  0.2870
 1296TIP3    H2 3853   6.630   6.775   5.473  0.3107 -0.8129 -0.7299
 1297TIP3   OH2 3854   0.289   6.813   4.761 -0.2047  0.3586  0.0217
 1297TIP3    H1 3855   0.250   6.731   4.732  1.0167 -0.0765 -0.4345
 1297TIP3    H2 3856   0.374   6.788   4.796  1.2029  1.6621 -2.2449
 1298TIP3   OH2 3857   4.514   2.127   1.843 -0.5032 -0.1356  0.2803
 1298TIP3    H1 3858   4.442   2.140   1.904 -0.0093  1.1033  0.6376
 1298TIP3    H2 3859   4.561   2.210   1.844  0.5729 -0.7134 -0.4122
 1299TIP3   OH2 3860   6.079   1.881   2.832  0.0852 -0.4167  0.0627
 1299TIP3    H1 3861   6.046   1.880   2.742  0.6893 -0.1197 -0.1680
 1299TIP3    H2 3862   6.135   1.958   2.836 -1.0628  0.4149  1.1089
 1300TIP3   OH2 3863   4.164   3.321   3.197 -0.2000  0.1712  0.4702
 1300TIP3    H1 3864   4.096   3.388   3.195 -1.5289 -1.0287  2.5164
 1300TIP3    H2 3865   4.246   3.371   3.195 -1.0911  1.6794 -1.0255
 1301TIP3   OH2 3866   2.351   6.665   3.108 -0.1265 -0.2901 -0.2950
 1301TIP3    H1 3867   2.257   6.655   3.126  0.1028 -1.1915  0.5093
 1301TIP3    H2 3868   2.355   6.732   3.040 -1.4905 -1.5406 -1.7020
 1302TIP3   OH2 3869   4.056   5.517   5.107  0.2247  0.0975 -0.2027
 1302TIP3    H1 3870   4.028   5.432   5.075  0.1979  0.2081 -0.4770
 1302TIP3    H2 3871   4.128   5.543   5.050  0.4831  0.0927  0.1138
 1303TIP3   OH2 3872   4.980   4.378   3.650  0.3784  0.2236 -0.3452
 1303TIP3    H1 3873   4.913   4.325   3.605 -0.3753  1.2426 -0.4647
 1303TIP3    H2 3874   4.949   4.468   3.641  0.1417  0.4875  2.2940
 1304TIP3   OH2 3875   5.897   0.532   5.746  0.5334  0.3689  0.1311
 1304TIP3    H1 3876   5.991   0.520   5.754  0.4275 -0.8328 -0.2594
 1304TIP3    H2 3877   5.866   0.455   5.697 -0.8834 -0.1248  1.7020
 1305TIP3   OH2 3878   5.995   5.247   2.893 -0.8064  0.4813  0.2545
 1305TIP3    H1 3879   6.037   5.214   2.972 -4.8319 -1.2287  1.9637
 1305TIP3    H2 3880   5.959   5.332   2.918  0.7796  1.5647 -0.9321
 1306TIP3   OH2 3881   1.540   1.102   3.564 -0.1662  0.1588 -0.0151
 1306TIP3    H1 3882   1.602   1.175   3.570  0.6474 -0.5897  1.8325
 1306TIP3    H2 3883   1.457   1.142   3.540  0.6454  1.4333 -0.8254
 1307TIP3   OH2 3884   7.100   6.063   2.083 -0.6248  0.2741  0.0715
 1307TIP3    H1 3885   7.177   6.064   2.026 -0.8649  1.2600 -0.2594
 1307TIP3    H2 3886   7.106   6.145   2.133 -2.1596  1.0319 -0.9301
 1308TIP3   OH2 3887   2.396   2.282   2.568 -0.3911 -0.5531  0.2843
 1308TIP3    H1 3888   2.481   2.255   2.531  0.0028  0.8502  0.1266
 1308TIP3    H2 3889   2.352   2.328   2.497 -0.8306 -0.3214  0.7036
 1309TIP3   OH2 3890   0.706   5.681   5.809 -0.5366 -0.5024 -0.3049
 1309TIP3    H1 3891   0.645   5.653   5.877  0.6715 -2.4707  0.0425
 1309TIP3    H2 3892   0.759   5.749   5.851  0.2105 -1.7094  0.7805
 1310TIP3   OH2 3893   0.909   3.268   4.587  0.2106  0.5243 -0.5578
 1310TIP3    H1 3894   0.968   3.201   4.553 -1.5742 -1.6320  0.3210
 1310TIP3    H2 3895   0.966   3.328   4.635  1.6403 -2.3154  1.6161
 1311TIP3   OH2 3896   6.215   1.908   0.079 -0.1284 -0.1171  0.1224
 1311TIP3    H1 3897   6.242   1.970   0.010  0.2463  0.9057  1.1530
 1311TIP3    H2 3898   6.120   1.904   0.071 -0.4066  2.2732  1.3552
 1312TIP3   OH2 3899   2.632   5.693  -0.029 -0.1091 -0.0854  0.5889
 1312TIP3    H1 3900   2.578   5.687   0.050  0.3032  2.3515  1.1139
 1312TIP3    H2 3901   2.721   5.674   0.000 -0.2580 -1.4768  0.2219
 1313TIP3   OH2 3902   0.232   0.765   2.573  0.5319 -0.7141  0.4984
 1313TIP3    H1 3903   0.198   0.688   2.617  1.0023 -1.6224 -0.6826
 1313TIP3    H2 3904   0.220   0.747   2.480 -0.5256  1.1912  0.2065
 1314TIP3   OH2 3905   2.699   6.596   1.588 -0.0012 -0.3472 -0.2792
 1314TIP3    H1 3906   2.721   6.645   1.509 -0.9130  0.4168 -0.0700
 1314TIP3    H2 3907   2.781   6.555   1.615  1.2317  2.4667  0.5384
 1315TIP3   OH2 3908   2.714   2.665   0.020  0.7908 -0.2471  0.1587
 1315TIP3    H1 3909   2.712   2.739   0.080  0.9695  0.0139 -0.1547
 1315TIP3    H2 3910   2.797   2.621   0.039  0.0866 -1.1616  1.2826
 1316TIP3   OH2 3911   3.366   5.850   3.601  0.2891  0.2161 -0.3212
 1316TIP3    H1 3912   3.300   5.877   3.538  1.1474 -0.2928 -1.4586
 1316TIP3    H2 3913   3.356   5.755   3.608 -0.1537  0.3192  0.7408
 1317TIP3   OH2 3914   4.127   5.551   2.802  0.0562 -0.6519 -0.0355
 1317TIP3    H1 3915   4.209   5.597   2.823 -1.1108 -0.2211  4.8140
 1317TIP3    H2 3916   4.058   5.612   2.829 -1.6868 -2.8328  0.7270
 1318TIP3   OH2 3917   0.870   0.496   1.429 -0.3768  0.5500  0.1930
 1318TIP3    H1 3918   0.783   0.457   1.444 -0.9970  1.8135  0.0024
 1318TIP3    H2 3919   0.857   0.551   1.351  0.9561 -0.3159 -0.6823
 1319TIP3   OH2 3920   6.033   1.447   0.915 -0.5004 -0.0410  0.5533
 1319TIP3    H1 3921   6.060   1.356   0.920  0.5373  0.2275  0.0604
 1319TIP3    H2 3922   5.988   1.454   0.831  0.9425  0.2708 -0.2231
 1320TIP3   OH2 3923   4.177   5.437   5.375  0.6026 -0.2171 -0.3793
 1320TIP3    H1 3924   4.115   5.371   5.406  0.9118  0.0418  0.8228
 1320TIP3    H2 3925   4.145   5.460   5.287 -0.3917 -0.8397 -0.1985
 1321TIP3   OH2 3926   3.698   0.968   3.307  0.0166 -0.2330 -0.1883
 1321TIP3    H1 3927   3.787   0.940   3.286 -0.0593 -0.2460 -0.4882
 1321TIP3    H2 3928   3.709   1.049   3.357  0.2144 -0.4822  0.1730
 1322TIP3   OH2 3929   6.390   3.057   1.250 -0.4499  0.1406 -0.0705
 1322TIP3    H1 3930   6.323   3.097   1.195  0.5307  1.2502 -0.5235
 1322TIP3    H2 3931   6.357   3.064   1.339 -0.7437  1.0754 -0.2487
 1323TIP3   OH2 3932   0.276   1.470   1.233 -0.5722  0.3892 -0.1576
 1323TIP3    H1 3933   0.272   1.394   1.291 -1.3710 -0.2106 -0.9538
 1323TIP3    H2 3934   0.368   1.494   1.230 -0.4792  0.2634  1.1201
 1324TIP3   OH2 3935   1.985   4.744   2.696 -0.1161  0.2404  0.1380
 1324TIP3    H1 3936   2.018   4.727   2.785  0.4147  3.1059  0.6187
 1324TIP3    H2 3937   2.024   4.828   2.673 -1.8388  0.5276 -2.0327
 1325TIP3   OH2 3938   3.418   4.873   1.037  0.4511 -0.5110  0.7655
 1325TIP3    H1 3939   3.337   4.843   0.996  0.3117  0.5841  0.2253
 1325TIP3    H2 3940   3.473   4.901   0.964  0.9422 -0.3457  1.1944
 1326TIP3   OH2 3941   0.141   1.370   5.693  0.0943 -0.4287 -0.0345
 1326TIP3    H1 3942   0.067   1.360   5.634  0.0023 -0.8567  0.1478
 1326TIP3    H2 3943   0.109   1.339   5.778  0.8155 -1.7191 -0.2011
 1327TIP3   OH2 3944   1.121   6.812   1.520  0.3236  0.5269 -0.5408
 1327TIP3    H1 3945   1.056   6.747   1.493  0.6465 -0.2902  0.6128
 1327TIP3    H2 3946   1.198   6.760   1.543  0.1946  1.1945  1.5699
 1328TIP3   OH2 3947   1.708   1.878   1.009  0.0971  0.2720 -0.9440
 1328TIP3    H1 3948   1.708   1.866   0.914  1.0243  1.3924 -1.1150
 1328TIP3    H2 3949   1.619   1.858   1.037 -0.2729  0.2682 -2.0963
 1329TIP3   OH2 3950   3.697   6.420   4.547 -0.0944 -0.1442 -0.7035
 1329TIP3    H1 3951   3.696   6.495   4.487 -1.7415 -0.7113 -1.4404
 1329TIP3    H2 3952   3.656   6.349   4.498  0.1266 -1.1352  0.4949
 1330TIP3   OH2 3953   2.386   4.945   3.866 -0.5564  0.4016  0.2735
 1330TIP3    H1 3954   2.448   4.896   3.812  0.6337  2.8114 -0.7335
 1330TIP3    H2 3955   2.342   4.879   3.919  0.6480 -1.7300 -1.2420
 1331TIP3   OH2 3956   5.504   0.875   5.831 -0.0449 -0.1101  0.4849
 1331TIP3    H1 3957   5.418   0.852   5.796 -0.6587  1.2639  1.0387
 1331TIP3    H2 3958   5.548   0.919   5.758 -0.0020 -0.3466  0.3658
 1332TIP3   OH2 3959   4.509   1.964   0.541  0.1248  0.6507 -0.3166
 1332TIP3    H1 3960   4.493   1.978   0.635 -0.8387  0.9420 -0.5092
 1332TIP3    H2 3961   4.604   1.969   0.531  0.2970 -0.1132  0.7613
 1333TIP3   OH2 3962   0.269   5.141   4.341  0.6255 -0.6806  0.2968
 1333TIP3    H1 3963   0.343   5.156   4.400  0.5695 -0.6478  0.3587
 1333TIP3    H2 3964   0.229   5.227   4.330  0.0822 -0.8396  0.9453
 1334TIP3   OH2 3965   3.833   4.416   3.526  0.5573  0.2679  0.0611
 1334TIP3    H1 3966   3.804   4.408   3.617  1.9754 -0.0172  0.4988
 1334TIP3    H2 3967   3.822   4.509   3.506 -0.9746  0.1202  0.0817
 1335TIP3   OH2 3968   2.131   0.797   4.400  0.3616 -0.0192  0.7795
 1335TIP3    H1 3969   2.155   0.889   4.389 -2.7001  0.9813  1.2634
 1335TIP3    H2 3970   2.067   0.799   4.472 -1.2338 -2.2169 -0.4779
 1336TIP3   OH2 3971   3.449   3.230   5.812  0.1333 -0.5117  0.0199
 1336TIP3    H1 3972   3.441   3.305   5.870  0.0617 -1.6251  1.5370
 1336TIP3    H2 3973   3.524   3.250   5.756  0.1806  0.6172  0.4673
 1337TIP3   OH2 3974   3.102   3.962   1.858 -0.2202 -0.4140 -0.1058
 1337TIP3    H1 3975   3.048   3.884   1.869 -0.1502 -0.5536 -0.7110
 1337TIP3    H2 3976   3.189   3.929   1.834  0.2050 -0.1988  1.0499
 1338TIP3   OH2 3977   1.118   3.640   2.161 -0.0052  0.7151 -0.3673
 1338TIP3    H1 3978   1.077   3.554   2.155  1.3773 -0.2023  1.9330
 1338TIP3    H2 3979   1.083   3.678   2.241  1.0699  1.3274 -0.1654
 1339TIP3   OH2 3980   4.283   3.697   0.815  0.4993  1.0822  0.3298
 1339TIP3    H1 3981   4.341   3.680   0.741 -0.9068 -0.4290 -0.5067
 1339TIP3    H2 3982   4.326   3.653   0.889 -0.7084 -2.4681 -0.8290
 1340TIP3   OH2 3983   6.130   2.206   4.124  0.5728 -0.2824  0.3181
 1340TIP3    H1 3984   6.114   2.278   4.185 -0.7908 -1.3616  1.3081
 1340TIP3    H2 3985   6.201   2.237   4.068 -1.7205  2.9444 -1.1326
 1341TIP3   OH2 3986   4.768   4.182   5.807  0.6434 -0.1151 -0.5072
 1341TIP3    H1 3987   4.818   4.183   5.726  1.7808 -0.4955  0.1720
 1341TIP3    H2 3988   4.825   4.222   5.872  0.2984 -1.0410  0.4097
 1342TIP3   OH2 3989   6.218   3.130  -0.005 -0.5021 -0.2332  0.4703
 1342TIP3    H1 3990   6.179   3.043   0.004  0.3692 -0.6288  0.5257
 1342TIP3    H2 3991   6.175   3.182   0.062 -0.0931 -0.9713  1.3252
 1343TIP3   OH2 3992   2.976   0.615   3.408 -0.3716 -0.0055  0.0763
 1343TIP3    H1 3993   3.027   0.559   3.467 -1.3117 -1.2427 -0.2510
 1343TIP3    H2 3994   3.022   0.699   3.410  1.8170 -1.1188 -0.3729
 1344TIP3   OH2 3995   2.710   2.992   4.820  0.4221 -0.1691  0.3866
 1344TIP3    H1 3996   2.756   2.935   4.758 -0.1327  1.1605 -1.3161
 1344TIP3    H2 3997   2.706   3.077   4.776 -0.6796  0.6246  1.9343
 1345TIP3   OH2 3998   5.986   3.572   4.955 -0.5051 -0.5923 -0.0076
 1345TIP3    H1 3999   6.065   3.600   4.909  0.8448 -0.8516  2.0343
 1345TIP3    H2 4000   5.915   3.622   4.913  1.1426  2.0790  0.1671
 1346TIP3   OH2 4001   1.793   3.244   0.624  0.2894 -0.1192 -0.0198
 1346TIP3    H1 4002   1.816   3.228   0.716 -1.4749 -1.6049  0.2198
 1346TIP3    H2 4003   1.816   3.162   0.580  2.8784  1.1849 -1.3643
 1347TIP3   OH2 4004   0.740   1.153   2.528 -0.0756 -0.5001 -0.0501
 1347TIP3    H1 4005   0.816   1.206   2.556 -0.4683 -0.6638  1.4419
 1347TIP3    H2 4006   0.778   1.087   2.471  1.1358 -1.2604  1.5324
 1348TIP3   OH2 4007   4.800   3.338   5.236  0.2937  0.0142  0.0129
 1348TIP3    H1 4008   4.810   3.405   5.168  1.7270  1.6221  1.6878
 1348TIP3    H2 4009   4.706   3.337   5.254  0.2295  1.6231 -0.0557
 1349TIP3   OH2 4010   5.103   3.813   1.150  0.4910  0.4449 -0.2674
 1349TIP3    H1 4011   5.099   3.906   1.172  0.8213  0.4461 -0.1920
 1349TIP3    H2 4012   5.196   3.797   1.132  0.3891  0.1972 -0.5829
 1350TIP3   OH2 4013   5.606   0.216   2.755  0.9054  0.3869 -0.5042
 1350TIP3    H1 4014   5.701   0.200   2.753  0.9887  0.8868 -0.6660
 1350TIP3    H2 4015   5.587   0.232   2.847  1.3630  2.4729 -0.7264
 1351TIP3   OH2 4016   0.423   2.731   5.546 -0.1252 -0.0905  0.4904
 1351TIP3    H1 4017   0.513   2.711   5.522 -0.6772 -3.7971  0.9661
 1351TIP3    H2 4018   0.370   2.686   5.480 -1.7079  2.1530  0.1207
 1352TIP3   OH2 4019   5.548   5.500   3.451  0.1159 -0.4925  0.0310
 1352TIP3    H1 4020   5.621   5.562   3.450  0.4154 -0.8518 -0.2552
 1352TIP3    H2 4021   5.547   5.466   3.541 -1.7401  1.9096  1.0490
 1353TIP3   OH2 4022   2.925   1.540   4.976 -0.5857 -0.4142 -0.4563
 1353TIP3    H1 4023   3.008   1.574   5.009 -1.3727 -0.0039  1.1775
 1353TIP3    H2 4024   2.901   1.471   5.037 -3.4309  2.1758  1.6452
 1354TIP3   OH2 4025   2.494   4.169   5.137 -0.0471 -0.0121  0.1836
 1354TIP3    H1 4026   2.532   4.092   5.094  1.6444  0.2846  1.0526
 1354TIP3    H2 4027   2.481   4.141   5.228  0.3377  0.6230  0.4434
 1355TIP3   OH2 4028   4.867   4.677   5.255 -0.0553  0.4998 -0.1527
 1355TIP3    H1 4029   4.805   4.734   5.210 -0.3903  0.9168  0.8107
 1355TIP3    H2 4030   4.952   4.719   5.241 -0.1918  0.7774 -0.1546
 1356TIP3   OH2 4031   0.287   5.220   1.912 -0.1610  0.1515  0.4975
 1356TIP3    H1 4032   0.304   5.291   1.851  0.1375 -0.8238 -0.5925
 1356TIP3    H2 4033   0.312   5.255   1.998  0.9010  1.0334 -0.1455
 1357TIP3   OH2 4034   4.283   2.741   2.995  0.2541 -0.0373 -0.6264
 1357TIP3    H1 4035   4.307   2.653   3.024  0.2448 -0.4634 -1.8420
 1357TIP3    H2 4036   4.364   2.792   3.003  0.2238 -0.1094  0.2108
 1358TIP3   OH2 4037   7.036   1.636   5.057 -0.7706  0.1736  0.2265
 1358TIP3    H1 4038   7.057   1.670   5.144  0.7648 -0.0532 -0.0292
 1358TIP3    H2 4039   6.961   1.578   5.072 -0.6363  0.2706  1.3765
 1359TIP3   OH2 4040   1.385   5.789   1.018  0.1007 -0.1564 -0.2831
 1359TIP3    H1 4041   1.326   5.759   1.087  0.2042 -0.1054 -0.1723
 1359TIP3    H2 4042   1.473   5.769   1.051  0.1663  0.1835 -0.2476
 1360TIP3   OH2 4043   2.092   4.060   1.689 -0.1999 -0.0537  0.3939
 1360TIP3    H1 4044   2.063   3.993   1.627 -1.0221  0.9723 -0.3677
 1360TIP3    H2 4045   2.093   4.141   1.639  1.1367  0.4713  1.2032
 1361TIP3   OH2 4046   1.165   3.994   1.587  0.6282 -0.6907  0.0583
 1361TIP3    H1 4047   1.220   3.918   1.605  2.5588  0.0359 -2.1896
 1361TIP3    H2 4048   1.227   4.065   1.569 -0.9544  0.1394 -2.8448
 1362TIP3   OH2 4049   3.759   2.737   1.484  0.4853 -0.4111  0.1548
 1362TIP3    H1 4050   3.844   2.698   1.468 -0.0763 -1.8002  0.3742
 1362TIP3    H2 4051   3.697   2.681   1.437 -0.3135  0.6012 -0.0596
 1363TIP3   OH2 4052   4.254   4.806   2.537 -0.1519  0.1099 -0.0642
 1363TIP3    H1 4053   4.195   4.771   2.471 -0.5175  1.1974 -0.3431
 1363TIP3    H2 4054   4.215   4.782   2.621 -0.9779  0.7784 -0.2477
 1364TIP3   OH2 4055   5.926   2.567   1.321  0.4624  0.0751  0.7648
 1364TIP3    H1 4056   5.866   2.592   1.391  0.2147 -0.5014  0.7620
 1364TIP3    H2 4057   5.886   2.490   1.280  0.8383  0.1219  0.2913
 1365TIP3   OH2 4058   0.969   1.906   2.202 -0.3735 -0.1553 -0.0017
 1365TIP3    H1 4059   0.994   1.863   2.120 -0.7958  0.4560 -0.4524
 1365TIP3    H2 4060   0.903   1.848   2.240  1.1694 -1.4255  0.8573
 1366TIP3   OH2 4061   0.710   6.188   1.876  0.2621  0.0905  0.0378
 1366TIP3    H1 4062   0.741   6.253   1.813 -0.1672 -0.1451 -0.4212
 1366TIP3    H2 4063   0.615   6.202   1.880  0.2149 -0.2708  0.1992
 1367TIP3   OH2 4064   3.314   2.890   2.406 -0.9192  0.3341  0.6186
 1367TIP3    H1 4065   3.256   2.920   2.336  0.0463  0.0929 -0.3041
 1367TIP3    H2 4066   3.299   2.951   2.478 -0.1602  2.0832 -0.6486
 1368TIP3   OH2 4067   6.330   6.528   0.177  0.5750  0.0096  0.1997
 1368TIP3    H1 4068   6.350   6.436   0.193 -0.4171 -0.0105  1.4362
 1368TIP3    H2 4069   6.275   6.555   0.251  0.0735  1.3423 -0.6117
 1369TIP3   OH2 4070   2.336   1.702   2.698 -0.3890 -0.4483 -0.2758
 1369TIP3    H1 4071   2.430   1.705   2.715  0.1033 -1.5723 -2.4700
 1369TIP3    H2 4072   2.299   1.773   2.751  1.5537 -0.5672  1.3234
 1370TIP3   OH2 4073   0.533   6.734   5.215 -0.4255  0.5311  0.0896
 1370TIP3    H1 4074   0.449   6.695   5.191 -0.4710  0.7407 -0.0907
 1370TIP3    H2 4075   0.558   6.787   5.140  0.0350  0.2020  0.0069
 1371TIP3   OH2 4076   6.332   0.922   0.615 -0.2839  0.0931  0.2288
 1371TIP3    H1 4077   6.244   0.922   0.653 -0.2679  0.1691  0.2669
 1371TIP3    H2 4078   6.318   0.947   0.524 -0.3337 -0.1948  0.1560
 1372TIP3   OH2 4079   1.388   1.734   3.445  0.2612 -0.6020 -0.2381
 1372TIP3    H1 4080   1.339   1.673   3.391 -0.6742 -0.0940  0.0137
 1372TIP3    H2 4081   1.472   1.744   3.400  0.9472 -3.0174  0.3939
 1373TIP3   OH2 4082   2.905   3.005   3.788  0.0191  0.2542  0.2007
 1373TIP3    H1 4083   2.859   2.994   3.871 -1.5749  0.8953 -0.5738
 1373TIP3    H2 4084   2.939   2.918   3.768 -0.5644 -0.1538  0.9460
 1374TIP3   OH2 4085   4.399   5.649   2.831 -0.1704 -0.3714  0.6697
 1374TIP3    H1 4086   4.473   5.598   2.864  1.2898  0.4556 -1.1367
 1374TIP3    H2 4087   4.409   5.735   2.872  0.5936  0.0987 -0.4516
 1375TIP3   OH2 4088   4.707   3.604   3.044 -0.5692 -0.3482  0.3568
 1375TIP3    H1 4089   4.681   3.671   2.982  2.2716  1.6589  1.1578
 1375TIP3    H2 4090   4.676   3.636   3.129 -0.1736 -0.6205  0.6092
 1376TIP3   OH2 4091   1.362   3.961   4.407  0.2070  0.3649  0.0698
 1376TIP3    H1 4092   1.285   3.909   4.432 -0.1600  0.4814 -0.8035
 1376TIP3    H2 4093   1.422   3.898   4.367  0.5315  0.2935  0.6563
 1377TIP3   OH2 4094   4.571   1.867   5.220  0.0454 -0.6801 -0.5791
 1377TIP3    H1 4095   4.578   1.922   5.297  0.4776  0.1510 -1.1940
 1377TIP3    H2 4096   4.586   1.778   5.252 -1.8189 -0.6014  0.6241
 1378TIP3   OH2 4097   2.758   0.705   1.830 -0.6179  0.1452  0.1546
 1378TIP3    H1 4098   2.761   0.771   1.761 -2.6257  0.3288  0.1861
 1378TIP3    H2 4099   2.850   0.690   1.853 -0.0047  1.2969 -1.3804
 1379TIP3   OH2 4100   3.655   5.767   0.839 -0.3092 -0.0377 -0.2326
 1379TIP3    H1 4101   3.624   5.847   0.880 -0.9707 -1.5578  2.4131
 1379TIP3    H2 4102   3.743   5.753   0.875 -1.5513 -2.3034  2.3310
 1380TIP3   OH2 4103   0.216   5.291   0.909  0.5182 -0.6048  0.5099
 1380TIP3    H1 4104   0.228   5.382   0.883 -1.2515 -0.9775 -1.9865
 1380TIP3    H2 4105   0.158   5.294   0.985  0.9416  0.3607  0.8001
 1381TIP3   OH2 4106   4.834   6.134   5.077 -0.3959 -0.2666 -0.8315
 1381TIP3    H1 4107   4.836   6.225   5.046  1.2447  0.2914  0.7143
 1381TIP3    H2 4108   4.742   6.118   5.098 -0.6140  1.3192 -0.4183
 1382TIP3   OH2 4109   3.982   5.239   5.417 -0.6140  0.2191  0.0748
 1382TIP3    H1 4110   3.993   5.144   5.405 -0.4028  0.0449  1.4621
 1382TIP3    H2 4111   3.924   5.265   5.345  0.7355 -0.6252 -1.3778
 1383TIP3   OH2 4112   0.973   2.572   1.403 -0.3898 -0.4781 -0.1591
 1383TIP3    H1 4113   0.965   2.667   1.402  0.6575 -0.3834 -0.9250
 1383TIP3    H2 4114   1.045   2.553   1.343  0.4965 -1.6438  1.2029
 1384TIP3   OH2 4115   4.773   2.866   3.917  0.3173 -0.1316 -0.0041
 1384TIP3    H1 4116   4.707   2.837   3.981  1.7500 -2.5239  0.5221
 1384TIP3    H2 4117   4.766   2.803   3.846  1.3285  0.2324 -0.4349
 1385TIP3   OH2 4118   3.718   1.486   5.230 -0.3659  0.2947  0.0221
 1385TIP3    H1 4119   3.814   1.492   5.228 -0.2436 -1.3495 -0.7307
 1385TIP3    H2 4120   3.690   1.570   5.267  1.3552  0.8174  0.2607
 1386TIP3   OH2 4121   4.234   6.045   4.149  0.2564  0.2553 -0.5199
 1386TIP3    H1 4122   4.262   5.958   4.120  0.1787 -0.4531  1.3641
 1386TIP3    H2 4123   4.142   6.051   4.124 -0.4471 -1.2551  1.4581
 1387TIP3   OH2 4124   1.871   4.950   1.183 -0.0544  0.1429 -0.4051
 1387TIP3    H1 4125   1.881   5.006   1.259 -2.6983 -0.9369  0.8816
 1387TIP3    H2 4126   1.830   5.006   1.117  0.3500  0.5494 -0.3162
 1388TIP3   OH2 4127   6.341   0.206   5.607 -0.0293  0.2251 -0.1839
 1388TIP3    H1 4128   6.420   0.254   5.633 -0.4623  0.6537  0.3452
 1388TIP3    H2 4129   6.369   0.155   5.531  0.9764 -0.2464  0.4715
 1389TIP3   OH2 4130   3.794   3.031   5.497 -0.0952  0.4329 -0.3297
 1389TIP3    H1 4131   3.748   2.952   5.525  1.6830 -1.1533 -1.6604
 1389TIP3    H2 4132   3.874   3.033   5.549  1.3392 -0.3930 -2.3788
 1390TIP3   OH2 4133   0.254   3.265   5.175  0.2521  0.0694 -0.5150
 1390TIP3    H1 4134   0.331   3.242   5.123  2.5232 -1.1290  3.0408
 1390TIP3    H2 4135   0.280   3.343   5.224 -0.1986 -1.0542  1.6677
 1391TIP3   OH2 4136   6.884   6.609   0.887 -0.6054  0.1532  0.8470
 1391TIP3    H1 4137   6.953   6.565   0.938 -0.8901  0.2930  1.3592
 1391TIP3    H2 4138   6.930   6.677   0.839 -0.4246  0.4421  1.4191
 1392TIP3   OH2 4139   5.231   6.251   0.106  0.0261  0.1227  0.1777
 1392TIP3    H1 4140   5.274   6.336   0.111 -0.5506  0.3842  0.9831
 1392TIP3    H2 4141   5.142   6.270   0.077  0.8117 -0.5670 -3.0381
 1393TIP3   OH2 4142   5.850   5.033   3.810 -0.2025  0.1509  0.2137
 1393TIP3    H1 4143   5.940   5.057   3.787  0.0920 -1.8955 -1.0383
 1393TIP3    H2 4144   5.846   5.044   3.905  0.7163  2.2136  0.0641
 1394TIP3   OH2 4145   1.811   5.293   3.969 -0.0616  0.2270  0.3895
 1394TIP3    H1 4146   1.870   5.369   3.977 -0.4421  0.8733 -2.2442
 1394TIP3    H2 4147   1.724   5.330   3.980 -0.3784  0.5944 -2.6615
 1395TIP3   OH2 4148   4.713   5.924   2.665  0.2896  0.5420 -0.2853
 1395TIP3    H1 4149   4.701   5.864   2.592  0.6837  0.4548 -0.2824
 1395TIP3    H2 4150   4.802   5.957   2.654 -0.0435  1.3936 -0.4880
 1396TIP3   OH2 4151   0.343   0.444   2.881 -0.2508 -0.5781  0.0939
 1396TIP3    H1 4152   0.313   0.405   2.962 -0.6711  0.4373  0.4468
 1396TIP3    H2 4153   0.366   0.534   2.905  0.4415 -0.5231 -0.7348
 1397TIP3   OH2 4154   0.529   6.349   2.131  0.3616  0.5383  0.3728
 1397TIP3    H1 4155   0.605   6.395   2.167  1.6317  0.3837 -1.8772
 1397TIP3    H2 4156   0.495   6.409   2.064 -1.0308  0.2431  0.7800
 1398TIP3   OH2 4157   6.217   1.222   1.288  0.2720  0.5085  0.0190
 1398TIP3    H1 4158   6.241   1.143   1.336  2.5922  2.2796  1.9858
 1398TIP3    H2 4159   6.134   1.249   1.326  0.6136  0.2527  0.9675
 1399TIP3   OH2 4160   6.506   5.979   3.122 -0.4081  0.2766  0.1628
 1399TIP3    H1 4161   6.429   5.923   3.134 -0.2530  0.3311  1.6658
 1399TIP3    H2 4162   6.502   6.007   3.031 -1.0630 -1.3257 -0.3257
 1400TIP3   OH2 4163   5.364   6.337   2.396  0.6008  0.1143 -0.5151
 1400TIP3    H1 4164   5.304   6.390   2.447 -0.9806  0.2361 -2.3778
 1400TIP3    H2 4165   5.352   6.248   2.429 -1.6319 -0.0829 -1.6866
 1401TIP3   OH2 4166   4.838   4.791   2.782 -0.2602  0.6210 -0.2085
 1401TIP3    H1 4167   4.762   4.820   2.833  0.3195  1.8890 -0.0369
 1401TIP3    H2 4168   4.815   4.702   2.755 -0.9536  0.2064  1.5445
 1402TIP3   OH2 4169   2.639   2.488   3.456 -0.6924 -0.0301 -0.3303
 1402TIP3    H1 4170   2.649   2.543   3.534  1.3249  0.3467 -0.8185
 1402TIP3    H2 4171   2.699   2.525   3.392 -0.9674 -1.4463 -1.4554
 1403TIP3   OH2 4172   4.568   5.934   4.537  0.5351  0.2808  0.2126
 1403TIP3    H1 4173   4.636   5.990   4.499 -0.4060 -0.1929 -2.3548
 1403TIP3    H2 4174   4.499   5.932   4.471 -0.3999 -2.1927  1.1579
 1404TIP3   OH2 4175   0.775   0.673   1.209 -0.3790 -0.1206 -0.1464
 1404TIP3    H1 4176   0.797   0.700   1.121  1.1367 -1.7198 -0.3293
 1404TIP3    H2 4177   0.684   0.700   1.222 -1.1293 -1.1569 -2.7464
 1405TIP3   OH2 4178   6.196   3.674   4.463  0.1395  0.2410  0.0570
 1405TIP3    H1 4179   6.260   3.734   4.423  0.5849 -1.3154 -1.6810
 1405TIP3    H2 4180   6.123   3.673   4.402  0.3649 -1.3570 -0.2353
 1406TIP3   OH2 4181   0.462   0.059   4.559  0.2735 -0.1004  0.3321
 1406TIP3    H1 4182   0.495   0.062   4.469 -0.9443 -0.7609 -0.1709
 1406TIP3    H2 4183   0.462   0.150   4.588  0.0529  0.2039 -0.5877
 1407TIP3   OH2 4184   5.991   4.309   4.866  0.0353  0.3412  0.0252
 1407TIP3    H1 4185   6.030   4.382   4.914  0.0269  0.1998  0.2464
 1407TIP3    H2 4186   6.024   4.231   4.910  0.5208  0.1944 -0.5756
 1408TIP3   OH2 4187   4.353   3.742   5.784 -0.2385  0.0654 -0.5623
 1408TIP3    H1 4188   4.381   3.798   5.711  1.1229  0.1679  0.0057
 1408TIP3    H2 4189   4.262   3.720   5.764  0.2717 -0.4119 -2.6162
 1409TIP3   OH2 4190   3.247   0.291   5.803  0.2602  0.1096  0.7832
 1409TIP3    H1 4191   3.260   0.198   5.786  0.4677  0.2873 -0.0871
 1409TIP3    H2 4192   3.153   0.300   5.816  0.1281 -0.1074  0.0517
 1410TIP3   OH2 4193   6.865   3.550   4.892  0.0670 -0.1885 -0.2026
 1410TIP3    H1 4194   6.872   3.633   4.845  1.3766  1.0496  1.9571
 1410TIP3    H2 4195   6.933   3.494   4.853  0.7648  0.6131 -0.1617
 1411TIP3   OH2 4196   6.289   4.756   1.964  0.1166  0.1935  0.0703
 1411TIP3    H1 4197   6.235   4.802   2.029 -0.3091  0.9316 -0.7831
 1411TIP3    H2 4198   6.350   4.823   1.933  0.1689 -0.0980 -0.4604
 1412TIP3   OH2 4199   1.302   3.351   5.693 -0.2985 -0.2802 -0.3536
 1412TIP3    H1 4200   1.388   3.361   5.734 -0.3287  1.4167 -0.6235
 1412TIP3    H2 4201   1.241   3.346   5.767 -0.0734 -0.3830 -0.1715
 1413TIP3   OH2 4202   3.242   5.161   5.668 -0.5726 -1.0307  0.2425
 1413TIP3    H1 4203   3.226   5.126   5.756 -0.9369  0.6616  0.8823
 1413TIP3    H2 4204   3.155   5.180   5.633 -0.3632  0.4191  0.4398
 1414TIP3   OH2 4205   1.706   0.325   0.492  0.0698 -0.0709 -0.3332
 1414TIP3    H1 4206   1.711   0.318   0.396 -0.8652 -0.3540 -0.3734
 1414TIP3    H2 4207   1.630   0.381   0.508  0.4227  0.2572  0.2496
 1415TIP3   OH2 4208   1.940   4.005  -0.032 -0.0680 -0.7171  0.4936
 1415TIP3    H1 4209   2.033   4.010  -0.008  0.4747  0.5131 -1.5476
 1415TIP3    H2 4210   1.893   4.005   0.051  1.6184  3.2180  1.7106
 1416TIP3   OH2 4211   5.744   5.556   4.354 -0.2398  0.5962 -0.5977
 1416TIP3    H1 4212   5.710   5.557   4.265 -3.2090 -0.4551  0.3918
 1416TIP3    H2 4213   5.680   5.606   4.405  0.8409  0.3469  1.0866
 1417TIP3   OH2 4214   4.099   3.636   2.808  0.3589  0.1060 -0.5766
 1417TIP3    H1 4215   4.004   3.627   2.815  0.4615  0.2301  1.6551
 1417TIP3    H2 4216   4.132   3.546   2.815  0.4562  0.2005  0.2864
 1418TIP3   OH2 4217   3.628   1.701   2.325  0.2270 -0.6081 -0.0939
 1418TIP3    H1 4218   3.536   1.689   2.304 -0.1793  1.3302  0.3267
 1418TIP3    H2 4219   3.651   1.785   2.284  1.2074 -0.0520  1.5013
 1419TIP3   OH2 4220   2.478   4.120   4.800 -0.3736 -0.2650 -0.1782
 1419TIP3    H1 4221   2.487   4.025   4.787  0.3668 -0.2982  0.5251
 1419TIP3    H2 4222   2.548   4.143   4.860 -0.2080  0.8341 -0.7666
 1420TIP3   OH2 4223   1.256   6.237   2.789  0.4429  0.4043  0.5393
 1420TIP3    H1 4224   1.231   6.329   2.792  0.4407  0.4545 -0.5988
 1420TIP3    H2 4225   1.262   6.216   2.695 -0.8614 -1.1042  0.7524
 1421TIP3   OH2 4226   0.970   5.930   2.549 -0.3637 -0.0581  0.7315
 1421TIP3    H1 4227   0.970   5.856   2.610  0.6875 -0.3101  0.4453
 1421TIP3    H2 4228   0.894   5.982   2.574 -0.0467 -0.2477  2.1542
 1422TIP3   OH2 4229   1.819   0.246   1.467 -0.4718 -0.4282 -0.1672
 1422TIP3    H1 4230   1.830   0.333   1.506  0.3365  1.1442 -3.5249
 1422TIP3    H2 4231   1.739   0.252   1.415  0.0318 -1.3755 -1.1150
 1423TIP3   OH2 4232   4.177   5.353   1.111  0.0797 -0.5395 -0.0524
 1423TIP3    H1 4233   4.260   5.317   1.142  1.0993  0.2488 -1.7208
 1423TIP3    H2 4234   4.163   5.312   1.025 -1.2142 -0.5888  0.1596
 1424TIP3   OH2 4235   0.810   1.265   1.136 -0.3726 -0.5403 -0.2943
 1424TIP3    H1 4236   0.715   1.268   1.144 -0.4293 -0.9368 -0.7568
 1424TIP3    H2 4237   0.826   1.247   1.043  0.1402 -1.1059 -0.1040
 1425TIP3   OH2 4238   2.139   0.666   4.962  0.0946 -0.1380  0.0018
 1425TIP3    H1 4239   2.108   0.579   4.986 -1.6100  0.5695  0.4987
 1425TIP3    H2 4240   2.234   0.661   4.973  0.0521 -1.9649 -0.1236
 1426TIP3   OH2 4241   0.904   3.088   0.595 -0.1737 -0.1923 -0.1195
 1426TIP3    H1 4242   0.983   3.054   0.637 -0.4278  0.4689  0.8989
 1426TIP3    H2 4243   0.924   3.179   0.576 -1.3087  0.4984  1.7804
 1427TIP3   OH2 4244   2.724   3.708   5.299  0.4555  0.1038 -0.2409
 1427TIP3    H1 4245   2.758   3.687   5.212 -0.3564 -0.8844 -0.3344
 1427TIP3    H2 4246   2.715   3.804   5.299  0.9125  0.1538 -1.0665
 1428TIP3   OH2 4247   1.626   0.237   5.885  0.1692 -0.8966 -0.6694
 1428TIP3    H1 4248   1.544   0.217   5.840 -0.9587  0.4250  0.7125
 1428TIP3    H2 4249   1.630   0.333   5.887  0.4094 -0.9028  1.5747
 1429TIP3   OH2 4250   1.773   0.052   5.063  0.2059 -0.0713  0.2355
 1429TIP3    H1 4251   1.748  -0.029   5.107  1.1590 -1.1030 -1.0548
 1429TIP3    H2 4252   1.702   0.068   5.001  0.8746 -0.9508 -0.7926
 1430TIP3   OH2 4253   2.392   2.528   5.076 -0.3941 -0.3128 -0.2008
 1430TIP3    H1 4254   2.377   2.500   4.985  2.1755  0.7904 -1.0641
 1430TIP3    H2 4255   2.336   2.605   5.086  1.0158  0.9775 -1.7132
 1431TIP3   OH2 4256   3.355   2.379   3.637  0.0710 -0.3680 -0.0102
 1431TIP3    H1 4257   3.281   2.319   3.637 -0.0826 -0.3569 -2.9412
 1431TIP3    H2 4258   3.432   2.323   3.635  0.1500 -0.3827  2.0211
 1432TIP3   OH2 4259   6.106   5.049   2.697 -0.4471 -0.6748  0.3535
 1432TIP3    H1 4260   6.052   4.973   2.718  0.2437 -1.1098  0.6060
 1432TIP3    H2 4261   6.180   5.043   2.757 -1.0824  1.0054  1.3611
 1433TIP3   OH2 4262   2.287   4.692   3.241  0.5471  0.6496 -0.2069
 1433TIP3    H1 4263   2.255   4.781   3.222 -0.6954  0.0569 -1.0257
 1433TIP3    H2 4264   2.242   4.667   3.321  0.1374  0.3937 -0.5152
 1434TIP3   OH2 4265   1.972   4.629   1.478  0.0980 -0.4729  0.1705
 1434TIP3    H1 4266   1.900   4.637   1.415 -0.2334  1.4163  0.7190
 1434TIP3    H2 4267   2.028   4.705   1.460 -0.2010  0.3467  2.3546
 1435TIP3   OH2 4268   3.457   1.028   5.868  0.3694 -0.5333 -0.4980
 1435TIP3    H1 4269   3.405   1.108   5.873 -0.3336 -1.0524  1.8311
 1435TIP3    H2 4270   3.445   0.997   5.778 -0.7187  1.0680 -0.9428
 1436TIP3   OH2 4271   4.013   0.948   1.138  0.3131  0.0561  0.3209
 1436TIP3    H1 4272   4.066   1.011   1.186 -1.1146  0.5181  1.3600
 1436TIP3    H2 4273   3.937   0.933   1.194 -2.0895  1.5860 -2.2470
 1437TIP3   OH2 4274   0.843   6.491   1.397  0.0704  0.2777  0.0599
 1437TIP3    H1 4275   0.801   6.517   1.315  1.9256  1.1366 -0.6781
 1437TIP3    H2 4276   0.775   6.501   1.464 -0.6251  2.5358 -0.9107
 1438TIP3   OH2 4277   1.529   4.924   2.135  0.3374 -0.2496  0.1368
 1438TIP3    H1 4278   1.602   4.862   2.124 -0.0919 -0.7402 -0.0048
 1438TIP3    H2 4279   1.571   5.008   2.150  0.9407 -0.7293  1.2301
 1439TIP3   OH2 4280   4.822   2.288   3.261 -0.4903  0.2517  0.5413
 1439TIP3    H1 4281   4.891   2.355   3.269 -1.4121  1.2535  0.2748
 1439TIP3    H2 4282   4.837   2.249   3.175  0.1342  0.0120  0.7520
 1440TIP3   OH2 4283   3.554   6.642   3.036  0.1570  0.1501  0.1672
 1440TIP3    H1 4284   3.511   6.712   3.086  1.6777  0.7256  0.7351
 1440TIP3    H2 4285   3.575   6.575   3.101  0.4016  0.0322 -0.0304
 1441TIP3   OH2 4286   2.773   1.915   3.465 -0.4171 -0.1831 -0.6331
 1441TIP3    H1 4287   2.712   1.906   3.538  0.3403  0.4602  0.1150
 1441TIP3    H2 4288   2.726   1.881   3.389 -2.2820  1.7027 -0.4172
 1442TIP3   OH2 4289   5.289   2.178   2.861 -0.8287  0.0246 -0.2494
 1442TIP3    H1 4290   5.373   2.138   2.841 -0.4593  1.3411 -1.4599
 1442TIP3    H2 4291   5.269   2.147   2.950  1.6750  0.9204  0.7109
 1443TIP3   OH2 4292   6.407   4.804   2.994  0.5208 -0.4003 -0.5507
 1443TIP3    H1 4293   6.484   4.751   3.017  1.7319  1.6290  0.2904
 1443TIP3    H2 4294   6.354   4.804   3.074  1.7085  1.5689  0.2925
 1444TIP3   OH2 4295   1.062   4.382   0.642 -0.1677 -0.3913  0.4628
 1444TIP3    H1 4296   0.995   4.399   0.709  1.5955  0.1980  2.1829
 1444TIP3    H2 4297   1.053   4.288   0.623 -1.1216 -0.4360  1.0578
 1445TIP3   OH2 4298   2.293   4.145   1.177  0.1546 -0.4007 -0.2574
 1445TIP3    H1 4299   2.329   4.217   1.230  0.6395 -0.7479 -0.1037
 1445TIP3    H2 4300   2.272   4.077   1.241  0.6680 -0.7913 -0.4963
 1446TIP3   OH2 4301   4.847   2.274   5.041  0.2585  0.2218 -0.3134
 1446TIP3    H1 4302   4.830   2.315   5.125  0.3171 -1.0186  0.3222
 1446TIP3    H2 4303   4.815   2.185   5.050  3.5009 -1.0769 -0.3240
 1447TIP3   OH2 4304   0.459   1.195   0.096  0.3269  0.4874  0.5411
 1447TIP3    H1 4305   0.366   1.196   0.115  0.0244 -1.3851 -0.5767
 1447TIP3    H2 4306   0.476   1.278   0.051 -1.0120  0.4159 -0.1500
 1448TIP3   OH2 4307   1.420   1.724   4.337 -0.2141  0.4545 -0.3557
 1448TIP3    H1 4308   1.427   1.660   4.407  1.1432  2.3499  1.3707
 1448TIP3    H2 4309   1.341   1.699   4.289 -0.5305 -1.6110  1.1263
 1449TIP3   OH2 4310   4.935   2.074   5.616  0.2225  0.3360 -0.1814
 1449TIP3    H1 4311   4.878   2.015   5.566  0.1847  0.5425 -0.3848
 1449TIP3    H2 4312   4.972   2.019   5.684 -2.3653  0.7850  1.7413
 1450TIP3   OH2 4313   5.067   3.388   2.387  0.0806  0.1355  0.4230
 1450TIP3    H1 4314   5.023   3.462   2.345 -0.6135 -0.7935 -0.5344
 1450TIP3    H2 4315   4.997   3.341   2.431  0.3551 -0.4989  0.1888
 1451TIP3   OH2 4316   2.243   3.488   5.171 -0.1886  0.3450 -0.0586
 1451TIP3    H1 4317   2.251   3.528   5.084 -0.7147 -1.9932 -1.2460
 1451TIP3    H2 4318   2.332   3.467   5.196  0.0026  1.3576  0.1791
 1452TIP3   OH2 4319   5.113   4.385   4.104 -0.5681 -0.0496 -0.1685
 1452TIP3    H1 4320   5.071   4.461   4.065 -0.2128 -0.3147 -1.0943
 1452TIP3    H2 4321   5.134   4.328   4.030 -1.7003 -1.5161  0.5581
 1453TIP3   OH2 4322   2.164   6.065   2.855 -0.3947 -0.2230  0.0635
 1453TIP3    H1 4323   2.086   6.117   2.834  0.9424  1.6854 -0.4172
 1453TIP3    H2 4324   2.172   6.072   2.950 -1.4316 -1.4086  0.2634
 1454TIP3   OH2 4325   7.163   6.117   3.439  0.8742  0.2525  0.2171
 1454TIP3    H1 4326   7.068   6.128   3.444  1.0965  2.8743 -0.2677
 1454TIP3    H2 4327   7.191   6.107   3.530  0.2832  1.1920  0.5126
 1455TIP3   OH2 4328   4.110   6.102   5.828 -0.2878 -0.0404 -0.0335
 1455TIP3    H1 4329   4.036   6.083   5.887  0.6439  0.8111  1.4772
 1455TIP3    H2 4330   4.153   6.017   5.816 -0.4011 -0.2104  0.6715
 1456TIP3   OH2 4331   5.572   3.026   5.330 -0.0313  0.1226 -0.3686
 1456TIP3    H1 4332   5.553   3.108   5.285 -2.2859 -0.1666 -0.0596
 1456TIP3    H2 4333   5.555   3.044   5.423  0.7156 -0.3647 -0.1218
 1457TIP3   OH2 4334   3.186   0.116   1.936  0.0409  0.1773 -0.5585
 1457TIP3    H1 4335   3.166   0.023   1.944 -1.6124  0.5846  0.5943
 1457TIP3    H2 4336   3.201   0.130   1.842  0.9221 -1.3337 -0.6640
 1458TIP3   OH2 4337   2.369   0.726   0.836  0.4864 -0.2346 -0.0649
 1458TIP3    H1 4338   2.330   0.718   0.749  0.5341  0.0228 -0.1106
 1458TIP3    H2 4339   2.461   0.746   0.820  0.3095  0.6934  0.0435
 1459TIP3   OH2 4340   0.826   1.097   4.552 -0.1394 -0.1089 -0.0046
 1459TIP3    H1 4341   0.846   1.179   4.507 -0.8641  0.9426  1.5005
 1459TIP3    H2 4342   0.797   1.124   4.639 -2.0310 -1.8632 -0.0241
 1460TIP3   OH2 4343   2.677   0.415   1.360 -0.0080 -0.7441  0.4311
 1460TIP3    H1 4344   2.633   0.330   1.361  1.6279 -1.6265  0.1028
 1460TIP3    H2 4345   2.657   0.451   1.274 -0.7348 -0.7699  0.5820
 1461TIP3   OH2 4346   2.278   3.295   0.554  0.1594 -0.0024 -0.0261
 1461TIP3    H1 4347   2.285   3.207   0.519 -0.8567 -0.3051  0.5063
 1461TIP3    H2 4348   2.228   3.343   0.489 -2.1725 -0.6957  1.1709
 1462TIP3   OH2 4349   3.926   6.053   4.419 -0.7903 -0.0762 -0.8647
 1462TIP3    H1 4350   3.935   6.102   4.501  2.4860  0.4669 -1.3868
 1462TIP3    H2 4351   3.906   5.964   4.446 -0.0043  0.1424  0.5668
 1463TIP3   OH2 4352   3.072   2.819   4.682  0.2307  0.2700  0.2673
 1463TIP3    H1 4353   3.155   2.789   4.645  1.0456  1.8456  0.7441
 1463TIP3    H2 4354   3.045   2.748   4.741  0.9331 -0.5061 -0.3250
 1464TIP3   OH2 4355   3.372   4.562   2.106 -0.7079 -0.2196  0.3789
 1464TIP3    H1 4356   3.343   4.470   2.099 -0.0053 -0.3967 -0.3744
 1464TIP3    H2 4357   3.365   4.582   2.199 -2.4883 -0.5018  0.3394
 1465TIP3   OH2 4358   0.753   5.791   3.938  0.4985  0.1727 -0.3903
 1465TIP3    H1 4359   0.828   5.732   3.926  0.7493  0.4822 -0.3597
 1465TIP3    H2 4360   0.736   5.789   4.032  0.0915 -0.3511 -0.4681
 1466TIP3   OH2 4361   5.405   3.428   4.437 -0.4151  0.5223 -0.6397
 1466TIP3    H1 4362   5.472   3.493   4.417  0.8747 -0.7687 -0.6373
 1466TIP3    H2 4363   5.442   3.345   4.407 -1.8095 -0.2999 -0.1731
 1467TIP3   OH2 4364   2.137   1.469   4.460 -0.0891 -0.4912 -0.2937
 1467TIP3    H1 4365   2.086   1.402   4.506 -0.1544 -1.2284 -1.3895
 1467TIP3    H2 4366   2.139   1.439   4.369 -0.5791  1.2942 -0.9310
 1468TIP3   OH2 4367   5.025   1.903   2.964 -0.2585 -0.1253 -0.0025
 1468TIP3    H1 4368   5.071   1.876   2.884 -0.5676  1.3121 -0.7059
 1468TIP3    H2 4369   5.045   1.834   3.028  0.9639 -0.7035 -0.9615
 1469TIP3   OH2 4370   1.297   1.126   4.128 -0.4159  0.3237  0.1384
 1469TIP3    H1 4371   1.241   1.050   4.143 -0.6348 -0.4185 -3.3999
 1469TIP3    H2 4372   1.236   1.199   4.116 -0.5014  0.1094 -0.8213
 1470TIP3   OH2 4373   3.927   3.149   4.561  0.1859  0.1029  0.0398
 1470TIP3    H1 4374   3.868   3.217   4.528  1.0191  0.7838 -0.0661
 1470TIP3    H2 4375   3.933   3.086   4.489  0.4023  0.5604 -0.3499
 1471TIP3   OH2 4376   0.109   5.831   2.082  0.5279  0.1278  0.1981
 1471TIP3    H1 4377   0.099   5.890   2.008 -0.3094  0.6427  0.7044
 1471TIP3    H2 4378   0.157   5.881   2.147 -2.7613  1.4839  1.8461
 1472TIP3   OH2 4379   5.114   2.763   3.398 -0.0071 -0.0889 -0.2871
 1472TIP3    H1 4380   5.076   2.751   3.485  0.3425  0.3789 -0.0706
 1472TIP3    H2 4381   5.205   2.734   3.407 -0.3183 -1.3261 -0.8343
 1473TIP3   OH2 4382   2.980   3.989   2.133 -0.0101  0.0476 -0.3865
 1473TIP3    H1 4383   2.901   3.951   2.095  0.2483 -1.1869  0.2289
 1473TIP3    H2 4384   3.051   3.934   2.099  0.5369  0.8547 -0.5736
 1474TIP3   OH2 4385   4.333   1.185   3.036 -0.6886 -0.1401  0.0623
 1474TIP3    H1 4386   4.307   1.259   3.091 -0.1405  0.9905 -1.1296
 1474TIP3    H2 4387   4.425   1.202   3.016 -0.6515 -0.9674 -0.5251
 1475TIP3   OH2 4388   4.887   6.675   2.809 -0.0378 -0.9532 -0.2836
 1475TIP3    H1 4389   4.956   6.741   2.818 -0.2527 -0.6373 -0.8682
 1475TIP3    H2 4390   4.886   6.629   2.893 -0.2539  0.1551  0.3445
 1476TIP3   OH2 4391   4.208   0.818   0.693  0.4918 -0.1754  0.1301
 1476TIP3    H1 4392   4.153   0.805   0.770  0.0890 -0.2972 -0.1734
 1476TIP3    H2 4393   4.215   0.913   0.684 -0.7942 -0.1153 -0.6034
 1477TIP3   OH2 4394   1.976   6.201   2.247  0.7138 -0.3095 -0.6206
 1477TIP3    H1 4395   2.003   6.164   2.164 -0.6994 -2.6149 -0.1678
 1477TIP3    H2 4396   1.976   6.126   2.308  1.7416  1.2899  1.4791
 1478TIP3   OH2 4397   5.777   3.320   1.251 -0.2067  0.3548 -0.1020
 1478TIP3    H1 4398   5.744   3.251   1.309  1.9545 -0.8563 -0.2151
 1478TIP3    H2 4399   5.803   3.391   1.309  0.3337 -0.1494  0.2811
 1479TIP3   OH2 4400   3.867   6.545   3.776 -0.5601 -0.5921 -0.2591
 1479TIP3    H1 4401   3.889   6.540   3.869 -0.8811  0.6807 -0.0954
 1479TIP3    H2 4402   3.949   6.571   3.734 -1.0906  1.8274  0.0662
 1480TIP3   OH2 4403   6.012   1.242   3.751 -0.4789 -0.0124  0.3754
 1480TIP3    H1 4404   6.074   1.203   3.690 -0.5479 -0.7252  0.7504
 1480TIP3    H2 4405   6.057   1.320   3.784 -0.2806  0.1526 -0.2718
 1481TIP3   OH2 4406   4.261   1.056   0.130  0.1173 -0.2097 -0.2502
 1481TIP3    H1 4407   4.304   1.046   0.045  0.1968  1.2068 -0.3967
 1481TIP3    H2 4408   4.286   1.143   0.160 -0.3285 -0.4849  0.9995
 1482TIP3   OH2 4409   6.527   0.814   2.526 -0.1753 -0.1444 -0.0919
 1482TIP3    H1 4410   6.573   0.889   2.489  0.1243 -0.8564 -1.2341
 1482TIP3    H2 4411   6.540   0.822   2.620 -0.1742  1.2351 -0.1973
 1483TIP3   OH2 4412   2.322   2.958   5.098  0.3633 -0.0811 -0.4636
 1483TIP3    H1 4413   2.391   3.021   5.076  0.2970  1.4825  3.1068
 1483TIP3    H2 4414   2.253   3.011   5.138 -1.7347 -1.9640 -1.3467
 1484TIP3   OH2 4415   3.387   2.514   5.792 -0.1374 -0.5555  0.8748
 1484TIP3    H1 4416   3.303   2.467   5.786  0.2211 -1.0464 -1.3173
 1484TIP3    H2 4417   3.434   2.470   5.863 -0.0872 -3.1627 -0.6363
 1485TIP3   OH2 4418   5.146   4.543   4.851 -0.1091  0.6809 -0.1621
 1485TIP3    H1 4419   5.053   4.521   4.842  0.1411 -0.0313 -1.3076
 1485TIP3    H2 4420   5.177   4.488   4.922 -0.4711  0.5836 -0.0771
 1486TIP3   OH2 4421   2.108   4.326   4.774 -0.0215  0.0633  0.0969
 1486TIP3    H1 4422   2.069   4.259   4.717  0.2637  0.5664 -0.7164
 1486TIP3    H2 4423   2.180   4.282   4.818  1.3913  0.2643 -1.8564
 1487TIP3   OH2 4424   3.655   5.153   2.765 -0.0177  0.3008 -0.1163
 1487TIP3    H1 4425   3.642   5.248   2.759  2.9082  0.7009 -1.7646
 1487TIP3    H2 4426   3.684   5.139   2.855 -1.1304  0.8473  0.3440
 1488TIP3   OH2 4427   6.755   5.096   2.585  0.2504 -0.5673 -0.2260
 1488TIP3    H1 4428   6.823   5.128   2.526  0.4043 -1.9008 -0.8018
 1488TIP3    H2 4429   6.737   5.170   2.643  1.7021  0.0338 -0.4947
 1489TIP3   OH2 4430   6.258   1.710   0.327 -0.0920  0.1720  0.7930
 1489TIP3    H1 4431   6.338   1.658   0.334 -0.3805 -0.3251  0.3968
 1489TIP3    H2 4432   6.257   1.742   0.237 -0.0701  0.6233  0.9491
 1490TIP3   OH2 4433   0.312   6.596   2.544  0.8505  0.0580 -0.3869
 1490TIP3    H1 4434   0.281   6.546   2.468  1.2620  1.1332 -1.2827
 1490TIP3    H2 4435   0.264   6.679   2.539  0.8952  0.1501  0.5324
 1491TIP3   OH2 4436   2.673   4.369   2.344  0.4356  0.1322  0.2946
 1491TIP3    H1 4437   2.579   4.361   2.359  0.5746  0.2076  1.2576
 1491TIP3    H2 4438   2.703   4.278   2.333 -0.0138  0.1933 -1.8875
 1492TIP3   OH2 4439   1.791   4.011   5.391  0.3281 -0.4680  0.4857
 1492TIP3    H1 4440   1.802   4.090   5.445 -2.3027  0.2325  0.1387
 1492TIP3    H2 4441   1.767   3.943   5.453  0.6516 -0.5207  0.5568
 1493TIP3   OH2 4442   6.731   2.554   5.276  0.4843  0.9310 -0.2716
 1493TIP3    H1 4443   6.677   2.580   5.202 -1.2758 -0.2871  0.5087
 1493TIP3    H2 4444   6.693   2.602   5.350 -0.3410 -0.8179  0.4910
 1494TIP3   OH2 4445   3.390   1.645   2.983  0.0139  0.3321  0.5360
 1494TIP3    H1 4446   3.384   1.702   2.907  2.2474 -1.0584 -0.8207
 1494TIP3    H2 4447   3.316   1.669   3.038 -2.1351  0.9439 -2.3902
 1495TIP3   OH2 4448   1.124   5.327   3.606  0.3080  0.0666 -0.2083
 1495TIP3    H1 4449   1.092   5.326   3.516 -0.4943 -0.2478  0.0643
 1495TIP3    H2 4450   1.141   5.420   3.624 -0.8051  0.2979 -0.2629
 1496TIP3   OH2 4451   3.952   5.588   2.130  0.4154  0.3024  0.0561
 1496TIP3    H1 4452   3.953   5.497   2.100  0.9628  0.5810 -0.8135
 1496TIP3    H2 4453   3.867   5.599   2.172  0.4455 -0.6836  0.4093
 1497TIP3   OH2 4454   3.647   0.798   0.978 -0.9098 -0.3731  0.2657
 1497TIP3    H1 4455   3.590   0.809   0.901  0.8209  0.5233 -0.9380
 1497TIP3    H2 4456   3.650   0.703   0.991 -0.4807 -0.6258 -1.3904
 1498TIP3   OH2 4457   1.547   4.308   3.531  0.0062 -0.3787 -0.3473
 1498TIP3    H1 4458   1.615   4.350   3.478 -0.9106  0.6858 -0.7156
 1498TIP3    H2 4459   1.477   4.288   3.469  0.0358 -1.6097 -0.0006
 1499TIP3   OH2 4460   6.470   0.596   0.769 -0.6371  0.1798 -0.1675
 1499TIP3    H1 4461   6.444   0.587   0.677 -0.3754  2.2741 -0.5015
 1499TIP3    H2 4462   6.519   0.678   0.772  1.0053 -0.7996  1.5205
 1500TIP3   OH2 4463   5.685   3.944   1.963  0.1308  0.3691  0.5256
 1500TIP3    H1 4464   5.770   3.917   1.930  1.0568  1.4625  1.8554
 1500TIP3    H2 4465   5.666   3.883   2.035  0.3011  0.7389  0.8933
 1501TIP3   OH2 4466   2.169   6.071   5.189 -0.5854 -0.3065  0.3121
 1501TIP3    H1 4467   2.196   6.004   5.251  0.4979  0.6342  0.8900
 1501TIP3    H2 4468   2.076   6.054   5.174 -0.2682 -2.0912  0.2112
 1502TIP3   OH2 4469   1.240   4.254   2.173  0.1206 -0.5941  0.4714
 1502TIP3    H1 4470   1.267   4.278   2.262 -1.4259 -0.1762  0.8451
 1502TIP3    H2 4471   1.149   4.227   2.182 -0.9508  2.0492 -1.3807
 1503TIP3   OH2 4472   3.375   3.924   0.032 -0.3102  0.1153 -0.8729
 1503TIP3    H1 4473   3.423   3.960  -0.042  1.0038  0.7390  0.2180
 1503TIP3    H2 4474   3.444   3.895   0.093 -1.3373 -0.3996  0.0827
 1504TIP3   OH2 4475   2.626   5.452   0.616  0.0569  0.3300  0.5080
 1504TIP3    H1 4476   2.643   5.395   0.691  0.7496  1.8758  1.5908
 1504TIP3    H2 4477   2.710   5.456   0.570 -0.2734 -0.3299 -0.1930
 1505TIP3   OH2 4478   3.815   2.971   1.184 -0.1062  0.0640  0.7216
 1505TIP3    H1 4479   3.799   2.919   1.105 -1.1148  0.7782  0.4502
 1505TIP3    H2 4480   3.908   2.956   1.203  0.2335  0.0989 -0.7568
 1506TIP3   OH2 4481   6.168   5.336   2.700  0.1667  0.2899  0.3336
 1506TIP3    H1 4482   6.118   5.265   2.741 -0.3921  1.0755  1.0331
 1506TIP3    H2 4483   6.105   5.408   2.692  1.1068  1.2135  0.9918
 1507TIP3   OH2 4484   5.835   6.568   0.435  0.5538  0.0595  0.6263
 1507TIP3    H1 4485   5.892   6.644   0.423 -0.1128  0.3590 -0.8246
 1507TIP3    H2 4486   5.830   6.556   0.530  0.6132  1.8716  0.8783
 1508TIP3   OH2 4487   4.057   5.167   1.805  0.1071 -0.1528 -0.0251
 1508TIP3    H1 4488   4.067   5.252   1.762 -1.3990 -0.6527 -1.4655
 1508TIP3    H2 4489   4.028   5.109   1.735 -0.2888 -1.5260  1.2404
 1509TIP3   OH2 4490   2.743   5.068   0.514  0.1210 -0.0580  0.1703
 1509TIP3    H1 4491   2.663   5.074   0.566 -0.5050 -0.8143 -0.6714
 1509TIP3    H2 4492   2.715   5.028   0.432  1.2930  0.0621 -0.3071
 1510TIP3   OH2 4493   6.464   1.355   1.292 -0.5039 -0.1928  0.5337
 1510TIP3    H1 4494   6.451   1.435   1.343 -0.2418  0.2379 -0.0741
 1510TIP3    H2 4495   6.388   1.301   1.313  0.0589 -0.4234  2.1238
 1511TIP3   OH2 4496   5.029   6.759   5.485  0.4076 -0.2842  0.4591
 1511TIP3    H1 4497   4.942   6.787   5.515  0.4881 -0.5900  0.9975
 1511TIP3    H2 4498   5.051   6.686   5.542  0.6057 -0.8367 -0.3103
 1512TIP3   OH2 4499   2.638   3.819   1.048  0.4023 -0.0024 -0.6571
 1512TIP3    H1 4500   2.722   3.860   1.068 -0.2665  0.8029  0.6076
 1512TIP3    H2 4501   2.582   3.891   1.018 -0.8091  0.1087  1.6545
 1513TIP3   OH2 4502   1.816   3.338   3.735  0.1510 -0.5172  0.0484
 1513TIP3    H1 4503   1.854   3.412   3.783 -1.5746 -0.1671  0.9478
 1513TIP3    H2 4504   1.840   3.353   3.644 -0.9392  1.7023  0.0643
 1514TIP3   OH2 4505   0.002   2.800   0.914  0.4182  0.2007  0.1716
 1514TIP3    H1 4506   0.082   2.813   0.965  0.8988 -0.7437 -0.3146
 1514TIP3    H2 4507  -0.043   2.885   0.917  1.1084  0.5512  1.0009
 1515TIP3   OH2 4508   3.865   4.226   4.826 -0.3583  0.0871  0.8193
 1515TIP3    H1 4509   3.941   4.179   4.861  0.1374  0.6763  0.5577
 1515TIP3    H2 4510   3.902   4.305   4.786 -0.9537 -0.3326 -0.6155
 1516TIP3   OH2 4511   1.719   5.258   5.887 -0.3285 -1.1966  0.0918
 1516TIP3    H1 4512   1.678   5.294   5.808  1.4906 -0.4763 -0.5948
 1516TIP3    H2 4513   1.712   5.328   5.952  1.4533 -0.2693 -0.6342
 1517TIP3   OH2 4514   6.934   6.000   5.338  0.0791 -0.2697 -0.3412
 1517TIP3    H1 4515   6.901   5.996   5.248  0.1839  0.0805 -0.3996
 1517TIP3    H2 4516   6.891   6.077   5.376  0.2950 -0.2178 -0.1991
 1518TIP3   OH2 4517   0.272   5.175   4.002 -0.3873  0.1004 -0.1512
 1518TIP3    H1 4518   0.206   5.212   4.060  0.4641 -0.8503  1.4857
 1518TIP3    H2 4519   0.265   5.080   4.013  2.3927 -0.0258  1.5174
 1519TIP3   OH2 4520   3.282   0.119   2.337  0.3817 -0.3272  0.4518
 1519TIP3    H1 4521   3.212   0.132   2.401 -1.3652 -1.1926 -1.1908
 1519TIP3    H2 4522   3.293   0.024   2.333 -1.5836 -0.5806 -2.4655
 1520TIP3   OH2 4523   1.677   2.871   5.824 -0.5238 -0.2845 -0.2682
 1520TIP3    H1 4524   1.646   2.781   5.837 -0.7865 -0.4357 -1.7551
 1520TIP3    H2 4525   1.639   2.920   5.897 -1.2866 -1.1679 -0.0478
 1521TIP3   OH2 4526   3.554   3.107   1.033  0.7780 -0.5447 -0.3877
 1521TIP3    H1 4527   3.604   3.046   0.978 -0.7917  0.6404 -3.3628
 1521TIP3    H2 4528   3.620   3.168   1.065  1.5645  0.1967 -3.1238
 1522TIP3   OH2 4529   0.574   3.052   2.446  0.5081 -0.4888  0.1367
 1522TIP3    H1 4530   0.662   3.088   2.444  0.6187 -0.5913  1.7900
 1522TIP3    H2 4531   0.585   2.963   2.478 -0.0869 -0.9486 -0.8714
 1523TIP3   OH2 4532   2.959   6.142   5.110 -0.2445 -0.1202 -0.9099
 1523TIP3    H1 4533   2.916   6.117   5.192 -0.9944 -0.1295 -1.3023
 1523TIP3    H2 4534   3.029   6.202   5.137 -1.3343  0.9497 -0.3725
 1524TIP3   OH2 4535   6.674   2.536   1.129  0.3270 -0.7133  0.1049
 1524TIP3    H1 4536   6.597   2.494   1.091  1.4403 -1.8454 -0.9920
 1524TIP3    H2 4537   6.690   2.612   1.073  0.2293 -0.6694  0.1346
 1525TIP3   OH2 4538   6.265   0.555   2.085  0.2678 -0.3971 -0.0852
 1525TIP3    H1 4539   6.176   0.523   2.102  0.3783 -0.1989  0.9374
 1525TIP3    H2 4540   6.319   0.509   2.149  0.6323  0.8098  0.5023
 1526TIP3   OH2 4541   2.128   2.739   3.067 -0.0688 -0.1002  0.2789
 1526TIP3    H1 4542   2.106   2.646   3.078 -1.1871  0.2075  0.8150
 1526TIP3    H2 4543   2.061   2.772   3.007 -1.0705  0.8388  1.8380
 1527TIP3   OH2 4544   6.252   3.672   4.769 -0.3631 -0.1540 -0.5677
 1527TIP3    H1 4545   6.213   3.691   4.683  1.0735 -2.5448 -1.8492
 1527TIP3    H2 4546   6.341   3.644   4.749  0.4118  0.3822  1.8504
 1528TIP3   OH2 4547   1.586   3.808   1.396 -0.4549  0.5852 -0.4439
 1528TIP3    H1 4548   1.527   3.836   1.466  0.5226  1.0401  0.2318
 1528TIP3    H2 4549   1.608   3.889   1.350 -1.4153  0.2289 -1.5556
 1529TIP3   OH2 4550   0.639   4.388   4.200 -0.5148 -0.0110 -0.7486
 1529TIP3    H1 4551   0.712   4.382   4.139  0.7668  1.5980  0.5283
 1529TIP3    H2 4552   0.562   4.368   4.146  0.5213  1.4935 -2.9652
 1530TIP3   OH2 4553   3.283   6.524   0.703 -0.4737  0.2343 -0.4639
 1530TIP3    H1 4554   3.249   6.558   0.620  2.0086  2.0830 -0.8411
 1530TIP3    H2 4555   3.365   6.481   0.680 -0.1765  0.0010  0.9147
 1531TIP3   OH2 4556   1.381   3.524   2.563  0.4260 -0.0315 -0.1926
 1531TIP3    H1 4557   1.370   3.501   2.471 -0.1170 -1.8778  0.2944
 1531TIP3    H2 4558   1.292   3.532   2.597  0.5446 -2.2417  0.7991
 1532TIP3   OH2 4559   6.883   0.107   2.419 -0.0437 -0.6169  0.1883
 1532TIP3    H1 4560   6.942   0.183   2.416 -0.3756 -0.3414  0.6464
 1532TIP3    H2 4561   6.934   0.039   2.463  0.4870 -0.8754 -0.7799
 1533TIP3   OH2 4562   0.845   4.565   2.726  0.4189  0.0655 -0.0538
 1533TIP3    H1 4563   0.865   4.561   2.632  0.6882 -0.7916  0.0229
 1533TIP3    H2 4564   0.755   4.598   2.730 -0.3979 -1.8814 -0.7527
 1534TIP3   OH2 4565   1.022   5.364   0.335  0.3051 -0.0617  0.6204
 1534TIP3    H1 4566   1.042   5.272   0.353 -1.6820 -1.1191 -1.9795
 1534TIP3    H2 4567   0.971   5.363   0.254 -0.7132  3.2622  1.0504
 1535TIP3   OH2 4568   7.125   1.658   0.567 -0.1700  0.3007 -0.2832
 1535TIP3    H1 4569   7.102   1.742   0.529 -0.5830  0.4987  0.3907
 1535TIP3    H2 4570   7.097   1.664   0.659  1.0605 -0.0546  0.1381
 1536TIP3   OH2 4571   1.580   4.547   4.705 -0.2063 -0.1308  0.1868
 1536TIP3    H1 4572   1.591   4.529   4.799  0.7634  0.2446  0.1497
 1536TIP3    H2 4573   1.666   4.530   4.667  0.1817  2.3817 -0.2027
 1537TIP3   OH2 4574   0.214   2.429   3.280  0.1452 -0.4065 -0.3094
 1537TIP3    H1 4575   0.255   2.402   3.362  0.3623  0.5604 -0.0816
 1537TIP3    H2 4576   0.212   2.350   3.226 -0.5318 -1.1846  0.8408
 1538TIP3   OH2 4577   6.949   0.333   2.086  0.0019 -0.2407  0.6051
 1538TIP3    H1 4578   7.004   0.391   2.034 -0.3188 -0.1564  0.3585
 1538TIP3    H2 4579   6.913   0.270   2.023 -1.5338  0.7311  0.4640
 1539TIP3   OH2 4580   6.850   1.003   5.457  0.7371 -0.3145 -0.4890
 1539TIP3    H1 4581   6.807   1.012   5.372  0.4511  1.1605 -0.2182
 1539TIP3    H2 4582   6.779   1.008   5.521  0.3749 -5.2951 -0.1216
 1540TIP3   OH2 4583   0.232   1.620   5.580  0.2118  0.3563  0.4117
 1540TIP3    H1 4584   0.223   1.530   5.610  3.0822 -0.3299 -0.4159
 1540TIP3    H2 4585   0.262   1.668   5.657 -0.6667  0.4670  0.6883
 1541TIP3   OH2 4586   2.530   6.038   3.222  0.0325 -0.0736 -0.0232
 1541TIP3    H1 4587   2.477   5.964   3.193 -0.7638  0.3690  0.2765
 1541TIP3    H2 4588   2.471   6.113   3.219  0.9347  0.6386 -0.6930
 1542TIP3   OH2 4589   2.336   3.122   1.240  0.2450  0.1202 -0.0493
 1542TIP3    H1 4590   2.297   3.040   1.270  0.6131 -0.5276 -1.2616
 1542TIP3    H2 4591   2.425   3.099   1.214 -0.5084  0.1864 -3.1507
 1543TIP3   OH2 4592   6.306   1.009   2.653 -0.1597  0.1513  0.4890
 1543TIP3    H1 4593   6.379   0.970   2.604 -1.7282 -1.1989 -0.8771
 1543TIP3    H2 4594   6.260   0.935   2.691 -2.6376  0.6189 -1.3233
 1544TIP3   OH2 4595   6.240   0.315   1.697  0.1511  0.1308 -0.6398
 1544TIP3    H1 4596   6.278   0.368   1.767  0.3185 -0.5517 -0.2103
 1544TIP3    H2 4597   6.306   0.248   1.678 -0.8592 -1.1255  0.1805
 1545TIP3   OH2 4598   7.195   4.225   3.884  0.5173  0.3032 -0.1121
 1545TIP3    H1 4599   7.155   4.139   3.891  0.7200  0.2066 -0.1482
 1545TIP3    H2 4600   7.166   4.272   3.962  0.1806  0.2958 -0.2347
 1546TIP3   OH2 4601   3.016   1.582   5.578 -0.6040  0.3886  0.4634
 1546TIP3    H1 4602   3.098   1.621   5.547 -0.8140 -0.8245 -1.8366
 1546TIP3    H2 4603   3.028   1.572   5.672  1.3882  1.3617  0.3682
 1547TIP3   OH2 4604   6.580   4.392   3.520 -0.1239 -0.1181  0.5696
 1547TIP3    H1 4605   6.623   4.477   3.527  1.0753 -0.6635  0.1744
 1547TIP3    H2 4606   6.556   4.369   3.610 -0.3475  0.5805  0.6886
 1548TIP3   OH2 4607   4.935   1.300   4.396 -0.1954  1.0868 -0.9079
 1548TIP3    H1 4608   4.886   1.362   4.342  0.5147  0.0232 -2.8750
 1548TIP3    H2 4609   5.026   1.310   4.366  0.1312  0.0558 -0.2909
 1549TIP3   OH2 4610   3.094   0.610   2.676  0.0313  0.3375 -0.0614
 1549TIP3    H1 4611   3.091   0.517   2.701  0.6569  0.5192  0.7108
 1549TIP3    H2 4612   3.005   0.630   2.647 -0.7937  0.1563  2.1886
 1550TIP3   OH2 4613   3.724   4.723   4.785 -0.4676 -0.3758  0.1648
 1550TIP3    H1 4614   3.699   4.694   4.698  2.7508  0.8466 -1.3267
 1550TIP3    H2 4615   3.793   4.663   4.812 -0.2867  0.2429  1.1357
 1551TIP3   OH2 4616   4.963   0.220   1.203  0.0676  0.2950  0.2856
 1551TIP3    H1 4617   4.957   0.186   1.292  0.0224  0.1371  0.2222
 1551TIP3    H2 4618   4.875   0.251   1.182  0.3641  1.5564  0.7788
 1552TIP3   OH2 4619   2.778   6.499   4.595 -0.0195 -0.2639 -0.1824
 1552TIP3    H1 4620   2.848   6.565   4.601 -0.1158 -0.0571 -1.2424
 1552TIP3    H2 4621   2.699   6.549   4.575 -0.1353 -0.6714 -0.7697
 1553TIP3   OH2 4622   1.065   0.672   1.548 -0.0217  0.0636 -0.2858
 1553TIP3    H1 4623   0.999   0.614   1.511 -0.5654  1.2676 -1.2563
 1553TIP3    H2 4624   1.074   0.643   1.639 -1.7170 -0.2787 -0.1977
 1554TIP3   OH2 4625   4.768   0.209   2.756 -0.7701 -0.1716 -0.1075
 1554TIP3    H1 4626   4.802   0.298   2.754  1.1626 -0.8630 -1.0254
 1554TIP3    H2 4627   4.756   0.186   2.664  1.3754 -1.7049 -0.1094
 1555TIP3   OH2 4628   3.787   1.535   1.303  0.2381  0.0210  0.1649
 1555TIP3    H1 4629   3.867   1.587   1.316 -0.7199  1.1237  2.2097
 1555TIP3    H2 4630   3.759   1.513   1.392 -1.4209 -0.8532 -0.5382
 1556TIP3   OH2 4631   5.599   6.251   4.821  0.2087 -0.5222  0.0910
 1556TIP3    H1 4632   5.578   6.340   4.794 -0.4239 -0.8297 -0.4755
 1556TIP3    H2 4633   5.642   6.261   4.906 -0.5858  0.2734  0.4158
 1557TIP3   OH2 4634   4.015   1.694   1.310 -0.9318 -0.0396 -0.2423
 1557TIP3    H1 4635   4.096   1.708   1.359 -1.8655 -2.2402  2.1339
 1557TIP3    H2 4636   3.993   1.781   1.276  0.5786  1.3691  2.0453
 1558TIP3   OH2 4637   3.871   1.220   1.132  0.4191 -0.2274  0.5907
 1558TIP3    H1 4638   3.808   1.260   1.072  1.8699 -0.1831 -0.9826
 1558TIP3    H2 4639   3.840   1.130   1.142 -0.1868 -0.0637  0.2692
 1559TIP3   OH2 4640   6.941   4.883   3.581  0.0268 -0.6529  0.7003
 1559TIP3    H1 4641   6.939   4.932   3.499  2.0386  2.2767  2.2248
 1559TIP3    H2 4642   7.031   4.852   3.589 -0.0666 -0.6769  1.8914
 1560TIP3   OH2 4643   4.344   4.310   5.476 -0.0862 -0.4445  0.9060
 1560TIP3    H1 4644   4.378   4.256   5.547 -0.0488  2.3325  3.1896
 1560TIP3    H2 4645   4.258   4.340   5.506  0.7475  2.3995  0.8118
 1561TIP3   OH2 4646   1.306   6.655   1.683 -0.0369  0.6195  0.6993
 1561TIP3    H1 4647   1.390   6.634   1.723  0.3012  1.8640  0.6671
 1561TIP3    H2 4648   1.241   6.632   1.749  0.5460  3.4768  2.3918
 1562TIP3   OH2 4649   3.894   5.847   1.408 -0.6135  0.2944 -0.0887
 1562TIP3    H1 4650   3.832   5.833   1.337 -2.8559  1.2676  1.5630
 1562TIP3    H2 4651   3.880   5.773   1.467  0.0473  0.3576  0.1583
 1563TIP3   OH2 4652   4.085   4.854   1.374  0.0897  0.3015  0.1945
 1563TIP3    H1 4653   4.014   4.868   1.437  1.6244  2.2679  1.5995
 1563TIP3    H2 4654   4.123   4.941   1.361  1.8134 -0.5777 -1.0362
 1564TIP3   OH2 4655   6.589   1.233   3.486  0.1987  0.1530 -0.4009
 1564TIP3    H1 4656   6.543   1.296   3.430 -0.0231 -1.0290 -1.6008
 1564TIP3    H2 4657   6.671   1.215   3.439 -0.6681 -2.0138 -1.2047
 1565TIP3   OH2 4658   0.844   5.028   3.544  0.0033 -0.6301 -0.4444
 1565TIP3    H1 4659   0.908   4.975   3.498 -0.3745 -0.0164 -1.7452
 1565TIP3    H2 4660   0.766   5.027   3.487 -1.4604 -1.9874  1.4437
 1566TIP3   OH2 4661   1.491   4.198   4.522  0.1280 -0.1029 -0.3003
 1566TIP3    H1 4662   1.525   4.177   4.610  2.2039 -0.6829 -1.1794
 1566TIP3    H2 4663   1.440   4.122   4.497 -1.0660  0.3531  0.6507
 1567TIP3   OH2 4664   4.834   3.860   0.223  0.8404 -0.8483  0.2074
 1567TIP3    H1 4665   4.856   3.953   0.229 -0.5216 -0.4456 -0.4480
 1567TIP3    H2 4666   4.825   3.844   0.129 -1.8347 -0.8539  0.3710
 1568TIP3   OH2 4667   5.740   5.159   4.294 -0.2007  0.1965  0.5556
 1568TIP3    H1 4668   5.648   5.134   4.306 -0.8252  2.0209 -0.1130
 1568TIP3    H2 4669   5.753   5.232   4.355  1.4069 -1.2282  2.0629
 1569TIP3   OH2 4670   4.951   4.134   2.739  0.0139 -0.1862  0.5231
 1569TIP3    H1 4671   4.972   4.045   2.768 -0.1511  0.0237  1.3181
 1569TIP3    H2 4672   4.874   4.158   2.791 -0.2056  0.2591 -0.0032
 1570TIP3   OH2 4673   3.293   1.597   2.278  0.1439 -0.1696  0.0803
 1570TIP3    H1 4674   3.234   1.563   2.211  0.5715 -0.5233 -0.1173
 1570TIP3    H2 4675   3.318   1.684   2.246  1.3485 -0.8365 -0.8595
 1571TIP3   OH2 4676   2.049   5.361   1.190 -0.3845  0.1591  0.3028
 1571TIP3    H1 4677   2.117   5.423   1.217 -0.2182  1.0533 -1.9725
 1571TIP3    H2 4678   2.051   5.363   1.095 -1.9759 -1.6377  0.1768
 1572TIP3   OH2 4679   4.111   1.384   2.773  0.0544 -0.0099  0.3650
 1572TIP3    H1 4680   4.199   1.408   2.743  0.2080 -0.5487  0.3705
 1572TIP3    H2 4681   4.076   1.330   2.702  0.1768 -0.7680  0.8669
 1573TIP3   OH2 4682   5.809   2.396   0.946 -0.3700  0.0970 -0.0895
 1573TIP3    H1 4683   5.838   2.316   0.902 -0.1755 -0.2978  0.7337
 1573TIP3    H2 4684   5.716   2.382   0.962  0.0908 -0.9356  2.0028
 1574TIP3   OH2 4685   4.850   1.863   2.735 -0.3527 -0.1433 -0.1152
 1574TIP3    H1 4686   4.824   1.952   2.713 -1.3381 -0.6602 -1.1405
 1574TIP3    H2 4687   4.886   1.870   2.824  0.3291  1.3943 -0.4808
 1575TIP3   OH2 4688   1.507   2.744   5.383 -0.2238  0.0184 -0.3955
 1575TIP3    H1 4689   1.566   2.808   5.421  0.5289 -0.8209 -0.1065
 1575TIP3    H2 4690   1.564   2.674   5.351 -1.0545 -0.9051  0.0663
 1576TIP3   OH2 4691   0.622   0.624   2.719 -0.5266 -0.2149 -0.3126
 1576TIP3    H1 4692   0.696   0.593   2.667  0.0143 -0.0978  0.3747
 1576TIP3    H2 4693   0.555   0.558   2.707 -0.1021 -0.6212 -0.4821
 1577TIP3   OH2 4694   4.463   5.038   4.704 -0.2949  0.5079 -0.6134
 1577TIP3    H1 4695   4.474   5.064   4.795 -1.4572  0.4063 -0.4224
 1577TIP3    H2 4696   4.387   4.979   4.705  0.9704 -1.2273 -1.3366
 1578TIP3   OH2 4697   4.187   0.248  -0.007 -0.1086 -0.4214 -0.1054
 1578TIP3    H1 4698   4.233   0.331   0.007 -1.9126  0.4548  0.8923
 1578TIP3    H2 4699   4.171   0.214   0.081 -1.4057 -0.6619 -0.4135
 1579TIP3   OH2 4700   4.704   1.402   4.215  0.2475 -0.7920  0.2160
 1579TIP3    H1 4701   4.681   1.492   4.194 -0.8661 -0.6461  1.9455
 1579TIP3    H2 4702   4.622   1.353   4.207  0.2582 -1.1362  1.8721
 1580TIP3   OH2 4703   3.731   3.747   0.541  0.2222  0.8211 -0.2989
 1580TIP3    H1 4704   3.680   3.776   0.618 -0.5592  1.5261 -1.0633
 1580TIP3    H2 4705   3.769   3.664   0.569 -0.4521  0.8160  0.6962
 1581TIP3   OH2 4706   2.048   6.510   1.895  0.2366  0.6506  0.4014
 1581TIP3    H1 4707   2.115   6.504   1.826  0.6626  0.8171  0.7998
 1581TIP3    H2 4708   2.038   6.604   1.911 -0.1123  0.6268  0.3265
 1582TIP3   OH2 4709   2.340   2.886   1.608  0.8619  0.2048 -0.0328
 1582TIP3    H1 4710   2.294   2.919   1.685 -1.3536  0.7759 -1.5225
 1582TIP3    H2 4711   2.432   2.905   1.626  0.4609  0.1731  2.5161
 1583TIP3   OH2 4712   5.795   0.837   3.273  0.1969  0.6642 -0.4091
 1583TIP3    H1 4713   5.864   0.896   3.302  0.1386  0.3367  0.4209
 1583TIP3    H2 4714   5.812   0.755   3.319 -0.2999  0.3389 -0.7882
 1584TIP3   OH2 4715   7.056   3.950   5.596 -0.0891 -0.1137  0.3599
 1584TIP3    H1 4716   7.091   3.991   5.675 -1.2886  0.4225  0.6435
 1584TIP3    H2 4717   7.054   4.020   5.532  0.0626 -0.3279  0.1207
 1585TIP3   OH2 4718   3.959   1.060   0.427  0.1183 -0.1145  0.2924
 1585TIP3    H1 4719   4.054   1.055   0.414 -0.2415 -1.1091 -2.5455
 1585TIP3    H2 4720   3.932   0.970   0.443 -0.6784 -0.3768 -2.1849
 1586TIP3   OH2 4721   6.811   2.261   3.304  0.5966 -0.9257 -0.6010
 1586TIP3    H1 4722   6.759   2.189   3.269  0.0958 -1.4365  1.0603
 1586TIP3    H2 4723   6.768   2.283   3.387  3.9165 -2.5652  1.7764
 1587TIP3   OH2 4724   1.822   4.198   3.497 -0.7008 -0.0629 -0.0792
 1587TIP3    H1 4725   1.740   4.216   3.543 -1.5041  1.2079 -1.8565
 1587TIP3    H2 4726   1.814   4.107   3.470 -1.8314  0.1961 -0.7189
 1588TIP3   OH2 4727   5.908   0.321   1.841  0.7191 -0.0312 -0.3363
 1588TIP3    H1 4728   5.909   0.417   1.845 -1.4571  0.0004  1.2070
 1588TIP3    H2 4729   5.955   0.293   1.919  1.9225 -0.2710 -1.1198
 1589TIP3   OH2 4730   2.504   3.397   5.113 -0.3802  0.0122 -0.2119
 1589TIP3    H1 4731   2.517   3.453   5.036 -0.3620 -1.1545 -1.0838
 1589TIP3    H2 4732   2.554   3.318   5.094  0.4155  0.0711  1.4397
 1590TIP3   OH2 4733   4.147   0.021   1.966  0.4484  0.7061  0.2168
 1590TIP3    H1 4734   4.052   0.008   1.956  0.6382  0.0843 -0.9603
 1590TIP3    H2 4735   4.160   0.028   2.061 -0.7208  0.3925  0.4212
 1591TIP3   OH2 4736   6.169   5.880   3.585  0.1847  0.0821  0.3883
 1591TIP3    H1 4737   6.202   5.835   3.507 -0.3431 -0.9139  0.7230
 1591TIP3    H2 4738   6.204   5.969   3.578  0.8544 -0.2379 -0.5389
 1592TIP3   OH2 4739   6.254   1.395   2.412 -0.2645  0.8188  0.1565
 1592TIP3    H1 4740   6.245   1.483   2.450 -0.9875  0.5162  0.7128
 1592TIP3    H2 4741   6.214   1.337   2.477  0.0911  0.0903 -0.2656
 1593TIP3   OH2 4742   3.789   6.027   0.344  0.3688  0.0810 -0.6810
 1593TIP3    H1 4743   3.757   5.980   0.268  2.0704 -0.2594 -1.2267
 1593TIP3    H2 4744   3.716   6.026   0.406 -0.4244 -1.2086 -1.5975
 1594TIP3   OH2 4745   4.168   3.053   3.874  0.0604 -0.2535 -0.3099
 1594TIP3    H1 4746   4.111   3.114   3.826 -0.0172 -1.2159 -1.4982
 1594TIP3    H2 4747   4.256   3.073   3.843  0.1168 -0.2544 -0.1502
 1595TIP3   OH2 4748   1.909   3.956   0.246 -0.6217  0.6126 -0.2572
 1595TIP3    H1 4749   1.832   3.908   0.277  0.9271 -1.0771  1.2355
 1595TIP3    H2 4750   1.938   4.006   0.322  1.7841 -1.6310  0.4660
 1596TIP3   OH2 4751   6.914   4.339   0.560 -0.1487 -0.0213  0.5669
 1596TIP3    H1 4752   6.972   4.290   0.619 -0.9512  0.0767  1.4596
 1596TIP3    H2 4753   6.882   4.412   0.613  0.6931  1.2667 -0.6175
 1597TIP3   OH2 4754   3.046   4.523   5.513  0.2139  1.0796 -0.6609
 1597TIP3    H1 4755   3.140   4.540   5.509  0.2935  1.1000  0.7881
 1597TIP3    H2 4756   3.038   4.428   5.504  0.3487  1.0965 -0.9769
 1598TIP3   OH2 4757   2.571   6.695   2.216 -0.1518 -0.0742  0.4516
 1598TIP3    H1 4758   2.617   6.617   2.187  1.0148  0.7275  0.0807
 1598TIP3    H2 4759   2.484   6.687   2.176  0.7935  0.0757 -1.8216
 1599TIP3   OH2 4760   0.979   3.158   3.281  0.0007 -0.5437 -0.1935
 1599TIP3    H1 4761   0.926   3.105   3.340 -0.7570 -0.5370 -0.8402
 1599TIP3    H2 4762   1.008   3.232   3.334 -2.2865  0.5036 -0.2659
 1600TIP3   OH2 4763   5.098   0.247   3.892 -0.0817 -0.4165  0.6087
 1600TIP3    H1 4764   5.014   0.202   3.905 -0.0496 -0.9798 -0.8662
 1600TIP3    H2 4765   5.120   0.230   3.800  0.7836  1.2033  0.4665
 1601TIP3   OH2 4766   2.086   2.270   4.759  0.2334 -0.1469  0.1517
 1601TIP3    H1 4767   2.170   2.299   4.722 -0.7636  0.0151 -2.1475
 1601TIP3    H2 4768   2.109   2.195   4.814  1.8891 -0.1558 -0.4801
 1602TIP3   OH2 4769   4.099   1.816   0.985 -0.1795 -0.3481  0.5050
 1602TIP3    H1 4770   4.160   1.889   0.975 -0.0211 -0.4689  0.5853
 1602TIP3    H2 4771   4.046   1.839   1.061  1.8980 -1.7213  2.5066
 1603TIP3   OH2 4772   2.397   0.833   2.782  0.1719  0.8263  0.4523
 1603TIP3    H1 4773   2.335   0.843   2.854 -1.4345  0.1893 -0.7770
 1603TIP3    H2 4774   2.472   0.887   2.807  0.1784 -0.2204  3.0988
 1604TIP3   OH2 4775   6.240   2.929   0.894 -0.1904  0.0514  0.1678
 1604TIP3    H1 4776   6.268   2.841   0.870 -1.3738 -0.8418  1.8122
 1604TIP3    H2 4777   6.260   2.983   0.818  3.9878 -0.8378  0.3727
 1605TIP3   OH2 4778   3.216   0.230   0.148  0.1112 -0.4002  0.2295
 1605TIP3    H1 4779   3.211   0.230   0.053 -3.1644  1.3937  0.2214
 1605TIP3    H2 4780   3.245   0.319   0.170  1.0908 -0.8796  0.9233
 1606TIP3   OH2 4781   3.788   3.357   4.433  0.7037 -0.3369  0.2021
 1606TIP3    H1 4782   3.842   3.423   4.389  0.1286 -0.7639 -1.2285
 1606TIP3    H2 4783   3.731   3.408   4.491  1.1865  0.3051  0.1311
 1607TIP3   OH2 4784   2.206   5.909   5.394 -0.8064  0.5241  0.5911
 1607TIP3    H1 4785   2.215   5.940   5.485 -1.0883 -0.7094  1.0658
 1607TIP3    H2 4786   2.131   5.851   5.397  1.0834 -2.1313  0.3358
 1608TIP3   OH2 4787   5.618   4.082   0.290 -0.0439 -0.4946  0.6318
 1608TIP3    H1 4788   5.675   4.148   0.332 -0.4386 -0.2579  0.7970
 1608TIP3    H2 4789   5.531   4.122   0.290 -0.3000 -1.0421  0.7859
 1609TIP3   OH2 4790   4.576   1.342   1.951 -0.2637  0.4066  0.7303
 1609TIP3    H1 4791   4.608   1.429   1.974  0.2286  0.2820  0.5331
 1609TIP3    H2 4792   4.495   1.332   2.000 -0.5263  1.1334  0.4473
 1610TIP3   OH2 4793   5.111   2.890   2.386 -0.2525 -0.3870  0.3395
 1610TIP3    H1 4794   5.167   2.853   2.455 -0.0917 -0.3215  0.2460
 1610TIP3    H2 4795   5.173   2.933   2.326 -0.3070 -1.2309 -0.3403
 1611TIP3   OH2 4796   7.087   0.311   1.048 -0.2321 -0.0855 -0.3861
 1611TIP3    H1 4797   7.016   0.313   0.984 -0.9874  2.6960  0.3814
 1611TIP3    H2 4798   7.132   0.395   1.036  0.8662 -0.3693  1.3586
 1612TIP3   OH2 4799   4.536   0.471   1.737 -0.0966 -0.5518  0.4275
 1612TIP3    H1 4800   4.594   0.466   1.662 -0.1029 -0.7945  0.4384
 1612TIP3    H2 4801   4.494   0.385   1.741  0.4083 -0.7765  1.1070
 1613TIP3   OH2 4802   7.141   5.098   3.849  0.0190 -0.5560 -0.0526
 1613TIP3    H1 4803   7.055   5.077   3.885  0.2471 -0.9519  0.2653
 1613TIP3    H2 4804   7.193   5.019   3.862 -0.3139 -1.3011 -2.6521
 1614TIP3   OH2 4805   5.829   2.186   3.657 -0.1433  0.2063  0.1105
 1614TIP3    H1 4806   5.796   2.200   3.569 -1.7131  2.1968  0.9247
 1614TIP3    H2 4807   5.771   2.119   3.694  0.1187 -0.1709 -0.1566
 1615TIP3   OH2 4808   3.254   5.397   0.221  0.2617 -0.3348  0.6320
 1615TIP3    H1 4809   3.285   5.356   0.301 -0.4350  0.1978  1.1815
 1615TIP3    H2 4810   3.316   5.468   0.204 -0.0540  0.0687  1.1523
 1616TIP3   OH2 4811   1.469   3.864   1.637  0.1750 -0.4874  0.3952
 1616TIP3    H1 4812   1.410   3.799   1.675 -1.1067  0.5670  0.2817
 1616TIP3    H2 4813   1.521   3.896   1.711  0.1840 -0.9743  0.6057
 1617TIP3   OH2 4814   0.488   4.827   1.863 -0.0919  0.3220  0.4357
 1617TIP3    H1 4815   0.426   4.798   1.796  0.0187  0.2643  0.3587
 1617TIP3    H2 4816   0.554   4.757   1.867  0.1336  0.5269  0.3056
 1618TIP3   OH2 4817   2.456   2.696   0.958  0.2313 -0.1551  0.4932
 1618TIP3    H1 4818   2.506   2.678   1.038  0.2812 -1.8870  0.1102
 1618TIP3    H2 4819   2.369   2.719   0.989 -0.7282 -3.9510  1.0902
 1619TIP3   OH2 4820   4.004   4.131   5.744 -0.3824 -0.5124  0.0983
 1619TIP3    H1 4821   4.027   4.217   5.779  1.2578 -1.8791  2.7219
 1619TIP3    H2 4822   3.947   4.092   5.811 -0.8278 -1.5925 -0.8758
 1620TIP3   OH2 4823   1.537   5.360   0.323 -0.1649  0.0414 -0.0871
 1620TIP3    H1 4824   1.534   5.451   0.352 -0.4991 -0.2828  0.9112
 1620TIP3    H2 4825   1.446   5.331   0.324 -0.2692  0.1391 -1.9253
 1621TIP3   OH2 4826   6.146   0.159   1.289  0.0510 -0.1168  0.1751
 1621TIP3    H1 4827   6.189   0.091   1.341 -0.5670 -1.7664 -1.3632
 1621TIP3    H2 4828   6.060   0.170   1.331 -0.2014 -0.9746 -0.0838
 1622TIP3   OH2 4829   3.692   1.428   0.747 -0.1662 -0.5182  0.2929
 1622TIP3    H1 4830   3.659   1.367   0.813 -2.6761  1.4546  1.0358
 1622TIP3    H2 4831   3.618   1.440   0.687 -0.1398  2.4034  0.6952
 1623TIP3   OH2 4832   2.102   3.651   4.276  0.1602 -0.5181 -0.1756
 1623TIP3    H1 4833   2.174   3.652   4.213  0.2583 -0.9144 -0.0765
 1623TIP3    H2 4834   2.137   3.697   4.352 -0.0572  0.2081 -0.5128
 1624TIP3   OH2 4835   5.462   5.549   0.387 -0.4086  0.3082 -0.1863
 1624TIP3    H1 4836   5.481   5.520   0.477  0.5470  0.5922 -0.2889
 1624TIP3    H2 4837   5.367   5.537   0.378 -0.5338  0.3781  0.8978
 1625TIP3   OH2 4838   3.150   5.414   5.006 -0.5792 -0.0518  0.1515
 1625TIP3    H1 4839   3.222   5.478   5.005 -0.6181  0.0033 -1.0433
 1625TIP3    H2 4840   3.076   5.462   5.043  0.0159 -0.1568  1.5443
 1626TIP3   OH2 4841   2.226   2.560   3.556  0.0461 -0.0291  0.1495
 1626TIP3    H1 4842   2.143   2.546   3.509  0.5294  0.5393 -0.8986
 1626TIP3    H2 4843   2.253   2.472   3.581 -1.0735 -0.1921  0.8734
 1627TIP3   OH2 4844   2.832   1.619   1.443  0.4385  0.1837  0.3545
 1627TIP3    H1 4845   2.777   1.696   1.429 -0.4517 -0.7571 -1.6134
 1627TIP3    H2 4846   2.829   1.571   1.361  3.5069 -0.3958  0.4376
 1628TIP3   OH2 4847   0.471   0.255   3.375  0.3907  0.4191  0.8011
 1628TIP3    H1 4848   0.463   0.234   3.468 -1.1737  0.2865  0.6681
 1628TIP3    H2 4849   0.474   0.351   3.373  1.3787  0.4076  1.0247
 1629TIP3   OH2 4850   1.191   3.402   0.114  0.3263 -0.2392  0.5820
 1629TIP3    H1 4851   1.216   3.420   0.024 -0.0037  0.6963  0.6728
 1629TIP3    H2 4852   1.108   3.354   0.107 -0.3901  0.9992  0.4133
 1630TIP3   OH2 4853   3.388   3.036   0.226 -0.7498  0.3644 -0.2646
 1630TIP3    H1 4854   3.362   3.066   0.140  0.9195  1.8105 -0.3194
 1630TIP3    H2 4855   3.421   3.114   0.270  1.0287 -0.8331  0.6480
 1631TIP3   OH2 4856   0.849   5.674   2.952  0.2124  0.1474 -0.1875
 1631TIP3    H1 4857   0.776   5.672   3.014 -0.9040  1.3432 -1.3905
 1631TIP3    H2 4858   0.920   5.628   2.997 -0.9139 -0.0559  1.4858
 1632TIP3   OH2 4859   6.567   3.001   4.383  0.2337  0.3647  0.1460
 1632TIP3    H1 4860   6.653   2.961   4.370  0.6534  1.7229 -1.7557
 1632TIP3    H2 4861   6.537   2.968   4.467  2.1646 -0.9513  0.3726
 1633TIP3   OH2 4862   3.545   5.146   1.273 -0.0653  0.3640  0.8251
 1633TIP3    H1 4863   3.640   5.150   1.271 -0.0324  0.3799  1.6979
 1633TIP3    H2 4864   3.517   5.236   1.287 -0.2273  0.4045  0.2706
 1634TIP3   OH2 4865   5.469   1.520   0.461 -0.8718  0.3825 -0.1073
 1634TIP3    H1 4866   5.493   1.447   0.403 -1.2584  0.5552 -0.4951
 1634TIP3    H2 4867   5.428   1.584   0.402 -0.5204  0.9209  0.2267
 1635TIP3   OH2 4868   0.901   3.913   2.615 -0.2905 -0.1651  0.3333
 1635TIP3    H1 4869   0.827   3.954   2.660  0.6227  0.4515  1.3183
 1635TIP3    H2 4870   0.958   3.883   2.686  0.5374 -0.3795 -0.4103
 1636TIP3   OH2 4871   1.896   4.640   0.866 -0.2364  0.0081 -0.0122
 1636TIP3    H1 4872   1.832   4.710   0.856 -0.6493 -0.2831  0.5206
 1636TIP3    H2 4873   1.919   4.616   0.777 -0.9753  0.0274 -0.2188
 1637TIP3   OH2 4874   5.505   4.257   4.200  0.1100  0.3296 -0.1121
 1637TIP3    H1 4875   5.475   4.347   4.210 -0.3435  0.1665  0.0402
 1637TIP3    H2 4876   5.454   4.207   4.265  0.3009 -0.0452 -0.2452
 1638TIP3   OH2 4877   6.957   2.605   1.008  0.0488  0.1635  0.0661
 1638TIP3    H1 4878   7.018   2.679   1.011 -0.6432  0.7481  0.0624
 1638TIP3    H2 4879   6.872   2.645   0.989 -0.5268 -0.5121  1.1083
 1639TIP3   OH2 4880   1.789   6.696   1.732  0.4038  0.4115 -0.1697
 1639TIP3    H1 4881   1.736   6.620   1.752 -1.5646  1.8496  0.3693
 1639TIP3    H2 4882   1.775   6.756   1.805 -0.5005  2.4982 -1.9365
 1640TIP3   OH2 4883   4.607   1.638   0.494  0.3670 -0.3202 -0.4276
 1640TIP3    H1 4884   4.610   1.587   0.412 -2.9644  0.1303 -0.9689
 1640TIP3    H2 4885   4.677   1.702   0.485  1.0881 -1.2901 -2.2254
 1641TIP3   OH2 4886   4.832   2.463   2.232  0.3130  0.1927 -0.0284
 1641TIP3    H1 4887   4.781   2.538   2.202  0.1422 -0.6116 -1.9172
 1641TIP3    H2 4888   4.809   2.393   2.171  1.4265 -1.0480  0.9109
 1642TIP3   OH2 4889   2.978   4.191   4.052 -0.7253 -0.2401  0.7645
 1642TIP3    H1 4890   3.058   4.140   4.041 -0.6859 -0.0961  0.3706
 1642TIP3    H2 4891   2.939   4.157   4.133 -0.8408 -1.0675  0.3676
 1643TIP3   OH2 4892   6.563   0.346  -0.001  0.3797 -0.2596  0.3578
 1643TIP3    H1 4893   6.527   0.433   0.012 -0.6215 -0.6876  0.5583
 1643TIP3    H2 4894   6.621   0.332   0.074 -1.7257 -0.8888  1.9626
 1644TIP3   OH2 4895   1.491   3.333   2.068 -0.0451  0.2340  0.0397
 1644TIP3    H1 4896   1.434   3.263   2.036 -0.2748  0.1839  0.5458
 1644TIP3    H2 4897   1.571   3.288   2.096 -0.6755 -0.0047  1.5566
 1645TIP3   OH2 4898   6.380   5.797   5.326 -0.3933  0.2228  0.3277
 1645TIP3    H1 4899   6.411   5.725   5.382 -0.6151  0.1588  0.3670
 1645TIP3    H2 4900   6.356   5.866   5.387  1.0831  0.8394  0.2455
 1646TIP3   OH2 4901   0.709   2.838   3.169 -0.1320 -0.2583  0.3150
 1646TIP3    H1 4902   0.649   2.812   3.239  0.6748  0.1160  1.1771
 1646TIP3    H2 4903   0.795   2.808   3.199  0.4010  0.9115  0.0366
 1647TIP3   OH2 4904   5.999   5.476   2.405  0.5989 -0.4329 -0.2093
 1647TIP3    H1 4905   5.971   5.467   2.496  0.5026  0.3665 -0.1516
 1647TIP3    H2 4906   5.990   5.569   2.386 -0.0397 -0.6905 -1.2580
 1648TIP3   OH2 4907   6.037   3.954   4.510 -0.1340 -0.3910 -0.4154
 1648TIP3    H1 4908   6.125   3.925   4.535 -1.0720 -1.3528  2.0221
 1648TIP3    H2 4909   6.021   4.032   4.563 -1.1690 -0.8905  0.0283
 1649TIP3   OH2 4910   5.903   5.257   3.555  0.0173 -0.2908  0.2794
 1649TIP3    H1 4911   5.817   5.277   3.591  0.0260  1.8295 -0.7434
 1649TIP3    H2 4912   5.945   5.204   3.623 -2.2802 -1.9533  0.5315
 1650TIP3   OH2 4913   3.914   3.736   2.544  0.2124  0.5795  0.3850
 1650TIP3    H1 4914   3.972   3.662   2.561  1.0486  0.8433 -1.1329
 1650TIP3    H2 4915   3.839   3.697   2.498  0.0579  0.4979  0.7061
 1651TIP3   OH2 4916   0.364   1.328   2.632  0.1441  0.1225 -0.5043
 1651TIP3    H1 4917   0.377   1.399   2.570 -0.1125 -0.6543 -1.4827
 1651TIP3    H2 4918   0.400   1.251   2.589  0.8576 -0.2705  0.7317
 1652TIP3   OH2 4919   4.713   1.394   1.585 -0.0582  0.0149 -0.1111
 1652TIP3    H1 4920   4.670   1.468   1.542  1.3248  2.5980  2.5481
 1652TIP3    H2 4921   4.789   1.375   1.530 -0.4410  0.5324 -0.8397
 1653TIP3   OH2 4922   5.837   5.825   4.443  0.0395 -0.0564 -0.1042
 1653TIP3    H1 4923   5.775   5.898   4.438  0.0840 -0.0981 -1.6742
 1653TIP3    H2 4924   5.827   5.791   4.532  0.9005  2.6213  1.1081
 1654TIP3   OH2 4925   6.389   4.445   5.573  0.5810 -0.1442  0.0369
 1654TIP3    H1 4926   6.345   4.448   5.659  2.4709 -0.2604  1.0532
 1654TIP3    H2 4927   6.408   4.352   5.559  3.1623  0.1268  1.1068
 1655TIP3   OH2 4928   2.358   0.251   1.127 -0.7459 -0.4209  0.3183
 1655TIP3    H1 4929   2.448   0.241   1.158 -0.4662 -0.8309 -0.6009
 1655TIP3    H2 4930   2.313   0.296   1.198  0.4800  0.8810  0.3129
 1656TIP3   OH2 4931   3.966   6.579   3.411  0.2196  0.3598  0.1366
 1656TIP3    H1 4932   3.974   6.500   3.358 -0.9934  1.6890 -2.1763
 1656TIP3    H2 4933   3.966   6.650   3.348 -3.0105  1.9858  1.7353
 1657TIP3   OH2 4934   0.257   4.734   1.281  0.0906 -0.2076 -0.1879
 1657TIP3    H1 4935   0.173   4.698   1.308  0.2405 -0.2686  0.2105
 1657TIP3    H2 4936   0.247   4.753   1.188 -0.0217 -1.2165 -0.3902
 1658TIP3   OH2 4937   4.840   6.392   0.356 -0.1721  0.1644  0.9348
 1658TIP3    H1 4938   4.901   6.464   0.340  0.0071 -0.3420 -0.9542
 1658TIP3    H2 4939   4.755   6.424   0.325 -0.4690  0.1650  1.7196
 1659TIP3   OH2 4940   4.062   0.985   2.225 -0.9334  0.3699 -0.2742
 1659TIP3    H1 4941   4.016   1.069   2.226  0.6052  1.2565 -0.3287
 1659TIP3    H2 4942   4.114   0.986   2.305  0.9635  0.5761 -1.4590
 1660TIP3   OH2 4943   3.509   3.870   2.954  0.3154 -0.3494  0.5020
 1660TIP3    H1 4944   3.517   3.778   2.927  0.6130 -0.4653  0.9741
 1660TIP3    H2 4945   3.436   3.903   2.903  1.1514 -0.4302 -0.8078
 1661TIP3   OH2 4946   2.105   4.982   2.608  0.8115 -0.5346 -0.1485
 1661TIP3    H1 4947   2.075   4.954   2.521  0.2780  1.4871 -0.6567
 1661TIP3    H2 4948   2.195   5.011   2.593  1.0468 -1.0800  0.1867
 1662TIP3   OH2 4949   4.278   0.855   1.006 -0.0645  0.3304  0.7590
 1662TIP3    H1 4950   4.286   0.827   1.098 -1.6035  0.2125  0.8899
 1662TIP3    H2 4951   4.189   0.890   1.000 -0.2479 -0.3356 -0.8705
 1663TIP3   OH2 4952   2.967   0.226   5.840 -0.2207 -0.0089 -0.1160
 1663TIP3    H1 4953   2.903   0.294   5.816  0.5505  0.9849  0.5311
 1663TIP3    H2 4954   3.002   0.255   5.925  1.1636 -0.4480 -0.5002
 1664TIP3   OH2 4955   0.065   6.239   3.222  0.0607 -0.1130 -0.5117
 1664TIP3    H1 4956   0.053   6.222   3.315 -0.0959  1.8371 -0.1527
 1664TIP3    H2 4957  -0.023   6.234   3.185  0.1146 -0.8150 -0.5659
 1665TIP3   OH2 4958   4.497   2.175   2.650  0.0243  0.1647 -0.3820
 1665TIP3    H1 4959   4.592   2.161   2.647  0.3317  1.9120  0.4200
 1665TIP3    H2 4960   4.464   2.131   2.571  1.5840  0.2154 -1.0952
 1666TIP3   OH2 4961   2.179   5.178   4.143 -0.3292  0.0617  0.5461
 1666TIP3    H1 4962   2.228   5.108   4.186 -0.1808 -0.9684 -1.2082
 1666TIP3    H2 4963   2.116   5.131   4.087  1.8876  1.1608 -3.1787
 1667TIP3   OH2 4964   6.487   0.220   1.599  0.2185  0.1873  0.2780
 1667TIP3    H1 4965   6.559   0.198   1.540 -0.0905 -0.6899  0.2145
 1667TIP3    H2 4966   6.481   0.315   1.595  1.1296  0.2402 -0.0016
 1668TIP3   OH2 4967   4.173   1.102   0.665  0.0053  0.0216  0.1793
 1668TIP3    H1 4968   4.080   1.124   0.670  0.3346  1.6174 -0.1731
 1668TIP3    H2 4969   4.205   1.150   0.588  1.4856  0.9976  1.3506
 1669TIP3   OH2 4970   1.865   4.105   1.850  0.5493 -0.4835 -0.0473
 1669TIP3    H1 4971   1.947   4.113   1.802  1.6500 -0.9410  1.6469
 1669TIP3    H2 4972   1.812   4.045   1.798  1.4802 -0.5701 -0.9255
 1670TIP3   OH2 4973   1.556   6.570   0.167 -0.1206 -0.0905 -0.2801
 1670TIP3    H1 4974   1.611   6.519   0.226 -0.7358 -0.0985  0.3082
 1670TIP3    H2 4975   1.510   6.504   0.114 -0.3185 -0.1302 -0.0658
 1671TIP3   OH2 4976   3.435   5.702   1.862 -0.2873  0.4020 -0.2912
 1671TIP3    H1 4977   3.386   5.761   1.919  0.3472  0.4946  0.1655
 1671TIP3    H2 4978   3.453   5.626   1.917 -3.2702 -1.4062 -1.5665
 1672TIP3   OH2 4979   2.682   2.448   2.868  0.0426  0.9456  0.3067
 1672TIP3    H1 4980   2.598   2.412   2.839  0.1203  0.1934  0.9821
 1672TIP3    H2 4981   2.700   2.519   2.807 -1.2748  1.3758  0.4014
 1673TIP3   OH2 4982   3.994   4.389   0.518  0.1541  0.2083 -0.1533
 1673TIP3    H1 4983   4.003   4.429   0.432  0.4400  0.0556 -0.1959
 1673TIP3    H2 4984   3.985   4.295   0.501  3.0573 -0.2209  0.0614
 1674TIP3   OH2 4985   2.526   5.894   4.316 -0.3634  0.3800  0.5366
 1674TIP3    H1 4986   2.516   5.842   4.396 -0.1108  1.1950  1.1076
 1674TIP3    H2 4987   2.601   5.952   4.333  1.0170 -0.8190 -1.0567
 1675TIP3   OH2 4988   6.056   1.558   5.562  0.2491 -0.2395  0.3154
 1675TIP3    H1 4989   6.057   1.527   5.653  1.1892 -0.5357  0.2142
 1675TIP3    H2 4990   6.146   1.584   5.544 -0.1086  0.6603 -0.2628
 1676TIP3   OH2 4991   0.726   6.686   1.605 -0.1586 -0.1127 -0.0219
 1676TIP3    H1 4992   0.749   6.642   1.686  0.7271 -1.1815 -0.8328
 1676TIP3    H2 4993   0.767   6.773   1.613  0.2905 -0.3636  0.4791
 1677TIP3   OH2 4994   0.388   2.668   4.468  0.2952 -0.2387  0.0107
 1677TIP3    H1 4995   0.343   2.696   4.548  1.7406 -0.6213  0.9948
 1677TIP3    H2 4996   0.477   2.700   4.479  0.1389  1.1888 -2.2392
 1678TIP3   OH2 4997   4.505   1.000   2.094 -0.3622  0.1280 -0.7316
 1678TIP3    H1 4998   4.546   1.010   2.007 -0.1624 -0.3185 -0.6910
 1678TIP3    H2 4999   4.413   1.019   2.079  0.0509  2.7239 -0.5362
 1679TIP3   OH2 5000   2.464   0.309   0.208  0.7890 -0.0483  0.2484
 1679TIP3    H1 5001   2.543   0.256   0.198  0.9798  0.0877  0.9764
 1679TIP3    H2 5002   2.395   0.246   0.224  0.8569 -0.1331  0.2093
 1680TIP3   OH2 5003   5.578   1.171   0.431 -0.4366 -0.2047  0.2812
 1680TIP3    H1 5004   5.530   1.171   0.348  0.3793  1.5991 -0.2424
 1680TIP3    H2 5005   5.667   1.195   0.407 -0.1793  0.3213  1.6881
 1681TIP3   OH2 5006   2.769   0.737   2.593  0.0893  1.0590 -0.5656
 1681TIP3    H1 5007   2.713   0.681   2.540  0.7266  0.3245 -0.4722
 1681TIP3    H2 5008   2.824   0.783   2.530  0.6618  0.3851 -0.5718
 1682TIP3   OH2 5009   0.973   2.485   3.469  0.2741 -0.5304  0.4114
 1682TIP3    H1 5010   0.923   2.437   3.402 -0.9898 -0.5425  1.3328
 1682TIP3    H2 5011   1.064   2.465   3.448 -0.1657 -3.0239  0.4803
 1683TIP3   OH2 5012   2.205   3.766   1.494 -0.5297 -0.3384 -0.3411
 1683TIP3    H1 5013   2.221   3.680   1.454  0.0504 -1.6014  2.3783
 1683TIP3    H2 5014   2.289   3.790   1.534 -0.9984  0.9506 -0.0675
 1684TIP3   OH2 5015   2.732   4.569   1.103  0.2737 -0.4961 -0.3594
 1684TIP3    H1 5016   2.765   4.596   1.018 -0.0852 -1.4406 -0.8132
 1684TIP3    H2 5017   2.651   4.521   1.084  0.2300 -0.7858  0.4991
 1685TIP3   OH2 5018   1.097   3.108   4.477 -0.5003  0.9985 -0.1626
 1685TIP3    H1 5019   1.111   3.031   4.423 -0.0441 -0.7293  2.2479
 1685TIP3    H2 5020   1.181   3.155   4.473 -0.0279  0.1917  0.0648
 1686TIP3   OH2 5021   4.608   4.850   2.931  0.2538 -0.4629  0.2396
 1686TIP3    H1 5022   4.645   4.852   3.020 -0.9112  0.2866  0.7314
 1686TIP3    H2 5023   4.515   4.866   2.944  0.2611  1.0984 -1.2171
 1687TIP3   OH2 5024   3.805   5.147   1.140 -0.1287 -0.7303  0.3510
 1687TIP3    H1 5025   3.789   5.193   1.057 -0.6178 -3.2131 -1.0325
 1687TIP3    H2 5026   3.810   5.055   1.116 -2.1571 -1.7802  3.3160
 1688TIP3   OH2 5027   1.272   1.071   2.612 -0.3866 -0.1744 -0.0014
 1688TIP3    H1 5028   1.322   1.097   2.535  0.5095 -0.4855  0.4545
 1688TIP3    H2 5029   1.263   0.976   2.603 -0.0429 -0.2477  0.4098
 1689TIP3   OH2 5030   2.131   0.653   3.865  0.2849 -0.8349 -0.0812
 1689TIP3    H1 5031   2.091   0.640   3.951  2.1815  0.9951  1.1757
 1689TIP3    H2 5032   2.135   0.748   3.855  2.5165 -0.9595 -0.9621
 1690TIP3   OH2 5033   3.372   4.547   1.746  0.3481 -0.0508 -0.3786
 1690TIP3    H1 5034   3.397   4.464   1.788  1.5246  0.8719  0.8406
 1690TIP3    H2 5035   3.307   4.585   1.806  1.3765  0.8572  0.2164
 1691TIP3   OH2 5036   5.008   5.196   3.260 -0.5073 -0.0803  0.1172
 1691TIP3    H1 5037   5.080   5.258   3.269 -1.5876  0.9899  2.1658
 1691TIP3    H2 5038   5.051   5.111   3.247  1.0523  0.7749 -0.5852
 1692TIP3   OH2 5039   5.302   5.328   3.864 -0.3519  0.1246 -0.3973
 1692TIP3    H1 5040   5.286   5.329   3.958  2.7789 -1.1774  0.2752
 1692TIP3    H2 5041   5.232   5.273   3.828 -1.3561  0.2911  1.2021
 1693TIP3   OH2 5042   0.465   2.912   4.283  0.1681  0.3209 -0.5268
 1693TIP3    H1 5043   0.544   2.919   4.337  0.3468  1.0965 -0.8675
 1693TIP3    H2 5044   0.494   2.864   4.205  0.1912  0.2132 -0.4527
 1694TIP3   OH2 5045   1.803   5.973   4.988  0.0097  0.3254  0.4223
 1694TIP3    H1 5046   1.829   5.959   5.079 -1.8330  0.2665  0.9762
 1694TIP3    H2 5047   1.759   6.058   4.987 -1.6409 -0.4816  0.0049
 1695TIP3   OH2 5048   6.166   5.732   4.528  0.3520 -0.1936  0.0577
 1695TIP3    H1 5049   6.241   5.783   4.559  0.9001 -1.0045  0.1326
 1695TIP3    H2 5050   6.121   5.705   4.608  0.3791 -0.2688  0.0486
 1696TIP3   OH2 5051   0.634   4.768   3.967 -0.0694 -0.6855 -0.1427
 1696TIP3    H1 5052   0.643   4.676   3.944 -1.7253 -0.5322 -1.6880
 1696TIP3    H2 5053   0.552   4.773   4.016  0.7573 -0.2078  1.2477
 1697TIP3   OH2 5054   5.905   3.000   2.442 -0.1984  0.3805  0.1827
 1697TIP3    H1 5055   5.848   3.060   2.490 -1.5845 -1.6026  1.1861
 1697TIP3    H2 5056   5.954   2.954   2.510  1.1788  0.6796 -0.5771
 1698TIP3   OH2 5057   0.847   0.971   2.357  0.2626  0.0326  0.1369
 1698TIP3    H1 5058   0.871   0.881   2.378 -2.5421 -0.9990 -0.5755
 1698TIP3    H2 5059   0.779   0.962   2.290  0.6859  2.7565 -0.8015
 1699TIP3   OH2 5060   5.979   4.423   5.212 -0.1894  0.2001 -0.5327
 1699TIP3    H1 5061   5.889   4.413   5.242 -0.9465 -0.6805 -2.8197
 1699TIP3    H2 5062   6.021   4.338   5.229 -0.4233 -0.0766 -1.2896
 1700TIP3   OH2 5063   0.138   3.884   3.308 -0.6956  0.2628 -0.1386
 1700TIP3    H1 5064   0.165   3.825   3.378  0.2820  1.0207  0.1424
 1700TIP3    H2 5065   0.167   3.840   3.228  3.1460  1.8030  0.2014
 1701TIP3   OH2 5066   7.229   5.272   1.620  0.1065 -0.0368 -0.0069
 1701TIP3    H1 5067   7.147   5.284   1.668  0.0285 -0.9726  0.0993
 1701TIP3    H2 5068   7.203   5.276   1.528  0.2503  1.7168 -0.0134
 1702TIP3   OH2 5069   6.613   3.040   0.550 -0.1726  0.5017 -0.4589
 1702TIP3    H1 5070   6.526   3.070   0.576 -1.0178 -1.4213 -0.8789
 1702TIP3    H2 5071   6.597   2.967   0.490  1.7236 -0.4168  0.0492
 1703TIP3   OH2 5072   2.000   4.398   1.818 -0.1557  0.3362 -0.3871
 1703TIP3    H1 5073   1.912   4.371   1.842 -0.0822 -0.1885 -0.6804
 1703TIP3    H2 5074   1.994   4.417   1.724  0.7528 -2.9740 -1.2569
 1704TIP3   OH2 5075   6.469   3.074   4.136  0.1704  0.0949  0.1233
 1704TIP3    H1 5076   6.518   3.008   4.087  0.3995 -1.0321  1.8171
 1704TIP3    H2 5077   6.512   3.078   4.221 -1.3589  0.6398  0.9071
 1705TIP3   OH2 5078   2.449   0.119   1.753  0.0001  0.2907 -0.0893
 1705TIP3    H1 5079   2.538   0.091   1.774 -0.0140 -1.8189 -2.3567
 1705TIP3    H2 5080   2.406   0.131   1.838  2.7021  2.5639  1.1092
 1706TIP3   OH2 5081   2.440   1.538   1.286 -0.0613  0.3873  0.1777
 1706TIP3    H1 5082   2.534   1.541   1.270  0.0860 -1.3693  0.4547
 1706TIP3    H2 5083   2.432   1.503   1.375 -0.9669  1.7842  0.6673
 1707TIP3   OH2 5084   3.705   2.876   4.555  0.9840  0.1003 -0.1597
 1707TIP3    H1 5085   3.745   2.880   4.642 -1.6524 -0.6939  1.2259
 1707TIP3    H2 5086   3.645   2.951   4.552 -0.0395 -0.6991 -0.6385
 1708TIP3   OH2 5087   0.891   6.378   3.914 -0.0692  0.2045  0.0890
 1708TIP3    H1 5088   0.798   6.362   3.927 -0.4262 -0.3574 -2.4995
 1708TIP3    H2 5089   0.897   6.470   3.888 -0.5876 -0.6965 -3.8852
 1709TIP3   OH2 5090   3.826   3.526   5.795 -0.2065  0.3963  0.2523
 1709TIP3    H1 5091   3.766   3.452   5.789  1.0423 -0.8797  2.0642
 1709TIP3    H2 5092   3.773   3.597   5.830 -1.1463 -0.0310 -0.2722
 1710TIP3   OH2 5093   5.154   4.468   0.131 -0.4167 -0.0052 -0.3319
 1710TIP3    H1 5094   5.203   4.408   0.187 -0.8995 -1.0310 -0.9774
 1710TIP3    H2 5095   5.212   4.543   0.120 -0.0310 -0.0949  0.9435
 1711TIP3   OH2 5096   0.216   5.442   0.562 -0.2819 -0.1867  0.2306
 1711TIP3    H1 5097   0.234   5.483   0.477  0.5232 -0.9063  0.0325
 1711TIP3    H2 5098   0.132   5.478   0.589 -1.5225 -1.3570 -1.7684
 1712TIP3   OH2 5099   1.404   3.609   2.275  0.2549 -0.3365 -0.3276
 1712TIP3    H1 5100   1.457   3.624   2.197  1.6473 -1.2376  0.3980
 1712TIP3    H2 5101   1.320   3.650   2.256  0.4964 -0.7205 -2.3745
 1713TIP3   OH2 5102   4.222   0.589   3.949 -0.0640  0.5122  0.1334
 1713TIP3    H1 5103   4.239   0.652   3.879  0.5670  1.1216  0.8133
 1713TIP3    H2 5104   4.308   0.574   3.988  0.2666 -2.5416 -1.4453
 1714TIP3   OH2 5105   0.479   4.027   5.354  0.1476 -0.1373  0.2285
 1714TIP3    H1 5106   0.433   4.098   5.309 -0.4162 -0.7815 -0.2414
 1714TIP3    H2 5107   0.440   4.024   5.441 -1.8447 -1.6488 -0.6369
 1715TIP3   OH2 5108   5.358   1.084   2.452  0.2413 -0.1144 -0.0653
 1715TIP3    H1 5109   5.437   1.121   2.490  0.3128 -0.8928  0.5900
 1715TIP3    H2 5110   5.359   1.112   2.361  0.5241  1.0720  0.2897
 1716TIP3   OH2 5111   4.034   5.756   1.929  0.3019 -0.1059 -0.6399
 1716TIP3    H1 5112   4.012   5.706   2.008 -0.9808  0.0764 -0.8678
 1716TIP3    H2 5113   4.047   5.690   1.861 -0.6232 -0.1900 -0.7513
 1717TIP3   OH2 5114   1.232   4.479   1.411  0.1457 -0.3899 -0.2377
 1717TIP3    H1 5115   1.325   4.482   1.432  0.2488  0.5042 -0.7410
 1717TIP3    H2 5116   1.189   4.527   1.482  0.0256 -1.0806  0.1650
 1718TIP3   OH2 5117   2.888   5.588   2.105 -0.1886  0.2296 -0.0553
 1718TIP3    H1 5118   2.895   5.615   2.196 -1.4064  1.5815 -0.3369
 1718TIP3    H2 5119   2.794   5.582   2.088  0.0163 -1.4875 -0.8244
 1719TIP3   OH2 5120   6.906   4.936   0.991  0.3125 -0.1114  0.1349
 1719TIP3    H1 5121   6.915   4.856   0.939  1.9850 -0.0099  0.1877
 1719TIP3    H2 5122   6.880   5.003   0.929 -0.3797 -0.5418 -0.0464
 1720TIP3   OH2 5123   6.507   1.077   1.388 -0.6861  0.2466  0.3265
 1720TIP3    H1 5124   6.512   1.023   1.467  0.4198 -0.7306 -0.3876
 1720TIP3    H2 5125   6.565   1.151   1.405 -0.2419 -0.1004  0.3289
 1721TIP3   OH2 5126   1.754   0.514   3.036  0.4514 -0.2177 -0.4721
 1721TIP3    H1 5127   1.850   0.515   3.032  0.5036  1.6500  0.0495
 1721TIP3    H2 5128   1.732   0.592   3.087 -1.3547 -0.6730 -0.4950
 1722TIP3   OH2 5129   2.013   6.743   1.567 -0.1094  0.6694  0.1576
 1722TIP3    H1 5130   1.965   6.714   1.644 -0.3873  0.8000  0.0366
 1722TIP3    H2 5131   1.992   6.678   1.500  0.9304 -0.0006  0.4683
 1723TIP3   OH2 5132   4.792   0.620   2.155 -0.7017 -0.5019 -0.4595
 1723TIP3    H1 5133   4.758   0.563   2.087 -0.1584 -0.6351 -0.6299
 1723TIP3    H2 5134   4.884   0.632   2.131 -0.9312  0.8786 -0.7369
 1724TIP3   OH2 5135   4.448   1.330   2.491 -0.0854 -0.1847  0.2351
 1724TIP3    H1 5136   4.477   1.282   2.413 -0.9046 -0.4038  0.0583
 1724TIP3    H2 5137   4.528   1.345   2.541  0.5127  0.3354 -0.8586
 1725TIP3   OH2 5138   3.445   5.115   2.344  0.2798 -0.8008  0.3753
 1725TIP3    H1 5139   3.487   5.073   2.269 -0.1320 -1.2851  0.4069
 1725TIP3    H2 5140   3.419   5.042   2.400  0.7408 -0.4333  1.0758
 1726TIP3   OH2 5141   0.886   4.550   4.660 -0.1570  0.6475  0.5854
 1726TIP3    H1 5142   0.885   4.480   4.595  0.1918  0.4158  0.8240
 1726TIP3    H2 5143   0.843   4.512   4.736 -0.6878  0.9641  0.4466
 1727TIP3   OH2 5144   5.181   3.986   1.724  0.2785 -0.1234  0.1046
 1727TIP3    H1 5145   5.209   4.060   1.670 -0.0377 -1.0617 -1.4076
 1727TIP3    H2 5146   5.194   3.909   1.668 -0.9504 -1.0476  1.0300
 1728TIP3   OH2 5147   5.445   0.731   0.446  0.1796 -0.0241  0.0646
 1728TIP3    H1 5148   5.472   0.663   0.508  1.2642  0.4705  0.1500
 1728TIP3    H2 5149   5.476   0.813   0.484 -1.8449  0.6557  0.3820
 1729TIP3   OH2 5150   3.219   4.684   4.883 -0.0198  0.4418  0.2106
 1729TIP3    H1 5151   3.274   4.750   4.840 -0.8529  1.2969  0.4158
 1729TIP3    H2 5152   3.132   4.725   4.888 -0.6432 -0.8167  0.0237
 1730TIP3   OH2 5153   3.297   3.077   1.028  0.2195 -0.8890 -0.5203
 1730TIP3    H1 5154   3.308   2.986   1.003  0.4521 -0.2715 -2.9678
 1730TIP3    H2 5155   3.387   3.110   1.039  0.2062 -0.6014 -1.1975
 1731TIP3   OH2 5156   4.042   0.793   5.246 -0.2577  0.4635 -0.5429
 1731TIP3    H1 5157   4.033   0.846   5.325 -1.1257 -0.0066 -0.3039
 1731TIP3    H2 5158   3.966   0.816   5.193 -2.8587 -3.1111  1.1841
 1732TIP3   OH2 5159   0.459   5.697   5.605  0.1586  0.1344  0.7533
 1732TIP3    H1 5160   0.493   5.766   5.549  1.7162 -0.5946  0.7572
 1732TIP3    H2 5161   0.534   5.671   5.659 -0.6861 -0.8187  1.5004
 1733TIP3   OH2 5162   0.131   1.499   4.562 -0.3341  0.1875 -0.5036
 1733TIP3    H1 5163   0.072   1.574   4.559  2.3166  2.7678  3.1724
 1733TIP3    H2 5164   0.104   1.451   4.640  2.0971  1.3677  1.2000
 1734TIP3   OH2 5165   1.936   1.960   0.296 -0.1729 -0.7595  0.2381
 1734TIP3    H1 5166   1.924   1.865   0.288  2.0568 -1.3165  2.1754
 1734TIP3    H2 5167   1.896   1.982   0.380  0.8861 -0.3517  0.6561
 1735TIP3   OH2 5168   4.746   6.323   4.250 -0.2090  0.2687 -0.0293
 1735TIP3    H1 5169   4.786   6.409   4.245 -2.3879  1.3265 -0.6872
 1735TIP3    H2 5170   4.819   6.263   4.266  1.1929  2.4013  2.3503
 1736TIP3   OH2 5171   2.200   1.681   0.499  0.3617 -0.4302 -0.0255
 1736TIP3    H1 5172   2.229   1.610   0.441 -3.8167 -2.1961 -0.3131
 1736TIP3    H2 5173   2.187   1.756   0.441  0.4834 -0.8164 -0.5590
 1737TIP3   OH2 5174   3.016   4.882   1.592 -0.0905  0.3912  0.7872
 1737TIP3    H1 5175   3.032   4.900   1.684  0.1906 -0.2834  0.8730
 1737TIP3    H2 5176   3.056   4.796   1.576 -0.8584  0.1183  0.2423
 1738TIP3   OH2 5177   1.134   4.218   4.492 -0.4292  0.0321  0.2916
 1738TIP3    H1 5178   1.129   4.130   4.455 -1.2214 -0.0885  0.6544
 1738TIP3    H2 5179   1.147   4.203   4.586  1.7870  0.3313  0.0728
 1739TIP3   OH2 5180   5.921   1.085   4.334 -0.6760 -0.2110 -0.6807
 1739TIP3    H1 5181   5.838   1.085   4.381 -0.3127 -1.5999  0.0442
 1739TIP3    H2 5182   5.980   1.136   4.389 -0.8053 -0.0351 -0.7071
 1740TIP3   OH2 5183   1.113   1.807   5.090 -0.1334  0.2613 -0.7227
 1740TIP3    H1 5184   1.127   1.717   5.120 -2.7777 -0.5552 -1.6782
 1740TIP3    H2 5185   1.163   1.814   5.009 -0.0894 -0.4238 -0.7555
 1741TIP3   OH2 5186   7.180   0.034   5.595 -0.4121  0.2418 -0.7526
 1741TIP3    H1 5187   7.099   0.015   5.642  0.1640  1.5737  0.8627
 1741TIP3    H2 5188   7.173   0.126   5.572  1.6239  1.0513  1.5349
 1742TIP3   OH2 5189   2.357   0.984   1.622 -0.3535  0.4988 -0.2338
 1742TIP3    H1 5190   2.294   0.985   1.694  2.2039  0.8224  2.1376
 1742TIP3    H2 5191   2.324   1.050   1.561 -2.0302  0.9855  1.1128
 1743TIP3   OH2 5192   3.770   1.844   0.460  0.1522 -0.1714  0.0671
 1743TIP3    H1 5193   3.781   1.752   0.482  1.8402  0.8936  4.8767
 1743TIP3    H2 5194   3.851   1.868   0.415  1.6073 -0.2597  2.5093
 1744TIP3   OH2 5195   3.019   0.398   1.885  0.1958 -0.3848  0.3194
 1744TIP3    H1 5196   3.101   0.382   1.932  0.8250 -2.8682 -1.4546
 1744TIP3    H2 5197   2.958   0.333   1.920 -0.0849 -0.5821 -0.5220
 1745TIP3   OH2 5198   3.422   4.423   2.528 -0.3759  0.0928 -0.0841
 1745TIP3    H1 5199   3.414   4.392   2.619  2.4772  1.3552  0.6921
 1745TIP3    H2 5200   3.406   4.345   2.475 -1.8597 -0.7313  1.4739
 1746TIP3   OH2 5201   4.042   5.689   3.988 -0.2137 -0.1675 -0.3033
 1746TIP3    H1 5202   3.968   5.706   4.045  0.7588  0.4198  0.8359
 1746TIP3    H2 5203   4.065   5.597   4.005 -0.5217 -0.2810 -0.4890
 1747TIP3   OH2 5204   4.265   0.442   1.103  0.0735  0.2437 -0.4320
 1747TIP3    H1 5205   4.220   0.446   1.018 -2.1543 -2.8060  0.4244
 1747TIP3    H2 5206   4.196   0.451   1.168  1.6403  1.8244  1.1326
 1748TIP3   OH2 5207   5.728   4.432   1.821  0.0784 -0.1169  0.1872
 1748TIP3    H1 5208   5.713   4.337   1.830  0.4556 -0.2408 -0.4736
 1748TIP3    H2 5209   5.730   4.464   1.912 -0.4691 -0.6690  0.4072
 1749TIP3   OH2 5210   6.325   5.084   2.188 -0.0377  0.0918 -0.2994
 1749TIP3    H1 5211   6.259   5.095   2.256 -0.2528 -0.3635 -0.4310
 1749TIP3    H2 5212   6.298   5.143   2.118  0.4612  0.9458  0.2039
 1750TIP3   OH2 5213   1.049   1.985   5.289 -0.4999 -0.6087 -0.3644
 1750TIP3    H1 5214   0.983   2.045   5.253 -1.7643 -1.0472  1.1208
 1750TIP3    H2 5215   1.060   1.917   5.222  0.8347  1.0975 -2.0129
 1751TIP3   OH2 5216   2.956   5.085   2.907  0.0093 -0.1387  0.4467
 1751TIP3    H1 5217   2.990   5.171   2.933  0.3230 -0.8301  2.5200
 1751TIP3    H2 5218   3.016   5.056   2.838 -0.3943  1.4783 -0.6590
 1752TIP3   OH2 5219   1.878   4.084   2.480 -0.3798  0.3327  0.0777
 1752TIP3    H1 5220   1.944   4.102   2.412 -1.5942  0.4280 -1.1242
 1752TIP3    H2 5221   1.906   4.138   2.554  1.2218 -0.0849 -0.1664
 1753TIP3   OH2 5222   5.155   0.128   2.258 -0.1179 -0.3517  0.0722
 1753TIP3    H1 5223   5.233   0.090   2.297 -2.1703 -2.7794  2.0977
 1753TIP3    H2 5224   5.095   0.055   2.246 -2.9373  1.6703  0.6947
 1754TIP3   OH2 5225   2.353   5.368   5.013  0.4543 -0.4529  0.2732
 1754TIP3    H1 5226   2.431   5.346   4.963  0.0081  2.0781 -1.7664
 1754TIP3    H2 5227   2.384   5.429   5.080  0.3967 -0.1480  0.0286
 1755TIP3   OH2 5228   6.642   6.711   1.526 -0.2350 -0.6116 -0.5505
 1755TIP3    H1 5229   6.628   6.779   1.461 -0.3663 -1.2056 -1.1526
 1755TIP3    H2 5230   6.638   6.757   1.610 -2.1252 -0.1535 -0.8433
 1756TIP3   OH2 5231   1.994   3.809   5.321  0.5977 -0.4495 -0.7637
 1756TIP3    H1 5232   1.978   3.743   5.253  1.1455 -0.9271 -0.4345
 1756TIP3    H2 5233   1.910   3.853   5.331  0.4472 -0.5182 -1.5947
 1757TIP3   OH2 5234   4.094   4.535   3.327 -0.1972  0.1221  0.3979
 1757TIP3    H1 5235   4.163   4.597   3.302  1.0327 -1.1051  0.5858
 1757TIP3    H2 5236   4.091   4.472   3.255 -0.7048 -0.1697  0.6697
 1758TIP3   OH2 5237   2.430   6.249   2.955  0.1843 -0.0446  0.3416
 1758TIP3    H1 5238   2.371   6.278   2.885  0.8889  0.5216 -0.0319
 1758TIP3    H2 5239   2.394   6.289   3.034  1.4735  2.4568 -0.2397
 1759TIP3   OH2 5240   6.598   4.602   3.797  0.0430 -0.6212  0.0573
 1759TIP3    H1 5241   6.536   4.533   3.821 -2.2728  0.5970 -1.9536
 1759TIP3    H2 5242   6.590   4.667   3.867 -0.0968 -0.9795  0.3771
 1760TIP3   OH2 5243   4.047   2.338   0.121 -0.4112 -0.2297 -0.8252
 1760TIP3    H1 5244   4.076   2.368   0.034  3.3643  0.7144  0.5584
 1760TIP3    H2 5245   4.077   2.247   0.125  1.8892  0.4947  0.3066
 1761TIP3   OH2 5246   5.630   0.125   4.349  0.3421 -0.5865 -0.2249
 1761TIP3    H1 5247   5.616   0.089   4.261 -1.0305 -0.6852  0.0095
 1761TIP3    H2 5248   5.597   0.214   4.344  0.5401 -0.4911  0.1201
 1762TIP3   OH2 5249   2.997   2.579   4.832  0.2796  0.1842  0.2753
 1762TIP3    H1 5250   2.904   2.560   4.826 -0.1043  2.0768 -0.7787
 1762TIP3    H2 5251   3.010   2.616   4.919  0.0779 -0.1732  0.4574
 1763TIP3   OH2 5252   7.172   2.428   1.861 -0.0851  0.1087  0.5096
 1763TIP3    H1 5253   7.136   2.505   1.905  0.6557  0.8881 -0.1840
 1763TIP3    H2 5254   7.129   2.353   1.902 -0.6285  0.8847  1.3838
 1764TIP3   OH2 5255   3.865   1.627   0.879 -0.2753  0.3791 -0.0726
 1764TIP3    H1 5256   3.795   1.563   0.865  0.0540  0.0304 -0.1552
 1764TIP3    H2 5257   3.819   1.711   0.890 -0.6822  0.2394 -0.6284
 1765TIP3   OH2 5258   1.616   6.483   1.195 -0.0654  0.0873 -0.5156
 1765TIP3    H1 5259   1.596   6.513   1.283 -0.8794  0.1888 -0.7291
 1765TIP3    H2 5260   1.635   6.390   1.204  2.8766  0.6446  0.2248
 1766TIP3   OH2 5261   1.517   3.213   1.778  0.0133 -0.0972 -0.1831
 1766TIP3    H1 5262   1.456   3.283   1.754  1.6801  1.4673 -0.0805
 1766TIP3    H2 5263   1.483   3.179   1.861 -0.9199  0.4832 -0.3108
 1767TIP3   OH2 5264   5.789   5.633   2.050 -0.0226  0.5043  0.2430
 1767TIP3    H1 5265   5.732   5.652   1.975 -0.4389  0.8259  0.6388
 1767TIP3    H2 5266   5.740   5.570   2.103  0.3246  0.1792  0.1874
 1768TIP3   OH2 5267   3.752   6.780   3.504 -0.1014  0.0525 -0.2172
 1768TIP3    H1 5268   3.694   6.736   3.565  0.5764  1.1899  1.3017
 1768TIP3    H2 5269   3.831   6.727   3.503 -0.6051 -0.7187 -1.2046
 1769TIP3   OH2 5270   4.982   3.005   2.719 -0.1207  0.0629  0.4233
 1769TIP3    H1 5271   5.050   2.943   2.689 -0.4652  0.5410 -1.4875
 1769TIP3    H2 5272   4.907   2.987   2.662 -1.4059 -0.0189  2.0892
 1770TIP3   OH2 5273   7.012   4.221   5.119  0.6641 -0.1666 -0.5948
 1770TIP3    H1 5274   6.962   4.298   5.145  1.7868  0.0045  1.1950
 1770TIP3    H2 5275   7.062   4.250   5.042  1.8754  1.2843  0.6701
 1771TIP3   OH2 5276   0.485   4.510   3.155 -0.4345 -0.6805  0.1125
 1771TIP3    H1 5277   0.511   4.534   3.244 -0.1849  1.1455 -0.4196
 1771TIP3    H2 5278   0.399   4.552   3.144 -0.3285 -0.6572 -0.6162
 1772TIP3   OH2 5279   3.479   1.218   0.452  0.3885 -0.7604 -0.1024
 1772TIP3    H1 5280   3.564   1.249   0.486  0.7297 -0.6615 -1.0197
 1772TIP3    H2 5281   3.419   1.291   0.469  0.5366 -0.7399  0.3485
 1773TIP3   OH2 5282   2.418   2.889   0.300  0.2415 -0.8008 -0.0337
 1773TIP3    H1 5283   2.384   2.935   0.222  0.2802 -1.9970 -0.7769
 1773TIP3    H2 5284   2.347   2.830   0.326 -0.5403  0.9078  2.0387
 1774TIP3   OH2 5285   6.145   0.698   1.551 -0.8576  0.0155  1.2014
 1774TIP3    H1 5286   6.103   0.723   1.634 -0.6398  1.5246  0.8721
 1774TIP3    H2 5287   6.181   0.779   1.516 -0.6015 -0.6703 -0.2020
 1775TIP3   OH2 5288   5.085   2.794   3.739 -0.7742  0.0591 -0.4342
 1775TIP3    H1 5289   5.065   2.828   3.827  0.1526  1.1325 -0.6090
 1775TIP3    H2 5290   5.181   2.791   3.737 -0.7436  1.0328 -1.7460
 1776TIP3   OH2 5291   2.693   1.337   2.410  0.0872  0.4552  0.2966
 1776TIP3    H1 5292   2.663   1.353   2.320 -1.4239  0.4564  0.7749
 1776TIP3    H2 5293   2.622   1.370   2.465  0.7865  0.0196  1.4870
 1777TIP3   OH2 5294   5.924   6.117   1.292 -0.3391 -0.0121 -0.1714
 1777TIP3    H1 5295   6.006   6.165   1.303 -0.3507  0.0288 -0.2711
 1777TIP3    H2 5296   5.932   6.074   1.207 -0.0938 -0.6364  0.1578
 1778TIP3   OH2 5297   6.380   4.637   5.367 -0.3408  0.2024 -0.0962
 1778TIP3    H1 5298   6.351   4.578   5.437 -1.2728  0.6217 -0.1144
 1778TIP3    H2 5299   6.326   4.613   5.292 -0.8905  1.1969 -0.0436
 1779TIP3   OH2 5300   2.381   5.593   0.667  0.1247 -0.1490 -0.3120
 1779TIP3    H1 5301   2.473   5.571   0.657  0.5859  1.5511 -0.1876
 1779TIP3    H2 5302   2.364   5.584   0.761  0.5704  0.9022 -0.1173
 1780TIP3   OH2 5303   6.028   4.982   0.679  0.3579  0.1914 -0.8611
 1780TIP3    H1 5304   6.057   5.050   0.740 -2.2085  0.1587  0.5197
 1780TIP3    H2 5305   6.012   4.906   0.734 -2.1644  0.1987 -1.4649
 1781TIP3   OH2 5306   5.300   2.095   0.372  0.5163 -0.1473  0.2960
 1781TIP3    H1 5307   5.249   2.134   0.444  0.4395  1.3759 -0.5455
 1781TIP3    H2 5308   5.341   2.018   0.411 -1.7679 -0.9921  1.2298
 1782TIP3   OH2 5309   6.482   4.016   5.355  0.4114 -0.1343 -0.0044
 1782TIP3    H1 5310   6.517   3.938   5.313 -1.3840 -1.7740  1.3553
 1782TIP3    H2 5311   6.553   4.048   5.410  1.0287 -1.0659 -0.2399
 1783TIP3   OH2 5312   4.346   5.765   2.081 -0.1547  0.1578  0.1907
 1783TIP3    H1 5313   4.266   5.740   2.127  0.2483  0.4431  1.0790
 1783TIP3    H2 5314   4.323   5.846   2.036 -0.5095 -0.0272  0.0430
 1784TIP3   OH2 5315   6.902   1.632   4.444  0.3827  0.3574  0.2219
 1784TIP3    H1 5316   6.861   1.694   4.383 -0.7580 -0.1141  0.4905
 1784TIP3    H2 5317   6.923   1.685   4.521 -3.4912 -0.0490  1.7931
 1785TIP3   OH2 5318   1.661   4.082   1.584  0.2444 -0.1083  0.1868
 1785TIP3    H1 5319   1.594   4.014   1.586  0.1948 -0.0724 -0.3096
 1785TIP3    H2 5320   1.618   4.158   1.623 -0.0922 -0.0081 -0.3721
 1786TIP3   OH2 5321   4.347   6.337   5.501 -0.3233 -0.4585  0.3931
 1786TIP3    H1 5322   4.270   6.358   5.554 -0.5819 -1.3804  0.3889
 1786TIP3    H2 5323   4.319   6.353   5.411 -1.1461 -2.6107  0.2291
 1787TIP3   OH2 5324   3.935   6.192   1.856 -0.0332 -0.3490 -0.2361
 1787TIP3    H1 5325   4.005   6.257   1.845  0.7221 -0.8242  1.4894
 1787TIP3    H2 5326   3.855   6.239   1.832  0.6344  0.8494 -0.1986
 1788TIP3   OH2 5327   6.694   3.676   4.311  0.1196  0.4171 -0.2385
 1788TIP3    H1 5328   6.659   3.608   4.369  0.4544  0.3976 -0.0540
 1788TIP3    H2 5329   6.772   3.708   4.357 -0.2828  1.2291 -0.1211
 1789TIP3   OH2 5330   0.991   6.370   5.333  0.0068 -0.9471  0.3374
 1789TIP3    H1 5331   1.053   6.298   5.321  0.7706 -0.3340  0.4962
 1789TIP3    H2 5332   0.914   6.344   5.283  0.0374 -2.1500  0.8894
 1790TIP3   OH2 5333   2.749   6.247   3.865  0.2411  0.3178  0.3365
 1790TIP3    H1 5334   2.719   6.268   3.776 -0.6094  2.6396  1.0982
 1790TIP3    H2 5335   2.813   6.315   3.886  0.3664 -0.1454  1.5265
 1791TIP3   OH2 5336   2.373   5.709   2.451 -0.4590  0.5045  0.2943
 1791TIP3    H1 5337   2.325   5.788   2.426  0.1234  1.3041  1.5898
 1791TIP3    H2 5338   2.404   5.727   2.540 -0.7630 -1.3879  0.8335
 1792TIP3   OH2 5339   4.249   6.708   0.631 -0.1821 -0.4466 -0.0277
 1792TIP3    H1 5340   4.164   6.725   0.589  0.4391 -0.7851 -1.5036
 1792TIP3    H2 5341   4.232   6.634   0.690 -1.2156  0.4078  0.8013
 1793TIP3   OH2 5342   4.852   2.149   3.504 -0.3613 -0.1938 -0.4079
 1793TIP3    H1 5343   4.830   2.217   3.441 -0.2349  0.9745  0.7544
 1793TIP3    H2 5344   4.939   2.174   3.536 -1.0008  0.0721  1.2386
 1794TIP3   OH2 5345   0.586   0.505   3.854 -0.0092  0.6852  0.0028
 1794TIP3    H1 5346   0.571   0.479   3.945 -2.6102 -0.0495 -0.5480
 1794TIP3    H2 5347   0.573   0.599   3.853 -2.2807  0.4186  0.0633
 1795TIP3   OH2 5348   5.807   6.169   4.631 -0.6899  0.2166 -0.1505
 1795TIP3    H1 5349   5.728   6.137   4.674 -1.2906  0.6064 -0.9492
 1795TIP3    H2 5350   5.840   6.238   4.689  0.7105 -1.8519  1.6758
 1796TIP3   OH2 5351   4.498   5.675   2.269  0.0057  0.3975 -0.3509
 1796TIP3    H1 5352   4.433   5.677   2.338 -0.6025  0.5544 -0.9184
 1796TIP3    H2 5353   4.450   5.699   2.190  1.0569  2.0755 -0.5437
 1797TIP3   OH2 5354   0.928   3.164   0.962  0.1689  0.0618  0.6913
 1797TIP3    H1 5355   0.917   3.082   0.915  0.3929  1.1238 -1.3523
 1797TIP3    H2 5356   1.021   3.186   0.951  0.5708 -0.3499  2.9181
 1798TIP3   OH2 5357   6.900   4.651   5.187 -0.2123 -0.3960  0.1215
 1798TIP3    H1 5358   6.845   4.587   5.233 -0.3832 -0.3564 -0.0279
 1798TIP3    H2 5359   6.962   4.681   5.253 -0.5329 -0.2543  0.3601
 1799TIP3   OH2 5360   2.428   5.014   5.165  0.0840  0.0247 -0.1222
 1799TIP3    H1 5361   2.386   4.933   5.194 -0.2521 -0.2175 -1.2420
 1799TIP3    H2 5362   2.520   4.990   5.153  0.2551  0.1611  0.8314
 1800TIP3   OH2 5363   4.001   3.738   0.787 -0.1814 -0.1132 -0.0422
 1800TIP3    H1 5364   3.947   3.813   0.760 -0.7312 -0.7209 -0.6541
 1800TIP3    H2 5365   4.089   3.760   0.756  0.0030  1.0007  1.1746
 1801TIP3   OH2 5366   1.798   1.460   4.279  0.6253  0.2588 -0.3927
 1801TIP3    H1 5367   1.872   1.484   4.224  0.4732  3.0234  0.4285
 1801TIP3    H2 5368   1.739   1.413   4.221  2.1188 -0.2435 -1.5673
 1802TIP3   OH2 5369   5.641   4.734   1.366  0.6430  0.3383  0.2144
 1802TIP3    H1 5370   5.668   4.748   1.276 -1.0074 -0.6774 -0.4877
 1802TIP3    H2 5371   5.723   4.717   1.413  1.4800  0.3038 -1.2008
 1803TIP3   OH2 5372   1.682   0.714   2.673  0.7084  0.0251  0.5470
 1803TIP3    H1 5373   1.673   0.728   2.579 -0.7333  1.7232  0.8947
 1803TIP3    H2 5374   1.706   0.799   2.708 -2.9410  0.5522  2.1488
 1804TIP3   OH2 5375   0.222   0.756   4.681  0.3203 -0.3732  0.1769
 1804TIP3    H1 5376   0.225   0.779   4.589 -0.0694 -0.1766  0.2107
 1804TIP3    H2 5377   0.137   0.789   4.712  2.2779  3.8484  1.7493
 1805TIP3   OH2 5378   3.756   2.477   5.240 -0.0476 -0.5265  0.1691
 1805TIP3    H1 5379   3.830   2.483   5.180  0.5814 -2.1025  0.7531
 1805TIP3    H2 5380   3.729   2.386   5.237 -0.6186 -0.4332  1.5494
 1806TIP3   OH2 5381   6.102   5.120   1.572  0.0536  0.3242  0.1128
 1806TIP3    H1 5382   6.033   5.101   1.635 -2.8917  0.5662 -2.7589
 1806TIP3    H2 5383   6.175   5.153   1.624 -2.0056  0.1467  3.3344
 1807TIP3   OH2 5384   0.418   6.435   4.377 -0.5250 -0.0888  0.4235
 1807TIP3    H1 5385   0.458   6.518   4.400  0.2056 -0.5614  0.8707
 1807TIP3    H2 5386   0.324   6.454   4.373 -0.3010  0.9435 -0.2897
 1808TIP3   OH2 5387   6.878   1.712   1.632  0.0803 -0.0328 -0.7927
 1808TIP3    H1 5388   6.950   1.667   1.676  0.4259 -0.7892 -2.0773
 1808TIP3    H2 5389   6.828   1.752   1.703  0.8638 -0.8277  0.2434
 1809TIP3   OH2 5390   1.126   3.954   1.195 -0.2248  0.5471  0.3508
 1809TIP3    H1 5391   1.155   4.024   1.253 -0.0443  0.6351  0.1532
 1809TIP3    H2 5392   1.094   3.886   1.254  0.5554  0.3681  0.5771
 1810TIP3   OH2 5393   0.533   3.492   1.337 -0.1797 -0.5706  0.0921
 1810TIP3    H1 5394   0.624   3.511   1.361 -0.1389 -1.6502  0.8334
 1810TIP3    H2 5395   0.506   3.569   1.286  0.4264  0.8453  1.7811
 1811TIP3   OH2 5396   2.440   3.555   0.397  0.5185 -0.2568 -0.4172
 1811TIP3    H1 5397   2.368   3.501   0.364 -0.8066  1.2773 -0.1858
 1811TIP3    H2 5398   2.497   3.567   0.321 -0.3241 -0.1805 -1.0598
 1812TIP3   OH2 5399   3.426   3.586   5.581  0.7594  0.1150  0.2118
 1812TIP3    H1 5400   3.517   3.614   5.587  1.0210 -0.6078 -0.4363
 1812TIP3    H2 5401   3.377   3.656   5.626  1.5000  1.1271 -0.5249
 1813TIP3   OH2 5402   3.674   3.410   3.516  0.3587  0.0778 -0.6064
 1813TIP3    H1 5403   3.601   3.468   3.494 -0.4947 -0.3935  0.8569
 1813TIP3    H2 5404   3.706   3.378   3.432  0.7200  2.4725 -1.4609
 1814TIP3   OH2 5405   0.329   4.998   1.090 -0.3655  0.7703  0.6297
 1814TIP3    H1 5406   0.340   5.059   1.163  0.4784 -0.5016  1.6177
 1814TIP3    H2 5407   0.414   4.955   1.083 -1.0712 -0.6114  0.2811
 1815TIP3   OH2 5408   5.706   4.831   3.084  0.2836  0.4310 -0.7052
 1815TIP3    H1 5409   5.746   4.907   3.126 -0.2415  1.6958 -2.3883
 1815TIP3    H2 5410   5.614   4.854   3.074 -0.4884 -1.5183  1.0600
 1816TIP3   OH2 5411   6.685   0.794   0.831 -0.2790 -0.1947  0.2218
 1816TIP3    H1 5412   6.631   0.872   0.841 -0.7014 -0.4708  0.1558
 1816TIP3    H2 5413   6.728   0.804   0.746  0.3466  0.3724  0.6049
 1817TIP3   OH2 5414   4.267   4.637   1.404  0.1865 -0.1063 -0.6294
 1817TIP3    H1 5415   4.211   4.714   1.411 -0.9007 -0.7589 -1.8385
 1817TIP3    H2 5416   4.269   4.617   1.311  1.9643 -0.4638 -0.5357
 1818TIP3   OH2 5417   5.675   6.805   1.738  0.4487  0.4979 -0.2137
 1818TIP3    H1 5418   5.608   6.753   1.782  0.8749  0.0180 -0.1067
 1818TIP3    H2 5419   5.754   6.750   1.742  0.4245  0.2937 -1.8728
 1819TIP3   OH2 5420   0.251   2.715   4.748 -0.7044  0.3557  0.4073
 1819TIP3    H1 5421   0.300   2.794   4.723  1.1182 -0.8590  0.0112
 1819TIP3    H2 5422   0.180   2.749   4.802  0.9406  2.1766  1.6008
 1820TIP3   OH2 5423   6.471   1.816   5.889 -0.4425 -0.8284  0.0926
 1820TIP3    H1 5424   6.524   1.876   5.836 -1.1031  0.1806  0.5488
 1820TIP3    H2 5425   6.534   1.755   5.927  0.0584 -1.5389 -1.7736
 1821TIP3   OH2 5426   1.081   4.258   1.321 -0.1830  0.2897 -0.1154
 1821TIP3    H1 5427   0.994   4.255   1.360 -0.1708 -0.5444 -0.1372
 1821TIP3    H2 5428   1.107   4.350   1.327 -1.0169  0.5287 -0.0093
 1822TIP3   OH2 5429   2.263   5.721   0.043 -0.3537  0.1948 -0.0060
 1822TIP3    H1 5430   2.193   5.694  -0.016  0.3471 -0.6561 -0.4775
 1822TIP3    H2 5431   2.234   5.692   0.129 -1.1623  1.0104  0.0044
 1823TIP3   OH2 5432   4.835   5.971   2.344  0.0223 -0.4485 -0.1480
 1823TIP3    H1 5433   4.812   5.888   2.384 -2.7441  1.1363  1.9630
 1823TIP3    H2 5434   4.925   5.987   2.371  0.6356 -2.6982 -0.6466
 1824TIP3   OH2 5435   2.746   1.764   3.779  0.0698 -0.1023  0.6886
 1824TIP3    H1 5436   2.838   1.784   3.762 -0.2269  0.0452 -0.9813
 1824TIP3    H2 5437   2.718   1.714   3.701 -1.8395  1.8461  0.0188
 1825TIP3   OH2 5438   2.022   0.880   3.926  0.0778 -0.0313  0.1729
 1825TIP3    H1 5439   1.975   0.916   3.851 -0.2493  0.1982  0.4866
 1825TIP3    H2 5440   1.956   0.872   3.995  0.1267 -1.2860  0.1038
 1826TIP3   OH2 5441   2.400   2.312   4.639 -0.6289  0.2878 -0.2439
 1826TIP3    H1 5442   2.482   2.339   4.599 -0.3525  0.8163  0.6444
 1826TIP3    H2 5443   2.350   2.273   4.568  0.0749  0.6673 -0.9607
 1827TIP3   OH2 5444   5.012   1.634   5.572  0.0099 -0.4429 -0.7323
 1827TIP3    H1 5445   4.972   1.602   5.653  0.1334 -0.4403 -0.6711
 1827TIP3    H2 5446   4.987   1.568   5.506 -0.0204 -0.4876 -0.6760
 1828TIP3   OH2 5447   4.527   3.009   2.123 -0.4825 -0.0095  0.3127
 1828TIP3    H1 5448   4.515   3.017   2.218  0.6071  1.4605  0.3695
 1828TIP3    H2 5449   4.467   3.073   2.085  0.5010  0.8356  0.1390
 1829TIP3   OH2 5450   7.066   0.233   0.534 -0.3642 -0.0301 -0.2536
 1829TIP3    H1 5451   7.000   0.213   0.600 -0.3059  1.2127  0.2007
 1829TIP3    H2 5452   7.149   0.218   0.578 -0.3103  1.6022  0.2534
 1830TIP3   OH2 5453   4.035   6.289   3.564 -0.1451  0.1792  0.8113
 1830TIP3    H1 5454   4.121   6.319   3.536 -0.4226  0.9854  0.8100
 1830TIP3    H2 5455   4.043   6.278   3.658  0.3876 -1.2105  0.6285
 1831TIP3   OH2 5456   0.931   5.660   4.704 -0.3064  0.0132 -0.0681
 1831TIP3    H1 5457   0.917   5.638   4.612 -1.0502  1.6762 -0.3958
 1831TIP3    H2 5458   1.021   5.692   4.708 -0.7451  1.4143 -0.5797
 1832TIP3   OH2 5459   6.325   5.686   0.570 -0.1883  0.1874 -0.2321
 1832TIP3    H1 5460   6.364   5.656   0.488  0.9803 -0.3952  0.5108
 1832TIP3    H2 5461   6.241   5.640   0.575  0.1611 -0.5155 -0.6434
 1833TIP3   OH2 5462   5.240   0.826   2.884 -0.1397 -0.2814  0.1640
 1833TIP3    H1 5463   5.168   0.885   2.862 -1.0398 -1.5527 -0.4091
 1833TIP3    H2 5464   5.251   0.836   2.978 -2.7187 -1.7993  0.7202
 1834TIP3   OH2 5465   4.411   2.749   2.096 -0.5424 -0.3540  0.4244
 1834TIP3    H1 5466   4.458   2.831   2.113 -2.1807  0.3786  1.6857
 1834TIP3    H2 5467   4.463   2.705   2.029  0.8366  1.3232  0.3277
 1835TIP3   OH2 5468   3.098   4.161   4.841 -0.3085  0.3057  0.1914
 1835TIP3    H1 5469   3.104   4.122   4.754 -0.1927  0.1517  0.2677
 1835TIP3    H2 5470   3.111   4.255   4.827 -1.2694  0.4005 -0.0727
 1836TIP3   OH2 5471   6.535   1.143   0.547 -0.0264 -0.5641  0.3973
 1836TIP3    H1 5472   6.584   1.122   0.467 -0.4795  0.1691 -0.0834
 1836TIP3    H2 5473   6.487   1.062   0.568  0.1373 -0.7749 -0.0357
 1837TIP3   OH2 5474   7.015   2.983   0.265 -0.0205  0.5723  0.2300
 1837TIP3    H1 5475   7.012   3.070   0.304  1.8752  0.9765 -0.4114
 1837TIP3    H2 5476   7.053   2.927   0.333  1.3512  0.8583 -0.2541
 1838TIP3   OH2 5477   7.027   0.792   0.067  0.7922 -0.1740 -0.0152
 1838TIP3    H1 5478   6.955   0.730   0.053  0.7362 -0.4324  1.2654
 1838TIP3    H2 5479   7.086   0.745   0.126  1.8582  0.1624 -0.7902
 1839TIP3   OH2 5480   6.003   3.910   4.145  0.2874 -0.3171 -0.3446
 1839TIP3    H1 5481   5.940   3.915   4.217  1.4804 -0.7126  0.7528
 1839TIP3    H2 5482   6.060   3.987   4.157  1.2114 -1.0147 -0.1710
 1840TIP3   OH2 5483   5.933   2.364   4.440  0.9094 -0.1963 -0.8237
 1840TIP3    H1 5484   5.953   2.271   4.434 -1.3541 -0.8289  0.4123
 1840TIP3    H2 5485   5.885   2.384   4.360  0.3732 -0.4052 -0.5621
 1841TIP3   OH2 5486   5.222   0.076   1.166 -0.2410  0.0518 -0.0493
 1841TIP3    H1 5487   5.287   0.123   1.114 -0.1732 -0.5430 -0.5196
 1841TIP3    H2 5488   5.138   0.115   1.140 -0.3730 -1.2523 -1.7899
 1842TIP3   OH2 5489   1.066   3.448   4.366 -0.0081  0.0165 -0.6762
 1842TIP3    H1 5490   1.028   3.377   4.418  0.5156  0.1597 -0.0834
 1842TIP3    H2 5491   1.006   3.521   4.376  1.2287  0.8130  1.6891
 1843TIP3   OH2 5492   1.084   3.869   5.689 -0.3069  0.5194 -0.5444
 1843TIP3    H1 5493   1.136   3.935   5.642  0.1047  1.1394  0.7515
 1843TIP3    H2 5494   1.148   3.802   5.715 -0.3444  0.7131  0.0573
 1844TIP3   OH2 5495   2.793   3.088   2.552  0.0300  0.1105  0.0322
 1844TIP3    H1 5496   2.847   3.131   2.619  0.2368 -0.8853  0.5290
 1844TIP3    H2 5497   2.752   3.160   2.505  1.8635  0.9246 -0.4371
 1845TIP3   OH2 5498   1.820   4.180   4.035 -0.0954  0.3430  0.0496
 1845TIP3    H1 5499   1.874   4.254   4.066  0.9945 -1.6905  3.5817
 1845TIP3    H2 5500   1.758   4.165   4.106 -1.9561 -0.6233 -1.7106
 1846TIP3   OH2 5501   3.738   4.767   0.771  0.4756  0.0871 -0.1836
 1846TIP3    H1 5502   3.748   4.672   0.774  0.9272  0.1443  0.1723
 1846TIP3    H2 5503   3.797   4.795   0.700 -0.4031  0.0143 -0.9717
 1847TIP3   OH2 5504   6.491   4.037   3.038  0.0360 -0.2899 -0.1571
 1847TIP3    H1 5505   6.471   4.035   2.944  1.6083 -0.3055 -0.5243
 1847TIP3    H2 5506   6.418   3.991   3.079 -0.8520  0.0174 -1.3348
 1848TIP3   OH2 5507   3.974   4.135   0.367 -0.1676  0.1366 -0.2890
 1848TIP3    H1 5508   4.055   4.140   0.317  0.1291  0.7235  0.2275
 1848TIP3    H2 5509   3.964   4.042   0.387  1.4951  0.2590  1.3922
 1849TIP3   OH2 5510   5.225   0.592   3.769  0.4250 -0.5829  0.2455
 1849TIP3    H1 5511   5.142   0.549   3.747 -0.6191  0.1952  2.2916
 1849TIP3    H2 5512   5.221   0.677   3.725 -0.2295 -0.2698  0.8742
 1850TIP3   OH2 5513   2.174   1.661   3.587 -0.3268 -0.3397  0.2488
 1850TIP3    H1 5514   2.135   1.748   3.587 -1.6619 -0.9019  0.5663
 1850TIP3    H2 5515   2.251   1.669   3.644  3.2446  2.0530 -4.2865
 1851TIP3   OH2 5516   0.331   4.578   4.314  0.1354 -0.4091  0.1234
 1851TIP3    H1 5517   0.246   4.544   4.288 -0.4974  0.9955  0.2717
 1851TIP3    H2 5518   0.355   4.639   4.244  0.9690 -0.7152  0.1350
 1852TIP3   OH2 5519   1.944   2.117   3.844  0.3129  0.3729 -0.6690
 1852TIP3    H1 5520   1.982   2.057   3.909 -0.0009  0.0649 -0.7661
 1852TIP3    H2 5521   1.850   2.113   3.861  0.4142  2.3935  0.6521
 1853TIP3   OH2 5522   5.774   5.917   3.437 -0.0136  0.0695 -0.2617
 1853TIP3    H1 5523   5.818   5.832   3.447  1.5986  0.9750  0.7102
 1853TIP3    H2 5524   5.845   5.981   3.438 -1.3418  1.5957  1.3498
 1854TIP3   OH2 5525   3.100   1.114   3.576  0.5852 -0.7567 -0.0557
 1854TIP3    H1 5526   3.135   1.145   3.660  1.4801 -0.0058 -0.6775
 1854TIP3    H2 5527   3.174   1.123   3.515 -1.0474  2.5331 -1.8468
 1855TIP3   OH2 5528   5.518   2.510   0.554  0.1242  0.8102  0.4825
 1855TIP3    H1 5529   5.528   2.461   0.472  2.6765  1.8951  0.0499
 1855TIP3    H2 5530   5.475   2.449   0.613  1.2713 -1.2166 -0.6640
 1856TIP3   OH2 5531   5.333   4.152   5.098 -0.3237  0.2906  0.1081
 1856TIP3    H1 5532   5.414   4.155   5.047 -0.3176 -1.1164 -0.0124
 1856TIP3    H2 5533   5.334   4.232   5.150  1.0551  0.3752 -0.0178
 1857TIP3   OH2 5534   6.148   2.098   3.409  0.1772  0.4472  0.0958
 1857TIP3    H1 5535   6.132   2.184   3.372 -0.7675  0.0297 -0.5183
 1857TIP3    H2 5536   6.235   2.073   3.377  1.0048  1.6708  1.3012
 1858TIP3   OH2 5537   4.271   4.875   0.480 -0.0562 -0.0033 -0.0464
 1858TIP3    H1 5538   4.205   4.851   0.415 -0.7103  0.2031  0.5185
 1858TIP3    H2 5539   4.283   4.795   0.532  0.2354 -0.0790 -0.2321
 1859TIP3   OH2 5540   6.154   1.385   3.388 -0.5659  0.8115  0.0074
 1859TIP3    H1 5541   6.174   1.347   3.473  2.2582  0.7469 -0.5869
 1859TIP3    H2 5542   6.077   1.440   3.403 -0.3315  0.5482  2.5118
 1860TIP3   OH2 5543   3.637   6.380   2.017  0.4341 -0.4544  0.8779
 1860TIP3    H1 5544   3.698   6.354   2.086  0.7116  0.0955  0.8458
 1860TIP3    H2 5545   3.684   6.363   1.936  0.6123  0.1022  0.8553
 1861TIP3   OH2 5546   1.498   5.905   2.287 -0.4248  0.0787  0.0816
 1861TIP3    H1 5547   1.507   5.840   2.218  0.2382 -0.3217  0.5445
 1861TIP3    H2 5548   1.538   5.984   2.250  1.1314 -0.4923  0.4845
 1862TIP3   OH2 5549   0.398   5.960   5.000 -0.2795  0.1545  0.3540
 1862TIP3    H1 5550   0.425   5.895   5.064 -2.6652 -0.8224  0.4669
 1862TIP3    H2 5551   0.464   5.956   4.932  1.5898  0.2617  2.0529
 1863TIP3   OH2 5552   6.641   3.900   0.443  0.1556 -0.8666 -0.1661
 1863TIP3    H1 5553   6.663   3.813   0.479  1.8138 -0.3248  0.2349
 1863TIP3    H2 5554   6.705   3.913   0.373 -0.2686 -0.0764 -0.4104
 1864TIP3   OH2 5555   5.879   0.929   0.510 -0.1769 -0.1268  0.2953
 1864TIP3    H1 5556   5.861   0.984   0.586 -0.0699  1.1500 -0.5663
 1864TIP3    H2 5557   5.905   0.845   0.547  0.8936  0.7716  1.6989
 1865TIP3   OH2 5558   5.018   4.913   3.790 -0.2123  0.1188 -0.7781
 1865TIP3    H1 5559   5.094   4.967   3.814  0.4560  0.2099 -2.8998
 1865TIP3    H2 5560   4.943   4.972   3.796  0.2023  0.6627 -0.8759
 1866TIP3   OH2 5561   5.935   2.884   5.255  0.6209 -0.1086 -0.0607
 1866TIP3    H1 5562   5.853   2.850   5.290  1.0523 -1.0988  0.0347
 1866TIP3    H2 5563   5.997   2.812   5.267  1.8689  1.1116  1.2429
 1867TIP3   OH2 5564   6.396   0.430   1.890  0.2779 -0.0709  0.6662
 1867TIP3    H1 5565   6.475   0.482   1.882  1.9609 -2.6426 -0.5083
 1867TIP3    H2 5566   6.345   0.475   1.958  0.9986  3.6850 -1.0373
 1868TIP3   OH2 5567   2.664   2.729   3.131  0.2684 -0.2924  0.0765
 1868TIP3    H1 5568   2.573   2.728   3.161  0.7587  0.4271  1.6896
 1868TIP3    H2 5569   2.695   2.639   3.143 -0.0107 -0.3616  0.2848
 1869TIP3   OH2 5570   1.782   1.453   2.418  0.4633 -0.0570  0.0649
 1869TIP3    H1 5571   1.865   1.425   2.379  0.1952 -1.4822  0.4524
 1869TIP3    H2 5572   1.787   1.548   2.419  1.1041  0.0028 -2.0868
 1870TIP3   OH2 5573   1.675   5.148   2.126  0.4210  0.1466 -0.5074
 1870TIP3    H1 5574   1.699   5.126   2.036 -0.7672  0.2689 -0.8724
 1870TIP3    H2 5575   1.757   5.173   2.168  1.3307 -1.8806 -0.9677
 1871TIP3   OH2 5576   5.381   2.290   2.146  0.1855 -0.5316 -0.1055
 1871TIP3    H1 5577   5.459   2.346   2.145  0.4474 -0.6962  2.4698
 1871TIP3    H2 5578   5.386   2.241   2.064  2.1200  0.3457 -0.5876
 1872TIP3   OH2 5579   6.167   1.191   1.642 -0.7275 -0.2841 -0.2091
 1872TIP3    H1 5580   6.249   1.233   1.667 -0.7160 -0.9805  0.9748
 1872TIP3    H2 5581   6.099   1.250   1.674 -0.7000 -0.5428  0.3320
 1873TIP3   OH2 5582   5.311   2.871   4.142 -0.1689  0.1831 -0.2686
 1873TIP3    H1 5583   5.374   2.849   4.073  0.5487  0.1158  0.4028
 1873TIP3    H2 5584   5.282   2.960   4.119  0.9229  0.6142 -0.0392
 1874TIP3   OH2 5585   2.674   4.122   1.194  0.3836  0.4385  0.1243
 1874TIP3    H1 5586   2.679   4.044   1.248  1.2038  0.8077  0.6004
 1874TIP3    H2 5587   2.765   4.153   1.188 -0.0853  2.0602  1.0003
 1875TIP3   OH2 5588   3.145   4.409   2.899  0.1749 -0.0780  0.0014
 1875TIP3    H1 5589   3.193   4.361   2.832  0.2774 -0.0015  0.0191
 1875TIP3    H2 5590   3.209   4.425   2.967  0.0388 -0.2634  0.1744
 1876TIP3   OH2 5591   5.012   2.672   0.727 -0.0058  0.4268  0.0130
 1876TIP3    H1 5592   4.919   2.691   0.712 -0.0107  0.7029  0.3919
 1876TIP3    H2 5593   5.036   2.613   0.655 -0.4737  0.3545 -0.0868
 1877TIP3   OH2 5594   6.255   1.673   1.289 -0.0359  0.3741  0.0596
 1877TIP3    H1 5595   6.310   1.634   1.357 -0.8050 -0.0146  0.4728
 1877TIP3    H2 5596   6.207   1.599   1.251 -2.4300  0.9624  1.6783
 1878TIP3   OH2 5597   7.069   4.483   1.905  0.5376  0.4433  0.0004
 1878TIP3    H1 5598   7.143   4.427   1.930  0.7815  0.4929 -0.5965
 1878TIP3    H2 5599   7.045   4.527   1.987  1.2599  0.5290  0.1815
 1879TIP3   OH2 5600   2.318   5.055   5.534 -0.3849 -0.1629 -0.2038
 1879TIP3    H1 5601   2.346   4.970   5.500  2.2670  0.3204  0.5303
 1879TIP3    H2 5602   2.361   5.120   5.478 -0.6364  0.6783  0.5426
 1880TIP3   OH2 5603   3.236   0.782   3.185  0.2831 -0.1820 -0.0827
 1880TIP3    H1 5604   3.162   0.835   3.155  0.0823 -0.5918 -0.3267
 1880TIP3    H2 5605   3.199   0.694   3.194  1.0717 -0.7006 -1.5821
 1881TIP3   OH2 5606   6.824   5.943   1.287  0.5785 -0.0738  0.1532
 1881TIP3    H1 5607   6.831   5.923   1.380  0.2198 -0.5222  0.0886
 1881TIP3    H2 5608   6.747   5.895   1.258  0.8366 -0.1507 -0.4276
 1882TIP3   OH2 5609   5.996   4.193   0.083  0.4815  0.1841 -0.4365
 1882TIP3    H1 5610   5.948   4.272   0.061 -0.4642 -0.2851 -0.1024
 1882TIP3    H2 5611   5.951   4.157   0.160  0.3037 -1.1596 -1.1274
 1883TIP3   OH2 5612   5.660   1.473   2.189  0.4675 -0.0161 -0.3084
 1883TIP3    H1 5613   5.570   1.482   2.222  0.4619 -0.1290 -0.2909
 1883TIP3    H2 5614   5.660   1.521   2.106  0.7218  1.0102  0.2816
 1884TIP3   OH2 5615   6.719   5.356   0.869 -0.8642 -0.0005 -0.3447
 1884TIP3    H1 5616   6.711   5.328   0.959 -0.4346  2.1611  0.4327
 1884TIP3    H2 5617   6.675   5.441   0.866 -0.3021  0.2768 -1.9853
 1885TIP3   OH2 5618   0.355   6.567   0.622 -0.1268 -0.4036  0.0899
 1885TIP3    H1 5619   0.386   6.650   0.659  1.0463 -0.5273 -0.5776
 1885TIP3    H2 5620   0.261   6.581   0.608 -0.3806  0.0583  1.9627
 1886TIP3   OH2 5621   5.711   3.515   5.388 -0.2647 -0.4099 -0.4132
 1886TIP3    H1 5622   5.754   3.527   5.473  2.6386 -1.1955 -1.6630
 1886TIP3    H2 5623   5.691   3.421   5.385 -1.0858 -0.2424 -0.2984
 1887TIP3   OH2 5624   2.301   3.644   4.946 -0.3124  0.0822 -0.0016
 1887TIP3    H1 5625   2.392   3.671   4.938 -0.0868  0.1968  2.2498
 1887TIP3    H2 5626   2.264   3.658   4.859  1.9570 -0.6091 -1.1640
 1888TIP3   OH2 5627   4.843   1.882   3.694 -0.2246  0.1102  0.5901
 1888TIP3    H1 5628   4.833   1.787   3.696  0.9485 -0.0064  2.2689
 1888TIP3    H2 5629   4.756   1.915   3.714 -0.7468 -0.5782 -0.4415
 1889TIP3   OH2 5630   1.457   3.443   1.010 -0.9178 -0.0760 -0.1052
 1889TIP3    H1 5631   1.466   3.517   1.070 -0.8332  0.0862 -0.3171
 1889TIP3    H2 5632   1.475   3.480   0.924 -1.4108 -0.2300 -0.2750
 1890TIP3   OH2 5633   3.922   3.447   3.990  0.0294 -0.2625  0.6287
 1890TIP3    H1 5634   3.904   3.505   3.916  0.4231 -0.3900  0.4336
 1890TIP3    H2 5635   3.869   3.369   3.973  0.9196 -0.7298 -0.0586
 1891TIP3   OH2 5636   4.227   0.653   1.602 -0.2446  0.1922 -0.7473
 1891TIP3    H1 5637   4.288   0.614   1.539 -1.7397 -0.8712 -1.6058
 1891TIP3    H2 5638   4.150   0.596   1.600 -2.0962  2.5177 -1.1682
 1892TIP3   OH2 5639   5.242   2.861   2.631  0.5938  0.3337 -0.0537
 1892TIP3    H1 5640   5.269   2.815   2.710  1.5622 -1.6084 -1.4298
 1892TIP3    H2 5641   5.322   2.864   2.577  0.3313  2.8776 -0.4146
 1893TIP3   OH2 5642   0.666   5.129   4.056 -0.4276 -0.4254 -0.5476
 1893TIP3    H1 5643   0.671   5.093   3.968 -0.5664 -2.0315  0.0616
 1893TIP3    H2 5644   0.633   5.057   4.109  0.0436  0.3757  0.8891
 1894TIP3   OH2 5645   7.005   2.665   5.181 -0.2579  0.3288 -0.3573
 1894TIP3    H1 5646   7.010   2.709   5.265 -1.5618  0.0432 -0.1107
 1894TIP3    H2 5647   6.924   2.613   5.185  0.0592 -0.3000 -1.4844
 1895TIP3   OH2 5648   2.119   5.540   5.566  0.4315 -0.5982  0.2206
 1895TIP3    H1 5649   2.093   5.459   5.608 -0.8439 -1.0701 -1.3747
 1895TIP3    H2 5650   2.118   5.605   5.636  1.8989 -1.9845  1.6207
 1896TIP3   OH2 5651   6.668   1.120   2.729 -0.4342 -0.6971 -0.0735
 1896TIP3    H1 5652   6.673   1.100   2.636  3.0663  0.5919 -0.2863
 1896TIP3    H2 5653   6.647   1.036   2.771 -0.3398 -1.6542 -1.8684
 1897TIP3   OH2 5654   3.589   4.325   4.487 -0.6404 -0.3527  0.1789
 1897TIP3    H1 5655   3.526   4.290   4.550  0.0391 -1.8649  0.0653
 1897TIP3    H2 5656   3.670   4.278   4.506  0.2890  1.0769 -0.1211
 1898TIP3   OH2 5657   6.095   0.518   0.486 -0.8349 -0.0931 -0.0594
 1898TIP3    H1 5658   6.020   0.569   0.517 -1.2054 -1.0570  0.6846
 1898TIP3    H2 5659   6.070   0.427   0.500  0.0190 -0.4788 -0.8881
 1899TIP3   OH2 5660   2.938   1.785   0.356  0.0315 -0.1654 -0.5749
 1899TIP3    H1 5661   2.864   1.772   0.415  0.9408 -0.5330  0.5093
 1899TIP3    H2 5662   2.961   1.878   0.367  1.2957 -0.6363  0.9957
 1900TIP3   OH2 5663   1.093   2.554   4.662  0.1467 -0.1779  0.8120
 1900TIP3    H1 5664   1.187   2.545   4.679  0.3853  0.0542 -0.3121
 1900TIP3    H2 5665   1.074   2.646   4.681 -0.1071 -0.4948  2.1635
 1901TIP3   OH2 5666   5.415   2.290   2.581  0.4461 -0.6734  0.4026
 1901TIP3    H1 5667   5.450   2.246   2.658  0.5817  3.2257  2.8581
 1901TIP3    H2 5668   5.470   2.368   2.571 -1.2839  0.3702 -1.9557
 1902TIP3   OH2 5669   1.592   2.772   4.621 -0.3964 -0.7531  0.1190
 1902TIP3    H1 5670   1.642   2.763   4.702 -0.5233 -0.2445  0.2555
 1902TIP3    H2 5671   1.633   2.710   4.561  0.7711  0.0614  0.0445
 1903TIP3   OH2 5672   1.401   6.603   5.380 -0.3674  0.5879 -0.2194
 1903TIP3    H1 5673   1.377   6.621   5.471 -0.4835  1.2131 -0.3667
 1903TIP3    H2 5674   1.317   6.593   5.335 -0.4124  2.6259 -0.7070
 1904TIP3   OH2 5675   3.329   1.562   1.848  0.5077 -0.1868  0.4557
 1904TIP3    H1 5676   3.308   1.480   1.803  1.2689 -1.0324  1.5720
 1904TIP3    H2 5677   3.321   1.540   1.941  1.7972  0.6918  0.7985
 1905TIP3   OH2 5678   0.851   3.543   1.849  0.8288 -0.2930 -0.4878
 1905TIP3    H1 5679   0.802   3.593   1.783 -0.3267 -0.2739  0.3475
 1905TIP3    H2 5680   0.783   3.497   1.898  1.0570  3.3681  3.8307
 1906TIP3   OH2 5681   0.087   5.625   3.984  0.1224  0.5007  0.0874
 1906TIP3    H1 5682   0.173   5.654   3.953  0.6546 -1.2480 -0.1772
 1906TIP3    H2 5683   0.058   5.561   3.919 -0.8930  0.2701  0.7400
 1907TIP3   OH2 5684   3.825   3.980   1.953 -0.1792 -0.0846  0.1291
 1907TIP3    H1 5685   3.847   4.041   1.883  2.2231 -0.3458  0.5640
 1907TIP3    H2 5686   3.804   4.035   2.028  0.1674  0.2094  0.0116
 1908TIP3   OH2 5687   1.934   1.560   1.237 -0.6549  0.3972  0.1742
 1908TIP3    H1 5688   1.899   1.647   1.216 -0.8674  0.5505  1.1135
 1908TIP3    H2 5689   2.029   1.569   1.227 -0.5932  1.0083  1.1595
 1909TIP3   OH2 5690   4.492   2.188   2.183 -0.2025  0.5338 -0.3148
 1909TIP3    H1 5691   4.473   2.252   2.252 -2.1914  0.2698 -0.5396
 1909TIP3    H2 5692   4.407   2.173   2.142  0.7092 -0.3238 -1.9552
 1910TIP3   OH2 5693   6.040   6.310   4.961 -0.2104 -0.2336  0.0804
 1910TIP3    H1 5694   6.085   6.228   4.976  3.0601  1.3622 -0.2008
 1910TIP3    H2 5695   6.065   6.366   5.034 -0.9151  1.0842 -0.6381
 1911TIP3   OH2 5696   6.159   2.536   4.021 -0.0978 -1.1687 -0.5281
 1911TIP3    H1 5697   6.159   2.495   4.108 -1.7221  0.0345  0.0966
 1911TIP3    H2 5698   6.174   2.464   3.960  2.6608 -1.8396  0.7894
 1912TIP3   OH2 5699   2.621   4.957   4.872  0.2803  0.1788 -0.1261
 1912TIP3    H1 5700   2.671   4.948   4.791 -0.1999 -0.1659 -0.3882
 1912TIP3    H2 5701   2.604   5.051   4.880  1.7593  0.4269  0.4578
 1913TIP3   OH2 5702   5.443   4.843   0.307  0.4868 -0.5034 -0.1411
 1913TIP3    H1 5703   5.425   4.813   0.397  0.2180 -0.9165 -0.3304
 1913TIP3    H2 5704   5.476   4.932   0.318 -0.1535 -0.3170  0.3294
 1914TIP3   OH2 5705   3.241   5.294   3.667 -0.0091 -0.5900 -0.2778
 1914TIP3    H1 5706   3.171   5.299   3.733  0.1871 -0.0520 -0.1064
 1914TIP3    H2 5707   3.305   5.359   3.695  0.1770 -0.5019 -0.8922
 1915TIP3   OH2 5708   0.453   5.981   5.828 -0.3798  0.0463 -0.0207
 1915TIP3    H1 5709   0.434   6.075   5.832  0.4612  0.2009  0.6494
 1915TIP3    H2 5710   0.534   5.975   5.778  0.4814 -0.1672  1.3588
 1916TIP3   OH2 5711   2.887   2.596   0.224 -0.0224  0.1507 -0.0924
 1916TIP3    H1 5712   2.955   2.614   0.159 -0.1426 -1.1857 -0.6279
 1916TIP3    H2 5713   2.900   2.662   0.292  0.5402  1.1427 -1.1457
 1917TIP3   OH2 5714   5.607   6.328   1.311  0.1319  0.1435  0.5025
 1917TIP3    H1 5715   5.641   6.267   1.377 -0.2389 -1.6828 -0.9224
 1917TIP3    H2 5716   5.683   6.347   1.256  0.2681  1.0945  0.9986
 1918TIP3   OH2 5717   0.535   2.623   0.326 -0.1436 -0.6399  0.7684
 1918TIP3    H1 5718   0.597   2.572   0.377  1.4607 -0.9820 -1.3896
 1918TIP3    H2 5719   0.573   2.626   0.238 -2.1496  0.9583 -0.1207
 1919TIP3   OH2 5720   3.704   5.719   3.765 -0.1773  0.2090 -0.0846
 1919TIP3    H1 5721   3.646   5.788   3.733  0.3858 -0.5185 -2.9152
 1919TIP3    H2 5722   3.792   5.752   3.748  0.1012 -1.1946 -1.6252
 1920TIP3   OH2 5723   3.497   5.290   4.073  0.5107  0.0452  0.3312
 1920TIP3    H1 5724   3.450   5.369   4.098  1.3012  0.9782 -1.0231
 1920TIP3    H2 5725   3.475   5.226   4.141  0.1142  1.5140  1.6290
 1921TIP3   OH2 5726   2.039   5.427   3.557  0.1070 -0.7351  0.2562
 1921TIP3    H1 5727   2.072   5.372   3.486  0.0177 -0.8058  0.2686
 1921TIP3    H2 5728   1.958   5.464   3.523  1.9618  2.3494 -1.1718
 1922TIP3   OH2 5729   7.023   4.144   0.716  0.3706 -0.0688  0.2467
 1922TIP3    H1 5730   7.116   4.137   0.740 -0.0250  1.1875  2.4089
 1922TIP3    H2 5731   6.977   4.102   0.788 -0.8507  2.0620  0.7733
 1923TIP3   OH2 5732   0.893   5.785   2.252  0.0136  0.2212 -0.4386
 1923TIP3    H1 5733   0.981   5.764   2.285 -0.0200  0.4506 -0.1919
 1923TIP3    H2 5734   0.908   5.821   2.165  0.3175  1.7251  0.1962
 1924TIP3   OH2 5735   2.172   1.078   4.389  0.0951 -0.3529  0.3704
 1924TIP3    H1 5736   2.263   1.106   4.391 -0.0929  0.6996 -1.8854
 1924TIP3    H2 5737   2.124   1.150   4.430  0.1219  0.0464 -0.2828
 1925TIP3   OH2 5738   1.769   1.987   2.198 -0.7853  0.0763  0.1312
 1925TIP3    H1 5739   1.854   1.948   2.216 -1.7301 -2.4816 -0.5388
 1925TIP3    H2 5740   1.768   2.067   2.251  1.4525 -0.5675  1.2876
 1926TIP3   OH2 5741   5.178   3.328   1.965 -0.1248 -0.3761  0.6372
 1926TIP3    H1 5742   5.094   3.315   2.009 -0.6767 -0.3269 -0.3662
 1926TIP3    H2 5743   5.171   3.413   1.922 -0.2507 -1.1225 -0.8947
 1927TIP3   OH2 5744   0.562   5.614   0.401  0.2770 -0.4647 -0.2919
 1927TIP3    H1 5745   0.555   5.657   0.486  1.3081  0.3049 -0.5802
 1927TIP3    H2 5746   0.471   5.601   0.373 -0.0645 -0.2194  0.6667
 1928TIP3   OH2 5747   1.502   3.026   5.288 -0.3797  0.4872 -0.0606
 1928TIP3    H1 5748   1.551   3.000   5.366  0.2836  0.4617 -0.4750
 1928TIP3    H2 5749   1.426   3.073   5.321 -0.3565  0.0576  0.6179
 1929TIP3   OH2 5750   5.633   5.288   3.091  0.0973  0.3606 -0.3816
 1929TIP3    H1 5751   5.694   5.226   3.130 -2.8695 -3.3221 -0.9757
 1929TIP3    H2 5752   5.656   5.372   3.130  2.8243 -1.4861  2.5090
 1930TIP3   OH2 5753   5.886   4.805   4.643 -0.2339  0.4819  0.2085
 1930TIP3    H1 5754   5.917   4.888   4.607  2.8868 -0.4434  0.5235
 1930TIP3    H2 5755   5.871   4.750   4.566  0.7793  0.3692  0.0744
 1931TIP3   OH2 5756   0.562   1.021   4.053 -0.2546 -0.0974 -0.1154
 1931TIP3    H1 5757   0.516   0.945   4.089  1.7892 -1.2551  0.2497
 1931TIP3    H2 5758   0.609   0.986   3.977 -1.0596  1.3610 -1.3392
 1932TIP3   OH2 5759   1.008   6.466   0.477  0.0291 -0.0373 -0.8284
 1932TIP3    H1 5760   1.057   6.501   0.402 -0.5707  2.0583 -0.3225
 1932TIP3    H2 5761   1.065   6.399   0.514  3.2397  3.0642  0.4633
 1933TIP3   OH2 5762   4.457   6.426   3.785 -0.5146 -0.2195 -0.1147
 1933TIP3    H1 5763   4.392   6.399   3.720 -1.1760  2.2559 -0.5601
 1933TIP3    H2 5764   4.541   6.419   3.740 -0.4813 -2.5683  0.1802
 1934TIP3   OH2 5765   0.801   6.368   2.296  0.5178 -0.1218 -0.4651
 1934TIP3    H1 5766   0.808   6.272   2.300 -0.9706 -0.2315  0.6883
 1934TIP3    H2 5767   0.855   6.398   2.369 -0.0776 -0.1743  0.0046
 1935TIP3   OH2 5768   0.562   5.944   0.328  0.0616 -0.5762  0.0083
 1935TIP3    H1 5769   0.605   5.934   0.413  0.0512 -0.1231  0.0717
 1935TIP3    H2 5770   0.629   5.984   0.273  0.2354 -1.3341 -0.3469
 1936TIP3   OH2 5771   4.894   1.394   0.105  0.2793 -0.1198  0.1613
 1936TIP3    H1 5772   4.876   1.318   0.159  0.2210 -0.9891 -1.0424
 1936TIP3    H2 5773   4.808   1.434   0.089  0.0734 -0.8980 -0.7517
 1937TIP3   OH2 5774   2.756   5.258   4.572 -0.1884 -0.2495  0.0029
 1937TIP3    H1 5775   2.666   5.246   4.603 -0.7385 -0.6069 -1.6474
 1937TIP3    H2 5776   2.811   5.230   4.645 -1.4234 -0.4118  0.8886
 1938TIP3   OH2 5777   6.858   1.353   5.509  0.2547 -0.3147  0.3177
 1938TIP3    H1 5778   6.811   1.360   5.591  0.8044  1.0149  0.5440
 1938TIP3    H2 5779   6.790   1.348   5.442 -0.1990  0.1211  0.7418
 1939TIP3   OH2 5780   2.227   1.293   0.534 -0.2885  0.5171  0.5389
 1939TIP3    H1 5781   2.197   1.299   0.443 -0.2179  2.3852  0.6134
 1939TIP3    H2 5782   2.319   1.267   0.527 -1.0685 -2.5462  0.2305
 1940TIP3   OH2 5783   7.006   2.218   3.981  0.6696  0.0441  0.5854
 1940TIP3    H1 5784   6.934   2.164   4.014  0.8330 -0.0469  0.7898
 1940TIP3    H2 5785   7.072   2.156   3.950  0.4179  0.1268 -0.1385
 1941TIP3   OH2 5786   3.399   3.392   4.406  0.2014 -0.5872 -0.4170
 1941TIP3    H1 5787   3.351   3.313   4.431  0.0963 -0.1208  0.9148
 1941TIP3    H2 5788   3.477   3.390   4.461 -0.6819  1.1680  0.9567
 1942TIP3   OH2 5789   0.078   0.710   5.557  0.4269 -0.3759  0.4312
 1942TIP3    H1 5790   0.056   0.739   5.645  3.8981  0.5282  1.1793
 1942TIP3    H2 5791   0.081   0.614   5.563 -3.1034 -0.6399  0.1270
 1943TIP3   OH2 5792   2.114   6.256   0.089 -0.5474  0.1559 -0.7136
 1943TIP3    H1 5793   2.032   6.274   0.136 -0.9698 -1.2648 -0.8634
 1943TIP3    H2 5794   2.160   6.194   0.145 -0.5621 -0.7149 -1.6511
 1944TIP3   OH2 5795   5.811   5.624   3.466 -0.4769 -0.0469 -0.0477
 1944TIP3    H1 5796   5.860   5.649   3.545 -1.1839 -0.8107  0.6566
 1944TIP3    H2 5797   5.878   5.607   3.400  0.0926  2.7952 -0.3494
 1945TIP3   OH2 5798   4.561   0.696   4.408  0.3634  0.2030 -0.3035
 1945TIP3    H1 5799   4.468   0.692   4.429  0.3426 -1.9102 -0.5252
 1945TIP3    H2 5800   4.581   0.609   4.371  1.6180  1.7630 -3.7162
 1946TIP3   OH2 5801   3.594   3.651   2.790 -0.3477  0.4190  0.0363
 1946TIP3    H1 5802   3.531   3.695   2.732 -0.3264  0.1977 -0.1574
 1946TIP3    H2 5803   3.539   3.605   2.854 -0.5485 -2.0890 -1.7562
 1947TIP3   OH2 5804   3.869   3.412   4.708 -0.1976 -0.4697 -0.0912
 1947TIP3    H1 5805   3.794   3.394   4.765 -0.1034  1.1125  0.5887
 1947TIP3    H2 5806   3.941   3.362   4.747 -0.0122  0.9767  1.5401
 1948TIP3   OH2 5807   4.128   6.469   0.763 -0.2719 -0.0450 -0.0068
 1948TIP3    H1 5808   4.146   6.398   0.702 -1.1989  0.2388 -0.6357
 1948TIP3    H2 5809   4.032   6.470   0.770 -0.3648  1.9528 -0.9932
 1949TIP3   OH2 5810   2.791   2.258   4.744 -0.2382 -0.3658  0.2304
 1949TIP3    H1 5811   2.819   2.285   4.832 -0.0147  0.1091  0.0186
 1949TIP3    H2 5812   2.862   2.201   4.713  0.0998  0.1552  0.0270
 1950TIP3   OH2 5813   0.644   3.140   3.437  0.0917 -1.0005  0.2064
 1950TIP3    H1 5814   0.582   3.071   3.412  0.5302 -1.1081 -0.6041
 1950TIP3    H2 5815   0.727   3.095   3.449  0.3202 -0.6500 -0.0597
 1951TIP3   OH2 5816   0.746   2.839   2.566  0.1271 -1.1071  0.5363
 1951TIP3    H1 5817   0.822   2.876   2.610  0.0331  1.6966 -1.3490
 1951TIP3    H2 5818   0.741   2.749   2.596  2.7146 -0.6662  2.5882
 1952TIP3   OH2 5819   5.815   3.510   2.040  0.2873 -0.4550  0.5321
 1952TIP3    H1 5820   5.748   3.546   1.983 -0.3233 -0.9303  0.9356
 1952TIP3    H2 5821   5.832   3.422   2.006  3.0203  0.7029 -1.5211
 1953TIP3   OH2 5822   5.470   3.775   4.703  0.0956 -0.1772 -0.1966
 1953TIP3    H1 5823   5.523   3.854   4.692  1.1721 -1.1231 -2.3335
 1953TIP3    H2 5824   5.464   3.737   4.615 -0.1092 -2.6556  0.7964
 1954TIP3   OH2 5825   6.837   5.066   5.178 -0.2013 -0.1961 -0.4051
 1954TIP3    H1 5826   6.811   5.112   5.099 -0.5126 -0.2364 -0.3305
 1954TIP3    H2 5827   6.932   5.058   5.172 -0.3675 -1.7885 -1.6501
 1955TIP3   OH2 5828   2.823   2.896   2.926 -0.2037 -0.0487 -0.2989
 1955TIP3    H1 5829   2.770   2.959   2.877 -0.4650 -0.7070 -0.8843
 1955TIP3    H2 5830   2.762   2.860   2.992 -0.1461  0.0719 -0.1797
 1956TIP3   OH2 5831   6.225   4.644   3.693  0.1516  0.3000  0.3017
 1956TIP3    H1 5832   6.278   4.585   3.747 -1.5362 -1.6093  0.0009
 1956TIP3    H2 5833   6.148   4.663   3.747  0.0433  1.1295 -0.1370
 1957TIP3   OH2 5834   1.496   2.254   0.436 -0.2669 -0.7858 -0.5522
 1957TIP3    H1 5835   1.408   2.218   0.451 -0.2801 -0.4560  0.1744
 1957TIP3    H2 5836   1.481   2.346   0.414 -0.0325 -0.3172  1.1000
 1958TIP3   OH2 5837   0.910   5.981   2.061  0.6887 -0.3424 -0.1923
 1958TIP3    H1 5838   0.868   6.045   2.004  1.6596  0.2885 -0.2292
 1958TIP3    H2 5839   0.989   5.956   2.014  1.4656  0.1388  0.8274
 1959TIP3   OH2 5840   1.617   1.701   1.595  0.0851 -0.9033 -0.2725
 1959TIP3    H1 5841   1.570   1.622   1.623  0.0421 -0.3086  1.4004
 1959TIP3    H2 5842   1.627   1.753   1.674 -1.7280  1.7843 -1.6582
 1960TIP3   OH2 5843   0.281   1.244   3.679 -0.2807  0.1390  0.1094
 1960TIP3    H1 5844   0.204   1.269   3.628 -1.1182 -1.2760  0.6117
 1960TIP3    H2 5845   0.256   1.260   3.770 -0.1572 -0.7221  0.3082
 1961TIP3   OH2 5846   5.092   4.642   3.913 -0.4678  0.2232  0.1069
 1961TIP3    H1 5847   5.046   4.717   3.876 -0.9802 -0.0906  0.1082
 1961TIP3    H2 5848   5.154   4.616   3.845 -0.2774  0.6530  0.1120
 1962TIP3   OH2 5849   3.077   0.670   4.545  0.2356  0.2805 -0.2486
 1962TIP3    H1 5850   3.078   0.756   4.504 -1.1722 -0.4494 -1.9195
 1962TIP3    H2 5851   3.059   0.688   4.637 -1.7427  1.7154 -0.8485
 1963TIP3   OH2 5852   4.156   3.100   4.143  0.0407 -0.0504  0.1758
 1963TIP3    H1 5853   4.164   3.095   4.048 -0.8361  1.2154  0.0081
 1963TIP3    H2 5854   4.081   3.157   4.158 -0.6208 -1.2262  1.6369
 1964TIP3   OH2 5855   6.891   0.809   5.667 -0.3104  0.1155  0.5143
 1964TIP3    H1 5856   6.981   0.826   5.693  0.3052  0.6081 -1.7602
 1964TIP3    H2 5857   6.896   0.739   5.602 -1.6951 -0.5934  1.1095
 1965TIP3   OH2 5858   2.347   4.315   1.660  0.1272  0.4869 -0.1650
 1965TIP3    H1 5859   2.400   4.238   1.640  0.0515  0.3171  0.2843
 1965TIP3    H2 5860   2.259   4.292   1.632 -0.5284 -0.7146  2.5274
 1966TIP3   OH2 5861   1.314   1.966   5.379 -0.1213 -0.4496  0.4146
 1966TIP3    H1 5862   1.248   1.984   5.311  1.7989  0.4946 -1.3150
 1966TIP3    H2 5863   1.289   1.880   5.413 -1.9162 -0.3793 -0.5493
 1967TIP3   OH2 5864   1.814   2.407   1.125 -0.4215  0.0053 -0.4879
 1967TIP3    H1 5865   1.778   2.477   1.071 -2.5352 -0.2465  0.4875
 1967TIP3    H2 5866   1.893   2.444   1.163  0.4682  0.5934 -2.7381
 1968TIP3   OH2 5867   6.002   1.718   5.190  0.7502 -0.7200  0.4683
 1968TIP3    H1 5868   6.082   1.770   5.185 -0.7362  1.6525 -1.1056
 1968TIP3    H2 5869   5.958   1.750   5.269 -0.3749  0.8995 -0.7384
 1969TIP3   OH2 5870   1.894   4.283   4.434  0.3698 -0.0413  0.5905
 1969TIP3    H1 5871   1.917   4.326   4.352 -3.9148  0.4837 -0.5863
 1969TIP3    H2 5872   1.877   4.192   4.409 -0.6027  0.0372  0.9273
 1970TIP3   OH2 5873   4.873   5.766   4.397  0.3858 -0.6696  0.3025
 1970TIP3    H1 5874   4.891   5.720   4.479  1.8098  0.9350  0.9715
 1970TIP3    H2 5875   4.885   5.858   4.419  2.3176 -0.2721 -2.0428
 1971TIP3   OH2 5876   3.268   0.398   4.079 -0.3991  0.3137  0.5582
 1971TIP3    H1 5877   3.360   0.424   4.071 -0.2517  0.2518  1.8873
 1971TIP3    H2 5878   3.240   0.435   4.163 -2.4270  2.7839 -1.0562
 1972TIP3   OH2 5879   1.921   3.059   2.002  0.4265 -0.0180  0.5578
 1972TIP3    H1 5880   1.932   2.992   1.935 -2.1805 -2.0412  1.9779
 1972TIP3    H2 5881   2.010   3.076   2.033  1.2563 -2.3747 -0.2842
 1973TIP3   OH2 5882   2.235   4.750   2.912  0.1596 -0.0609  0.2909
 1973TIP3    H1 5883   2.278   4.829   2.945 -0.8918  0.4539  0.4688
 1973TIP3    H2 5884   2.289   4.722   2.839  1.4478 -0.1159  1.2334
 1974TIP3   OH2 5885   6.835   2.170   1.410 -0.3617 -0.3907 -0.4002
 1974TIP3    H1 5886   6.849   2.090   1.360 -3.1868 -1.1080 -0.1823
 1974TIP3    H2 5887   6.823   2.238   1.344  1.1072 -0.2844 -0.5913
 1975TIP3   OH2 5888   2.490   4.830   0.571 -0.1773  0.3634 -0.1747
 1975TIP3    H1 5889   2.469   4.856   0.660  1.0957  1.8694 -0.2669
 1975TIP3    H2 5890   2.412   4.784   0.539 -0.9326  0.4883  1.4319
 1976TIP3   OH2 5891   4.916   0.650   2.553  0.4284 -0.1213  0.0663
 1976TIP3    H1 5892   4.884   0.730   2.512  0.6082  0.1675  0.4817
 1976TIP3    H2 5893   4.932   0.590   2.480 -2.4772 -0.8268 -0.1027
 1977TIP3   OH2 5894   5.045   0.330   5.214  0.3691 -0.3250 -0.5190
 1977TIP3    H1 5895   4.954   0.350   5.193  0.4263  0.2990 -0.1876
 1977TIP3    H2 5896   5.082   0.414   5.243  1.0131 -0.6004 -0.5325
 1978TIP3   OH2 5897   3.810   3.682   1.750 -0.5434 -0.3116  0.2708
 1978TIP3    H1 5898   3.783   3.636   1.670 -0.2159  1.2921 -0.8189
 1978TIP3    H2 5899   3.821   3.773   1.722  1.0816  0.0158  1.7898
 1979TIP3   OH2 5900   0.691   4.037   2.786  0.2891  0.3619  0.1437
 1979TIP3    H1 5901   0.688   4.083   2.870  3.4787  1.9897 -0.4888
 1979TIP3    H2 5902   0.642   4.093   2.726  1.9073  1.6563 -0.0306
 1980TIP3   OH2 5903   0.342   1.398   1.981 -0.1437  0.5574  0.5865
 1980TIP3    H1 5904   0.263   1.352   2.010 -0.1687  0.7007  0.7507
 1980TIP3    H2 5905   0.372   1.349   1.905  0.1251 -0.0500  1.0680
 1981TIP3   OH2 5906   0.662   2.163   2.686  0.0405  0.4449 -0.6199
 1981TIP3    H1 5907   0.713   2.152   2.765 -0.2352  2.2966 -0.1397
 1981TIP3    H2 5908   0.638   2.256   2.685 -1.9976 -0.0296 -1.6142
 1982TIP3   OH2 5909   4.542   0.708   1.878 -0.7014  0.7496 -0.6939
 1982TIP3    H1 5910   4.528   0.779   1.815  3.1717  0.6510 -1.8723
 1982TIP3    H2 5911   4.521   0.628   1.829 -1.1640  0.8460 -0.6610
 1983TIP3   OH2 5912   6.799   5.609   5.056  0.5570  0.6050 -0.0740
 1983TIP3    H1 5913   6.859   5.613   4.982  0.1589 -0.9498 -0.5304
 1983TIP3    H2 5914   6.795   5.516   5.079  0.1750  0.9737  1.4941
 1984TIP3   OH2 5915   5.888   4.007   2.226  0.2883 -0.1730 -0.5934
 1984TIP3    H1 5916   5.866   3.914   2.228  1.8224 -0.5504  1.3578
 1984TIP3    H2 5917   5.980   4.009   2.196  1.4236  0.3592  2.5738
 1985TIP3   OH2 5918   6.661   2.913   4.007  0.0453  0.2488 -0.0042
 1985TIP3    H1 5919   6.667   2.933   3.913  1.6927  1.3934  0.2852
 1985TIP3    H2 5920   6.745   2.943   4.042 -0.4503 -0.3847  1.8072
 1986TIP3   OH2 5921   7.108   1.974   4.459 -0.7251  0.0267 -0.1846
 1986TIP3    H1 5922   7.082   2.031   4.387  0.3092 -0.5633 -1.0602
 1986TIP3    H2 5923   7.073   2.017   4.538 -1.1557  1.1249 -0.9487
 1987TIP3   OH2 5924   4.641   3.830   2.543 -0.1995 -0.2989  0.2443
 1987TIP3    H1 5925   4.588   3.841   2.464 -0.1937 -2.8985 -0.2097
 1987TIP3    H2 5926   4.703   3.760   2.521 -0.3632 -1.2910  2.5985
 1988TIP3   OH2 5927   2.260   0.311   2.386 -0.5194  0.3243 -0.2239
 1988TIP3    H1 5928   2.353   0.335   2.388 -0.8586  1.6571  0.0477
 1988TIP3    H2 5929   2.227   0.336   2.472 -1.2107  0.1274 -0.4313
 1989TIP3   OH2 5930   3.209   6.196   2.767 -0.0160 -0.0749  0.1933
 1989TIP3    H1 5931   3.174   6.130   2.707 -1.0020  1.8933 -1.5171
 1989TIP3    H2 5932   3.277   6.241   2.715  0.0206  0.8322  1.0075
 1990TIP3   OH2 5933   5.353   4.807   1.444  0.2072 -0.3517 -0.8664
 1990TIP3    H1 5934   5.302   4.734   1.479 -1.5358  0.6274 -1.2545
 1990TIP3    H2 5935   5.444   4.781   1.458 -0.3736 -2.0523  0.0914
 1991TIP3   OH2 5936   2.727   5.494   5.770  0.6262 -0.2353 -0.0984
 1991TIP3    H1 5937   2.803   5.496   5.711  0.2145  1.7261 -0.6368
 1991TIP3    H2 5938   2.689   5.582   5.763 -1.6658 -1.1363  0.2272
 1992TIP3   OH2 5939   3.229   4.713   0.658  0.5075  0.6049 -0.0460
 1992TIP3    H1 5940   3.279   4.742   0.582 -0.3295  1.2388 -0.3747
 1992TIP3    H2 5941   3.171   4.645   0.623 -0.1396  1.1560 -0.0715
 1993TIP3   OH2 5942   6.963   3.064   2.559  1.0805  0.1749  0.9259
 1993TIP3    H1 5943   7.027   3.070   2.488  0.2925 -0.0274  0.1698
 1993TIP3    H2 5944   6.917   3.148   2.556  2.1232  0.8341  2.2987
 1994TIP3   OH2 5945   5.365   0.072   3.127  0.3093  0.2568  0.0798
 1994TIP3    H1 5946   5.453   0.036   3.131  0.7451  0.8731 -2.1119
 1994TIP3    H2 5947   5.355   0.100   3.035 -2.2094  0.0897  0.2245
 1995TIP3   OH2 5948   5.224   5.635   4.427 -0.4448 -0.6943 -0.0922
 1995TIP3    H1 5949   5.215   5.570   4.498  1.7638 -0.2051  0.7195
 1995TIP3    H2 5950   5.295   5.601   4.373 -0.2630  0.3128 -0.4957
 1996TIP3   OH2 5951   3.186   5.815   4.496  0.0657  0.2624 -0.0113
 1996TIP3    H1 5952   3.136   5.870   4.556 -0.7658  1.3452 -1.6268
 1996TIP3    H2 5953   3.139   5.820   4.413  0.1835 -2.5976 -0.3584
 1997TIP3   OH2 5954   1.043   1.653   1.075  0.2869  0.4570 -0.5689
 1997TIP3    H1 5955   0.955   1.643   1.039 -0.2430  0.1994  0.7589
 1997TIP3    H2 5956   1.038   1.731   1.130  0.7863  0.2274 -0.1897
 1998TIP3   OH2 5957   0.681   0.941   4.334 -0.5252 -0.5130  0.1450
 1998TIP3    H1 5958   0.678   1.012   4.269 -0.2809 -0.2597  0.4057
 1998TIP3    H2 5959   0.708   0.984   4.415 -1.7250 -0.6674  0.6406
 1999TIP3   OH2 5960   2.887   3.509   2.007  0.5487 -0.3227  0.2240
 1999TIP3    H1 5961   2.831   3.488   2.081 -0.6642 -0.6598 -0.7449
 1999TIP3    H2 5962   2.957   3.444   2.009  0.2446 -0.6335  0.7707
 2000TIP3   OH2 5963   2.583   4.924   3.024  0.3737 -0.4261 -0.3946
 2000TIP3    H1 5964   2.619   4.861   3.086 -1.5775 -0.0554  1.2012
 2000TIP3    H2 5965   2.532   4.984   3.078 -1.8242 -0.3773 -2.3994
 2001TIP3   OH2 5966   0.905   2.029   3.347 -0.7671  0.3749 -0.3042
 2001TIP3    H1 5967   0.974   2.086   3.315  0.3724 -0.0651  1.2701
 2001TIP3    H2 5968   0.887   2.059   3.436 -0.0049 -1.7659  0.6456
 2002TIP3   OH2 5969   5.735   5.266   5.799 -0.1351  0.0365 -0.1526
 2002TIP3    H1 5970   5.786   5.243   5.721  0.2418 -2.1998  0.6699
 2002TIP3    H2 5971   5.792   5.324   5.849 -0.1864  1.0893 -1.2859
 2003TIP3   OH2 5972   2.558   4.688   3.930  0.0956  0.4888  0.2399
 2003TIP3    H1 5973   2.611   4.759   3.895  3.5604 -1.1740  1.6477
 2003TIP3    H2 5974   2.568   4.694   4.025 -2.5071  0.1832  0.6021
 2004TIP3   OH2 5975   4.866   1.259   1.385 -0.0113 -0.1260 -0.1784
 2004TIP3    H1 5976   4.827   1.190   1.439 -0.7333  0.2864 -0.1631
 2004TIP3    H2 5977   4.800   1.276   1.317  1.0138 -0.8605 -1.3895
 2005TIP3   OH2 5978   6.529   1.316   2.458  0.1517 -0.1606  0.3401
 2005TIP3    H1 5979   6.439   1.331   2.490  0.2751 -0.8434  1.0390
 2005TIP3    H2 5980   6.555   1.400   2.422 -0.4821  0.2804  0.8672
 2006TIP3   OH2 5981   6.585   4.307   3.265  0.7897 -0.0195  0.1476
 2006TIP3    H1 5982   6.650   4.354   3.212 -0.3784  0.0075 -1.3384
 2006TIP3    H2 5983   6.609   4.327   3.355  0.4602  3.3224 -0.3814
 2007TIP3   OH2 5984   6.167   2.280   1.159  0.2834 -0.3352 -0.0912
 2007TIP3    H1 5985   6.209   2.296   1.243 -1.3706  1.5941  0.4472
 2007TIP3    H2 5986   6.089   2.228   1.180 -0.4470  0.6391 -0.3123
 2008TIP3   OH2 5987   5.246   5.454   4.954  0.9013 -0.0798  0.2834
 2008TIP3    H1 5988   5.206   5.381   4.906  0.7583 -0.9337  1.6518
 2008TIP3    H2 5989   5.330   5.420   4.983  1.2383  0.6228  0.1416
 2009TIP3   OH2 5990   5.307   6.695   3.455 -0.2493  0.5097 -0.2115
 2009TIP3    H1 5991   5.374   6.717   3.390  0.8296 -1.4164  0.1522
 2009TIP3    H2 5992   5.348   6.716   3.539  0.3358 -1.5151  0.0692
 2010TIP3   OH2 5993   5.385   1.149   4.207 -0.2987 -0.0991 -0.0221
 2010TIP3    H1 5994   5.293   1.126   4.219 -0.1772 -0.5926 -0.0125
 2010TIP3    H2 5995   5.383   1.240   4.177 -0.9217 -0.7330 -2.0790
 2011TIP3   OH2 5996   6.216   0.129   4.175  0.0840 -0.4134 -0.6758
 2011TIP3    H1 5997   6.211   0.223   4.158 -1.5974 -0.3911 -0.1839
 2011TIP3    H2 5998   6.279   0.121   4.247  0.9098  0.2312 -1.3051
 2012TIP3   OH2 5999   1.426   1.336   2.986  0.1672 -1.0589 -0.1767
 2012TIP3    H1 6000   1.442   1.316   2.894 -0.5534 -1.7841 -0.1591
 2012TIP3    H2 6001   1.513   1.346   3.024  0.5168 -2.3876 -0.5882
 2013TIP3   OH2 6002   2.298   3.799   3.615  0.0344 -0.3412 -0.2796
 2013TIP3    H1 6003   2.390   3.812   3.638 -0.5399  0.0159  2.0985
 2013TIP3    H2 6004   2.282   3.707   3.635 -0.1841 -0.3555 -0.5176
 2014TIP3   OH2 6005   2.055   0.855   1.210 -0.4102  0.7192  0.3119
 2014TIP3    H1 6006   1.974   0.851   1.159 -1.2826  2.8748  1.4071
 2014TIP3    H2 6007   2.121   0.886   1.147 -0.8438  0.7030 -0.1624
 2015TIP3   OH2 6008   0.547   1.418   1.139 -0.0565 -0.4425 -0.4474
 2015TIP3    H1 6009   0.549   1.326   1.116 -1.8368 -0.1510 -1.9805
 2015TIP3    H2 6010   0.531   1.464   1.057 -0.1591  1.1674  0.4201
 2016TIP3   OH2 6011   0.979   6.745   2.964 -0.0846 -0.6920  0.2550
 2016TIP3    H1 6012   0.892   6.774   2.938 -1.7523 -1.6556  4.0466
 2016TIP3    H2 6013   1.013   6.698   2.888 -3.8492 -2.2572 -0.6409
 2017TIP3   OH2 6014   0.666   1.921   3.662  0.0365  0.2098 -0.6278
 2017TIP3    H1 6015   0.608   1.857   3.621  0.0572 -1.1914  1.3877
 2017TIP3    H2 6016   0.752   1.902   3.626 -0.1477 -0.1548 -0.8824
 2018TIP3   OH2 6017   0.895   3.169   1.410  0.5161  0.4318 -0.2534
 2018TIP3    H1 6018   0.947   3.124   1.343  1.9502  1.4239  0.1583
 2018TIP3    H2 6019   0.804   3.157   1.381  0.5242 -4.3151  0.7586
 2019TIP3   OH2 6020   0.900   2.508   5.727 -0.0036 -0.2237 -0.2334
 2019TIP3    H1 6021   0.989   2.542   5.723  0.6142 -1.6155  0.9006
 2019TIP3    H2 6022   0.887   2.464   5.642  0.9990 -1.3825  0.1862
 2020TIP3   OH2 6023   3.207   4.837   2.967  0.0389  0.6186  0.1166
 2020TIP3    H1 6024   3.242   4.920   2.935  0.9496  0.5289  0.8394
 2020TIP3    H2 6025   3.114   4.840   2.945  0.4950  0.7584 -2.1028
 2021TIP3   OH2 6026   6.300   4.518   1.255 -0.6615  0.8098 -0.1982
 2021TIP3    H1 6027   6.389   4.531   1.224 -0.2991 -0.4082  0.2784
 2021TIP3    H2 6028   6.279   4.599   1.302  0.2848  1.0071 -0.0965
 2022TIP3   OH2 6029   5.510   5.723   5.483  0.0719 -0.1326 -0.2311
 2022TIP3    H1 6030   5.436   5.704   5.425 -0.4120 -0.3734  0.4507
 2022TIP3    H2 6031   5.518   5.644   5.537  0.6054  0.0341 -0.0638
 2023TIP3   OH2 6032   2.985   0.141   2.577 -0.2019 -0.8162 -0.3442
 2023TIP3    H1 6033   3.075   0.166   2.599 -0.8530  1.7563 -0.3030
 2023TIP3    H2 6034   2.967   0.065   2.632  1.0594  0.2514  1.6608
 2024TIP3   OH2 6035   4.946   1.398   5.721  0.0562 -0.0511 -0.0163
 2024TIP3    H1 6036   4.911   1.384   5.633  0.8888 -0.6367 -0.2740
 2024TIP3    H2 6037   5.040   1.410   5.708  0.2331 -0.4113  0.8108
 2025TIP3   OH2 6038   0.743   3.221   4.117  0.0205  0.0921  0.8474
 2025TIP3    H1 6039   0.828   3.264   4.116  0.2053 -0.2680  0.9441
 2025TIP3    H2 6040   0.761   3.133   4.151 -0.3998  0.0399  0.9396
 2026TIP3   OH2 6041   4.427   0.784   3.107  0.5322 -0.5051  0.1339
 2026TIP3    H1 6042   4.446   0.843   3.180 -0.6438  1.5204 -1.0870
 2026TIP3    H2 6043   4.504   0.792   3.050  0.9962 -1.2811  0.6413
 2027TIP3   OH2 6044   2.102   3.352   2.453  0.0557  0.2194 -0.1247
 2027TIP3    H1 6045   2.189   3.377   2.422  0.0567  1.3779  0.7581
 2027TIP3    H2 6046   2.119   3.289   2.523  0.1406 -0.3649 -0.6666
 2028TIP3   OH2 6047   5.930   5.999   3.952  0.2144  0.1693 -0.3580
 2028TIP3    H1 6048   6.010   6.025   3.997  0.2537  0.0763 -0.3735
 2028TIP3    H2 6049   5.930   5.903   3.956 -0.2320  0.1802  0.2297
 2029TIP3   OH2 6050   6.490   4.958   1.969 -0.2808  0.4320 -0.2088
 2029TIP3    H1 6051   6.525   4.987   1.885 -0.8711  0.3800 -0.4758
 2029TIP3    H2 6052   6.422   5.022   1.991  2.2622  2.5990  2.0233
 2030TIP3   OH2 6053   4.211   4.679   5.851  0.2120  0.4240  0.1226
 2030TIP3    H1 6054   4.242   4.769   5.843  0.5033  0.1992 -1.4369
 2030TIP3    H2 6055   4.127   4.687   5.897  1.8594  1.1402  3.3221
 2031TIP3   OH2 6056   6.651   2.529   1.430  0.4942 -0.0275  0.1470
 2031TIP3    H1 6057   6.569   2.479   1.421  1.1431 -1.2356  0.7024
 2031TIP3    H2 6058   6.664   2.569   1.344  0.5691 -1.8303 -0.7317
 2032TIP3   OH2 6059   6.049   3.965   0.340  0.4567  0.1524  0.2491
 2032TIP3    H1 6060   6.095   4.049   0.337  1.1818 -0.2270  0.5964
 2032TIP3    H2 6061   6.064   3.933   0.429 -0.5332  0.0489  0.3837
 2033TIP3   OH2 6062   5.477   3.005   0.813  0.2410 -0.4104 -0.3217
 2033TIP3    H1 6063   5.558   3.008   0.762  0.6728 -1.6476  0.2545
 2033TIP3    H2 6064   5.431   3.086   0.790  2.2870  1.0465  0.4037
 2034TIP3   OH2 6065   1.988   3.917   3.423  0.2218  0.3870  0.2479
 2034TIP3    H1 6066   2.020   3.839   3.469 -0.0529 -0.3260 -0.7448
 2034TIP3    H2 6067   1.893   3.910   3.426  0.1825  0.9257  0.5327
 2035TIP3   OH2 6068   0.976   2.264   4.270  0.2159  0.1054  0.0882
 2035TIP3    H1 6069   0.904   2.322   4.294 -0.0533  0.0774 -0.6213
 2035TIP3    H2 6070   1.054   2.307   4.305 -0.3737 -1.2692  3.3831
 2036TIP3   OH2 6071   0.079   0.260   1.355 -0.5315 -0.3179 -0.1547
 2036TIP3    H1 6072   0.116   0.286   1.271  3.2398  1.3584  1.7852
 2036TIP3    H2 6073   0.137   0.191   1.386 -0.8225  0.2304  1.7436
 2037TIP3   OH2 6074   3.119   2.585   5.631 -0.0545  0.0671 -0.4511
 2037TIP3    H1 6075   3.157   2.504   5.665  3.6214  2.7354  2.7509
 2037TIP3    H2 6076   3.026   2.579   5.654  0.2127 -2.8556  0.3523
 2038TIP3   OH2 6077   1.762   5.569   1.890 -0.1986  0.2062 -0.4594
 2038TIP3    H1 6078   1.798   5.487   1.924  1.8740  1.0771 -0.4082
 2038TIP3    H2 6079   1.780   5.565   1.796 -2.0090 -0.2833 -0.8263
 2039TIP3   OH2 6080   6.746   3.032   5.518 -0.1226  0.0355 -0.2368
 2039TIP3    H1 6081   6.701   2.964   5.568 -1.0481  0.7929  0.0036
 2039TIP3    H2 6082   6.718   3.114   5.560  0.0012  0.6262 -1.2750
 2040TIP3   OH2 6083   7.139   2.474   1.211 -0.5814 -0.1093  0.4771
 2040TIP3    H1 6084   7.231   2.449   1.220 -0.1557  0.3470 -1.9140
 2040TIP3    H2 6085   7.129   2.496   1.118 -2.1085  3.6478  1.3145
 2041TIP3   OH2 6086   0.120   4.141   5.336  0.1167  0.3950 -0.1214
 2041TIP3    H1 6087   0.140   4.052   5.305 -1.8421  0.1829 -0.9258
 2041TIP3    H2 6088   0.119   4.194   5.256 -1.7586  0.4883 -0.0831
 2042TIP3   OH2 6089   1.747   6.127   2.481  0.0863  0.4179  0.0570
 2042TIP3    H1 6090   1.745   6.208   2.431  0.0276  0.5880  0.3329
 2042TIP3    H2 6091   1.684   6.141   2.552 -0.9237 -0.3577 -0.6366
 2043TIP3   OH2 6092   6.491   1.843   3.464  0.0364  0.6423 -0.0342
 2043TIP3    H1 6093   6.456   1.770   3.413 -0.8522  0.2320  1.1277
 2043TIP3    H2 6094   6.579   1.856   3.429 -0.8224  0.9407 -2.2507
 2044TIP3   OH2 6095   3.744   0.902   1.688 -0.1858 -0.2757  0.0199
 2044TIP3    H1 6096   3.770   0.963   1.619 -0.6463  0.0401  0.1190
 2044TIP3    H2 6097   3.765   0.948   1.769 -0.4081 -0.3070  0.0952
 2045TIP3   OH2 6098   1.268   4.768   0.715 -0.5102  0.1120 -0.4606
 2045TIP3    H1 6099   1.357   4.782   0.681  0.1291  0.0934  1.1213
 2045TIP3    H2 6100   1.281   4.749   0.808 -2.3841  3.5848  0.6892
 2046TIP3   OH2 6101   5.512   5.355   1.573 -0.4277  0.5029  0.3802
 2046TIP3    H1 6102   5.458   5.418   1.526 -0.3651  1.8626  2.0396
 2046TIP3    H2 6103   5.558   5.306   1.504 -1.4552  1.3938 -0.9683
 2047TIP3   OH2 6104   4.559   2.168   4.066  0.4848  0.9224 -0.0663
 2047TIP3    H1 6105   4.580   2.143   3.977  1.1681  4.1705 -0.9630
 2047TIP3    H2 6106   4.468   2.196   4.063  0.2014  0.0989  0.5157
 2048TIP3   OH2 6107   2.069   1.641   3.316  0.0533  0.0110  0.3176
 2048TIP3    H1 6108   2.103   1.720   3.274  0.4672 -0.8264 -1.0012
 2048TIP3    H2 6109   2.110   1.640   3.402  0.7693  0.7506  0.0032
 2049TIP3   OH2 6110   6.284   4.680   4.322 -0.5951  0.3590  0.0653
 2049TIP3    H1 6111   6.211   4.623   4.297  0.7620 -2.3888  1.9123
 2049TIP3    H2 6112   6.360   4.640   4.281  0.1972  2.2142 -0.4161
 2050TIP3   OH2 6113   6.885   3.460   4.550  0.7809  0.5706  0.0788
 2050TIP3    H1 6114   6.827   3.534   4.568  0.1620 -0.2962  1.8688
 2050TIP3    H2 6115   6.861   3.432   4.462  0.3487  1.8689 -0.2492
 2051TIP3   OH2 6116   1.025   0.370   3.220 -0.0786  0.7135 -0.0200
 2051TIP3    H1 6117   1.062   0.336   3.139 -0.6292 -0.7269  0.2993
 2051TIP3    H2 6118   1.040   0.465   3.216 -0.3647  0.7113 -1.9218
 2052TIP3   OH2 6119   4.661   3.902   0.842 -0.1751  0.4119 -0.0155
 2052TIP3    H1 6120   4.652   3.806   0.838  2.1929  0.1666 -1.0644
 2052TIP3    H2 6121   4.601   3.928   0.912  0.3064 -2.0239  1.4496
 2053TIP3   OH2 6122   0.152   5.919   3.388  0.0434 -0.2707 -0.7747
 2053TIP3    H1 6123   0.092   5.992   3.373  0.9473  0.5478 -0.4848
 2053TIP3    H2 6124   0.218   5.954   3.448 -0.5538 -1.8854  0.8935
 2054TIP3   OH2 6125   4.935   0.507   3.860 -0.7059 -0.3280  0.6500
 2054TIP3    H1 6126   4.941   0.584   3.803  0.8398 -1.6207 -1.0879
 2054TIP3    H2 6127   4.847   0.472   3.845 -0.8229  0.1737  0.1421
 2055TIP3   OH2 6128   6.519   5.633   5.502 -0.3918 -0.2649 -0.7026
 2055TIP3    H1 6129   6.544   5.618   5.593  0.6024  1.4209 -0.6567
 2055TIP3    H2 6130   6.590   5.594   5.451 -2.3605 -4.0142 -1.0073
 2056TIP3   OH2 6131   2.345   6.438   2.779  0.2255 -0.9635 -0.4726
 2056TIP3    H1 6132   2.260   6.430   2.823  0.0840 -1.1791 -0.7842
 2056TIP3    H2 6133   2.365   6.532   2.784  0.4775 -1.0549  0.5448
 2057TIP3   OH2 6134   4.953   6.303   0.046 -0.2521 -0.1070 -0.0642
 2057TIP3    H1 6135   4.910   6.366   0.104 -0.5839 -1.3626  1.1023
 2057TIP3    H2 6136   4.886   6.238   0.026 -0.1739  0.3492 -1.9844
 2058TIP3   OH2 6137   5.675   0.531   4.978  0.3506  0.1706 -0.1386
 2058TIP3    H1 6138   5.696   0.491   4.893 -0.7810  2.2259 -1.4676
 2058TIP3    H2 6139   5.595   0.488   5.006  0.6947 -0.4773 -0.1365
 2059TIP3   OH2 6140   0.800   5.521   2.294  0.1654 -0.6504 -0.2411
 2059TIP3    H1 6141   0.834   5.608   2.271  0.4342 -0.8132 -0.4633
 2059TIP3    H2 6142   0.725   5.539   2.351 -0.0136 -0.2616 -0.5922
 2060TIP3   OH2 6143   3.575   4.091   2.734  0.8232 -0.5014  0.4963
 2060TIP3    H1 6144   3.631   4.022   2.768  2.1603  1.1898  1.9519
 2060TIP3    H2 6145   3.606   4.171   2.778 -1.3233  0.8654 -0.3031
 2061TIP3   OH2 6146   4.915   1.634   4.901  0.0777  0.3666 -0.0406
 2061TIP3    H1 6147   4.962   1.551   4.910  0.8684  0.8074 -0.0826
 2061TIP3    H2 6148   4.844   1.628   4.966 -0.8627 -0.9983 -1.1166
 2062TIP3   OH2 6149   7.188   4.621   0.570  0.5021  0.7267  0.0292
 2062TIP3    H1 6150   7.188   4.564   0.493  0.0334 -1.6556  1.7078
 2062TIP3    H2 6151   7.151   4.704   0.538  0.4756 -0.1202 -2.3273
 2063TIP3   OH2 6152   0.529   1.931   4.649 -0.0633  0.1116  0.4154
 2063TIP3    H1 6153   0.544   1.883   4.567  1.0554 -0.1729  0.7597
 2063TIP3    H2 6154   0.453   1.889   4.688  1.9972 -2.8528  1.6698
 2064TIP3   OH2 6155   1.248   0.929   1.350  0.3331 -0.3279 -0.5832
 2064TIP3    H1 6156   1.159   0.900   1.329 -0.4772  1.0062  0.8264
 2064TIP3    H2 6157   1.266   0.998   1.287 -1.9205  3.3587  2.3977
 2065TIP3   OH2 6158   0.440   4.552   0.696 -0.5047  0.1778  0.2090
 2065TIP3    H1 6159   0.400   4.503   0.768 -0.2179  2.1308  1.7959
 2065TIP3    H2 6160   0.375   4.618   0.673  0.4990  1.3597  0.6539
 2066TIP3   OH2 6161   2.398   2.349   4.183  0.5536 -0.0019  0.6290
 2066TIP3    H1 6162   2.336   2.286   4.221  0.4604  0.4529  1.2431
 2066TIP3    H2 6163   2.482   2.303   4.185  0.8150  0.4717  2.6459
 2067TIP3   OH2 6164   6.628   1.055   2.426  0.1868  0.0814 -0.3140
 2067TIP3    H1 6165   6.613   1.149   2.430 -0.2880 -0.0078  0.0371
 2067TIP3    H2 6166   6.639   1.036   2.332 -2.9030  0.0204 -0.7706
 2068TIP3   OH2 6167   3.812   2.059   0.863  0.0044  0.3448 -0.3250
 2068TIP3    H1 6168   3.773   2.017   0.787 -0.1081 -2.5197  1.1926
 2068TIP3    H2 6169   3.906   2.059   0.845  0.2565 -2.7207  0.5160
 2069TIP3   OH2 6170   7.073   1.874   1.460 -0.2428 -0.1132 -0.0285
 2069TIP3    H1 6171   7.119   1.929   1.524  1.1898 -0.1384 -0.9849
 2069TIP3    H2 6172   7.030   1.807   1.513  0.9797 -0.1826  0.9318
 2070TIP3   OH2 6173   0.622   1.800   1.164 -0.1109 -0.1243 -0.1389
 2070TIP3    H1 6174   0.619   1.895   1.153 -0.7613 -0.0120  0.8819
 2070TIP3    H2 6175   0.713   1.782   1.188 -0.0927  0.2921  0.1120
 2071TIP3   OH2 6176   5.159   2.547   0.492  0.2043 -0.3641 -0.0294
 2071TIP3    H1 6177   5.196   2.621   0.444 -0.2877  0.3477  0.6562
 2071TIP3    H2 6178   5.230   2.483   0.497  1.2389  0.8202  0.9603
 2072TIP3   OH2 6179   6.965   6.346   0.010  0.3000 -0.8456  0.1591
 2072TIP3    H1 6180   7.040   6.400   0.036  0.4124 -1.1810  0.5271
 2072TIP3    H2 6181   6.994   6.256   0.025 -0.1099 -0.9818  0.1279
 2073TIP3   OH2 6182   7.082   2.259   3.311 -0.1854 -0.5444  0.1309
 2073TIP3    H1 6183   7.113   2.324   3.374  0.8393 -2.0218  1.2227
 2073TIP3    H2 6184   6.988   2.254   3.325  0.0073 -0.7854  1.5352
 2074TIP3   OH2 6185   1.378   3.003   1.620  0.0482  0.7113 -0.3155
 2074TIP3    H1 6186   1.364   2.926   1.676 -2.7024 -0.2727 -2.1724
 2074TIP3    H2 6187   1.444   3.054   1.667  1.9647 -2.6914  1.0415
 2075TIP3   OH2 6188   1.315   1.949   1.864  0.8933 -0.2676 -0.2958
 2075TIP3    H1 6189   1.300   2.027   1.811 -0.3180  0.5862  1.1922
 2075TIP3    H2 6190   1.382   1.974   1.927  1.1581 -0.7231 -0.3928
 2076TIP3   OH2 6191   7.069   1.765   5.587  0.6130 -0.5512 -0.1938
 2076TIP3    H1 6192   7.099   1.847   5.626  1.1469  0.0211 -1.7538
 2076TIP3    H2 6193   6.983   1.750   5.627  0.5410  0.7268  0.1828
 2077TIP3   OH2 6194   0.230   4.262   4.647  0.2315  0.1209  0.2709
 2077TIP3    H1 6195   0.195   4.308   4.571 -0.2013  1.5050  1.2655
 2077TIP3    H2 6196   0.317   4.299   4.660  0.7457 -0.8799 -0.1584
 2078TIP3   OH2 6197   6.515   1.428   3.798 -0.0221 -0.0066  0.0750
 2078TIP3    H1 6198   6.540   1.339   3.773 -0.8197 -0.4006  0.6668
 2078TIP3    H2 6199   6.427   1.439   3.764  0.1071  0.5970 -0.0773
 2079TIP3   OH2 6200   2.548   2.890   1.757 -0.5530 -0.5441  0.1796
 2079TIP3    H1 6201   2.504   2.832   1.819  0.0135 -0.3596  0.7651
 2079TIP3    H2 6202   2.602   2.947   1.811  0.4194 -0.7762 -0.5113
 2080TIP3   OH2 6203   1.155   0.150   5.455  0.3306 -0.6736  0.4767
 2080TIP3    H1 6204   1.203   0.072   5.484 -1.3671 -1.5062  1.2013
 2080TIP3    H2 6205   1.108   0.121   5.377  1.8788  0.4734 -0.9440
 2081TIP3   OH2 6206   6.516   4.871   4.747  0.4248 -0.1957  0.4576
 2081TIP3    H1 6207   6.541   4.817   4.671  1.1631 -1.4660  1.5496
 2081TIP3    H2 6208   6.599   4.888   4.792 -0.2098 -1.3910  2.1940
 2082TIP3   OH2 6209   3.242   0.843   0.636 -0.2565  0.3501  0.3916
 2082TIP3    H1 6210   3.299   0.809   0.566 -1.6559 -1.4358  0.0526
 2082TIP3    H2 6211   3.232   0.936   0.615  0.0339  0.0336 -1.3174
 2083TIP3   OH2 6212   3.550   1.414   4.372  0.7396  0.1327  0.3197
 2083TIP3    H1 6213   3.538   1.455   4.457  1.0398  1.0935 -0.0829
 2083TIP3    H2 6214   3.465   1.424   4.328  0.9952  0.8858 -0.0096
 2084TIP3   OH2 6215   5.844   4.018   4.326  0.3076 -0.0588 -0.4563
 2084TIP3    H1 6216   5.915   3.996   4.387 -0.1376  0.6189  0.3097
 2084TIP3    H2 6217   5.822   4.109   4.345  1.0487  0.6253 -2.5171
 2085TIP3   OH2 6218   3.472   0.925   0.280  0.1725 -0.1736  0.1388
 2085TIP3    H1 6219   3.439   1.001   0.231 -0.8082 -0.4615  0.3137
 2085TIP3    H2 6220   3.525   0.963   0.350 -1.1230  0.4269  0.8355
 2086TIP3   OH2 6221   4.085   0.327   5.514 -0.2904 -0.8718 -0.2086
 2086TIP3    H1 6222   4.047   0.337   5.426 -0.2700 -0.9802 -0.2300
 2086TIP3    H2 6223   4.075   0.234   5.534 -1.1594 -0.6852  0.2947
 2087TIP3   OH2 6224   6.500   4.684   3.481 -0.3649 -0.1051 -0.0479
 2087TIP3    H1 6225   6.427   4.639   3.439 -0.5413  0.9531 -0.9347
 2087TIP3    H2 6226   6.474   4.693   3.572 -2.1315  1.7134 -0.6577
 2088TIP3   OH2 6227   0.031   2.483   3.457  0.5185 -0.1195 -0.5398
 2088TIP3    H1 6228   0.097   2.477   3.389 -0.3842  0.8047 -1.5232
 2088TIP3    H2 6229  -0.028   2.552   3.428 -0.9550 -0.9945  0.2417
 2089TIP3   OH2 6230   5.375   5.086   1.886  0.3107  0.1014  0.6214
 2089TIP3    H1 6231   5.365   5.097   1.981  0.0061 -0.1339  0.6209
 2089TIP3    H2 6232   5.433   5.010   1.877 -2.9708 -2.7090  0.6678
 2090TIP3   OH2 6233   0.445   1.879   5.017  0.5059 -0.5701 -0.0108
 2090TIP3    H1 6234   0.379   1.848   4.955 -0.5518  0.7328  0.4170
 2090TIP3    H2 6235   0.425   1.832   5.098 -0.6567  0.6694  0.4433
 2091TIP3   OH2 6236   5.579   3.023   2.019  0.0166  0.5105 -0.1870
 2091TIP3    H1 6237   5.513   3.082   2.056  0.2521  0.5295  0.2012
 2091TIP3    H2 6238   5.655   3.078   2.002  0.1534  0.3673 -0.0465
 2092TIP3   OH2 6239   5.249   1.690   0.690  0.8362 -0.1332 -0.4647
 2092TIP3    H1 6240   5.254   1.628   0.763  1.4296 -2.1777 -2.1450
 2092TIP3    H2 6241   5.212   1.769   0.729 -0.7942 -1.7942  1.6431
 2093TIP3   OH2 6242   1.263   4.871   3.385  0.0607 -0.2789  0.0083
 2093TIP3    H1 6243   1.317   4.909   3.316  0.4525 -0.5211  0.1757
 2093TIP3    H2 6244   1.200   4.816   3.339  0.0036 -0.0522 -0.1856
 2094TIP3   OH2 6245   3.229   1.410   5.309  0.0745 -0.2874  0.9724
 2094TIP3    H1 6246   3.291   1.420   5.381 -0.1993  0.2515  1.1416
 2094TIP3    H2 6247   3.273   1.353   5.247  1.7948  2.0417 -0.1017
 2095TIP3   OH2 6248   2.226   1.058   0.097 -0.4447  0.4504 -0.1196
 2095TIP3    H1 6249   2.236   0.986   0.160  1.8639  0.2529 -0.6199
 2095TIP3    H2 6250   2.163   1.025   0.032  1.5897 -1.7695 -1.1043
 2096TIP3   OH2 6251   4.078   5.366   4.525  0.4199 -0.6661 -0.0177
 2096TIP3    H1 6252   4.139   5.356   4.452  1.4354 -2.3333  0.9948
 2096TIP3    H2 6253   4.134   5.377   4.602 -0.5289 -1.8068  0.8821
 2097TIP3   OH2 6254   5.612   0.059   3.916 -0.6815  0.2798  0.3871
 2097TIP3    H1 6255   5.540   0.034   3.973 -0.4142 -1.2400  0.1148
 2097TIP3    H2 6256   5.580   0.134   3.867 -1.9373 -0.1337  0.5415
 2098TIP3   OH2 6257   6.138   6.625   4.810 -0.0685  0.6977  0.1386
 2098TIP3    H1 6258   6.195   6.701   4.804  3.0683 -1.4272  0.4866
 2098TIP3    H2 6259   6.128   6.609   4.904  0.7754 -0.2794  0.0778
 2099TIP3   OH2 6260   2.860   5.684   3.739 -0.0006 -0.4092 -0.2779
 2099TIP3    H1 6261   2.767   5.677   3.756  0.0178 -1.5698 -0.6011
 2099TIP3    H2 6262   2.902   5.636   3.811  0.2662 -1.3811 -1.0650
 2100TIP3   OH2 6263   2.533   6.017   2.405 -0.0268 -0.4048  0.4233
 2100TIP3    H1 6264   2.463   6.018   2.470  0.2963 -0.9449  0.7830
 2100TIP3    H2 6265   2.497   5.968   2.331  0.0820 -0.9563  0.7337
 2101TIP3   OH2 6266   4.540   0.002   0.395  0.6144  0.2133  0.1983
 2101TIP3    H1 6267   4.514   0.046   0.476  1.4956 -1.0273  1.2013
 2101TIP3    H2 6268   4.521   0.065   0.326  0.2792  1.4890  1.4157
 2102TIP3   OH2 6269   7.002   3.768   3.371  0.2991 -0.0153 -0.5155
 2102TIP3    H1 6270   7.006   3.853   3.416  0.5341  0.4424 -1.3751
 2102TIP3    H2 6271   6.926   3.724   3.409 -1.1433  1.4624 -1.5292
 2103TIP3   OH2 6272   4.574   6.442   0.262  0.0675 -0.1763 -0.1671
 2103TIP3    H1 6273   4.530   6.454   0.346  0.9682 -0.4116  0.3530
 2103TIP3    H2 6274   4.563   6.350   0.242  0.1217 -0.1878 -0.1450
 2104TIP3   OH2 6275   6.499   5.833   0.049 -0.5533 -0.1095 -0.4825
 2104TIP3    H1 6276   6.575   5.806   0.100 -1.0179  1.6447  1.2352
 2104TIP3    H2 6277   6.496   5.770  -0.024  0.0616 -2.8101  1.6639
 2105TIP3   OH2 6278   3.575   1.579   0.269  0.5513  0.4500  0.3848
 2105TIP3    H1 6279   3.555   1.488   0.246  2.3756 -0.2883  1.5242
 2105TIP3    H2 6280   3.612   1.615   0.189 -2.5367  1.0746 -0.9281
 2106TIP3   OH2 6281   1.598   2.969   5.526  0.4967  0.4808  0.3748
 2106TIP3    H1 6282   1.646   3.038   5.572 -1.5680  1.7274  0.7912
 2106TIP3    H2 6283   1.566   2.912   5.595 -0.2329  0.7670  0.2837
 2107TIP3   OH2 6284   4.439   5.380   3.079 -0.1466 -0.1328 -0.6249
 2107TIP3    H1 6285   4.356   5.415   3.112 -0.8789 -1.5649 -0.8705
 2107TIP3    H2 6286   4.414   5.304   3.028  1.3820 -0.9403 -0.2223
 2108TIP3   OH2 6287   2.804   3.270   0.473 -0.1968  0.5343  0.0349
 2108TIP3    H1 6288   2.772   3.341   0.529 -1.0716 -0.8964  1.4347
 2108TIP3    H2 6289   2.733   3.255   0.411 -1.1918 -0.8322  1.4275
 2109TIP3   OH2 6290   6.929   6.789   2.962  0.0885 -0.1839 -0.1644
 2109TIP3    H1 6291   6.957   6.801   2.871  1.8988  3.0684  0.6398
 2109TIP3    H2 6292   7.010   6.778   3.011 -0.7411 -0.3359  1.2308
 2110TIP3   OH2 6293   6.320   4.374   0.153 -0.0638  0.0509 -0.4123
 2110TIP3    H1 6294   6.410   4.382   0.185  0.1146 -1.7830 -0.3335
 2110TIP3    H2 6295   6.273   4.444   0.198  0.8349 -0.4738  1.4522
 2111TIP3   OH2 6296   5.066   2.515   1.744  0.4777  0.0365 -0.1909
 2111TIP3    H1 6297   5.070   2.521   1.839  2.6533  0.5379 -0.2666
 2111TIP3    H2 6298   5.105   2.429   1.724  1.6111  0.6402 -0.6742
 2112TIP3   OH2 6299   1.381   5.747   3.427 -0.3294  0.4458  0.5079
 2112TIP3    H1 6300   1.432   5.733   3.347 -0.7015 -0.8167  0.4603
 2112TIP3    H2 6301   1.291   5.725   3.401 -0.2736 -1.1351  1.5529
 2113TIP3   OH2 6302   1.815   1.312   1.207  0.1263 -0.3314 -0.0249
 2113TIP3    H1 6303   1.895   1.275   1.169 -0.8131 -1.3353 -1.0775
 2113TIP3    H2 6304   1.838   1.404   1.223  2.0447 -0.9827  1.3412
 2114TIP3   OH2 6305   6.612   2.858   2.930  0.1400  0.1029  0.1018
 2114TIP3    H1 6306   6.595   2.764   2.918 -1.2238  0.5322 -1.9104
 2114TIP3    H2 6307   6.632   2.890   2.842 -0.3219  1.8512  0.5980
 2115TIP3   OH2 6308   4.389   4.001   3.064 -0.2639  0.3951 -0.1158
 2115TIP3    H1 6309   4.361   4.026   2.976 -0.2648 -1.5157 -0.6928
 2115TIP3    H2 6310   4.482   3.980   3.054 -0.7552 -2.0163 -0.2165
 2116TIP3   OH2 6311   1.775   4.637   1.883  0.3511 -0.1906  0.0356
 2116TIP3    H1 6312   1.762   4.545   1.907  0.2309 -0.3947 -0.7831
 2116TIP3    H2 6313   1.780   4.683   1.967 -2.9044 -0.4697  0.5174
 2117TIP3   OH2 6314   3.542   0.899   2.846  0.1865  0.1875 -0.3800
 2117TIP3    H1 6315   3.461   0.872   2.890  0.7135 -1.7055 -0.4675
 2117TIP3    H2 6316   3.545   0.844   2.767  1.7860 -0.1540 -0.1151
 2118TIP3   OH2 6317   4.642   2.870   0.162 -0.2845  0.2670 -0.2703
 2118TIP3    H1 6318   4.672   2.806   0.097 -0.1570 -0.5196  0.5438
 2118TIP3    H2 6319   4.664   2.955   0.124  2.9040 -0.2284  0.2041
 2119TIP3   OH2 6320   4.284   1.601   1.194  0.1765  0.4287 -0.0720
 2119TIP3    H1 6321   4.320   1.521   1.233 -0.0684  0.1152 -0.4874
 2119TIP3    H2 6322   4.194   1.578   1.172  0.4536  0.4491 -1.2694
 2120TIP3   OH2 6323   2.576   4.687   4.274  0.1314  0.0701  0.5009
 2120TIP3    H1 6324   2.662   4.665   4.237 -0.4237 -0.3007 -0.6046
 2120TIP3    H2 6325   2.544   4.605   4.312 -0.1963 -0.0574 -0.0459
 2121TIP3   OH2 6326   1.403   4.523   1.889  0.3149 -0.1215 -0.4074
 2121TIP3    H1 6327   1.455   4.506   1.967  0.8357  1.2439 -0.4217
 2121TIP3    H2 6328   1.313   4.503   1.915  0.5398 -0.1004  0.3998
 2122TIP3   OH2 6329   4.353   3.229   1.285 -0.3628 -0.5265 -0.0745
 2122TIP3    H1 6330   4.269   3.249   1.244 -1.3709  0.8132  2.3628
 2122TIP3    H2 6331   4.336   3.153   1.340  0.7481 -1.8334 -1.4718
 2123TIP3   OH2 6332   2.070   4.778   1.065  0.4275 -0.3538  0.1087
 2123TIP3    H1 6333   2.013   4.740   0.998  0.8361 -1.2729  0.2661
 2123TIP3    H2 6334   2.013   4.838   1.113 -0.5668 -1.5912  0.5452
 2124TIP3   OH2 6335   1.013   4.552   5.606  0.0706 -0.2391 -0.5349
 2124TIP3    H1 6336   0.953   4.540   5.680  2.1338 -0.1156  1.2809
 2124TIP3    H2 6337   1.000   4.643   5.580  1.7772  0.9157  2.1672
 2125TIP3   OH2 6338   0.957   6.412   2.060 -0.5478  0.0523  0.3921
 2125TIP3    H1 6339   0.900   6.384   2.132 -0.3614  1.0020  0.9325
 2125TIP3    H2 6340   0.901   6.467   2.005  0.0497  1.8994  1.5092
 2126TIP3   OH2 6341   2.207   3.525   0.056  0.3102  0.2112 -0.1151
 2126TIP3    H1 6342   2.188   3.618   0.072 -0.3701  0.0007  0.3426
 2126TIP3    H2 6343   2.126   3.489   0.021  0.0698 -0.5413  1.1536
 2127TIP3   OH2 6344   1.838   1.746   5.682  0.8527 -0.2356 -0.2342
 2127TIP3    H1 6345   1.837   1.653   5.705 -0.7555 -0.0005  0.7938
 2127TIP3    H2 6346   1.754   1.780   5.714  1.4712  1.6058 -0.4340
 2128TIP3   OH2 6347   2.199   1.641   1.298 -0.0550  0.1236  0.0189
 2128TIP3    H1 6348   2.288   1.606   1.295 -0.1403 -0.1542  0.6006
 2128TIP3    H2 6349   2.177   1.645   1.391 -0.7413 -0.0417 -0.1257
 2129TIP3   OH2 6350   4.995   5.305   0.532 -0.5992  0.3836  0.0438
 2129TIP3    H1 6351   4.979   5.236   0.596 -1.5870 -0.5497 -1.1734
 2129TIP3    H2 6352   4.920   5.302   0.474 -0.5353  2.3366 -0.1973
 2130TIP3   OH2 6353   1.297   5.046   1.307 -0.3889  0.1376  0.1953
 2130TIP3    H1 6354   1.353   5.051   1.385 -1.1568 -0.8932  0.8241
 2130TIP3    H2 6355   1.210   5.073   1.338 -0.5213  0.5387 -0.5020
 2131TIP3   OH2 6356   5.992   5.371   5.879 -0.4331 -0.3424  0.1719
 2131TIP3    H1 6357   5.991   5.441   5.944  0.1593 -1.5160  1.4868
 2131TIP3    H2 6358   5.948   5.409   5.803  0.3059  1.6141  0.6591
 2132TIP3   OH2 6359   3.538   0.815   0.708  0.6526 -0.0484  0.2019
 2132TIP3    H1 6360   3.609   0.856   0.659 -1.2605  2.0933 -0.9881
 2132TIP3    H2 6361   3.495   0.757   0.645 -0.2766  0.7606  0.0717
 2133TIP3   OH2 6362   1.035   5.997   5.718 -0.5514 -0.5475 -0.6556
 2133TIP3    H1 6363   1.009   5.937   5.788  1.7028 -3.2328 -1.9372
 2133TIP3    H2 6364   0.987   6.077   5.737 -1.6891 -1.8363  2.7130
 2134TIP3   OH2 6365   3.740   4.162   1.405  0.2062 -0.0351  0.3902
 2134TIP3    H1 6366   3.720   4.069   1.397  0.6968 -0.2069  1.0504
 2134TIP3    H2 6367   3.694   4.190   1.484 -0.1887  0.3578  0.0257
 2135TIP3   OH2 6368   6.565   1.592   0.917 -0.5254 -0.4504  0.4228
 2135TIP3    H1 6369   6.510   1.667   0.895  1.2955  1.1316  0.8881
 2135TIP3    H2 6370   6.558   1.534   0.841 -2.3877 -0.0694  0.2713
 2136TIP3   OH2 6371   5.853   0.610   3.412  0.0679 -0.0556  0.1620
 2136TIP3    H1 6372   5.813   0.535   3.368  1.0564 -0.0385 -0.8162
 2136TIP3    H2 6373   5.943   0.581   3.430 -0.0602  0.2688  1.3870
 2137TIP3   OH2 6374   5.673   2.581   3.283  0.0647 -0.3497  0.4890
 2137TIP3    H1 6375   5.752   2.619   3.322  0.0339  0.0124  0.2034
 2137TIP3    H2 6376   5.601   2.615   3.336 -0.2340  2.3378 -1.4368
 2138TIP3   OH2 6377   2.235   6.344   1.382 -0.4388  0.1334 -0.4213
 2138TIP3    H1 6378   2.327   6.359   1.359  0.0549 -1.6954  0.1775
 2138TIP3    H2 6379   2.206   6.427   1.419  1.6225  0.1735  1.3377
 2139TIP3   OH2 6380   3.419   2.132   1.053  0.0307  0.2610 -0.1527
 2139TIP3    H1 6381   3.412   2.131   0.958 -0.7003  1.1001 -0.1161
 2139TIP3    H2 6382   3.361   2.062   1.082  1.8776 -1.4446 -0.3865
 2140TIP3   OH2 6383   3.447   3.605   5.280  0.0040 -0.2591 -0.2426
 2140TIP3    H1 6384   3.489   3.691   5.278 -1.9414  0.7494 -0.7584
 2140TIP3    H2 6385   3.421   3.593   5.371 -1.0454  0.4120 -0.4408
 2141TIP3   OH2 6386   4.861   3.430   1.401 -0.6914  0.7354 -0.0773
 2141TIP3    H1 6387   4.890   3.347   1.438 -1.4368  1.1006  1.4166
 2141TIP3    H2 6388   4.940   3.471   1.366 -0.1497 -0.1396  0.1148
 2142TIP3   OH2 6389   4.567   6.651   4.712 -0.1154  0.1375  0.6351
 2142TIP3    H1 6390   4.495   6.643   4.774 -0.7326 -0.2260 -0.1105
 2142TIP3    H2 6391   4.575   6.745   4.696 -0.4286  0.1804  0.7242
 2143TIP3   OH2 6392   3.989   4.207   5.110  0.2542 -0.5562 -0.2850
 2143TIP3    H1 6393   4.061   4.192   5.170  0.3229 -0.9466 -0.4627
 2143TIP3    H2 6394   4.016   4.283   5.058  0.4818 -0.6276 -0.2677
 2144TIP3   OH2 6395   1.145   3.373   1.188  0.4572 -0.3208  0.0053
 2144TIP3    H1 6396   1.103   3.405   1.267 -0.7540 -1.4205 -0.1667
 2144TIP3    H2 6397   1.172   3.452   1.141 -0.6815  0.3874  0.5183
 2145TIP3   OH2 6398   7.111   3.133   0.699  0.8027  0.0038  0.5640
 2145TIP3    H1 6399   7.128   3.182   0.618  1.0809  1.2401  1.3392
 2145TIP3    H2 6400   7.026   3.093   0.685  1.5442 -1.1217 -0.9550
 2146TIP3   OH2 6401   0.451   0.208   5.589  0.5719  0.3851 -0.2992
 2146TIP3    H1 6402   0.388   0.138   5.607  0.2891  0.9907  1.1227
 2146TIP3    H2 6403   0.476   0.241   5.675  2.7557  0.2526 -0.8153
 2147TIP3   OH2 6404   5.938   5.511   5.254  0.1834 -0.0955  0.2646
 2147TIP3    H1 6405   5.844   5.503   5.269  0.2626 -0.1956  0.7106
 2147TIP3    H2 6406   5.946   5.520   5.159 -0.3231  0.7019  0.2904
 2148TIP3   OH2 6407   6.833   4.695   2.495 -0.6338  0.4729 -0.3831
 2148TIP3    H1 6408   6.853   4.744   2.575 -0.8103 -1.5380  0.9806
 2148TIP3    H2 6409   6.737   4.699   2.489 -0.5773  1.2195 -0.9228
 2149TIP3   OH2 6410   3.629   3.145   4.692 -0.1846  0.1731  0.1172
 2149TIP3    H1 6411   3.679   3.206   4.638  0.9540 -0.3384  0.5607
 2149TIP3    H2 6412   3.545   3.137   4.648  0.6652 -0.1273 -1.5137
 2150TIP3   OH2 6413   1.725   5.770   3.562 -0.2857 -0.3492 -0.2746
 2150TIP3    H1 6414   1.716   5.679   3.590  3.5671 -0.3680  1.5507
 2150TIP3    H2 6415   1.640   5.810   3.581 -2.2412 -3.5424 -1.5225
 2151TIP3   OH2 6416   6.182   3.937   3.857  0.4349  0.4612 -0.3684
 2151TIP3    H1 6417   6.161   3.957   3.948 -0.6744 -2.1112  0.0370
 2151TIP3    H2 6418   6.113   3.876   3.830  2.2017 -0.8823 -2.0876
 2152TIP3   OH2 6419   4.305   5.547   1.891  0.5244  0.0333 -0.2203
 2152TIP3    H1 6420   4.306   5.549   1.987  1.5164  0.8746 -0.2321
 2152TIP3    H2 6421   4.379   5.602   1.865  2.0635 -2.4111 -1.4322
 2153TIP3   OH2 6422   5.936   6.292   2.434 -0.4234  0.1654  0.2811
 2153TIP3    H1 6423   5.866   6.236   2.401  0.3605 -0.1802 -0.8332
 2153TIP3    H2 6424   6.005   6.286   2.368  1.4244 -0.9359  2.2158
 2154TIP3   OH2 6425   3.156   6.348   5.640 -0.1316 -0.5535 -0.4632
 2154TIP3    H1 6426   3.071   6.306   5.623  0.2831 -1.3811 -0.5218
 2154TIP3    H2 6427   3.216   6.275   5.653  0.6140  0.0306 -0.6231
 2155TIP3   OH2 6428   2.197   5.717   3.377  0.0270 -0.3581  0.4267
 2155TIP3    H1 6429   2.119   5.758   3.414 -0.2122 -1.4091  1.1123
 2155TIP3    H2 6430   2.206   5.757   3.290  1.3418  3.1240  1.9857
 2156TIP3   OH2 6431   6.408   1.831   4.083 -0.2698 -0.5211  0.6037
 2156TIP3    H1 6432   6.389   1.866   3.996  0.5149 -0.2606  0.5208
 2156TIP3    H2 6433   6.469   1.895   4.120  1.3208 -1.8508  0.3928
 2157TIP3   OH2 6434   6.067   5.730   5.383  0.2793 -0.2818 -0.2587
 2157TIP3    H1 6435   6.132   5.670   5.420  0.1239 -0.3646 -0.1187
 2157TIP3    H2 6436   6.006   5.673   5.336  0.8736 -0.1119 -1.2452
 2158TIP3   OH2 6437   5.646   5.730   2.649 -0.5132  0.1236 -0.1792
 2158TIP3    H1 6438   5.649   5.635   2.649  1.3375  0.1113 -1.9739
 2158TIP3    H2 6439   5.552   5.751   2.643 -0.8703 -1.6269 -1.7488
 2159TIP3   OH2 6440   3.387   2.583   3.453  0.0394  0.0525  0.4464
 2159TIP3    H1 6441   3.403   2.553   3.363 -0.9566 -0.1019  0.3026
 2159TIP3    H2 6442   3.381   2.502   3.504 -0.5912  0.0799  0.4280
 2160TIP3   OH2 6443   1.785   1.084   4.557  0.4307 -0.6706  0.2674
 2160TIP3    H1 6444   1.733   1.026   4.502 -0.8677  1.4511 -0.8930
 2160TIP3    H2 6445   1.723   1.114   4.624  0.1208  1.7488 -1.0185
 2161TIP3   OH2 6446   3.577   5.102   5.672  0.3484  0.1653 -0.9627
 2161TIP3    H1 6447   3.664   5.085   5.637  0.4644 -0.4418 -0.3904
 2161TIP3    H2 6448   3.526   5.024   5.648  0.5483 -0.4803  0.5768
 2162TIP3   OH2 6449   1.344   0.036   1.443  0.3693 -0.2441  0.4263
 2162TIP3    H1 6450   1.389   0.110   1.485  0.4167 -0.8155  1.3979
 2162TIP3    H2 6451   1.374  -0.041   1.491 -0.5566 -0.7812  0.1640
 2163TIP3   OH2 6452   6.395   4.210   0.802  0.4724  0.2637 -0.1592
 2163TIP3    H1 6453   6.474   4.201   0.856 -0.8943 -1.8547  1.6170
 2163TIP3    H2 6454   6.371   4.303   0.810  2.0009  0.6478  0.3568
 2164TIP3   OH2 6455   3.670   3.670   5.503 -0.2245 -0.5087 -0.2341
 2164TIP3    H1 6456   3.764   3.690   5.501 -0.7998  2.7387  0.2011
 2164TIP3    H2 6457   3.633   3.723   5.433 -1.8807 -0.6763  0.4728
 2165TIP3   OH2 6458   6.797   4.459   5.775  0.2500 -0.0427  0.5089
 2165TIP3    H1 6459   6.771   4.531   5.718  1.3739  0.7663  0.9887
 2165TIP3    H2 6460   6.833   4.393   5.715  0.2652  0.2669  0.1739
 2166TIP3   OH2 6461   3.812   3.314   1.434 -0.0630  0.6478  0.2678
 2166TIP3    H1 6462   3.889   3.258   1.425 -0.9525 -0.5782  0.1294
 2166TIP3    H2 6463   3.794   3.344   1.345 -0.0280  0.5418  0.2243
 2167TIP3   OH2 6464   6.488   4.043   1.196 -0.1239 -0.8811 -0.0672
 2167TIP3    H1 6465   6.508   4.111   1.261  1.0661 -0.5107 -0.7925
 2167TIP3    H2 6466   6.433   3.981   1.243 -1.3103  0.5993  0.6154
 2168TIP3   OH2 6467   4.008   0.829   0.882 -0.0578  0.5304  0.7905
 2168TIP3    H1 6468   3.982   0.897   0.944  0.7154 -1.1940  3.1781
 2168TIP3    H2 6469   3.981   0.747   0.924  2.4931 -0.8726 -0.0997
 2169TIP3   OH2 6470   3.945   3.827   1.064 -0.0006  0.0935 -0.2701
 2169TIP3    H1 6471   3.945   3.794   0.974 -1.4082 -0.3733 -0.1208
 2169TIP3    H2 6472   3.867   3.883   1.069  0.4328  0.6578  0.4805
 2170TIP3   OH2 6473   0.672   4.354   1.209  0.3349  0.4880  0.1154
 2170TIP3    H1 6474   0.632   4.438   1.189 -1.6240 -0.9736 -2.6992
 2170TIP3    H2 6475   0.750   4.351   1.154 -0.9115 -0.4202 -1.7052
 2171TIP3   OH2 6476   3.309   1.635   3.507  0.0598  0.1252 -0.3905
 2171TIP3    H1 6477   3.234   1.616   3.564  0.3950  0.9834  0.3671
 2171TIP3    H2 6478   3.359   1.701   3.555  1.7041 -0.9380 -0.5365
 2172TIP3   OH2 6479   4.772   3.116   4.389 -0.0738  0.1319  0.0934
 2172TIP3    H1 6480   4.728   3.185   4.340  1.3759  0.0727 -1.3816
 2172TIP3    H2 6481   4.759   3.139   4.481 -1.6898  1.0086 -0.3343
 2173TIP3   OH2 6482   0.974   5.096   5.404 -0.8031  0.3886  0.1910
 2173TIP3    H1 6483   0.972   5.149   5.324 -0.6831  0.8519  0.4834
 2173TIP3    H2 6484   0.882   5.079   5.425 -0.8451 -2.5247 -1.8092
 2174TIP3   OH2 6485   1.063   4.851   2.783 -0.5212  0.0137 -0.3429
 2174TIP3    H1 6486   1.097   4.835   2.695 -2.1500 -1.2040 -0.7908
 2174TIP3    H2 6487   1.068   4.766   2.826 -0.6166  0.3949  0.4435
 2175TIP3   OH2 6488   2.514   0.935   3.957  0.6403 -0.0190 -0.6807
 2175TIP3    H1 6489   2.547   0.853   3.921 -1.2366 -1.1087 -0.0626
 2175TIP3    H2 6490   2.456   0.970   3.888 -0.8078 -0.7113  0.1465
 2176TIP3   OH2 6491   3.113   1.142   5.465  0.1062  0.2642  0.1203
 2176TIP3    H1 6492   3.206   1.130   5.443  0.8535  1.8149  2.1796
 2176TIP3    H2 6493   3.087   1.221   5.417 -0.0870 -0.0009 -0.2192
 2177TIP3   OH2 6494   3.141   3.588   0.983  0.1181 -0.1264  0.0237
 2177TIP3    H1 6495   3.061   3.560   0.938  1.2352 -0.5521 -1.8400
 2177TIP3    H2 6496   3.179   3.507   1.017  1.5771 -0.5640 -2.3524
 2178TIP3   OH2 6497   5.663   4.922   2.361 -0.1945  0.4304  0.6448
 2178TIP3    H1 6498   5.683   4.830   2.344  1.7889  1.2268 -2.1520
 2178TIP3    H2 6499   5.726   4.948   2.429 -0.4688 -0.1661  1.1300
 2179TIP3   OH2 6500   3.535   0.309   4.915 -0.4375  0.1282 -0.6187
 2179TIP3    H1 6501   3.551   0.216   4.897  1.5298  0.3635 -0.3425
 2179TIP3    H2 6502   3.502   0.344   4.832  0.4851 -0.4811 -1.2622
 2180TIP3   OH2 6503   2.336   0.858   5.538 -0.6705 -0.4136  0.0399
 2180TIP3    H1 6504   2.400   0.788   5.555 -2.7796 -2.3282  0.6251
 2180TIP3    H2 6505   2.357   0.888   5.449 -0.3842 -2.6518 -0.7132
 2181TIP3   OH2 6506   3.884   5.010   2.338  0.3905  0.1131 -0.1815
 2181TIP3    H1 6507   3.819   4.940   2.345  0.0691  0.1876 -1.9033
 2181TIP3    H2 6508   3.880   5.055   2.422 -2.3693  0.5808 -0.4746
 2182TIP3   OH2 6509   5.065   0.813   3.400 -0.5016 -0.0181 -0.3791
 2182TIP3    H1 6510   5.002   0.793   3.331  1.3979 -2.0152 -1.6454
 2182TIP3    H2 6511   5.023   0.782   3.480 -1.7070  0.0387 -0.9636
 2183TIP3   OH2 6512   1.309   3.911   3.139  0.3788 -0.0207  0.0302
 2183TIP3    H1 6513   1.254   3.897   3.216 -2.7918  3.7251 -1.2358
 2183TIP3    H2 6514   1.396   3.880   3.166 -1.4344 -2.9654  3.4313
 2184TIP3   OH2 6515   3.264   4.394   4.390  0.1533 -0.2243 -0.3544
 2184TIP3    H1 6516   3.332   4.386   4.323  0.6042  0.2795  0.0299
 2184TIP3    H2 6517   3.301   4.349   4.467  0.0418  0.0373 -0.1473
 2185TIP3   OH2 6518   1.778   2.518   3.720 -0.1002  0.9484  0.5318
 2185TIP3    H1 6519   1.772   2.454   3.649  0.8670  2.1092 -0.6342
 2185TIP3    H2 6520   1.687   2.533   3.746 -0.3328 -1.0709  1.0288
 2186TIP3   OH2 6521   6.798   4.263   3.000 -0.3846 -0.2978  0.1439
 2186TIP3    H1 6522   6.882   4.307   3.012 -0.6012  0.2707 -0.3555
 2186TIP3    H2 6523   6.784   4.215   3.081  0.7190 -0.9074 -0.0110
 2187TIP3   OH2 6524   3.702   1.822   1.406 -0.0633  0.0539 -0.2449
 2187TIP3    H1 6525   3.741   1.770   1.336 -0.6720 -0.6297 -0.0945
 2187TIP3    H2 6526   3.612   1.790   1.412 -0.8783  2.0234 -1.0198
 2188TIP3   OH2 6527   1.877   2.176   0.117  0.2270 -0.8839 -0.5927
 2188TIP3    H1 6528   1.790   2.160   0.155  0.0356  0.5091 -0.3701
 2188TIP3    H2 6529   1.929   2.100   0.141 -0.0330 -0.3130  2.0648
 2189TIP3   OH2 6530   1.203   2.480   5.040 -0.4943 -0.6692  0.1277
 2189TIP3    H1 6531   1.127   2.536   5.029  0.6996  1.1776  0.8113
 2189TIP3    H2 6532   1.190   2.438   5.125 -1.3400 -1.3762 -0.3352
 2190TIP3   OH2 6533   7.034   4.421   3.009 -0.2385 -0.1131 -0.3737
 2190TIP3    H1 6534   7.110   4.385   3.055  0.7817  0.4904 -1.5206
 2190TIP3    H2 6535   7.043   4.515   3.019 -0.5235 -0.0195 -0.9922
 2191TIP3   OH2 6536   6.743   0.031   1.019 -0.4682  0.4845  0.1408
 2191TIP3    H1 6537   6.772   0.121   1.034 -1.3060  0.7090  0.4514
 2191TIP3    H2 6538   6.804  -0.022   1.071  0.4750  0.8022 -0.6070
 2192TIP3   OH2 6539   5.267   6.091   2.170 -0.3445 -0.0948 -0.0114
 2192TIP3    H1 6540   5.337   6.028   2.182  0.3706  0.5419 -0.6764
 2192TIP3    H2 6541   5.280   6.125   2.081 -0.0336  1.7757  0.7067
 2193TIP3   OH2 6542   5.643   0.177   2.122 -0.3707  0.0709 -0.3970
 2193TIP3    H1 6543   5.666   0.270   2.124 -0.0012 -0.0222  0.0969
 2193TIP3    H2 6544   5.670   0.145   2.208  0.5217 -0.7283 -0.9553
 2194TIP3   OH2 6545   0.997   2.840   0.945  0.1929  0.2374 -0.4550
 2194TIP3    H1 6546   0.977   2.766   1.002  0.0245  0.7949  0.2235
 2194TIP3    H2 6547   1.010   2.801   0.859  1.3707 -0.7306  0.1239
 2195TIP3   OH2 6548   0.070   1.738   3.535 -0.1921  0.3793  0.4709
 2195TIP3    H1 6549   0.044   1.825   3.567  1.2877  1.0356 -0.0498
 2195TIP3    H2 6550   0.002   1.715   3.472 -0.2295  1.4723  0.0902
 2196TIP3   OH2 6551   5.513   0.723   2.540 -0.0191  0.1068  0.2174
 2196TIP3    H1 6552   5.538   0.740   2.450  0.1168 -1.0597  0.0163
 2196TIP3    H2 6553   5.493   0.629   2.542 -0.1112  0.1332  1.3737
 2197TIP3   OH2 6554   3.709   2.043   4.384 -0.4297 -0.6002 -0.4852
 2197TIP3    H1 6555   3.762   2.117   4.414 -1.6787 -0.8922  2.8396
 2197TIP3    H2 6556   3.626   2.082   4.355 -0.8262 -0.6176  0.6016
 2198TIP3   OH2 6557   6.794   4.739   1.514  0.3603 -0.0342 -0.6203
 2198TIP3    H1 6558   6.714   4.713   1.469  0.6790  0.1068 -1.2874
 2198TIP3    H2 6559   6.842   4.791   1.449  0.4358  0.9216  0.1701
 2199TIP3   OH2 6560   0.794   2.541   3.825 -0.7159 -0.4317 -0.1383
 2199TIP3    H1 6561   0.761   2.511   3.910 -0.8692  0.0048 -0.0401
 2199TIP3    H2 6562   0.819   2.632   3.840  0.2388 -0.6637 -0.3004
 2200TIP3   OH2 6563   0.572   1.596   4.724 -0.3050  0.2617 -0.1936
 2200TIP3    H1 6564   0.542   1.622   4.637  0.3229  0.9890 -0.1980
 2200TIP3    H2 6565   0.494   1.559   4.765 -0.8267  0.7091 -0.7519
 2201TIP3   OH2 6566   1.483   3.629   2.848  0.0143 -0.0407  0.1648
 2201TIP3    H1 6567   1.562   3.589   2.884 -0.3403 -0.4151  0.5401
 2201TIP3    H2 6568   1.424   3.555   2.832 -0.8410  0.3522  1.3364
 2202TIP3   OH2 6569   4.554   5.765   0.564 -0.4270  0.4114  0.2635
 2202TIP3    H1 6570   4.479   5.720   0.603 -0.5129  0.0826 -0.2747
 2202TIP3    H2 6571   4.551   5.741   0.471  0.8373 -0.3032  0.3910
 2203TIP3   OH2 6572   2.912   6.622   0.598  0.3032  0.3351 -0.4570
 2203TIP3    H1 6573   3.001   6.643   0.571  0.1957  1.3499 -0.0592
 2203TIP3    H2 6574   2.866   6.602   0.516  0.9445 -0.4173 -0.6408
 2204TIP3   OH2 6575   4.789   0.766   3.427 -0.4813 -0.0807  0.1018
 2204TIP3    H1 6576   4.736   0.837   3.464  1.0857  0.6928  0.9830
 2204TIP3    H2 6577   4.750   0.749   3.341 -0.6948  2.1103 -0.2981
 2205TIP3   OH2 6578   3.325   4.351   0.382  0.2179  0.8221 -0.4099
 2205TIP3    H1 6579   3.277   4.287   0.329  1.0490  0.7375 -1.0980
 2205TIP3    H2 6580   3.257   4.404   0.424 -0.5730 -1.5877  1.5991
 2206TIP3   OH2 6581   0.883   6.420   3.020  0.0906 -1.2227  0.3292
 2206TIP3    H1 6582   0.891   6.334   3.062  0.9472 -0.2545  2.2711
 2206TIP3    H2 6583   0.973   6.449   3.007 -0.1752 -0.9545 -1.1367
 2207TIP3   OH2 6584   7.064   1.253   0.574 -0.3870 -0.4646 -0.1569
 2207TIP3    H1 6585   7.090   1.325   0.517  0.6648  0.6480  1.6552
 2207TIP3    H2 6586   7.119   1.179   0.547 -1.5776 -0.6905 -2.1248
 2208TIP3   OH2 6587   6.065   6.077   4.470 -0.0692  0.0473 -0.6038
 2208TIP3    H1 6588   6.040   5.985   4.475 -0.8676  0.2938  0.4848
 2208TIP3    H2 6589   5.981   6.124   4.469  0.3240  0.8022  0.2435
 2209TIP3   OH2 6590   3.115   1.033   2.544  0.0582 -0.9176  0.1133
 2209TIP3    H1 6591   3.170   1.084   2.605 -0.3739 -1.1370  0.7018
 2209TIP3    H2 6592   3.174   0.967   2.508  0.2365 -1.0280  0.5929
 2210TIP3   OH2 6593   4.871   3.584   3.818  0.0659  0.5516 -0.3250
 2210TIP3    H1 6594   4.918   3.512   3.777  1.3906  1.3051 -0.1875
 2210TIP3    H2 6595   4.914   3.598   3.902  0.1065  1.7508 -0.5183
 2211TIP3   OH2 6596   3.664   6.190   5.455 -0.0766  0.1401 -0.1642
 2211TIP3    H1 6597   3.687   6.241   5.533  0.5145  0.3225 -0.4522
 2211TIP3    H2 6598   3.582   6.228   5.425 -1.0114 -0.7765  1.1107
 2212TIP3   OH2 6599   0.587   4.845   5.835  0.3777  0.0947  0.0223
 2212TIP3    H1 6600   0.572   4.805   5.750  0.3460 -0.1378  0.1361
 2212TIP3    H2 6601   0.499   4.864   5.868  0.4146  1.8899 -0.7916
 2213TIP3   OH2 6602   7.044   1.215   4.191 -0.1080 -0.4506  0.4989
 2213TIP3    H1 6603   7.093   1.139   4.223 -0.3325 -0.8154 -0.0058
 2213TIP3    H2 6604   7.032   1.198   4.098 -0.8325 -0.1688  0.5330
 2214TIP3   OH2 6605   1.980   0.529   4.470 -0.1653  0.0326  0.1441
 2214TIP3    H1 6606   1.995   0.617   4.435  0.0401  0.8962  2.2635
 2214TIP3    H2 6607   2.064   0.504   4.509 -0.6897 -0.4052  1.0223
 2215TIP3   OH2 6608   7.186   6.433   1.217 -0.1867 -0.0326 -0.0397
 2215TIP3    H1 6609   7.133   6.353   1.222 -1.7235  0.9483 -0.2763
 2215TIP3    H2 6610   7.156   6.487   1.290 -0.9512  1.3796 -1.3654
 2216TIP3   OH2 6611   2.365   5.070   0.392  0.4028  0.2507  0.6879
 2216TIP3    H1 6612   2.409   5.153   0.375 -0.0915  0.2439 -0.7381
 2216TIP3    H2 6613   2.430   5.003   0.368 -0.0665  0.2440 -0.6640
 2217TIP3   OH2 6614   0.060   6.668   0.642 -0.0160  0.1545  0.7742
 2217TIP3    H1 6615   0.034   6.703   0.557 -0.8801  2.4232  1.8807
 2217TIP3    H2 6616   0.009   6.588   0.652 -2.2326  1.4429  0.3909
 2218TIP3   OH2 6617   6.433   4.114   3.946 -0.0013  0.9063 -0.2270
 2218TIP3    H1 6618   6.432   4.026   3.909  1.7197  0.4504  0.6999
 2218TIP3    H2 6619   6.345   4.127   3.981 -0.7174  0.1589 -1.6844
 2219TIP3   OH2 6620   3.306   1.152   2.708 -0.0674 -0.2772 -0.0304
 2219TIP3    H1 6621   3.400   1.145   2.696 -0.1477 -0.6352 -0.4977
 2219TIP3    H2 6622   3.293   1.141   2.802  0.1959 -2.4275 -0.1875
 2220TIP3   OH2 6623   3.422   2.086   0.486 -0.9999 -0.3857 -0.3670
 2220TIP3    H1 6624   3.374   2.080   0.404  0.7461 -3.4296 -1.3232
 2220TIP3    H2 6625   3.468   2.170   0.481 -1.2509 -0.3241 -2.3237
 2221TIP3   OH2 6626   5.122   2.324   2.598 -0.2294  0.4352 -0.1154
 2221TIP3    H1 6627   5.215   2.346   2.593 -0.0109 -0.0565  1.4236
 2221TIP3    H2 6628   5.120   2.230   2.609 -0.8933  0.5141  0.4814
 2222TIP3   OH2 6629   6.964   5.731   5.427  0.2259  0.1827  0.0855
 2222TIP3    H1 6630   7.056   5.714   5.411  0.2643  0.6012 -0.1436
 2222TIP3    H2 6631   6.946   5.813   5.381 -0.4872 -0.3729 -0.6716
 2223TIP3   OH2 6632   3.811   4.335   4.025 -0.0945 -0.4188 -0.0571
 2223TIP3    H1 6633   3.842   4.251   4.059 -0.6830 -0.6876 -0.1659
 2223TIP3    H2 6634   3.758   4.371   4.097 -0.5241 -0.5266 -0.3168
 2224TIP3   OH2 6635   3.200   2.486   1.325 -0.0279 -0.3534  0.2308
 2224TIP3    H1 6636   3.277   2.437   1.296 -0.3994 -0.8201  0.0261
 2224TIP3    H2 6637   3.127   2.451   1.274 -0.5245 -0.5199  1.0319
 2225TIP3   OH2 6638   5.953   4.264   1.765 -0.3184 -0.3272  0.3053
 2225TIP3    H1 6639   5.963   4.295   1.855  0.0809 -0.1213  0.1932
 2225TIP3    H2 6640   5.932   4.343   1.715 -0.3563 -0.4114  0.1883
 2226TIP3   OH2 6641   4.951   6.204   2.158 -0.4001 -0.3565  0.2706
 2226TIP3    H1 6642   5.030   6.150   2.149  0.4503  1.0410 -1.2721
 2226TIP3    H2 6643   4.979   6.278   2.211 -0.7569 -0.0197 -0.0104
 2227TIP3   OH2 6644   1.474   0.543   3.565  0.0709 -0.0949  0.4169
 2227TIP3    H1 6645   1.388   0.513   3.595 -0.2399  0.1392 -0.2207
 2227TIP3    H2 6646   1.461   0.635   3.545 -0.4770 -0.7969 -3.0309
 2228TIP3   OH2 6647   6.779   5.324   4.222  0.4841  0.0129  0.6731
 2228TIP3    H1 6648   6.709   5.385   4.248  1.3509  1.3869 -0.0611
 2228TIP3    H2 6649   6.751   5.290   4.137  0.7687  0.7081  0.2906
 2229TIP3   OH2 6650   4.688   4.894   1.545  0.4635 -0.3400  0.6131
 2229TIP3    H1 6651   4.670   4.981   1.511 -1.1700 -1.3818 -1.4142
 2229TIP3    H2 6652   4.773   4.871   1.508  0.0376 -0.3096 -0.4110
 2230TIP3   OH2 6653   3.696   5.141   3.651  0.3210 -0.3235  0.4560
 2230TIP3    H1 6654   3.606   5.118   3.628 -0.0928 -0.2873  1.9701
 2230TIP3    H2 6655   3.701   5.128   3.745  1.2387  1.8516  0.7629
 2231TIP3   OH2 6656   4.241   3.078   2.323  0.3583  0.1453 -0.3863
 2231TIP3    H1 6657   4.174   3.010   2.320  0.5220 -0.1525  1.5098
 2231TIP3    H2 6658   4.321   3.032   2.346  0.6750  0.8548 -0.0512
 2232TIP3   OH2 6659   6.500   0.352   2.460 -0.4103 -0.1430  0.0879
 2232TIP3    H1 6660   6.510   0.443   2.435 -2.0156 -0.3956 -1.8382
 2232TIP3    H2 6661   6.582   0.328   2.502  0.7715  1.6626 -1.0835
 2233TIP3   OH2 6662   2.595   4.207   0.956  0.4696  0.3044  0.5326
 2233TIP3    H1 6663   2.596   4.300   0.978 -1.3541  0.2177  1.1571
 2233TIP3    H2 6664   2.611   4.163   1.040  3.8224  0.0001 -0.1317
 2234TIP3   OH2 6665   5.550   2.725   1.047 -0.4700 -0.2250 -0.0569
 2234TIP3    H1 6666   5.644   2.714   1.060 -0.2468  0.2755 -1.0949
 2234TIP3    H2 6667   5.509   2.664   1.109  0.4877  0.7639  1.6218
 2235TIP3   OH2 6668   0.981   2.223   2.696 -0.6971  0.0407 -0.2922
 2235TIP3    H1 6669   0.985   2.184   2.609 -1.8330 -0.9394  0.0470
 2235TIP3    H2 6670   0.993   2.317   2.682  1.5387 -0.3303 -1.2175
 2236TIP3   OH2 6671   5.576   0.380   3.523 -0.0284 -0.0670 -0.5737
 2236TIP3    H1 6672   5.556   0.410   3.612  0.2316 -2.3912  0.3286
 2236TIP3    H2 6673   5.493   0.385   3.476 -0.5034 -0.2225  0.2408
 2237TIP3   OH2 6674   4.894   2.140   3.050 -0.0426 -0.6819  0.1408
 2237TIP3    H1 6675   4.955   2.071   3.024 -0.3192 -1.0058  0.3427
 2237TIP3    H2 6676   4.807   2.103   3.036 -0.2541  0.4756 -2.0403
 2238TIP3   OH2 6677   3.614   3.703   0.835 -0.2416  0.2750  0.4739
 2238TIP3    H1 6678   3.520   3.706   0.816 -0.2839 -1.0990  0.4356
 2238TIP3    H2 6679   3.622   3.638   0.904  0.9140 -1.2612 -1.0308
 2239TIP3   OH2 6680   2.458   5.054   0.801 -0.5808 -0.3545  0.2076
 2239TIP3    H1 6681   2.374   5.067   0.758 -0.4758 -2.6032 -0.7983
 2239TIP3    H2 6682   2.439   5.070   0.894 -1.3003  2.4009 -0.3263
 2240TIP3   OH2 6683   6.470   5.847   4.447 -0.0279 -0.6176  0.2093
 2240TIP3    H1 6684   6.456   5.780   4.380  1.3850 -1.4405  0.6809
 2240TIP3    H2 6685   6.521   5.915   4.404  0.0296 -0.6751  0.1870
 2241TIP3   OH2 6686   1.385   4.299   0.236 -0.1564  0.0249  0.7243
 2241TIP3    H1 6687   1.353   4.239   0.169  0.6280 -1.3799  1.5601
 2241TIP3    H2 6688   1.313   4.361   0.249 -1.3686 -1.2713  0.4829
 2242TIP3   OH2 6689   2.447   4.072   2.170 -0.4240 -0.0055 -0.2902
 2242TIP3    H1 6690   2.389   4.107   2.239 -1.1517 -0.0774 -0.8571
 2242TIP3    H2 6691   2.422   4.120   2.092 -1.2471 -1.5490 -1.0292
 2243TIP3   OH2 6692   3.593   0.671   0.166  0.0756  0.8484 -0.5895
 2243TIP3    H1 6693   3.679   0.710   0.183 -0.6696  1.9756  0.8092
 2243TIP3    H2 6694   3.532   0.744   0.170 -1.0843 -0.0869 -0.4675
 2244TIP3   OH2 6695   0.299   3.087   3.698 -0.2088  0.0309 -0.4857
 2244TIP3    H1 6696   0.213   3.128   3.702  0.3241  1.1999 -0.7534
 2244TIP3    H2 6697   0.361   3.159   3.708  0.7522 -0.6704 -1.1956
 2245TIP3   OH2 6698   2.474   0.018   0.895 -0.4073 -0.3801 -0.0321
 2245TIP3    H1 6699   2.468  -0.028   0.811  1.6540  1.0106 -1.0209
 2245TIP3    H2 6700   2.398   0.076   0.896 -0.9227 -1.0257 -0.5091
 2246TIP3   OH2 6701   2.950   5.764   1.916 -0.8540  0.2968 -0.4649
 2246TIP3    H1 6702   2.924   5.694   1.975  1.9788  0.2063  0.8287
 2246TIP3    H2 6703   2.891   5.755   1.841 -1.4699 -2.5741  0.2467
 2247TIP3   OH2 6704   3.956   3.723   5.147  0.3227  0.1590  0.5955
 2247TIP3    H1 6705   3.953   3.817   5.162 -0.2328  0.2562 -0.0726
 2247TIP3    H2 6706   3.944   3.714   5.053 -0.2372 -0.6095  0.7330
 2248TIP3   OH2 6707   5.354   3.256   5.665 -0.5964  0.7364 -0.2478
 2248TIP3    H1 6708   5.309   3.197   5.605 -0.7258 -2.7024  2.8543
 2248TIP3    H2 6709   5.314   3.239   5.750  0.1232  4.6902  1.1206
 2249TIP3   OH2 6710   7.155   5.649   5.749  0.2518  0.4504  0.3997
 2249TIP3    H1 6711   7.210   5.727   5.759  0.4921  0.3171  0.1418
 2249TIP3    H2 6712   7.175   5.617   5.661  0.4763 -0.1484  0.6622
 2250TIP3   OH2 6713   4.300   3.231   2.103  0.1111  0.4616  0.6165
 2250TIP3    H1 6714   4.233   3.232   2.035  0.5574 -1.5425  0.0790
 2250TIP3    H2 6715   4.265   3.173   2.171  1.6290 -1.3436 -0.0816
 2251TIP3   OH2 6716   0.822   1.618   0.897 -0.2632  0.3333 -0.6531
 2251TIP3    H1 6717   0.807   1.702   0.855  0.2265  1.1254  0.6834
 2251TIP3    H2 6718   0.735   1.579   0.906 -0.8163  1.8086  0.8805
 2252TIP3   OH2 6719   5.640   1.561   5.852 -0.0979 -0.1796 -0.5199
 2252TIP3    H1 6720   5.660   1.588   5.763  2.4186  0.5742  0.1828
 2252TIP3    H2 6721   5.589   1.481   5.843  1.1931 -0.8215 -2.6356
 2253TIP3   OH2 6722   2.900   1.028   0.947  0.2346 -0.1603  0.5725
 2253TIP3    H1 6723   2.920   1.038   1.040 -0.2985  0.4862  0.6250
 2253TIP3    H2 6724   2.979   0.988   0.909 -0.0391 -1.6953  1.5322
 2254TIP3   OH2 6725   3.192   2.684   3.163 -0.0377  0.0734  0.0840
 2254TIP3    H1 6726   3.151   2.768   3.142  0.5243  0.7704  1.6032
 2254TIP3    H2 6727   3.135   2.645   3.230  0.9748  0.4158  1.1962
 2255TIP3   OH2 6728   6.719   2.335   4.156 -0.0889  0.6164  0.2472
 2255TIP3    H1 6729   6.625   2.334   4.140 -0.1813  0.1733  0.7769
 2255TIP3    H2 6730   6.749   2.418   4.120 -0.7307  0.9028  0.3683
 2256TIP3   OH2 6731   4.902   2.776   3.160 -0.5474 -0.7445  0.2250
 2256TIP3    H1 6732   4.963   2.756   3.231 -0.6598 -2.2451 -0.0701
 2256TIP3    H2 6733   4.834   2.709   3.168 -0.3477 -1.2002 -1.5328
 2257TIP3   OH2 6734   3.969   2.462   3.497 -0.0286 -0.1253  0.0675
 2257TIP3    H1 6735   4.004   2.373   3.505 -0.8255 -0.5274 -0.7033
 2257TIP3    H2 6736   3.963   2.477   3.403 -2.1436 -0.1934  0.1309
 2258TIP3   OH2 6737   3.849   0.208   1.099 -1.0150  0.1418  0.0492
 2258TIP3    H1 6738   3.906   0.223   1.024  0.3409 -0.3283  0.9639
 2258TIP3    H2 6739   3.870   0.119   1.128 -0.1438  0.9641  2.1194
 2259TIP3   OH2 6740   3.417   4.518   3.452  0.1584  0.0786  0.0491
 2259TIP3    H1 6741   3.447   4.428   3.439  0.6243  0.1790  0.3839
 2259TIP3    H2 6742   3.480   4.571   3.405  0.3760  0.2792  0.5591
 2260TIP3   OH2 6743   4.616   4.527   0.144  0.0024 -0.1300 -0.4279
 2260TIP3    H1 6744   4.666   4.495   0.069 -0.3600 -0.5478 -0.4974
 2260TIP3    H2 6745   4.583   4.447   0.186 -1.8998  0.1585 -1.2709
 2261TIP3   OH2 6746   0.721   4.914   2.949  0.0944 -0.0794  0.7788
 2261TIP3    H1 6747   0.632   4.947   2.955 -1.3996 -2.3731 -3.7922
 2261TIP3    H2 6748   0.714   4.821   2.973  0.8430 -0.6316 -0.9923
 2262TIP3   OH2 6749   5.611   4.602   4.535 -0.4425 -0.7155  0.0009
 2262TIP3    H1 6750   5.661   4.659   4.477 -2.5122  2.1539  0.8155
 2262TIP3    H2 6751   5.667   4.594   4.613 -0.5584  1.3148  0.3621
 2263TIP3   OH2 6752   3.350   5.567   3.612 -0.6272 -0.1675  0.1509
 2263TIP3    H1 6753   3.405   5.550   3.536  1.0671  2.9763  0.5339
 2263TIP3    H2 6754   3.401   5.535   3.686  0.0243  1.3039  0.3634
 2264TIP3   OH2 6755   1.954   2.269   0.506  0.4982 -0.1134  0.2298
 2264TIP3    H1 6756   1.937   2.358   0.474 -0.4062  0.1130  1.2955
 2264TIP3    H2 6757   1.871   2.223   0.495  0.2386 -0.1152  1.9150
 2265TIP3   OH2 6758   5.583   3.900   4.271  0.6788 -0.1171  0.2959
 2265TIP3    H1 6759   5.532   3.972   4.307  1.5049  1.1579 -1.0150
 2265TIP3    H2 6760   5.670   3.910   4.309  0.3821 -1.4465  1.4086
 2266TIP3   OH2 6761   4.286   6.311   5.809  0.3607  0.3045 -0.1677
 2266TIP3    H1 6762   4.365   6.257   5.811  0.4316  0.3516 -1.1939
 2266TIP3    H2 6763   4.214   6.249   5.815  0.4426  0.0830 -1.2897
 2267TIP3   OH2 6764   2.042   2.520   1.594 -0.3429  0.1310 -0.4445
 2267TIP3    H1 6765   2.130   2.550   1.614 -0.7109 -0.0250  1.6265
 2267TIP3    H2 6766   1.996   2.599   1.564  0.8126 -0.0553 -2.9564
 2268TIP3   OH2 6767   6.616   0.789   2.071 -0.4640 -0.1049 -0.4216
 2268TIP3    H1 6768   6.524   0.804   2.092 -1.0219  0.5425 -3.0020
 2268TIP3    H2 6769   6.660   0.870   2.096 -0.9036  0.2457 -0.7753
 2269TIP3   OH2 6770   3.365   0.449   0.243  0.0515 -0.7474 -0.0349
 2269TIP3    H1 6771   3.458   0.468   0.256 -0.4942  0.6526  2.4019
 2269TIP3    H2 6772   3.321   0.533   0.254 -1.6265 -1.6264  0.3891
 2270TIP3   OH2 6773   2.626   4.939   5.754 -0.4706 -0.2095 -0.5036
 2270TIP3    H1 6774   2.665   4.882   5.689  0.5025 -0.2696  0.1192
 2270TIP3    H2 6775   2.676   5.020   5.749 -0.7372 -0.0205 -0.1962
 2271TIP3   OH2 6776   0.533   5.306   1.602  0.0909 -0.0611 -0.3629
 2271TIP3    H1 6777   0.544   5.215   1.574  0.6909 -0.8615  2.1945
 2271TIP3    H2 6778   0.438   5.315   1.614 -0.1023  0.0786 -1.7894
 2272TIP3   OH2 6779   4.354   1.567   0.877 -0.0487 -0.4958  0.1559
 2272TIP3    H1 6780   4.364   1.476   0.903 -1.2098 -0.7742 -0.3022
 2272TIP3    H2 6781   4.439   1.592   0.843  0.2596 -1.4291  0.2138
 2273TIP3   OH2 6782   3.823   4.479   0.725 -0.0890  0.0550 -0.3151
 2273TIP3    H1 6783   3.746   4.424   0.737 -0.4626  0.9216  1.6049
 2273TIP3    H2 6784   3.881   4.427   0.669 -0.9468 -1.7426  0.3940
 2274TIP3   OH2 6785   1.977   5.981   2.410  0.1006 -0.0930  0.0053
 2274TIP3    H1 6786   2.015   5.929   2.481  0.3698  0.4173  0.2488
 2274TIP3    H2 6787   1.889   6.001   2.439  0.5465  0.9800  0.6848
 2275TIP3   OH2 6788   1.965   0.713   2.638 -0.7969  0.3758 -0.6623
 2275TIP3    H1 6789   1.973   0.803   2.607 -1.0921  0.5073 -0.3594
 2275TIP3    H2 6790   1.955   0.721   2.733 -4.7075  0.2674 -0.9367
 2276TIP3   OH2 6791   4.105   4.813   3.109  0.3467  0.1345 -0.7991
 2276TIP3    H1 6792   4.057   4.810   3.026 -1.6603 -0.5907  0.3111
 2276TIP3    H2 6793   4.055   4.875   3.162  0.9763 -0.2322  0.2383
 2277TIP3   OH2 6794   5.458   0.505   1.249  0.0164 -0.3444  0.3637
 2277TIP3    H1 6795   5.532   0.552   1.289  2.4356  0.7666 -4.5604
 2277TIP3    H2 6796   5.397   0.575   1.224 -0.5317 -0.7733  0.5067
 2278TIP3   OH2 6797   1.745   0.459   2.779  0.4291  0.6522 -0.0501
 2278TIP3    H1 6798   1.766   0.462   2.873  1.6506 -2.6577 -0.0971
 2278TIP3    H2 6799   1.750   0.551   2.751  0.7267  1.6674  2.9518
 2279TIP3   OH2 6800   4.000   1.569   5.164 -0.1606 -0.1698  0.4597
 2279TIP3    H1 6801   3.964   1.654   5.191  2.0964  1.1416 -0.3919
 2279TIP3    H2 6802   4.027   1.528   5.246 -2.2876 -0.6479  0.9961
 2280TIP3   OH2 6803   2.179   4.546   5.629  0.1275  0.5879  0.1634
 2280TIP3    H1 6804   2.234   4.545   5.707  0.8074  0.1075 -0.3067
 2280TIP3    H2 6805   2.204   4.467   5.581 -1.4326  0.0244  0.2376
 2281TIP3   OH2 6806   5.390   5.764   3.457 -0.1190  0.3010  0.3387
 2281TIP3    H1 6807   5.442   5.684   3.457 -0.0531  0.3379 -0.4751
 2281TIP3    H2 6808   5.314   5.743   3.404  0.4803  1.1438 -0.8910
 2282TIP3   OH2 6809   6.226   2.063   2.047  0.5384  0.3046 -0.4754
 2282TIP3    H1 6810   6.170   1.996   2.085 -3.1399  2.7824 -0.9961
 2282TIP3    H2 6811   6.257   2.114   2.122 -0.4267  0.6693 -0.3080
 2283TIP3   OH2 6812   0.544   0.817   5.506 -0.3254 -0.3439 -0.3656
 2283TIP3    H1 6813   0.635   0.833   5.534 -0.2824  0.1453 -0.7486
 2283TIP3    H2 6814   0.493   0.821   5.587  0.0836 -1.4123 -0.0385
 2284TIP3   OH2 6815   2.023   5.605   1.552  0.5173 -0.1506 -0.4321
 2284TIP3    H1 6816   2.070   5.525   1.574 -0.0324 -1.1622 -2.7287
 2284TIP3    H2 6817   1.931   5.585   1.570 -0.0070 -1.1483 -3.6757
 2285TIP3   OH2 6818   7.041   4.613   5.744 -0.4506  0.2806 -0.4724
 2285TIP3    H1 6819   7.048   4.700   5.784  1.2343 -0.2251  0.4153
 2285TIP3    H2 6820   6.965   4.573   5.787 -0.0555  0.6004  0.5479
 2286TIP3   OH2 6821   6.057   0.357   2.178 -0.1782  0.0466  0.1437
 2286TIP3    H1 6822   5.999   0.326   2.247  0.6642 -2.7035 -0.2839
 2286TIP3    H2 6823   6.086   0.278   2.132  1.4817  1.5484 -1.6109
 2287TIP3   OH2 6824   4.052   5.302   2.913 -0.2251 -0.2179 -0.1419
 2287TIP3    H1 6825   3.976   5.330   2.965 -0.1883  0.2321 -0.3297
 2287TIP3    H2 6826   4.091   5.383   2.881 -0.1626 -0.4779 -0.7536
 2288TIP3   OH2 6827   3.362   0.169   4.388  0.9855  0.1431 -0.5614
 2288TIP3    H1 6828   3.415   0.096   4.421  1.7321  0.5305 -0.8846
 2288TIP3    H2 6829   3.415   0.208   4.319  0.7635  1.2353 -0.1340
 2289TIP3   OH2 6830   1.415   3.869   2.410 -0.4673  0.4005 -0.1513
 2289TIP3    H1 6831   1.386   3.873   2.501  1.4576  1.3840  0.4957
 2289TIP3    H2 6832   1.402   3.778   2.384 -2.4666  0.4359  0.5640
 2290TIP3   OH2 6833   1.435   1.386   0.295 -0.1736  0.2131 -0.3182
 2290TIP3    H1 6834   1.514   1.422   0.334 -1.3943  2.0230  0.6407
 2290TIP3    H2 6835   1.377   1.462   0.284 -1.7079 -1.0164 -1.1617
 2291TIP3   OH2 6836   2.831   3.363   4.104  0.3918  0.3211 -0.1722
 2291TIP3    H1 6837   2.894   3.375   4.033  1.2209 -0.8809  0.3299
 2291TIP3    H2 6838   2.819   3.268   4.110 -0.8498  0.4847  0.2886
 2292TIP3   OH2 6839   4.012   0.814   3.119  0.4149 -0.2411 -0.0793
 2292TIP3    H1 6840   3.931   0.801   3.069 -0.4379  1.0835  0.9020
 2292TIP3    H2 6841   4.076   0.757   3.075 -0.9645 -1.1378 -1.0291
 2293TIP3   OH2 6842   4.839   2.404   4.499 -0.0774  0.3762 -0.3928
 2293TIP3    H1 6843   4.870   2.319   4.470  1.7297  0.8726 -0.0192
 2293TIP3    H2 6844   4.885   2.467   4.444 -0.7318  1.1451 -0.0896
 2294TIP3   OH2 6845   5.303   6.385   5.485 -0.7609 -0.1268  0.2939
 2294TIP3    H1 6846   5.386   6.340   5.476 -0.8440 -0.2542  0.1660
 2294TIP3    H2 6847   5.321   6.475   5.455 -0.4822  0.0547  0.9828
 2295TIP3   OH2 6848   3.340   2.698   4.644  0.4323  0.1532  0.0607
 2295TIP3    H1 6849   3.365   2.627   4.702 -2.2474 -0.1259  1.0294
 2295TIP3    H2 6850   3.416   2.711   4.587  2.5703 -0.6367  2.5401
 2296TIP3   OH2 6851   0.349   0.562   1.440  0.7520  0.1377 -0.2132
 2296TIP3    H1 6852   0.442   0.538   1.442  0.9483  0.8047 -0.7352
 2296TIP3    H2 6853   0.342   0.636   1.499  0.6686  0.4409 -0.5958
 2297TIP3   OH2 6854   4.798   5.607   2.722 -0.3655 -0.2107 -0.7462
 2297TIP3    H1 6855   4.778   5.701   2.721 -0.4405 -0.2238 -1.8430
 2297TIP3    H2 6856   4.752   5.573   2.799 -0.1990  0.6789 -0.2462
 2298TIP3   OH2 6857   2.612   5.995   3.711  0.0691 -0.3690  0.4407
 2298TIP3    H1 6858   2.516   5.996   3.715  0.0354 -1.6206  0.4117
 2298TIP3    H2 6859   2.640   6.031   3.795 -0.4631 -2.4247  1.5775
 2299TIP3   OH2 6860   6.573   3.668   3.431 -0.3924 -0.1326 -0.5497
 2299TIP3    H1 6861   6.606   3.755   3.411 -0.1371  0.1991  1.1373
 2299TIP3    H2 6862   6.650   3.617   3.456 -0.7830 -0.1151  0.8207
 2300TIP3   OH2 6863   2.552   5.421   2.834  0.6350 -0.5307  0.1522
 2300TIP3    H1 6864   2.609   5.345   2.847  2.0867  0.5615  0.3926
 2300TIP3    H2 6865   2.591   5.468   2.760 -1.6020 -1.2245 -1.5589
 2301TIP3   OH2 6866   6.868   3.001   1.581 -0.2258  0.1669  0.2688
 2301TIP3    H1 6867   6.777   2.972   1.569  0.2603 -0.8093 -1.3422
 2301TIP3    H2 6868   6.868   3.090   1.546 -0.3456 -0.2173 -0.7418
 2302TIP3   OH2 6869   5.561   6.409   2.662  0.9895  0.4679  0.4033
 2302TIP3    H1 6870   5.473   6.371   2.655 -0.1929  2.1332  3.7530
 2302TIP3    H2 6871   5.620   6.335   2.652 -0.7948 -0.8770 -0.9837
 2303TIP3   OH2 6872   2.775   5.339   3.379  0.1476 -0.0432 -0.5238
 2303TIP3    H1 6873   2.734   5.276   3.439  2.7243 -2.3155 -0.9299
 2303TIP3    H2 6874   2.795   5.415   3.433 -1.7116 -0.1274  0.3509
 2304TIP3   OH2 6875   5.273   1.465   3.556  0.5748 -0.0391  0.2649
 2304TIP3    H1 6876   5.237   1.422   3.478  3.2406 -0.3372 -0.9524
 2304TIP3    H2 6877   5.242   1.555   3.550 -2.7489 -1.0019  1.2824
 2305TIP3   OH2 6878   5.872   6.626   2.696 -0.1115 -0.4525  0.0121
 2305TIP3    H1 6879   5.814   6.614   2.621 -0.5722  0.6780  0.1604
 2305TIP3    H2 6880   5.940   6.560   2.685 -0.6260 -0.8473 -0.9466
 2306TIP3   OH2 6881   6.233   1.627   2.541  0.1975  0.1143 -0.2158
 2306TIP3    H1 6882   6.300   1.696   2.545 -0.5682  0.8275  0.7906
 2306TIP3    H2 6883   6.246   1.577   2.621  1.1101 -1.2957 -1.2081
 2307TIP3   OH2 6884   1.505   3.540   5.298 -0.6912 -0.0665  0.0814
 2307TIP3    H1 6885   1.409   3.533   5.302 -0.5499 -3.0890  0.9780
 2307TIP3    H2 6886   1.528   3.498   5.215 -0.1258  1.2198 -0.4405
 2308TIP3   OH2 6887   5.883   1.583   0.600 -0.2727 -0.2971  0.2147
 2308TIP3    H1 6888   5.956   1.620   0.552 -1.0720 -0.8308 -1.5101
 2308TIP3    H2 6889   5.903   1.490   0.607  0.7094  0.0320  2.6294
 2309TIP3   OH2 6890   4.775   5.304   0.361 -0.1227 -0.2454 -0.0482
 2309TIP3    H1 6891   4.794   5.210   0.358 -1.7256 -0.5912 -0.5825
 2309TIP3    H2 6892   4.756   5.327   0.270  1.8270  0.9912 -0.1974
 2310TIP3   OH2 6893   4.348   2.356   3.711  0.7327 -0.1916 -0.0074
 2310TIP3    H1 6894   4.306   2.442   3.717 -1.5713 -1.2187 -0.2252
 2310TIP3    H2 6895   4.437   2.375   3.682  1.0652  2.2789  2.2017
 2311TIP3   OH2 6896   4.966   5.363   2.633  0.1671 -0.1413 -0.0868
 2311TIP3    H1 6897   4.908   5.438   2.648  0.3653 -0.0615  0.2854
 2311TIP3    H2 6898   4.906   5.289   2.621 -0.0320  0.1046 -0.6311
 2312TIP3   OH2 6899   5.050   3.899   5.059  0.3501 -0.8991  0.5374
 2312TIP3    H1 6900   5.129   3.878   5.011  0.5675  1.3138 -0.1854
 2312TIP3    H2 6901   5.078   3.909   5.150  1.5390  2.4136 -0.0585
 2313TIP3   OH2 6902   6.910   1.505   2.500  0.1125  0.1644  0.0567
 2313TIP3    H1 6903   6.929   1.412   2.501 -0.1744  0.0821  1.5690
 2313TIP3    H2 6904   6.905   1.529   2.408  0.3629 -1.2714 -0.3425
 2314TIP3   OH2 6905   2.305   6.297   1.082 -0.1294 -0.6534 -0.1364
 2314TIP3    H1 6906   2.345   6.248   1.154  0.7852  0.9878  0.5518
 2314TIP3    H2 6907   2.229   6.245   1.056 -0.1698 -1.5725  1.6590
 2315TIP3   OH2 6908   6.875   3.745   4.714 -0.8618  0.2901 -0.2869
 2315TIP3    H1 6909   6.803   3.798   4.681 -0.4799  0.3443 -1.0397
 2315TIP3    H2 6910   6.938   3.741   4.642  0.3125  0.9957  0.6476
 2316TIP3   OH2 6911   2.799   3.921   2.436 -0.4488  0.5067  0.1982
 2316TIP3    H1 6912   2.735   3.911   2.365 -1.5482  1.3358  1.0222
 2316TIP3    H2 6913   2.754   3.885   2.513  1.0013 -1.0460  0.3602
 2317TIP3   OH2 6914   1.719   0.494   4.592  0.6166  0.5164  0.1341
 2317TIP3    H1 6915   1.814   0.493   4.580  0.7227  0.1751  0.9047
 2317TIP3    H2 6916   1.707   0.531   4.680  0.0518  0.2291  0.1814
 2318TIP3   OH2 6917   5.111   3.507   3.474 -0.1872 -0.3261 -0.0072
 2318TIP3    H1 6918   5.031   3.559   3.488 -0.0202 -0.4800  1.8522
 2318TIP3    H2 6919   5.120   3.501   3.379 -1.5370  0.9983 -0.2567
 2319TIP3   OH2 6920   4.401   1.901   3.217 -0.2192 -0.3454  0.2396
 2319TIP3    H1 6921   4.427   1.979   3.265  0.4565 -0.6699  0.4131
 2319TIP3    H2 6922   4.448   1.906   3.135  0.2613 -0.8416  0.4767
 2320TIP3   OH2 6923   0.498   3.385   2.343  0.4532 -0.4213 -0.2183
 2320TIP3    H1 6924   0.553   3.454   2.381  1.5712 -1.3450 -0.1354
 2320TIP3    H2 6925   0.477   3.328   2.417  1.4623 -1.4449 -0.7006
 2321TIP3   OH2 6926   0.074   3.973   0.347  0.0993 -0.4462  0.4982
 2321TIP3    H1 6927   0.123   3.895   0.323  3.0043  1.8295 -1.8474
 2321TIP3    H2 6928   0.139   4.031   0.388 -1.3902  1.5238  0.2376
 2322TIP3   OH2 6929   1.590   4.433   4.989  0.2966 -0.9312  0.4157
 2322TIP3    H1 6930   1.667   4.382   4.961  2.3790  2.9272 -1.7421
 2322TIP3    H2 6931   1.625   4.495   5.054  0.4348  3.8101 -3.5939
 2323TIP3   OH2 6932   0.032   2.649   4.918  0.4802 -0.2786  0.0015
 2323TIP3    H1 6933   0.064   2.634   5.007  2.5185 -0.9809 -0.8067
 2323TIP3    H2 6934   0.032   2.562   4.878  1.1668  0.2489 -1.1797
 2324TIP3   OH2 6935   0.305   0.232   4.057  0.4707  0.1357 -0.3085
 2324TIP3    H1 6936   0.346   0.296   3.999 -0.5481 -0.4847 -1.7962
 2324TIP3    H2 6937   0.225   0.274   4.087  0.3727 -0.0082 -0.3678
 2325TIP3   OH2 6938   2.633   2.526   1.707  0.1308  0.3266  0.0415
 2325TIP3    H1 6939   2.629   2.432   1.723  2.0750 -0.1899 -1.9565
 2325TIP3    H2 6940   2.543   2.557   1.717 -0.2400 -1.2953  2.8548
 2326TIP3   OH2 6941   1.779   3.300   3.436 -0.1530  0.0301 -0.1993
 2326TIP3    H1 6942   1.725   3.360   3.384 -0.3257 -0.9585 -1.2033
 2326TIP3    H2 6943   1.750   3.212   3.409  1.1387 -0.5159  0.1129
 2327TIP3   OH2 6944   5.507   1.387   0.196  0.2894  0.9535 -0.3789
 2327TIP3    H1 6945   5.478   1.297   0.215 -0.5191  1.4006  0.5917
 2327TIP3    H2 6946   5.479   1.402   0.106  0.3843  0.2533 -0.5361
 2328TIP3   OH2 6947   4.494   0.859   0.507  0.1464  0.3071 -0.6759
 2328TIP3    H1 6948   4.430   0.825   0.570 -0.2878 -1.3911 -1.9476
 2328TIP3    H2 6949   4.534   0.934   0.551 -1.1703  0.0759  1.0171
 2329TIP3   OH2 6950   2.441   1.406   1.826 -0.6064  0.3583 -0.1098
 2329TIP3    H1 6951   2.488   1.325   1.847  0.2366  1.0878  0.9083
 2329TIP3    H2 6952   2.358   1.397   1.873 -0.4087  0.1918  0.2171
 2330TIP3   OH2 6953   5.109   3.327   3.933 -0.4134 -0.1993 -0.0971
 2330TIP3    H1 6954   5.033   3.331   3.875 -0.9781 -1.1383  0.5517
 2330TIP3    H2 6955   5.159   3.406   3.913 -0.6157 -0.4772 -1.8134
 2331TIP3   OH2 6956   1.020   6.037   0.293 -0.1333 -0.0360 -0.5651
 2331TIP3    H1 6957   1.071   6.117   0.309 -0.8812  0.0725  1.5950
 2331TIP3    H2 6958   1.071   5.967   0.334  0.1164 -0.5573 -1.7371
 2332TIP3   OH2 6959   4.350   0.646   3.344 -0.4945 -0.3504  0.2861
 2332TIP3    H1 6960   4.373   0.633   3.252  0.1571 -1.5084  0.5916
 2332TIP3    H2 6961   4.292   0.722   3.344  0.3516  0.3280 -0.9547
 2333TIP3   OH2 6962   6.770   0.764   1.694 -0.7655 -0.8464 -0.0076
 2333TIP3    H1 6963   6.828   0.700   1.654 -0.9054 -0.7497 -0.3683
 2333TIP3    H2 6964   6.774   0.840   1.636  1.3555  0.4608  1.6925
 2334TIP3   OH2 6965   4.785   6.627   2.363 -0.5498  0.2824  0.3425
 2334TIP3    H1 6966   4.875   6.598   2.349 -0.9691 -0.3501 -1.2997
 2334TIP3    H2 6967   4.785   6.720   2.339 -0.4440  0.1326 -0.2599
 2335TIP3   OH2 6968   5.570   6.451   0.908  0.3395  0.1257 -0.2327
 2335TIP3    H1 6969   5.532   6.472   0.994 -0.1525 -2.6883  0.3382
 2335TIP3    H2 6970   5.499   6.470   0.846  0.4796  1.5731  0.0182
 2336TIP3   OH2 6971   4.331   6.572   1.364 -0.3405  0.0302  0.2557
 2336TIP3    H1 6972   4.401   6.574   1.299  0.2723 -1.2903  0.8423
 2336TIP3    H2 6973   4.362   6.513   1.431 -2.2031 -0.9461  0.3233
 2337TIP3   OH2 6974   2.673   1.373   1.623  0.2857 -0.1946  0.2041
 2337TIP3    H1 6975   2.756   1.333   1.597 -0.7391 -0.5744 -2.9547
 2337TIP3    H2 6976   2.622   1.378   1.542 -2.5419  0.6579  1.8712
 2338TIP3   OH2 6977   0.106   3.269   3.573  0.1053  0.7712  0.1449
 2338TIP3    H1 6978   0.175   3.275   3.507 -0.0360  1.2663  0.0345
 2338TIP3    H2 6979   0.122   3.344   3.630  2.3102 -1.4440  2.7225
 2339TIP3   OH2 6980   1.342   6.379   4.875  0.2749  0.1148 -0.3435
 2339TIP3    H1 6981   1.267   6.408   4.821  0.5232  1.0072 -0.2325
 2339TIP3    H2 6982   1.400   6.455   4.876  0.7322 -0.2431  0.3765
 2340TIP3   OH2 6983   0.148   5.112   2.586  0.3824 -0.4392  0.9251
 2340TIP3    H1 6984   0.228   5.073   2.620  1.6641  1.0434 -0.2522
 2340TIP3    H2 6985   0.158   5.111   2.491 -0.4111  0.9117  0.7963
 2341TIP3   OH2 6986   5.815   6.042   0.674 -0.1232 -0.3579 -0.6570
 2341TIP3    H1 6987   5.897   6.092   0.673  1.1530 -2.3201 -0.9195
 2341TIP3    H2 6988   5.757   6.092   0.730  1.0865  1.3544 -0.8456
 2342TIP3   OH2 6989   4.703   4.935   2.150  0.3807 -0.3416  0.2944
 2342TIP3    H1 6990   4.692   4.936   2.055 -1.4229  1.1439  0.4525
 2342TIP3    H2 6991   4.649   4.862   2.180  0.0133 -0.0905  0.2507
 2343TIP3   OH2 6992   5.225   5.037   1.441 -0.2287 -0.3591 -0.8467
 2343TIP3    H1 6993   5.178   5.027   1.359  1.6278  0.2891 -2.0324
 2343TIP3    H2 6994   5.269   4.953   1.455 -0.3643 -0.3943 -0.6102
 2344TIP3   OH2 6995   1.981   0.053   5.431  0.3075 -0.3862 -0.3045
 2344TIP3    H1 6996   2.037  -0.002   5.376  0.1947 -0.3461 -0.4587
 2344TIP3    H2 6997   2.040   0.088   5.498  0.3743 -0.7119 -0.1935
 2345TIP3   OH2 6998   0.931   0.975   5.568  0.0237 -0.0520 -0.0537
 2345TIP3    H1 6999   0.928   0.884   5.538 -1.1589 -0.6277  1.6494
 2345TIP3    H2 7000   0.907   1.026   5.491  1.2905 -1.1090 -1.2072
 2346TIP3   OH2 7001   5.465   2.562   4.628  0.0059 -0.1637 -0.0973
 2346TIP3    H1 7002   5.493   2.471   4.615  0.2790 -0.2828  1.2303
 2346TIP3    H2 7003   5.528   2.597   4.690  0.5365  1.2708 -1.3772
 2347TIP3   OH2 7004   4.506   2.468   5.243  0.1232 -0.4393  0.4478
 2347TIP3    H1 7005   4.535   2.377   5.253  0.4625 -0.5689 -1.3615
 2347TIP3    H2 7006   4.562   2.504   5.174 -1.4809  0.4431 -0.4722
 2348TIP3   OH2 7007   1.172   4.595   3.094 -0.0424 -0.3394 -0.0627
 2348TIP3    H1 7008   1.235   4.592   3.022 -0.4944 -1.1563 -0.4407
 2348TIP3    H2 7009   1.087   4.607   3.052 -0.3330 -1.0377  0.3001
 2349TIP3   OH2 7010   2.536   0.033   4.390  0.5564 -0.1245  0.5214
 2349TIP3    H1 7011   2.516   0.110   4.444  1.1751  1.1358 -0.9839
 2349TIP3    H2 7012   2.585   0.068   4.316 -0.0529 -1.8483 -0.7457
 2350TIP3   OH2 7013   3.490   2.077   3.973 -0.1196 -0.3432 -0.1625
 2350TIP3    H1 7014   3.422   2.108   4.033 -0.0956 -2.4949  1.0651
 2350TIP3    H2 7015   3.567   2.065   4.028  0.3125 -1.0455 -0.8960
 2351TIP3   OH2 7016   5.235   1.707   4.032  0.0768  0.0370 -0.3566
 2351TIP3    H1 7017   5.293   1.725   4.106  1.2542  0.5447 -1.3635
 2351TIP3    H2 7018   5.151   1.744   4.057  0.6683  0.9066  0.4114
 2352TIP3   OH2 7019   0.071   0.987   3.177  0.6338 -0.2008  0.3644
 2352TIP3    H1 7020  -0.023   0.982   3.197  0.7448 -1.0566  0.7029
 2352TIP3    H2 7021   0.101   0.896   3.181  0.9540 -0.2830 -2.3494
 2353TIP3   OH2 7022   6.614   4.875   3.330 -0.8421  0.2406  0.2993
 2353TIP3    H1 7023   6.555   4.807   3.361  1.0623 -1.0345  1.2800
 2353TIP3    H2 7024   6.655   4.909   3.409  1.1474 -0.2558 -0.4682
 2354TIP3   OH2 7025   5.659   2.310   3.261 -0.6328  0.2806  0.2832
 2354TIP3    H1 7026   5.745   2.305   3.219  0.4129  0.6783  2.2396
 2354TIP3    H2 7027   5.649   2.403   3.283  0.6545 -0.3415  4.2401
 2355TIP3   OH2 7028   2.832   1.470   3.748  0.3685 -0.0257  0.3042
 2355TIP3    H1 7029   2.814   1.377   3.761 -1.1273 -0.1966 -2.2791
 2355TIP3    H2 7030   2.813   1.510   3.833  0.2199 -1.9435  1.2304
 2356TIP3   OH2 7031   5.250   1.178   3.031  0.1682 -0.0057  0.6153
 2356TIP3    H1 7032   5.227   1.143   3.116 -0.4719 -1.1235  0.0051
 2356TIP3    H2 7033   5.178   1.238   3.009  0.7952  1.0082  1.2447
 2357TIP3   OH2 7034   1.120   0.008   4.527  0.1353  0.0244  0.2507
 2357TIP3    H1 7035   1.138  -0.046   4.604 -1.1642  0.9416  1.2599
 2357TIP3    H2 7036   1.205   0.040   4.499  0.7067 -0.9110  0.8666
 2358TIP3   OH2 7037   5.176   4.176   0.659 -0.2243 -0.0931 -0.1192
 2358TIP3    H1 7038   5.253   4.135   0.699  0.6622  1.6165  0.0239
 2358TIP3    H2 7039   5.125   4.208   0.734  0.9871  2.3184 -0.2457
 2359TIP3   OH2 7040   1.921   6.011   3.820  0.3698 -0.2749  0.4648
 2359TIP3    H1 7041   1.943   5.926   3.856  0.1998 -0.0548  1.0986
 2359TIP3    H2 7042   1.945   6.074   3.889 -3.1748 -0.0670  1.7098
 2360TIP3   OH2 7043   0.070   5.637   0.980 -0.4888  0.9160  0.1919
 2360TIP3    H1 7044   0.088   5.561   1.036  1.4391  0.8778 -0.4404
 2360TIP3    H2 7045   0.133   5.703   1.008 -2.8842  2.7833  1.5336
 2361TIP3   OH2 7046   3.256   2.665   2.001 -0.5540  0.0267  0.1669
 2361TIP3    H1 7047   3.339   2.678   1.955 -0.1459 -1.2054  0.5178
 2361TIP3    H2 7048   3.214   2.752   2.001  0.3533  0.4791 -0.7304
 2362TIP3   OH2 7049   1.671   1.508   0.458 -0.0939 -0.1694  0.5672
 2362TIP3    H1 7050   1.765   1.493   0.469 -0.1141 -0.8060 -0.0655
 2362TIP3    H2 7051   1.664   1.602   0.442  0.5599 -0.2834 -0.5087
 2363TIP3   OH2 7052   6.348   3.859   2.682  0.0591  0.4151 -0.2505
 2363TIP3    H1 7053   6.318   3.938   2.728 -0.0060  0.2232  0.0388
 2363TIP3    H2 7054   6.281   3.844   2.615  0.4895  1.0696 -0.8441
 2364TIP3   OH2 7055   0.461   1.628   5.160 -0.1331 -0.2377 -0.3724
 2364TIP3    H1 7056   0.542   1.597   5.119 -0.2730  0.3923 -1.1548
 2364TIP3    H2 7057   0.455   1.578   5.242  2.2410  1.3140  0.8696
 2365TIP3   OH2 7058   6.134   1.112   0.501 -0.1379 -0.2499  0.1183
 2365TIP3    H1 7059   6.087   1.030   0.486  0.2545 -0.4982  0.2244
 2365TIP3    H2 7060   6.211   1.106   0.444  0.6845 -0.6276  1.2542
 2366TIP3   OH2 7061   4.064   2.652   4.277 -0.3477  0.3024 -0.4091
 2366TIP3    H1 7062   4.102   2.590   4.338 -0.5551 -1.0222 -1.5781
 2366TIP3    H2 7063   4.103   2.630   4.192 -3.5212 -1.0859 -1.6692
 2367TIP3   OH2 7064   2.553   2.724   5.504 -0.0545  0.0464  0.6320
 2367TIP3    H1 7065   2.461   2.731   5.476 -0.0967 -0.7822  0.5264
 2367TIP3    H2 7066   2.602   2.723   5.422 -0.0450 -0.6595  0.6399
 2368TIP3   OH2 7067   5.725   4.228   2.156  0.4553 -0.2503  0.0481
 2368TIP3    H1 7068   5.795   4.164   2.145  0.1466 -0.5930  0.0665
 2368TIP3    H2 7069   5.654   4.196   2.101  0.1030 -0.2082  0.4740
 2369TIP3   OH2 7070   1.767   0.052   1.768  0.6804 -1.0913  0.4695
 2369TIP3    H1 7071   1.798   0.138   1.796 -3.2440  0.8275 -0.3941
 2369TIP3    H2 7072   1.715   0.020   1.842 -0.4323 -1.2524 -0.3678
 2370TIP3   OH2 7073   1.044   5.556   1.945  0.3505 -0.0283  0.0205
 2370TIP3    H1 7074   1.077   5.488   2.003 -0.6438 -0.6348 -0.1058
 2370TIP3    H2 7075   0.949   5.551   1.953  0.2520  1.4945  0.1653
 2371TIP3   OH2 7076   6.012   1.913   2.570 -0.4597 -0.3381 -0.1360
 2371TIP3    H1 7077   5.966   1.984   2.526 -0.3812  0.8890  1.7032
 2371TIP3    H2 7078   6.032   1.851   2.499 -0.5078  1.4432 -1.8015
 2372TIP3   OH2 7079   6.603   2.884   1.301 -0.3818 -0.3025 -0.2370
 2372TIP3    H1 7080   6.575   2.819   1.236  0.4954 -1.0260  0.0985
 2372TIP3    H2 7081   6.525   2.939   1.314 -0.5420 -0.0631 -1.9867
 2373TIP3   OH2 7082   0.654   1.677   5.450  0.2380  0.3814  0.1380
 2373TIP3    H1 7083   0.708   1.686   5.529  1.1023 -0.4371 -0.3386
 2373TIP3    H2 7084   0.704   1.619   5.393 -1.0403 -0.1970 -0.4397
 2374TIP3   OH2 7085   4.990   2.152   4.784 -0.7051  0.1425 -0.4239
 2374TIP3    H1 7086   4.898   2.145   4.757 -0.5656 -0.7649 -0.7152
 2374TIP3    H2 7087   4.988   2.140   4.879 -0.6679 -2.6999 -0.6978
 2375TIP3   OH2 7088   0.756   1.923   1.945 -0.3222  0.2245 -0.1626
 2375TIP3    H1 7089   0.713   1.857   1.891  0.0502  0.6130 -0.9453
 2375TIP3    H2 7090   0.695   1.938   2.018 -0.8625 -0.2493 -0.5110
 2376TIP3   OH2 7091   3.382   2.467   2.702 -0.0341 -0.2615 -0.1836
 2376TIP3    H1 7092   3.393   2.377   2.672 -0.2709 -1.0278  1.8497
 2376TIP3    H2 7093   3.398   2.521   2.624  0.0309 -2.0449 -1.4636
 2377TIP3   OH2 7094   6.198   1.547   4.980  0.2187 -0.1882  0.1234
 2377TIP3    H1 7095   6.245   1.610   5.035  1.0118 -0.5418 -0.1286
 2377TIP3    H2 7096   6.199   1.586   4.893 -0.6559  0.1680  0.2615
 2378TIP3   OH2 7097   7.230   1.621   2.285  0.0870 -0.1107 -0.0167
 2378TIP3    H1 7098   7.152   1.596   2.234  1.0824 -1.5419 -0.9183
 2378TIP3    H2 7099   7.199   1.690   2.343 -1.9567 -0.8671 -0.1039
 2379TIP3   OH2 7100   6.828   6.160   5.736  0.3926  0.0979  0.1913
 2379TIP3    H1 7101   6.779   6.212   5.800 -0.2768  0.8974 -0.9089
 2379TIP3    H2 7102   6.816   6.069   5.764 -0.2731  0.3984  0.9281
 2380TIP3   OH2 7103   1.017   3.776   0.764 -0.7992  0.0652 -0.0788
 2380TIP3    H1 7104   1.076   3.807   0.695 -0.0878 -2.8715 -0.9305
 2380TIP3    H2 7105   0.929   3.791   0.729 -0.4581 -0.3181 -1.1372
 2381TIP3   OH2 7106   1.156   6.517   3.379  0.3552  0.2272 -0.2294
 2381TIP3    H1 7107   1.090   6.565   3.428 -1.0104 -0.3172 -1.4826
 2381TIP3    H2 7108   1.155   6.555   3.291  0.3749 -1.0052 -0.7909
 2382TIP3   OH2 7109   4.240   6.227   4.900 -0.2050  0.2314  0.1092
 2382TIP3    H1 7110   4.155   6.247   4.940  0.8058  1.5764  1.7046
 2382TIP3    H2 7111   4.267   6.310   4.860  0.7812  0.0838  0.4562
 2383TIP3   OH2 7112   5.223   1.379   5.676 -0.0318 -0.3682 -0.0764
 2383TIP3    H1 7113   5.292   1.406   5.615 -0.9856  2.6229  0.0027
 2383TIP3    H2 7114   5.253   1.411   5.761 -0.3764 -1.2791  0.3956
 2384TIP3   OH2 7115   0.230   1.528   3.555 -0.1795  0.3007  0.0488
 2384TIP3    H1 7116   0.210   1.502   3.645 -0.0578 -1.3883 -0.3744
 2384TIP3    H2 7117   0.180   1.608   3.542 -0.9721  0.0492  1.3069
 2385TIP3   OH2 7118   0.568   6.167   2.804  0.0513  0.2560 -0.2337
 2385TIP3    H1 7119   0.610   6.117   2.734  1.1681 -0.1007  0.6598
 2385TIP3    H2 7120   0.481   6.189   2.769 -0.0986 -1.4373 -1.0344
 2386TIP3   OH2 7121   1.134   5.849   0.911 -0.2768  0.5097 -0.2129
 2386TIP3    H1 7122   1.146   5.792   0.835  0.5957  1.6870 -0.9915
 2386TIP3    H2 7123   1.219   5.849   0.955 -1.4926 -2.4615  2.5157
 2387TIP3   OH2 7124   1.247   5.348   0.588  0.3343 -0.5594 -0.8826
 2387TIP3    H1 7125   1.186   5.327   0.658 -1.1101 -1.0776 -2.2441
 2387TIP3    H2 7126   1.230   5.282   0.521  0.3078  1.0415 -2.5248
 2388TIP3   OH2 7127   2.274   2.764   2.495  0.4246 -0.3107 -0.1234
 2388TIP3    H1 7128   2.223   2.812   2.559  0.2241 -0.7771  0.0733
 2388TIP3    H2 7129   2.260   2.672   2.517  0.3965 -0.4750 -0.7963
 2389TIP3   OH2 7130   2.517   3.672   3.910  0.0870 -0.7689 -0.8457
 2389TIP3    H1 7131   2.531   3.732   3.837 -0.1466  0.7489  0.3123
 2389TIP3    H2 7132   2.485   3.592   3.869  1.4254 -0.5122 -2.5386
 2390TIP3   OH2 7133   6.479   4.594   1.688 -0.3313 -0.0601  0.1296
 2390TIP3    H1 7134   6.528   4.621   1.766  0.7642  0.3632 -0.6691
 2390TIP3    H2 7135   6.393   4.635   1.698  0.3425  1.3844  0.3481
 2391TIP3   OH2 7136   3.123   6.494   3.247  0.1672 -0.6152  0.3205
 2391TIP3    H1 7137   3.060   6.531   3.309  1.2253 -1.7313  2.1828
 2391TIP3    H2 7138   3.106   6.400   3.248  0.7906 -0.7469 -0.3869
 2392TIP3   OH2 7139   6.323   4.327   4.343 -0.7164  0.6564  0.1592
 2392TIP3    H1 7140   6.366   4.382   4.277  1.1259  1.1505  1.7141
 2392TIP3    H2 7141   6.230   4.346   4.332 -0.3826  1.5088 -1.5853
 2393TIP3   OH2 7142   3.259   1.115   2.965 -0.3323  0.0099  0.1778
 2393TIP3    H1 7143   3.315   1.080   3.035  0.8870  3.2028  0.9686
 2393TIP3    H2 7144   3.173   1.125   3.006 -0.1705 -0.1384  0.5593
 2394TIP3   OH2 7145   3.046   4.896   3.527  0.3360 -0.2001 -0.1417
 2394TIP3    H1 7146   3.087   4.964   3.473 -1.3267  0.8957 -0.1144
 2394TIP3    H2 7147   3.017   4.943   3.606 -1.0989 -0.8621 -0.2480
 2395TIP3   OH2 7148   6.968   0.645   4.692 -0.3528 -0.1558  0.9304
 2395TIP3    H1 7149   7.023   0.698   4.634 -2.1448  2.4944  1.4484
 2395TIP3    H2 7150   6.929   0.709   4.751 -2.2311 -2.1934  1.9993
 2396TIP3   OH2 7151   4.885   4.147   0.218 -0.1705  0.3927 -0.2733
 2396TIP3    H1 7152   4.853   4.215   0.276 -0.9195  0.0323 -0.2532
 2396TIP3    H2 7153   4.962   4.185   0.176 -1.7729  2.0711 -1.8900
 2397TIP3   OH2 7154   5.854   4.604   3.008 -0.3697 -0.2443  0.1191
 2397TIP3    H1 7155   5.775   4.652   3.030 -0.7015 -0.5267 -0.4394
 2397TIP3    H2 7156   5.862   4.537   3.077  0.0046  0.4852  0.8055
 2398TIP3   OH2 7157   7.106   4.670   1.424 -0.4258 -0.4379  0.8626
 2398TIP3    H1 7158   7.159   4.622   1.361 -0.9293 -0.8205  0.7196
 2398TIP3    H2 7159   7.135   4.638   1.509 -0.0657 -0.2621  0.8062
 2399TIP3   OH2 7160   2.445   5.382   1.864 -0.0906  0.1692 -0.0200
 2399TIP3    H1 7161   2.524   5.436   1.868  1.2727 -1.7320  0.1245
 2399TIP3    H2 7162   2.414   5.378   1.955 -0.7643  1.4478 -0.1748
 2400TIP3   OH2 7163   4.646   5.139   3.513 -0.2172 -0.0117  0.1573
 2400TIP3    H1 7164   4.561   5.118   3.551 -0.2281 -0.8855 -0.3151
 2400TIP3    H2 7165   4.627   5.195   3.438 -0.3687 -0.0932  0.1356
 2401TIP3   OH2 7166   5.688   5.080   5.131  0.9349  0.0345  0.0112
 2401TIP3    H1 7167   5.615   5.019   5.130 -0.8909  2.0722  0.0723
 2401TIP3    H2 7168   5.759   5.035   5.087 -0.0941 -2.3450  0.6629
 2402TIP3   OH2 7169   3.689   5.868   2.397  0.1981  0.0565 -0.6583
 2402TIP3    H1 7170   3.670   5.832   2.484 -0.6993  0.0068 -0.8672
 2402TIP3    H2 7171   3.681   5.793   2.338 -1.9883  0.5934 -1.1396
 2403TIP3   OH2 7172   5.935   1.089   5.552  0.0814 -0.3139 -0.5089
 2403TIP3    H1 7173   5.963   1.155   5.488 -0.0968 -0.6157 -0.9027
 2403TIP3    H2 7174   5.971   1.007   5.519  1.0946 -0.2894  0.4780
 2404TIP3   OH2 7175   5.077   0.514   2.996 -0.2252  0.0595  0.7689
 2404TIP3    H1 7176   5.165   0.496   3.029 -0.3157 -1.9655  0.0293
 2404TIP3    H2 7177   5.089   0.538   2.904 -0.3926  0.5782  0.8772
 2405TIP3   OH2 7178   1.147   2.091   4.149 -0.6597 -0.0239 -0.1070
 2405TIP3    H1 7179   1.072   2.129   4.194  0.8621  1.4322  1.3405
 2405TIP3    H2 7180   1.155   2.141   4.068 -0.6846  0.4530  0.1849
 2406TIP3   OH2 7181   1.287   6.053   5.112  0.2203  0.0941 -0.4878
 2406TIP3    H1 7182   1.244   6.066   5.196 -0.9670 -2.1706 -0.6575
 2406TIP3    H2 7183   1.365   6.001   5.131  0.6063  0.5986 -0.6640
 2407TIP3   OH2 7184   2.164   5.300   1.876  0.4006  0.1202  0.4147
 2407TIP3    H1 7185   2.129   5.265   1.959  0.4481 -0.4411  0.2035
 2407TIP3    H2 7186   2.246   5.253   1.864  0.2266 -0.0461 -0.1255
 2408TIP3   OH2 7187   3.152   1.935   1.531 -0.2231  0.4691  0.0014
 2408TIP3    H1 7188   3.186   2.024   1.520  1.0403  0.4502  2.9379
 2408TIP3    H2 7189   3.058   1.943   1.518 -0.2427  2.4432  1.0204
 2409TIP3   OH2 7190   0.540   3.273   0.612 -0.3503  0.2651 -0.5563
 2409TIP3    H1 7191   0.622   3.319   0.629 -0.0091 -0.1831 -0.9892
 2409TIP3    H2 7192   0.496   3.271   0.698 -1.0648  2.6920 -0.7770
 2410TIP3   OH2 7193   6.119   5.204   5.407 -0.2199 -0.5630 -0.1995
 2410TIP3    H1 7194   6.198   5.251   5.432  0.4168 -0.3479 -2.4407
 2410TIP3    H2 7195   6.129   5.117   5.446  1.9191 -1.0663 -1.6878
 2411TIP3   OH2 7196   5.080   0.625   0.849 -0.5873 -0.7078 -0.5968
 2411TIP3    H1 7197   5.041   0.599   0.932 -0.3541  0.6053 -0.0463
 2411TIP3    H2 7198   5.095   0.543   0.803  0.3461 -1.5749  1.1333
 2412TIP3   OH2 7199   5.762   6.391   3.686  0.1801 -0.1526 -0.4644
 2412TIP3    H1 7200   5.757   6.373   3.592 -0.5902 -1.1657 -0.2484
 2412TIP3    H2 7201   5.812   6.317   3.722  0.1550  0.0372 -0.0332
 2413TIP3   OH2 7202   2.682   6.659   0.401 -0.1077  0.6293 -0.3857
 2413TIP3    H1 7203   2.677   6.633   0.309 -2.6106  0.0078 -0.1646
 2413TIP3    H2 7204   2.694   6.754   0.399  3.1571  0.3139 -1.2557
 2414TIP3   OH2 7205   2.778   4.078   4.526  0.1468  0.7103 -0.3082
 2414TIP3    H1 7206   2.692   4.045   4.500  0.4098 -0.4658  0.2321
 2414TIP3    H2 7207   2.761   4.127   4.607  0.0171  0.2486 -0.0520
 2415TIP3   OH2 7208   1.375   6.371   4.482  0.1784  0.5622 -0.0405
 2415TIP3    H1 7209   1.342   6.457   4.453 -1.0319 -0.0698 -0.5899
 2415TIP3    H2 7210   1.303   6.334   4.532 -0.0840 -0.9404 -1.4486
 2416TIP3   OH2 7211   1.996   5.784   3.951  0.4998  0.1463  0.6016
 2416TIP3    H1 7212   2.025   5.726   3.880 -1.8647 -0.8788  0.3707
 2416TIP3    H2 7213   2.063   5.775   4.018  0.3884 -2.6836  0.4483
 2417TIP3   OH2 7214   0.751   3.105   3.079  0.1904 -0.2118  0.3178
 2417TIP3    H1 7215   0.728   3.021   3.119  1.3339  0.0763  1.6858
 2417TIP3    H2 7216   0.847   3.105   3.076  0.1914  0.7782 -0.2730
 2418TIP3   OH2 7217   5.040   0.764   5.848 -0.3327  0.0418  0.3000
 2418TIP3    H1 7218   5.038   0.859   5.849 -2.0542  0.0447 -0.5535
 2418TIP3    H2 7219   4.962   0.738   5.897 -0.2594 -0.9215 -0.0709
 2419TIP3   OH2 7220   2.767   5.196   4.178  0.0203  0.2462  0.5672
 2419TIP3    H1 7221   2.710   5.256   4.226 -0.6433  0.1404 -0.0750
 2419TIP3    H2 7222   2.752   5.111   4.218 -2.1407 -0.2545 -1.1511
 2420TIP3   OH2 7223   5.849   4.579   0.372 -0.0450  0.4527 -0.0950
 2420TIP3    H1 7224   5.754   4.591   0.372 -0.1570 -0.3884  0.0553
 2420TIP3    H2 7225   5.884   4.666   0.351 -0.7981  1.1392  1.3209
 2421TIP3   OH2 7226   3.041   4.871   4.868 -0.2472 -0.1469  0.4761
 2421TIP3    H1 7227   2.972   4.918   4.914  0.2826  0.1865  0.9287
 2421TIP3    H2 7228   3.011   4.869   4.777 -1.0681 -0.3955  0.7409
 2422TIP3   OH2 7229   4.194   1.508   0.296  0.4521  0.0987 -0.3815
 2422TIP3    H1 7230   4.123   1.570   0.280 -0.0770  0.1658  1.9208
 2422TIP3    H2 7231   4.202   1.460   0.213 -1.2660  1.0864 -1.1890
 2423TIP3   OH2 7232   1.263   6.257   0.862  0.7454 -0.2391  0.0594
 2423TIP3    H1 7233   1.292   6.305   0.940 -1.3596 -1.0823  1.4342
 2423TIP3    H2 7234   1.327   6.186   0.853  2.6685  1.4693 -0.7606
 2424TIP3   OH2 7235   2.504   2.947   3.583  0.1397  0.2250 -0.1384
 2424TIP3    H1 7236   2.414   2.918   3.601  0.5404  0.2641  2.2360
 2424TIP3    H2 7237   2.552   2.866   3.567 -0.0682  0.1122 -0.2015
 2425TIP3   OH2 7238   0.915   5.367   0.089  0.1670 -0.2677  0.5319
 2425TIP3    H1 7239   0.873   5.452   0.102 -0.3902 -0.6023  0.9286
 2425TIP3    H2 7240   0.846   5.310   0.056  0.2489 -0.8704  1.3755
 2426TIP3   OH2 7241   5.043   1.036   5.868  0.5355  0.1485 -0.3233
 2426TIP3    H1 7242   4.997   1.121   5.870 -1.1813 -0.7289 -0.1763
 2426TIP3    H2 7243   5.134   1.059   5.851  0.1475  2.0370 -0.1610
 2427TIP3   OH2 7244   7.023   0.783   0.616 -0.2499  0.0053  0.3631
 2427TIP3    H1 7245   7.015   0.761   0.523 -1.4809 -0.3988  0.5415
 2427TIP3    H2 7246   7.115   0.767   0.637  0.1881  0.6485 -0.9075
 2428TIP3   OH2 7247   2.776   3.162   5.526 -0.0909 -0.0189  0.0217
 2428TIP3    H1 7248   2.858   3.210   5.541 -0.2048  0.0234  0.5205
 2428TIP3    H2 7249   2.791   3.077   5.568 -1.5111  1.1416  3.2118
 2429TIP3   OH2 7250   6.089   0.922   4.097  0.1807 -0.2531 -0.0950
 2429TIP3    H1 7251   6.161   0.914   4.160 -0.8651 -1.2832  1.0194
 2429TIP3    H2 7252   6.095   1.012   4.065  1.6772 -0.1792  0.3279
 2430TIP3   OH2 7253   4.688   1.125   4.007 -0.1155  0.5493 -0.1020
 2430TIP3    H1 7254   4.649   1.145   4.092 -0.2440  2.4022 -0.5653
 2430TIP3    H2 7255   4.631   1.169   3.944  2.2501  2.7522 -0.8624
 2431TIP3   OH2 7256   6.309   3.788   4.239 -0.5761  0.1438 -0.8291
 2431TIP3    H1 7257   6.357   3.871   4.237  1.4093 -0.8774  1.1877
 2431TIP3    H2 7258   6.360   3.729   4.183 -0.1882 -0.5893  0.2780
 2432TIP3   OH2 7259   2.692   5.277   1.992 -0.2471  0.1640  0.3968
 2432TIP3    H1 7260   2.679   5.343   1.924 -3.4931 -0.3499  0.3511
 2432TIP3    H2 7261   2.700   5.194   1.944  0.2839  0.1251  0.5530
 2433TIP3   OH2 7262   6.738   2.988   3.743  0.1695  0.8702 -0.2471
 2433TIP3    H1 7263   6.727   2.994   3.648  0.0900  0.5473 -0.2610
 2433TIP3    H2 7264   6.829   3.013   3.758  0.9660 -1.4714 -0.6828
 2434TIP3   OH2 7265   2.749   1.658   4.411  0.0247 -0.3038  0.3478
 2434TIP3    H1 7266   2.732   1.742   4.453 -0.2725  0.2967 -0.9026
 2434TIP3    H2 7267   2.822   1.621   4.459  0.1028  0.6321  0.9815
 2435TIP3   OH2 7268   4.537   5.213   4.303 -0.0593  0.3439  0.0015
 2435TIP3    H1 7269   4.453   5.214   4.257 -0.2346  0.5945  0.3277
 2435TIP3    H2 7270   4.548   5.302   4.335 -0.0411  0.1133  0.6345
 2436TIP3   OH2 7271   6.395   4.090   5.097 -0.3879  0.4573 -0.0714
 2436TIP3    H1 7272   6.411   4.070   5.190 -0.8910  1.3580  0.2188
 2436TIP3    H2 7273   6.483   4.103   5.061 -0.1507 -0.5051  0.1272
 2437TIP3   OH2 7274   0.912   6.118   2.313  0.3460 -0.2366  0.0603
 2437TIP3    H1 7275   0.929   6.045   2.373  0.4419 -1.3053 -1.2302
 2437TIP3    H2 7276   0.890   6.076   2.230 -0.7774  1.2084 -0.4057
 2438TIP3   OH2 7277   3.703   0.245   5.372 -0.1845 -0.4965  0.3219
 2438TIP3    H1 7278   3.624   0.195   5.393  0.4270 -2.1719 -1.1299
 2438TIP3    H2 7279   3.754   0.244   5.453 -0.8681 -0.8873  0.7635
 2439TIP3   OH2 7280   1.449   3.174   2.604 -0.5377 -0.1015 -0.6890
 2439TIP3    H1 7281   1.527   3.229   2.599 -0.2937 -0.4205 -0.4281
 2439TIP3    H2 7282   1.439   3.139   2.515  0.6773 -1.4958 -0.3069
 2440TIP3   OH2 7283   1.811   4.029   5.070 -0.1119  0.0383  0.2686
 2440TIP3    H1 7284   1.766   4.084   5.005  0.0469 -0.4914 -0.2971
 2440TIP3    H2 7285   1.757   4.035   5.148  0.5395  2.0119  0.6387
 2441TIP3   OH2 7286   2.924   5.551   5.101  0.3480 -0.3336 -0.3294
 2441TIP3    H1 7287   2.858   5.485   5.125  0.1077  0.6008  1.8423
 2441TIP3    H2 7288   2.875   5.619   5.056 -0.1347  0.1269  0.8461
 2442TIP3   OH2 7289   6.132   2.130   3.099  0.9477  0.0530  0.2848
 2442TIP3    H1 7290   6.173   2.215   3.085 -1.7075  1.4523  0.3422
 2442TIP3    H2 7291   6.039   2.151   3.115  0.2706 -2.8343  0.5923
 2443TIP3   OH2 7292   1.931   2.047   0.937  0.8559  0.3409 -0.1706
 2443TIP3    H1 7293   1.860   2.039   1.001  1.3827  1.8054  0.6433
 2443TIP3    H2 7294   1.903   1.993   0.863  0.3672 -1.6969  1.4033
 2444TIP3   OH2 7295   0.268   4.672   3.103 -0.0308  0.7138  0.0491
 2444TIP3    H1 7296   0.291   4.763   3.122  0.5313  0.8866 -1.3473
 2444TIP3    H2 7297   0.240   4.673   3.012 -2.0588 -0.1731  0.6104
 2445TIP3   OH2 7298   1.562   3.020   4.538  0.0140  0.3548 -0.4561
 2445TIP3    H1 7299   1.538   3.062   4.620  0.5749 -0.0331 -0.0917
 2445TIP3    H2 7300   1.574   2.928   4.560 -0.3615  0.1487 -1.0851
 2446TIP3   OH2 7301   6.368   4.484   0.814 -0.4529 -0.3231  0.4341
 2446TIP3    H1 7302   6.442   4.529   0.855 -0.3218 -1.4063  1.4353
 2446TIP3    H2 7303   6.299   4.550   0.811  1.0428  1.2852 -2.1705
 2447TIP3   OH2 7304   1.448   2.138   5.024 -0.1783  0.6811  0.0446
 2447TIP3    H1 7305   1.459   2.209   4.961  0.5741  0.1795 -0.4109
 2447TIP3    H2 7306   1.357   2.145   5.052  0.1738  2.5406  0.8926
 2448TIP3   OH2 7307   4.037   2.362   2.103  0.7086  0.5109 -0.0618
 2448TIP3    H1 7308   4.079   2.447   2.101 -0.9159  1.3547 -0.2299
 2448TIP3    H2 7309   3.961   2.371   2.045  1.8928 -1.8440 -2.1914
 2449TIP3   OH2 7310   1.616   1.001   1.635  0.4324 -0.0227 -0.1168
 2449TIP3    H1 7311   1.604   1.031   1.725 -1.9632 -0.2248 -0.2871
 2449TIP3    H2 7312   1.692   0.944   1.638 -1.0632 -2.0886  2.3766
 2450TIP3   OH2 7313   6.266   2.700   1.942 -0.7984  0.1930 -0.1563
 2450TIP3    H1 7314   6.210   2.777   1.949  1.8341  2.1492  1.4491
 2450TIP3    H2 7315   6.355   2.736   1.937  0.6803 -2.7139  2.2539
 2451TIP3   OH2 7316   3.440   4.264   1.853  0.4588  0.2732  0.0009
 2451TIP3    H1 7317   3.369   4.265   1.917 -0.8063  0.8955 -1.3790
 2451TIP3    H2 7318   3.516   4.296   1.902  0.2174 -1.8201  1.9269
 2452TIP3   OH2 7319   4.020   6.606   4.398 -0.0067  0.1914  0.7513
 2452TIP3    H1 7320   3.997   6.610   4.491 -1.6447 -1.4444  0.4677
 2452TIP3    H2 7321   3.943   6.567   4.356  0.1925  1.9921 -1.4939
 2453TIP3   OH2 7322   3.807   6.342   2.361 -0.2468  0.1649 -0.2458
 2453TIP3    H1 7323   3.851   6.302   2.286  1.2617  1.0799  0.1101
 2453TIP3    H2 7324   3.774   6.268   2.411  1.0561 -0.5925 -0.4551
 2454TIP3   OH2 7325   5.383   3.592   2.079  0.1360 -0.6188 -0.3435
 2454TIP3    H1 7326   5.292   3.609   2.104  0.3925 -0.0621  0.2475
 2454TIP3    H2 7327   5.415   3.530   2.145 -0.3003 -2.1774 -1.5335
 2455TIP3   OH2 7328   2.784   0.491   5.779 -0.4285  0.1004  0.2159
 2455TIP3    H1 7329   2.727   0.426   5.820  0.4594 -0.2774  0.8837
 2455TIP3    H2 7330   2.804   0.553   5.849  0.6737 -0.2537  0.2277
 2456TIP3   OH2 7331   2.663   4.853   3.770  0.5873 -0.1596 -0.0394
 2456TIP3    H1 7332   2.736   4.906   3.737  1.1803 -0.9767 -0.0838
 2456TIP3    H2 7333   2.616   4.825   3.692  2.6042 -2.9755 -0.3985
 2457TIP3   OH2 7334   0.890   0.374   1.699  0.3995  0.2019 -0.4775
 2457TIP3    H1 7335   0.921   0.464   1.690 -2.0131  1.2325  0.7539
 2457TIP3    H2 7336   0.875   0.344   1.609  1.5600  0.8764 -0.9120
 2458TIP3   OH2 7337   0.148   4.317   5.768  0.2005  0.6389 -0.0214
 2458TIP3    H1 7338   0.054   4.309   5.748  0.3517 -0.7238 -0.2837
 2458TIP3    H2 7339   0.191   4.315   5.683  0.3858  3.8164 -0.1180
 2459TIP3   OH2 7340   3.088   0.864   3.445  0.0133 -0.6555 -0.3575
 2459TIP3    H1 7341   3.043   0.929   3.500  2.0736  0.5181  0.0624
 2459TIP3    H2 7342   3.163   0.837   3.497  0.5090 -1.5837 -1.5196
 2460TIP3   OH2 7343   6.613   3.594   0.281  0.3024 -0.3279  0.6323
 2460TIP3    H1 7344   6.531   3.568   0.239  1.1619 -1.0048 -0.7097
 2460TIP3    H2 7345   6.590   3.606   0.373 -1.5718  0.8222  0.0743
 2461TIP3   OH2 7346   6.060   0.234   0.444 -0.8207 -0.3434 -0.4380
 2461TIP3    H1 7347   6.118   0.245   0.520  0.1346  0.8039 -1.2860
 2461TIP3    H2 7348   6.102   0.167   0.391 -0.2757  0.4302 -1.0130
 2462TIP3   OH2 7349   5.522   0.777   3.290  0.1599  0.3011 -0.6501
 2462TIP3    H1 7350   5.515   0.751   3.382 -0.3998  1.0395 -0.4750
 2462TIP3    H2 7351   5.617   0.786   3.276  0.2679 -0.1449 -0.2450
 2463TIP3   OH2 7352   6.905   0.100   0.730  0.2709 -0.6051 -0.2643
 2463TIP3    H1 7353   6.952   0.066   0.806  0.1534  0.1799  0.1719
 2463TIP3    H2 7354   6.826   0.045   0.724 -1.3650  1.2839  2.1454
 2464TIP3   OH2 7355   0.664   0.321   2.842  0.1199  0.5144 -0.0137
 2464TIP3    H1 7356   0.636   0.350   2.929  0.9029  0.3666  0.2986
 2464TIP3    H2 7357   0.723   0.248   2.859  0.6382  0.7750 -0.6443
 2465TIP3   OH2 7358   0.132   6.461  -0.032 -0.6742  0.5977  0.1915
 2465TIP3    H1 7359   0.056   6.505   0.005 -1.0227  0.6422 -0.5650
 2465TIP3    H2 7360   0.164   6.404   0.038 -0.9543  1.1351  0.7603
 2466TIP3   OH2 7361   7.078   4.292   5.752  0.0418 -0.2030 -0.1385
 2466TIP3    H1 7362   7.030   4.333   5.680 -0.1138 -1.3181 -0.6926
 2466TIP3    H2 7363   7.011   4.269   5.816 -0.1490 -1.4009 -0.7365
 2467TIP3   OH2 7364   4.033   5.276   4.955 -0.2687 -0.0798  0.2520
 2467TIP3    H1 7365   3.948   5.246   4.987  0.6086 -0.7543  2.0485
 2467TIP3    H2 7366   4.054   5.216   4.882 -0.0850 -1.7534  1.6135
 2468TIP3   OH2 7367   0.207   1.029   4.967 -0.3421 -0.0140  0.3173
 2468TIP3    H1 7368   0.290   1.012   5.013 -0.0968 -1.4368 -0.5760
 2468TIP3    H2 7369   0.146   0.966   5.005 -1.4746  1.9662  1.9861
 2469TIP3   OH2 7370   1.311   0.148   2.788 -0.3470  0.0714  0.3236
 2469TIP3    H1 7371   1.273   0.139   2.700  4.0287 -0.9877 -1.6949
 2469TIP3    H2 7372   1.344   0.238   2.790 -0.0102 -0.0606  0.7138
 2470TIP3   OH2 7373   1.829   1.045   0.091 -0.1067  0.2804 -0.2083
 2470TIP3    H1 7374   1.740   1.041   0.127  0.3959  0.4878  1.1314
 2470TIP3    H2 7375   1.837   1.133   0.055  0.1682  0.9929  1.4645
 2471TIP3   OH2 7376   3.939   3.512   0.496 -0.4454 -0.1794  0.2134
 2471TIP3    H1 7377   4.008   3.447   0.509  2.1554  1.7463 -2.5553
 2471TIP3    H2 7378   3.892   3.482   0.419  1.3256  1.4753 -1.6163
 2472TIP3   OH2 7379   0.659   1.811   1.586  0.3609 -1.1219  0.5591
 2472TIP3    H1 7380   0.584   1.780   1.535 -0.4701  0.7758  0.5093
 2472TIP3    H2 7381   0.654   1.762   1.668  0.1214 -2.2939 -0.1351
 2473TIP3   OH2 7382   4.456   3.116   1.741 -0.2653  0.4066 -0.0243
 2473TIP3    H1 7383   4.451   3.179   1.669 -1.3345 -0.6713 -0.9469
 2473TIP3    H2 7384   4.366   3.084   1.751 -0.2329  0.8474  2.1192
 2474TIP3   OH2 7385   0.021   0.216   1.739  0.5576 -0.2487 -0.1423
 2474TIP3    H1 7386   0.029   0.194   1.832  1.1519  1.8550  0.3686
 2474TIP3    H2 7387   0.106   0.254   1.716  0.1481 -0.0008 -1.3165
 2475TIP3   OH2 7388   1.757   5.564   1.614  0.2099 -0.4869  0.1300
 2475TIP3    H1 7389   1.767   5.477   1.574  0.6622  0.4042 -1.7855
 2475TIP3    H2 7390   1.678   5.600   1.574 -1.1667 -0.7323  2.4116
 2476TIP3   OH2 7391   7.150   6.100   1.705  0.4191  0.2597 -0.4623
 2476TIP3    H1 7392   7.144   6.175   1.645 -0.7601  1.6091  1.2083
 2476TIP3    H2 7393   7.137   6.139   1.792 -0.4686 -1.9372  0.4524
 2477TIP3   OH2 7394   4.104   3.944   3.427 -0.7958 -0.0925 -0.2117
 2477TIP3    H1 7395   4.046   4.009   3.465 -0.4839  0.3871 -0.5452
 2477TIP3    H2 7396   4.176   3.934   3.490 -1.1188 -0.5168  0.0929
 2478TIP3   OH2 7397   6.228   6.771   3.901 -0.2181  0.6098 -0.3713
 2478TIP3    H1 7398   6.195   6.684   3.923 -0.9177  1.1275  0.7382
 2478TIP3    H2 7399   6.323   6.761   3.899 -0.0828  0.3964  2.6555
 2479TIP3   OH2 7400   6.842   0.657   4.970  0.2007 -0.0054  0.3477
 2479TIP3    H1 7401   6.864   0.750   4.979 -3.0434  0.8127  1.2331
 2479TIP3    H2 7402   6.900   0.612   5.032 -0.0897  1.7931  2.0135
 2480TIP3   OH2 7403   0.435   4.169   0.911  0.0376  0.1424  0.4273
 2480TIP3    H1 7404   0.359   4.116   0.936 -0.0359 -0.4417 -0.9515
 2480TIP3    H2 7405   0.457   4.140   0.823  1.3137  0.9460  0.4507
 2481TIP3   OH2 7406   5.028   6.822   1.437 -0.0927  0.1846  0.2008
 2481TIP3    H1 7407   5.065   6.746   1.392 -0.0910 -0.6146  1.4834
 2481TIP3    H2 7408   5.056   6.811   1.528 -1.2724  0.9684  0.6806
 2482TIP3   OH2 7409   6.852   3.007   1.174 -0.1808 -0.2591 -0.3459
 2482TIP3    H1 7410   6.925   2.963   1.218 -1.2143 -0.2699  1.4875
 2482TIP3    H2 7411   6.774   2.970   1.216 -1.2117  0.4917 -1.5405
 2483TIP3   OH2 7412   2.071   0.494   5.577 -0.5076 -0.8718  0.0950
 2483TIP3    H1 7413   1.989   0.451   5.553 -0.1054 -0.6489 -1.8064
 2483TIP3    H2 7414   2.057   0.521   5.668 -2.0524 -1.9391  0.2324
 2484TIP3   OH2 7415   6.757   6.339   4.752  0.1577 -0.0988  0.5208
 2484TIP3    H1 7416   6.819   6.286   4.803  0.2245  0.7120  1.3190
 2484TIP3    H2 7417   6.744   6.290   4.671  2.1899 -0.0818  0.1335
 2485TIP3   OH2 7418   5.107   4.013   2.254  0.2720 -0.3547  0.3640
 2485TIP3    H1 7419   5.067   4.028   2.340 -0.4937 -0.6404  0.0657
 2485TIP3    H2 7420   5.119   3.918   2.249  0.2391 -0.3461  0.1180
 2486TIP3   OH2 7421   2.262   0.356   3.191 -0.0964 -0.1651  0.0044
 2486TIP3    H1 7422   2.344   0.339   3.144  0.0944  0.9525 -0.0940
 2486TIP3    H2 7423   2.265   0.297   3.266  0.3278 -0.8513 -0.5395
 2487TIP3   OH2 7424   0.185   3.222   2.553 -0.4045  0.1397 -0.0836
 2487TIP3    H1 7425   0.271   3.261   2.566 -0.7655  1.0527 -0.3182
 2487TIP3    H2 7426   0.192   3.175   2.470 -0.9100  2.6306 -1.6474
 2488TIP3   OH2 7427   5.167   4.523   4.499  0.7189 -0.3071 -0.2854
 2488TIP3    H1 7428   5.091   4.576   4.477  1.8414  1.3149 -0.4728
 2488TIP3    H2 7429   5.212   4.574   4.567  1.5704 -1.2872 -0.0981
 2489TIP3   OH2 7430   5.481   5.364   0.606  0.4689  0.2240 -0.2607
 2489TIP3    H1 7431   5.450   5.409   0.684  0.3897 -0.0356 -0.1438
 2489TIP3    H2 7432   5.412   5.302   0.584  0.5025  0.2761 -0.5201
 2490TIP3   OH2 7433   4.288   3.406   5.145 -0.8282  0.0444  0.4441
 2490TIP3    H1 7434   4.288   3.502   5.144  0.7791  0.0849  1.2304
 2490TIP3    H2 7435   4.337   3.382   5.066  1.0217 -0.0371  1.5707
 2491TIP3   OH2 7436   4.216   5.890   3.379 -0.5168  0.0373  0.4990
 2491TIP3    H1 7437   4.199   5.804   3.342  0.4558 -0.7787  1.8904
 2491TIP3    H2 7438   4.129   5.931   3.385 -0.7790  0.0399 -2.1318
 2492TIP3   OH2 7439   2.708   5.199   5.689 -0.2200 -0.4483 -0.7187
 2492TIP3    H1 7440   2.699   5.230   5.779 -1.1029 -0.9965 -0.6030
 2492TIP3    H2 7441   2.654   5.258   5.637  0.2146 -0.1888 -0.8762
 2493TIP3   OH2 7442   6.244   2.016   5.247  0.1994  0.2687 -0.0681
 2493TIP3    H1 7443   6.237   2.059   5.162 -2.0467  1.2017  0.5163
 2493TIP3    H2 7444   6.176   2.057   5.301 -0.2836 -2.1871  1.3473
 2494TIP3   OH2 7445   3.252   0.677   5.757 -0.5355  0.1793  0.5426
 2494TIP3    H1 7446   3.278   0.740   5.689 -0.4551  1.1277  1.4225
 2494TIP3    H2 7447   3.331   0.628   5.776 -0.5333 -0.0262  0.0267
 2495TIP3   OH2 7448   6.380   5.902   1.571  0.4409 -0.0692 -1.0981
 2495TIP3    H1 7449   6.418   5.830   1.520  0.6502 -1.1104  0.4291
 2495TIP3    H2 7450   6.309   5.861   1.621  0.3602  0.8506 -0.4332
 2496TIP3   OH2 7451   3.249   2.697   1.649 -0.8263  0.2642  0.0131
 2496TIP3    H1 7452   3.337   2.667   1.627 -1.1761  0.2581 -1.4653
 2496TIP3    H2 7453   3.195   2.617   1.646 -1.0827  0.4455 -0.2029
 2497TIP3   OH2 7454   5.354   3.842   3.468  0.5007  0.0349  0.8644
 2497TIP3    H1 7455   5.415   3.860   3.539  2.1294  0.9668 -0.6665
 2497TIP3    H2 7456   5.371   3.751   3.443  0.7154  0.0475  0.9616
 2498TIP3   OH2 7457   3.753   2.184   3.990  0.4147 -0.1435 -0.0012
 2498TIP3    H1 7458   3.786   2.102   4.026  2.8183  0.9461  0.4589
 2498TIP3    H2 7459   3.737   2.239   4.067 -0.0199  0.2294 -0.3551
 2499TIP3   OH2 7460   6.909   6.253   3.421  0.0580 -0.0949  0.2492
 2499TIP3    H1 7461   6.848   6.197   3.374 -1.3900  1.1256  0.5965
 2499TIP3    H2 7462   6.874   6.257   3.510  1.4639 -0.5244  0.8372
 2500TIP3   OH2 7463   0.319   3.520   0.752 -0.0020  0.2788  0.1339
 2500TIP3    H1 7464   0.394   3.578   0.762 -0.5204  0.8318  0.9124
 2500TIP3    H2 7465   0.247   3.578   0.727 -0.7550  0.1490  1.8584
 2501TIP3   OH2 7466   2.851   2.160   3.548 -0.4162  0.2501 -0.0891
 2501TIP3    H1 7467   2.759   2.186   3.561 -0.6824 -0.5341 -0.3642
 2501TIP3    H2 7468   2.848   2.094   3.479  0.4520  0.8107 -0.6839
 2502TIP3   OH2 7469   2.346   2.161   0.085 -0.1137 -0.0703 -0.2919
 2502TIP3    H1 7470   2.270   2.216   0.099 -1.1006 -1.0659 -1.5289
 2502TIP3    H2 7471   2.419   2.211   0.121 -0.9083  2.1829 -1.6359
 2503TIP3   OH2 7472   5.312   4.770   4.798 -0.2838  0.4178 -0.3419
 2503TIP3    H1 7473   5.299   4.675   4.807  1.8247 -0.0524 -1.6953
 2503TIP3    H2 7474   5.242   4.808   4.852 -1.5540 -1.8730 -0.2265
 2504TIP3   OH2 7475   2.879   5.658   0.744  0.0896  0.2480 -0.1442
 2504TIP3    H1 7476   2.816   5.714   0.790 -1.8550 -0.4688 -1.7735
 2504TIP3    H2 7477   2.921   5.717   0.681 -1.9780  0.0363 -1.8794
 2505TIP3   OH2 7478   5.603   2.445   5.083  0.4741  0.4609 -0.1386
 2505TIP3    H1 7479   5.674   2.490   5.128 -0.1875  1.8912 -0.4815
 2505TIP3    H2 7480   5.526   2.498   5.099 -0.5846 -1.1424  0.3494
 2506TIP3   OH2 7481   5.819   2.511   0.611  0.5858 -0.2575  0.0313
 2506TIP3    H1 7482   5.859   2.424   0.614 -1.4226 -1.2618 -0.5030
 2506TIP3    H2 7483   5.733   2.496   0.571 -0.6622  1.6500  1.8322
 2507TIP3   OH2 7484   4.425   1.029   3.298 -0.2171  0.3281  0.5591
 2507TIP3    H1 7485   4.346   0.996   3.342 -1.1672 -1.6342 -2.3377
 2507TIP3    H2 7486   4.393   1.101   3.243  0.2974  0.4919  0.4717
 2508TIP3   OH2 7487   2.834   2.162   2.253  0.1730 -0.2012 -0.7709
 2508TIP3    H1 7488   2.816   2.242   2.203 -0.8808  0.2424  0.2516
 2508TIP3    H2 7489   2.809   2.091   2.194 -0.2891  0.2801 -1.1701
 2509TIP3   OH2 7490   2.895   1.390   2.185 -0.3205 -0.1556  0.0163
 2509TIP3    H1 7491   2.871   1.342   2.264 -1.9621  1.0313  0.2813
 2509TIP3    H2 7492   2.881   1.328   2.114  0.1115 -0.8800  0.5433
 2510TIP3   OH2 7493   0.304   3.856   0.550 -0.3453  0.0371 -0.1372
 2510TIP3    H1 7494   0.393   3.820   0.557  0.1089  1.2445  0.5763
 2510TIP3    H2 7495   0.255   3.789   0.503  0.6910 -1.0997  0.3436
 2511TIP3   OH2 7496   1.740   4.366   2.503  0.2570  0.2528 -0.4637
 2511TIP3    H1 7497   1.724   4.292   2.444 -1.7479  0.1129  0.2106
 2511TIP3    H2 7498   1.744   4.442   2.445 -1.7874  0.1316 -0.8160
 2512TIP3   OH2 7499   4.856   5.029   4.970  0.3293 -0.0062  0.0272
 2512TIP3    H1 7500   4.936   5.048   5.018 -0.7349 -0.2396  2.0050
 2512TIP3    H2 7501   4.846   5.101   4.908  0.7629  1.3779  1.5166
 2513TIP3   OH2 7502   1.429   2.802   2.877  0.0673  0.6068 -0.0648
 2513TIP3    H1 7503   1.462   2.755   2.954  0.5944  1.8082  0.4655
 2513TIP3    H2 7504   1.497   2.790   2.811 -0.5047 -0.6469 -0.4589
 2514TIP3   OH2 7505   0.559   1.748   3.444  0.1021 -0.5084  0.2394
 2514TIP3    H1 7506   0.614   1.677   3.413 -3.5947 -2.9871 -1.3739
 2514TIP3    H2 7507   0.545   1.804   3.367  1.5915  1.0928  1.0640
 2515TIP3   OH2 7508   3.580   0.778   5.246 -0.1663  0.1735 -0.1551
 2515TIP3    H1 7509   3.634   0.821   5.313  0.2833  0.3710 -0.6406
 2515TIP3    H2 7510   3.513   0.732   5.296  0.9481 -0.7867  0.5033
 2516TIP3   OH2 7511   3.192   3.179   0.768  0.2096 -0.2646 -0.1547
 2516TIP3    H1 7512   3.110   3.131   0.763  0.2161 -0.3677  0.7042
 2516TIP3    H2 7513   3.237   3.143   0.844  0.2561  1.0080  0.4513
 2517TIP3   OH2 7514   6.480   5.403   4.852  0.2709 -0.4872 -0.8215
 2517TIP3    H1 7515   6.551   5.462   4.829 -0.2401  0.3114 -0.3998
 2517TIP3    H2 7516   6.522   5.332   4.901  0.6391  0.5601  0.4375
 2518TIP3   OH2 7517   6.222   5.740   0.849  0.0406  0.1437  0.6229
 2518TIP3    H1 7518   6.246   5.684   0.775 -0.8435  1.3004 -0.5711
 2518TIP3    H2 7519   6.230   5.829   0.816 -0.7695  0.6795  1.7956
 2519TIP3   OH2 7520   5.525   5.115   4.064 -0.3608 -0.3844  0.1460
 2519TIP3    H1 7521   5.549   5.051   3.998 -0.8140  0.0706 -0.4676
 2519TIP3    H2 7522   5.462   5.070   4.120 -0.8198 -0.4151 -0.3938
 2520TIP3   OH2 7523   1.810   4.608   2.373 -0.4824 -0.3541  0.0063
 2520TIP3    H1 7524   1.875   4.617   2.443  1.4563 -0.0842 -1.7433
 2520TIP3    H2 7525   1.858   4.570   2.300 -1.8739  1.3381 -1.9048
 2521TIP3   OH2 7526   3.616   4.915   4.561 -0.2050  0.5364 -0.6064
 2521TIP3    H1 7527   3.584   4.828   4.538  0.6932 -0.2154  0.8353
 2521TIP3    H2 7528   3.545   4.974   4.535 -0.9924 -0.6555 -1.2476
 2522TIP3   OH2 7529   5.388   5.247   0.020  0.0657 -0.1345  0.4537
 2522TIP3    H1 7530   5.332   5.318  -0.011  0.0714 -0.6299 -0.7381
 2522TIP3    H2 7531   5.476   5.272  -0.008  0.1911 -0.2298  0.7514
 2523TIP3   OH2 7532   2.548   6.084   1.079 -0.4279  0.3232 -0.5987
 2523TIP3    H1 7533   2.616   6.064   1.015 -0.7535 -1.4927 -0.4490
 2523TIP3    H2 7534   2.470   6.041   1.044 -0.3239 -1.8414  1.5767
 2524TIP3   OH2 7535   5.662   3.589   3.832  0.2521 -0.1278 -0.6524
 2524TIP3    H1 7536   5.751   3.580   3.799  0.2585  2.6573 -1.6834
 2524TIP3    H2 7537   5.617   3.510   3.801  1.6125 -0.1572 -2.7487
 2525TIP3   OH2 7538   4.284   2.105   0.055 -0.6236  0.3788  0.2853
 2525TIP3    H1 7539   4.293   2.147   0.140  0.7204  1.7049 -0.4670
 2525TIP3    H2 7540   4.353   2.144   0.001 -0.6089 -1.3566 -1.0531
 2526TIP3   OH2 7541   4.659   0.282   1.175 -0.7065  0.0174 -0.5605
 2526TIP3    H1 7542   4.602   0.235   1.235 -0.2004  0.0278 -0.0592
 2526TIP3    H2 7543   4.663   0.226   1.097  1.0683 -1.5879  0.5709
 2527TIP3   OH2 7544   2.002   0.897   5.765 -0.1805  0.2398 -0.1754
 2527TIP3    H1 7545   2.065   0.937   5.826 -0.1498  0.2861 -0.2379
 2527TIP3    H2 7546   2.049   0.822   5.730 -0.5853 -0.4346  0.6843
 2528TIP3   OH2 7547   3.536   0.288   2.458 -0.4210  0.2226  0.6784
 2528TIP3    H1 7548   3.587   0.238   2.521 -1.3139 -0.0116  1.2324
 2528TIP3    H2 7549   3.445   0.271   2.481 -0.7657  0.5089 -0.3814
 2529TIP3   OH2 7550   6.591   4.104   1.480  0.1626  0.2297  0.1029
 2529TIP3    H1 7551   6.516   4.070   1.530  1.1196 -2.1031  0.0878
 2529TIP3    H2 7552   6.641   4.155   1.543 -0.2047 -0.2056  0.7586
 2530TIP3   OH2 7553   6.301   3.169   3.190 -0.3461 -0.2954  0.7185
 2530TIP3    H1 7554   6.257   3.089   3.220  1.4550 -1.1578  1.2217
 2530TIP3    H2 7555   6.344   3.144   3.108 -1.9908  0.9702 -0.6216
 2531TIP3   OH2 7556   1.204   2.034   2.312 -0.1577  0.4773 -0.1980
 2531TIP3    H1 7557   1.128   2.021   2.255 -0.4094 -0.5212  0.3472
 2531TIP3    H2 7558   1.238   1.946   2.328  1.1007  0.9173 -0.4009
 2532TIP3   OH2 7559   0.968   5.078   2.953 -0.6258 -0.7159 -0.0011
 2532TIP3    H1 7560   1.013   5.019   2.894 -0.6828 -0.7268 -0.0335
 2532TIP3    H2 7561   0.882   5.039   2.966  0.0874 -1.8157  1.7374
 2533TIP3   OH2 7562   3.909   3.184   0.027 -0.0790 -0.4884 -0.0662
 2533TIP3    H1 7563   3.848   3.147   0.090 -0.4689 -1.5123 -1.0183
 2533TIP3    H2 7564   3.960   3.109  -0.005 -2.1161 -0.6835 -3.4123
 2534TIP3   OH2 7565   0.812   3.596   1.110  0.4494 -0.0577  0.2492
 2534TIP3    H1 7566   0.824   3.665   1.043 -1.5981 -0.3886 -0.5525
 2534TIP3    H2 7567   0.758   3.638   1.177 -0.3406 -0.6850  0.0244
 2535TIP3   OH2 7568   5.920   5.068   4.923  0.1595 -0.5255  0.4976
 2535TIP3    H1 7569   5.993   5.035   4.871  0.9301 -0.6903  1.6422
 2535TIP3    H2 7570   5.911   5.005   4.995  0.7441  0.9557  1.9393
 2536TIP3   OH2 7571   3.269   1.989   0.232  0.8614  0.0983 -0.0781
 2536TIP3    H1 7572   3.347   1.939   0.256 -0.5978 -0.9421  2.8822
 2536TIP3    H2 7573   3.206   1.924   0.202  0.0360  0.5013  0.7257
 2537TIP3   OH2 7574   4.956   5.670   1.766 -0.6258 -0.4999  0.4659
 2537TIP3    H1 7575   4.961   5.645   1.674 -0.9424 -0.8053  0.5316
 2537TIP3    H2 7576   4.985   5.592   1.814  2.2706  0.5073  0.5516
 2538TIP3   OH2 7577   5.453   1.609   1.740  0.5409 -0.1548 -0.5400
 2538TIP3    H1 7578   5.368   1.651   1.754  0.4071 -0.8094  0.8460
 2538TIP3    H2 7579   5.471   1.621   1.647 -0.8385  0.4233 -0.7577
 2539TIP3   OH2 7580   4.047   3.664   5.417  0.6563  0.6280 -0.0519
 2539TIP3    H1 7581   4.043   3.699   5.328 -2.0760  0.0091 -0.2582
 2539TIP3    H2 7582   3.983   3.714   5.466  0.7727 -0.2921  1.0939
 2540TIP3   OH2 7583   3.751   2.183   0.234 -0.0740  0.2041  0.6661
 2540TIP3    H1 7584   3.727   2.208   0.323 -0.4936  1.4299  0.2340
 2540TIP3    H2 7585   3.686   2.227   0.178  0.0918 -0.6563 -0.2402
 2541TIP3   OH2 7586   3.557   1.465   4.067 -0.2590  0.2008  0.2627
 2541TIP3    H1 7587   3.646   1.432   4.054 -0.7574 -0.2833 -2.3742
 2541TIP3    H2 7588   3.553   1.486   4.161  3.4158  2.6081  0.0737
 2542TIP3   OH2 7589   3.346   2.316   2.072 -1.0949  0.5995  0.5979
 2542TIP3    H1 7590   3.255   2.289   2.058 -1.1787  1.1158  0.1224
 2542TIP3    H2 7591   3.345   2.360   2.156 -1.3277  0.7895  0.4981
 2543TIP3   OH2 7592   0.991   0.945   4.923 -0.6819 -0.2305  0.3564
 2543TIP3    H1 7593   0.895   0.949   4.926 -0.6586  0.0133  1.8882
 2543TIP3    H2 7594   1.018   1.037   4.924 -0.4354 -0.3029  0.3907
 2544TIP3   OH2 7595   3.461   0.316  -0.015  0.1328 -0.0659  0.0075
 2544TIP3    H1 7596   3.461   0.404  -0.051 -0.8631  0.4989  1.3069
 2544TIP3    H2 7597   3.452   0.328   0.079 -0.7641 -1.5633  0.1523
 2545TIP3   OH2 7598   6.336   2.933   5.308  0.6387  0.0463  0.1130
 2545TIP3    H1 7599   6.385   2.868   5.258  0.4040 -0.3518  0.3943
 2545TIP3    H2 7600   6.315   2.889   5.390 -0.0672  0.2587  0.0536
 2546TIP3   OH2 7601   1.695   1.701   4.741 -0.4558  0.3937  0.0017
 2546TIP3    H1 7602   1.717   1.747   4.660 -1.1930 -1.1047 -1.0784
 2546TIP3    H2 7603   1.623   1.752   4.778  0.1400  1.3108 -0.0526
 2547TIP3   OH2 7604   5.953   4.089   0.631  0.2655  0.4002  0.0864
 2547TIP3    H1 7605   6.035   4.073   0.678  0.0386 -0.2174  0.2903
 2547TIP3    H2 7606   5.971   4.164   0.575  1.6043 -0.8935 -1.3393
 2548TIP3   OH2 7607   4.039   1.445   5.415  0.6038  0.4571 -0.2340
 2548TIP3    H1 7608   3.991   1.362   5.424 -0.2388  1.0337  0.7227
 2548TIP3    H2 7609   4.130   1.421   5.430  0.5890 -0.5648 -1.5382
 2549TIP3   OH2 7610   4.685   2.781   2.333  0.0255  0.2060  0.7110
 2549TIP3    H1 7611   4.677   2.710   2.398 -0.9210  0.6535  1.1028
 2549TIP3    H2 7612   4.671   2.738   2.249  0.9132 -0.3228  0.8197
 2550TIP3   OH2 7613   6.091   4.314   3.678 -0.2126  0.6355 -0.2966
 2550TIP3    H1 7614   6.117   4.382   3.739  1.9809 -0.4916  0.1191
 2550TIP3    H2 7615   6.167   4.255   3.673 -1.6870 -1.3161 -1.2768
 2551TIP3   OH2 7616   0.378   2.043   0.954  0.8293  0.1753  0.0358
 2551TIP3    H1 7617   0.299   2.058   1.006 -0.5153 -0.6204 -1.6669
 2551TIP3    H2 7618   0.415   2.130   0.940 -1.6791  1.0573 -1.9552
 2552TIP3   OH2 7619   6.942   4.327   1.468  0.4387  0.0130 -0.3179
 2552TIP3    H1 7620   6.917   4.393   1.532 -2.8827 -1.0310 -0.3587
 2552TIP3    H2 7621   7.019   4.284   1.506 -0.0692  0.9224  1.8685
 2553TIP3   OH2 7622   5.667   5.951   0.278  0.1860 -0.3432 -0.2245
 2553TIP3    H1 7623   5.742   5.892   0.269  1.0280  0.6400  0.2479
 2553TIP3    H2 7624   5.609   5.905   0.339  0.6822 -0.8322 -0.1091
 2554TIP3   OH2 7625   6.689   0.740   4.193  0.3514  0.1456  0.5454
 2554TIP3    H1 7626   6.747   0.664   4.205 -0.1836 -0.4854 -0.6717
 2554TIP3    H2 7627   6.747   0.816   4.205  0.7877 -0.4097  2.2905
 2555TIP3   OH2 7628   4.884   6.005   1.222  0.2567  0.1550  0.5207
 2555TIP3    H1 7629   4.942   5.988   1.296  0.9470  2.2671  0.5167
 2555TIP3    H2 7630   4.943   6.020   1.148 -0.3891 -0.2971 -0.0983
 2556TIP3   OH2 7631   2.295   2.606   1.352  0.4503  0.0700 -0.4195
 2556TIP3    H1 7632   2.364   2.615   1.287  0.0489  1.7122 -0.6587
 2556TIP3    H2 7633   2.335   2.553   1.422  2.4042  1.9567  0.0055
 2557TIP3   OH2 7634   5.017   0.135   5.617 -0.2025  0.3667  0.1240
 2557TIP3    H1 7635   4.992   0.133   5.525 -1.7388 -0.0635  0.5152
 2557TIP3    H2 7636   4.935   0.152   5.664  0.6071  0.9272  1.3915
 2558TIP3   OH2 7637   1.532   2.248   3.696 -0.0725  1.0725  0.5087
 2558TIP3    H1 7638   1.490   2.163   3.681 -0.5380  1.0500  1.7741
 2558TIP3    H2 7639   1.624   2.235   3.673 -0.3485  0.5348 -0.3216
 2559TIP3   OH2 7640   1.662   4.268   0.244  0.4994  0.2914 -0.8080
 2559TIP3    H1 7641   1.677   4.295   0.335 -0.1048 -1.0279 -0.2776
 2559TIP3    H2 7642   1.567   4.275   0.232  0.0925 -2.6255 -0.1998
 2560TIP3   OH2 7643   3.658   2.182   2.949 -0.0540 -0.1694 -0.3014
 2560TIP3    H1 7644   3.681   2.142   3.033 -1.5887 -1.1091 -0.2761
 2560TIP3    H2 7645   3.728   2.157   2.889  0.8826  0.2301  0.6072
 2561TIP3   OH2 7646   7.009   3.422   5.326  0.1472  0.1159  0.0784
 2561TIP3    H1 7647   7.031   3.515   5.331  1.5357 -0.1370 -0.8380
 2561TIP3    H2 7648   7.063   3.389   5.254 -0.6199 -1.3214  0.1433
 2562TIP3   OH2 7649   4.017   2.448   5.502  0.7030  0.8064 -0.1738
 2562TIP3    H1 7650   4.024   2.543   5.514  1.3932  0.6252  1.0813
 2562TIP3    H2 7651   4.104   2.422   5.472 -0.2676  0.8928 -3.4496
 2563TIP3   OH2 7652   4.925   1.179   2.679  0.6470  0.4428 -0.3288
 2563TIP3    H1 7653   5.000   1.165   2.621  0.7567 -1.4630  0.2076
 2563TIP3    H2 7654   4.849   1.171   2.622  0.7898  2.4308 -0.8840
 2564TIP3   OH2 7655   4.583   6.634   1.642  0.0026 -0.5048  0.5053
 2564TIP3    H1 7656   4.626   6.711   1.604 -0.3618  0.1705  1.4267
 2564TIP3    H2 7657   4.493   6.663   1.660 -0.2432 -1.2592  0.5347
 2565TIP3   OH2 7658   5.694   5.115   1.228  0.4278  0.0699  0.2597
 2565TIP3    H1 7659   5.700   5.152   1.316  0.8353  1.4301 -0.3188
 2565TIP3    H2 7660   5.768   5.054   1.222 -1.0993 -2.0520  1.7293
 2566TIP3   OH2 7661   0.283   3.536   5.257 -0.1786 -0.8790  0.2300
 2566TIP3    H1 7662   0.219   3.558   5.325 -0.4762  1.0484 -0.6097
 2566TIP3    H2 7663   0.368   3.546   5.300 -0.3788 -0.8212  0.6155
 2567TIP3   OH2 7664   6.923   1.789   2.337 -0.6349  0.9293  0.6899
 2567TIP3    H1 7665   6.927   1.703   2.295  0.3752  0.0154  2.5283
 2567TIP3    H2 7666   6.914   1.850   2.265  1.4265 -0.5092 -0.9097
 2568TIP3   OH2 7667   1.552   3.592   0.222  1.0343  0.0416  0.4035
 2568TIP3    H1 7668   1.520   3.538   0.295 -0.5957  2.6511  1.8118
 2568TIP3    H2 7669   1.643   3.609   0.243  0.4342  1.2774  2.3080
 2569TIP3   OH2 7670   2.763   2.135   5.583  0.0581 -0.0239  0.1868
 2569TIP3    H1 7671   2.840   2.097   5.541  0.8513  0.0158  1.5521
 2569TIP3    H2 7672   2.705   2.158   5.510  1.8201  1.0052 -0.9683
 2570TIP3   OH2 7673   6.564   2.352   5.513 -0.1042 -0.1989  0.2055
 2570TIP3    H1 7674   6.482   2.402   5.520  0.1918  0.3271 -0.0413
 2570TIP3    H2 7675   6.552   2.296   5.436  0.0422  0.4009 -0.2584
 2571TIP3   OH2 7676   4.696   5.533   3.947 -0.5167  0.4141  0.1138
 2571TIP3    H1 7677   4.752   5.458   3.965 -0.0772  0.7181  0.0336
 2571TIP3    H2 7678   4.606   5.498   3.950 -0.4070  0.2158  1.6705
 2572TIP3   OH2 7679   2.586   1.377   0.440 -0.3862  0.3351  0.3323
 2572TIP3    H1 7680   2.579   1.289   0.403 -0.7434 -0.1357  1.4697
 2572TIP3    H2 7681   2.517   1.427   0.395  0.0619  0.1451 -0.5837
 2573TIP3   OH2 7682   1.218   0.136   2.522  0.4084  0.0800 -0.3267
 2573TIP3    H1 7683   1.226   0.219   2.475  0.4835 -0.8232 -2.0021
 2573TIP3    H2 7684   1.168   0.080   2.463  2.6983 -1.9284 -0.5509
 2574TIP3   OH2 7685   5.557   1.177   0.785  0.2345 -0.1570  0.9591
 2574TIP3    H1 7686   5.576   1.243   0.851 -0.3439  0.5469  0.4364
 2574TIP3    H2 7687   5.496   1.117   0.828 -0.5327  0.5776  0.9183
 2575TIP3   OH2 7688   3.208   3.383   2.188  0.4576  0.4347  0.1662
 2575TIP3    H1 7689   3.244   3.427   2.265 -1.5770  0.6267  1.0815
 2575TIP3    H2 7690   3.126   3.344   2.219  0.1709 -0.5039 -1.6347
 2576TIP3   OH2 7691   0.870   1.123   4.125 -0.1320 -0.0975 -0.3200
 2576TIP3    H1 7692   0.868   1.136   4.031 -0.8402 -0.5930 -0.3806
 2576TIP3    H2 7693   0.927   1.047   4.138 -1.3820 -1.0977 -0.4954
 2577TIP3   OH2 7694   0.866   2.965   4.207  0.5274  0.5056 -0.7880
 2577TIP3    H1 7695   0.898   2.875   4.210 -1.7811 -0.3846 -0.7731
 2577TIP3    H2 7696   0.928   3.010   4.150  0.2005 -1.8365 -3.2378
 2578TIP3   OH2 7697   6.597   5.828   1.129 -0.4510  0.0048 -0.0525
 2578TIP3    H1 7698   6.504   5.849   1.143 -0.6665  0.0319 -1.4148
 2578TIP3    H2 7699   6.626   5.891   1.064  0.3784 -0.3931 -0.0783
 2579TIP3   OH2 7700   1.814   4.469   5.522  0.2930 -0.0409  0.1268
 2579TIP3    H1 7701   1.816   4.518   5.604  0.2959  0.6965 -0.3092
 2579TIP3    H2 7702   1.874   4.396   5.537  2.4872  1.6119 -0.1459
 2580TIP3   OH2 7703   5.564   4.000   1.396 -0.1381 -0.0605  0.1190
 2580TIP3    H1 7704   5.524   3.921   1.359  2.9171 -1.4705 -0.4501
 2580TIP3    H2 7705   5.594   4.049   1.319  3.8225 -1.6833  0.4284
 2581TIP3   OH2 7706   4.752   3.005   3.227  0.1513 -0.3220 -0.1419
 2581TIP3    H1 7707   4.799   2.949   3.165 -0.0463  0.2229 -0.7924
 2581TIP3    H2 7708   4.799   2.994   3.310  0.0903 -1.4868 -0.2382
 2582TIP3   OH2 7709   5.078   5.551   1.094  0.2595 -0.3114  0.7965
 2582TIP3    H1 7710   5.111   5.641   1.083  0.2580 -0.2472  1.2888
 2582TIP3    H2 7711   5.089   5.511   1.008 -1.0923  0.5958  0.1722
 2583TIP3   OH2 7712   0.422   4.565   5.141  0.1579 -0.7262 -0.1417
 2583TIP3    H1 7713   0.492   4.499   5.142  0.1396 -0.7382  0.2568
 2583TIP3    H2 7714   0.403   4.578   5.048  2.1645  0.8501 -0.3956
 2584TIP3   OH2 7715   2.508   1.514   2.511 -0.0488  0.3619  0.2587
 2584TIP3    H1 7716   2.560   1.582   2.468  0.0016  0.1815  0.0334
 2584TIP3    H2 7717   2.447   1.562   2.568  1.6749  0.5338  2.0657
 2585TIP3   OH2 7718   6.629   2.143   3.129 -0.5667  0.0543 -0.0355
 2585TIP3    H1 7719   6.646   2.056   3.094  1.0197  0.1598  0.3826
 2585TIP3    H2 7720   6.633   2.200   3.052 -1.0471 -0.1680 -0.2292
 2586TIP3   OH2 7721   6.061   1.125   5.273  0.1739 -0.0236  0.3989
 2586TIP3    H1 7722   5.986   1.092   5.224 -0.0984 -0.8159  1.3243
 2586TIP3    H2 7723   6.059   1.219   5.259  0.5841 -0.2691 -1.7797
 2587TIP3   OH2 7724   1.072   0.187   1.873  0.4249  0.3290 -0.0080
 2587TIP3    H1 7725   1.026   0.105   1.857  1.0899 -0.3192  1.2912
 2587TIP3    H2 7726   1.013   0.254   1.838 -0.0563 -0.6957 -1.2238
 2588TIP3   OH2 7727   5.792   3.660   2.371  0.0757 -0.1122 -0.0003
 2588TIP3    H1 7728   5.799   3.735   2.430  1.4753  0.3717 -0.7105
 2588TIP3    H2 7729   5.733   3.599   2.415 -0.3451  1.0006  1.0343
 2589TIP3   OH2 7730   7.060   5.596   3.240 -0.0862  0.5326  0.2468
 2589TIP3    H1 7731   7.154   5.614   3.230 -0.0990  0.9377  0.8011
 2589TIP3    H2 7732   7.041   5.529   3.174  0.3248  1.3526 -0.7413
 2590TIP3   OH2 7733   1.113   0.186   3.010 -0.3058  0.3105 -0.2997
 2590TIP3    H1 7734   1.185   0.196   2.947  0.0283  0.9687  0.1703
 2590TIP3    H2 7735   1.043   0.145   2.960  0.3573 -0.2412 -0.8011
 2591TIP3   OH2 7736   2.427   1.139   2.051 -0.3704  0.0267 -0.2343
 2591TIP3    H1 7737   2.356   1.098   2.100  0.2758 -0.3363  0.4120
 2591TIP3    H2 7738   2.478   1.066   2.017 -0.2105  0.2896 -0.5602
 2592TIP3   OH2 7739   4.703   5.749   2.455  0.1018 -0.1155  0.2941
 2592TIP3    H1 7740   4.639   5.717   2.391 -0.4226 -1.4454  1.4308
 2592TIP3    H2 7741   4.760   5.673   2.472  1.1648  0.6569  0.3095
 2593TIP3   OH2 7742   3.828   4.203   1.766  0.0213  0.3638  0.6200
 2593TIP3    H1 7743   3.898   4.262   1.736  2.6659 -2.4832  0.7148
 2593TIP3    H2 7744   3.755   4.221   1.707  1.7887  1.5897 -1.3580
 2594TIP3   OH2 7745   0.578   3.231   2.841 -0.1547 -0.1034  0.1676
 2594TIP3    H1 7746   0.595   3.144   2.878  2.4655 -0.6374 -2.0229
 2594TIP3    H2 7747   0.630   3.291   2.896  0.3829 -0.3216 -0.1013
 2595TIP3   OH2 7748   6.935   6.597   0.338 -0.2926  0.5952  0.0011
 2595TIP3    H1 7749   7.008   6.536   0.325 -0.2628  0.7686 -0.6808
 2595TIP3    H2 7750   6.883   6.557   0.408  0.1634  0.1970  0.1208
 2596TIP3   OH2 7751   5.427   4.084   2.149  0.1747  0.4659 -0.1944
 2596TIP3    H1 7752   5.459   4.028   2.220 -0.3942 -0.9509 -1.0044
 2596TIP3    H2 7753   5.410   4.023   2.077 -1.5077  1.5433 -0.7653
 2597TIP3   OH2 7754   3.020   6.712   4.466 -0.2460  0.0994 -0.0649
 2597TIP3    H1 7755   3.092   6.773   4.449  1.9229 -1.5975  2.2401
 2597TIP3    H2 7756   2.941   6.765   4.458  1.2673  2.2883 -1.7972
 2598TIP3   OH2 7757   0.732   3.221   2.093  0.1919  0.3698  0.4142
 2598TIP3    H1 7758   0.687   3.145   2.129  1.1720 -0.6408 -0.4381
 2598TIP3    H2 7759   0.823   3.210   2.119  0.4196  1.0473 -0.0534
 2599TIP3   OH2 7760   1.193   2.932   4.217  0.0266  0.1844  0.1414
 2599TIP3    H1 7761   1.136   2.948   4.142  1.0247 -0.1702 -0.7236
 2599TIP3    H2 7762   1.236   3.016   4.233 -0.9710  0.5513  1.0271
 2600TIP3   OH2 7763   2.526   4.929   1.370  0.2229 -0.4282 -0.0799
 2600TIP3    H1 7764   2.571   5.008   1.342 -0.0248  0.2859  1.4538
 2600TIP3    H2 7765   2.524   4.873   1.292 -0.7460  1.5760 -1.5697
 2601TIP3   OH2 7766   2.449   4.870   0.179 -0.5392  0.1289  0.2390
 2601TIP3    H1 7767   2.383   4.890   0.113  1.1486  1.5478 -1.1201
 2601TIP3    H2 7768   2.489   4.788   0.149  0.8464  1.2414 -1.0925
 2602TIP3   OH2 7769   5.416   5.814   3.918  0.4670 -0.3467 -0.3013
 2602TIP3    H1 7770   5.501   5.772   3.912  0.1557 -1.0752  0.2146
 2602TIP3    H2 7771   5.407   5.863   3.836  0.9594 -1.0706 -0.7982
 2603TIP3   OH2 7772   5.686   4.263   0.542  0.1681  0.1374 -0.2699
 2603TIP3    H1 7773   5.771   4.304   0.560  0.6183 -1.2528  0.9764
 2603TIP3    H2 7774   5.642   4.324   0.483  1.5606  1.4587 -0.0053
 2604TIP3   OH2 7775   0.305   0.879   0.335 -0.0313  0.9310 -0.2432
 2604TIP3    H1 7776   0.364   0.908   0.265  1.6290 -1.6690 -0.0284
 2604TIP3    H2 7777   0.323   0.939   0.408  2.5714  0.0945 -0.1142
 2605TIP3   OH2 7778   6.624   2.623   3.613  0.6519 -0.0428 -0.7213
 2605TIP3    H1 7779   6.637   2.712   3.645  1.4061 -0.6580  0.7929
 2605TIP3    H2 7780   6.713   2.591   3.595  0.3663 -0.3859 -1.6085
 2606TIP3   OH2 7781   3.402   4.983   1.535  0.1849 -0.8878  0.4107
 2606TIP3    H1 7782   3.385   4.893   1.504  0.1695 -1.0881  0.9959
 2606TIP3    H2 7783   3.448   4.971   1.618 -0.3378 -0.3533  0.7830
 2607TIP3   OH2 7784   2.275   2.240   2.993 -0.6703 -0.0096 -0.6365
 2607TIP3    H1 7785   2.310   2.210   3.077  0.7262  1.9267 -0.4543
 2607TIP3    H2 7786   2.214   2.172   2.967  1.6824 -2.5921  0.0920
 2608TIP3   OH2 7787   3.095   0.040   0.479  0.0756  0.4413 -0.2214
 2608TIP3    H1 7788   3.114  -0.005   0.397  2.4620 -1.3230  1.1548
 2608TIP3    H2 7789   3.139   0.125   0.471  1.8890 -0.4379 -0.1759
 2609TIP3   OH2 7790   6.574   5.236   1.855  0.1246 -0.1579  0.6062
 2609TIP3    H1 7791   6.594   5.198   1.770  0.5465  0.5708  0.3709
 2609TIP3    H2 7792   6.480   5.254   1.852  0.4417  1.5413 -0.4173
 2610TIP3   OH2 7793   4.043   1.798   3.343 -0.3792 -0.7337  0.1771
 2610TIP3    H1 7794   4.047   1.873   3.284  1.1968 -0.5331  0.4877
 2610TIP3    H2 7795   3.990   1.829   3.417 -0.6840 -0.3188 -0.2106
 2611TIP3   OH2 7796   2.071   1.956   2.869 -0.2745 -0.4591  0.0349
 2611TIP3    H1 7797   2.120   1.970   2.787 -0.7307 -1.4154 -0.4160
 2611TIP3    H2 7798   1.980   1.973   2.846 -0.1406  2.0392  1.0510
 2612TIP3   OH2 7799   2.406   6.548   4.194 -0.3472 -0.3253 -0.2168
 2612TIP3    H1 7800   2.380   6.503   4.113 -0.2594  0.0820 -0.4737
 2612TIP3    H2 7801   2.366   6.634   4.188  0.4953  0.0754 -0.3060
 2613TIP3   OH2 7802   4.691   3.355   4.290  0.2157 -0.0304  0.3148
 2613TIP3    H1 7803   4.761   3.335   4.227 -1.3281 -0.5050 -1.3185
 2613TIP3    H2 7804   4.632   3.414   4.243 -0.3854  0.5645  1.7484
 2614TIP3   OH2 7805   1.992   5.415   3.165  0.1296  0.0949  0.0454
 2614TIP3    H1 7806   1.927   5.458   3.221  0.8156  1.1134  0.0749
 2614TIP3    H2 7807   1.966   5.439   3.076 -0.4942 -0.8693 -0.0442
 2615TIP3   OH2 7808   6.553   5.828   5.748 -0.5010  0.7664 -0.1900
 2615TIP3    H1 7809   6.640   5.848   5.712  0.2733 -0.3117  0.9673
 2615TIP3    H2 7810   6.499   5.811   5.672  1.0880 -1.4947 -0.9153
 2616TIP3   OH2 7811   4.253   4.584   1.130  0.4983  0.5602 -0.4553
 2616TIP3    H1 7812   4.287   4.626   1.051 -0.3393  2.0125 -0.0734
 2616TIP3    H2 7813   4.270   4.491   1.117 -0.0144  0.7155 -2.5518
 2617TIP3   OH2 7814   0.565   6.654   3.002  0.4925 -0.4206  0.0759
 2617TIP3    H1 7815   0.550   6.565   3.032  0.3475  0.1785  1.9314
 2617TIP3    H2 7816   0.503   6.666   2.930  1.1477 -2.0726 -0.8247
 2618TIP3   OH2 7817   5.871   5.204   0.172 -0.5449 -0.0889 -0.0449
 2618TIP3    H1 7818   5.795   5.255   0.201  2.2876  3.2778  2.1172
 2618TIP3    H2 7819   5.904   5.163   0.252  0.8126 -0.2076 -0.6470
 2619TIP3   OH2 7820   3.372   2.773   1.344  0.2061  0.5939  0.4711
 2619TIP3    H1 7821   3.415   2.854   1.371  0.7356  0.5872 -0.3143
 2619TIP3    H2 7822   3.441   2.708   1.343  0.2996  0.6671 -1.1622
 2620TIP3   OH2 7823   2.220   3.383   2.126 -0.5918  0.3324 -0.2130
 2620TIP3    H1 7824   2.235   3.450   2.060 -0.3789 -0.4599 -0.9837
 2620TIP3    H2 7825   2.282   3.403   2.196 -0.0076  0.5029 -0.7726
 2621TIP3   OH2 7826   3.521   1.589   0.566  0.0099 -0.4571 -0.2352
 2621TIP3    H1 7827   3.547   1.599   0.475  2.7633 -4.1526 -0.1120
 2621TIP3    H2 7828   3.437   1.544   0.562 -0.5221  0.5773 -0.9112
 2622TIP3   OH2 7829   6.458   1.962   1.652  0.4828 -0.3426  0.0912
 2622TIP3    H1 7830   6.429   1.872   1.667  1.7586 -0.4545  2.2826
 2622TIP3    H2 7831   6.554   1.956   1.648  0.6732  1.0415  1.5720
 2623TIP3   OH2 7832   3.775   0.521   5.390 -0.2011  0.2782  0.3200
 2623TIP3    H1 7833   3.759   0.434   5.354  2.4459 -0.1307 -0.0798
 2623TIP3    H2 7834   3.737   0.518   5.478  1.1617 -1.8715  0.9239
 2624TIP3   OH2 7835   0.396   0.641   1.059 -0.1979  0.3583 -0.1621
 2624TIP3    H1 7836   0.431   0.694   1.131  1.5208 -0.1167 -0.6219
 2624TIP3    H2 7837   0.382   0.703   0.988 -0.4084  0.5613  0.0529
 2625TIP3   OH2 7838   0.175   2.951   3.089  0.1177  0.2076 -0.2817
 2625TIP3    H1 7839   0.212   3.037   3.069  1.1039 -0.1464 -0.0389
 2625TIP3    H2 7840   0.251   2.894   3.099 -0.5293 -1.1452 -2.3154
 2626TIP3   OH2 7841   6.735   3.022   5.225 -0.4888 -0.0864 -0.2361
 2626TIP3    H1 7842   6.670   3.088   5.198  1.5113  1.8646 -0.5543
 2626TIP3    H2 7843   6.726   3.018   5.320 -2.5239 -1.4948 -0.4307
 2627TIP3   OH2 7844   2.620   1.040   2.413  0.5319 -0.2721  0.7251
 2627TIP3    H1 7845   2.708   1.021   2.446  0.4906 -0.5806  0.6632
 2627TIP3    H2 7846   2.629   1.124   2.369  1.1476 -0.9776 -0.5717
 2628TIP3   OH2 7847   0.980   5.708   2.719  0.0218  0.1879  0.0029
 2628TIP3    H1 7848   0.928   5.736   2.794 -0.1608 -0.6673  0.1990
 2628TIP3    H2 7849   0.979   5.613   2.722 -0.1023  0.1287 -1.1571
 2629TIP3   OH2 7850   1.371   2.088   2.928  0.4899  0.4007 -0.0867
 2629TIP3    H1 7851   1.298   2.028   2.946  2.1192 -1.3774  0.9597
 2629TIP3    H2 7852   1.406   2.058   2.844  1.0185  0.1707  0.2097
 2630TIP3   OH2 7853   5.914   1.861   0.866  0.4773  0.7060 -0.0653
 2630TIP3    H1 7854   5.949   1.773   0.861 -1.1719  0.0633 -1.3817
 2630TIP3    H2 7855   5.896   1.875   0.959 -1.0283 -1.1387 -0.0230
 2631TIP3   OH2 7856   0.287   5.296   1.305  0.7291 -0.5815 -0.2364
 2631TIP3    H1 7857   0.307   5.383   1.337 -1.3182 -0.2025  0.1398
 2631TIP3    H2 7858   0.273   5.243   1.383 -2.2887 -0.1427 -0.3771
 2632TIP3   OH2 7859   5.200   3.376   0.459  0.2901  0.0044 -0.1287
 2632TIP3    H1 7860   5.128   3.434   0.486  0.2739 -0.1359  0.1350
 2632TIP3    H2 7861   5.267   3.436   0.426  0.7944  0.2883  1.3352
 2633TIP3   OH2 7862   1.154   5.327   4.984 -0.0749  0.0167 -0.0102
 2633TIP3    H1 7863   1.217   5.353   4.917 -1.5151 -0.0238 -1.4547
 2633TIP3    H2 7864   1.145   5.232   4.973 -0.8408  0.1094 -0.2736
 2634TIP3   OH2 7865   2.538   6.458   1.849  0.1406  0.5376 -0.2200
 2634TIP3    H1 7866   2.610   6.454   1.786  0.6923 -1.6396  0.4542
 2634TIP3    H2 7867   2.581   6.451   1.934 -0.7767  0.5394  0.2500
 2635TIP3   OH2 7868   4.542   6.444   0.003  0.3028  0.2022  0.0161
 2635TIP3    H1 7869   4.547   6.477   0.093 -2.1991 -0.7969  0.6324
 2635TIP3    H2 7870   4.448   6.448  -0.018  0.4040 -2.4263 -1.3784
 2636TIP3   OH2 7871   6.945   0.489   1.836 -0.3191 -0.6075  0.1795
 2636TIP3    H1 7872   6.917   0.517   1.748 -0.9926  2.4991  1.2278
 2636TIP3    H2 7873   6.870   0.440   1.870 -1.0577  0.2483 -0.1526
 2637TIP3   OH2 7874   6.012   4.215   4.595 -0.2437  0.2148  0.2954
 2637TIP3    H1 7875   5.989   4.265   4.673 -0.6753 -0.3615  0.5536
 2637TIP3    H2 7876   6.029   4.280   4.528 -0.4417  0.7092  0.7211
 2638TIP3   OH2 7877   5.972   2.846   0.873  0.2349 -0.4523 -0.6825
 2638TIP3    H1 7878   6.062   2.879   0.871 -0.2398  1.1919  1.1812
 2638TIP3    H2 7879   5.924   2.905   0.816  0.2044 -0.9221 -1.1503
 2639TIP3   OH2 7880   7.088   3.040   2.791 -0.1121  0.2759  0.3263
 2639TIP3    H1 7881   7.035   3.031   2.712  1.5597 -0.9782 -0.7148
 2639TIP3    H2 7882   7.177   3.020   2.763  0.7739  1.2252  2.2418
 2640TIP3   OH2 7883   1.398   6.025   0.889  0.1558 -0.0946  0.4863
 2640TIP3    H1 7884   1.392   5.937   0.926  0.1295 -0.4677 -0.3853
 2640TIP3    H2 7885   1.488   6.032   0.858  0.2889  0.3608  0.9463
 2641TIP3   OH2 7886   4.812   5.309   4.362 -0.3353  0.1102  0.3615
 2641TIP3    H1 7887   4.833   5.248   4.291  0.1799 -0.6094  1.1178
 2641TIP3    H2 7888   4.876   5.380   4.351  0.1515 -0.3003  0.4661
 2642TIP3   OH2 7889   1.999   2.541   0.504  0.3801  0.3253  0.1934
 2642TIP3    H1 7890   2.095   2.540   0.508  0.4891 -0.8242 -1.5874
 2642TIP3    H2 7891   1.979   2.578   0.418 -0.8775  2.6077  1.3710
 2643TIP3   OH2 7892   1.590   4.722   5.154  0.0299  0.1178 -0.3034
 2643TIP3    H1 7893   1.600   4.795   5.092 -0.9457  0.9340  0.4656
 2643TIP3    H2 7894   1.514   4.746   5.207 -0.4990 -1.6191 -0.2250
 2644TIP3   OH2 7895   7.043   3.197   3.022  0.1865  0.5880  0.6898
 2644TIP3    H1 7896   7.059   3.127   2.959  0.7959  1.5209 -0.2237
 2644TIP3    H2 7897   7.098   3.173   3.097  0.7194  0.3000  0.2210
 2645TIP3   OH2 7898   7.116   4.409   0.317  0.2152  0.3615  0.1354
 2645TIP3    H1 7899   7.077   4.435   0.233 -1.3146  1.0208  1.0070
 2645TIP3    H2 7900   7.082   4.321   0.333  3.5363 -1.4589 -1.6834
 2646TIP3   OH2 7901   2.349   2.654   0.639  0.1383  0.1340  0.3911
 2646TIP3    H1 7902   2.311   2.625   0.556  0.0177 -2.3015  1.2157
 2646TIP3    H2 7903   2.413   2.721   0.614 -0.6902  0.2667 -1.5394
 2647TIP3   OH2 7904   0.643   4.898   0.677  0.4611  0.2338 -0.2613
 2647TIP3    H1 7905   0.687   4.813   0.679  3.1170  1.4780 -1.1333
 2647TIP3    H2 7906   0.634   4.921   0.770  0.1185 -0.7773 -0.0247
 2648TIP3   OH2 7907   1.752   6.668   4.207 -0.1840 -0.0590 -0.1540
 2648TIP3    H1 7908   1.725   6.602   4.270 -1.9276  0.4365 -0.3267
 2648TIP3    H2 7909   1.680   6.732   4.207  0.7494  1.0391 -1.1021
 2649TIP3   OH2 7910   5.026   2.424   4.730 -0.4229 -0.4542  0.6630
 2649TIP3    H1 7911   5.019   2.329   4.720  1.1320 -0.6651  1.3163
 2649TIP3    H2 7912   4.949   2.458   4.684 -1.9019 -2.0757  1.7989
 2650TIP3   OH2 7913   5.371   4.899   5.447  0.1081 -0.0006 -0.2387
 2650TIP3    H1 7914   5.303   4.917   5.512 -0.9272  0.4865 -1.4139
 2650TIP3    H2 7915   5.448   4.945   5.480  0.1068 -1.1124  1.4604
 2651TIP3   OH2 7916   2.703   6.116   0.153 -0.2801 -0.1749 -0.3864
 2651TIP3    H1 7917   2.675   6.207   0.166  0.7798  0.1883 -0.5552
 2651TIP3    H2 7918   2.643   6.065   0.208  0.1408  0.7702  1.0049
 2652TIP3   OH2 7919   3.423   2.345   0.402  0.1036  0.2016 -0.0425
 2652TIP3    H1 7920   3.328   2.354   0.402 -0.3647 -3.3406  0.5235
 2652TIP3    H2 7921   3.453   2.395   0.477 -1.5755 -0.3576  1.0370
 2653TIP3   OH2 7922   2.108   1.960   2.594  0.0012  0.2479  0.4710
 2653TIP3    H1 7923   2.078   1.913   2.517 -0.4446  0.5365  0.4637
 2653TIP3    H2 7924   2.062   2.044   2.590  0.1864  0.3720  0.9015
 2654TIP3   OH2 7925   1.426   3.607   1.331  0.0416  0.2088  0.0219
 2654TIP3    H1 7926   1.502   3.656   1.364  0.2229  0.8381 -1.2667
 2654TIP3    H2 7927   1.375   3.672   1.283 -0.3637 -0.6045 -0.6688
 2655TIP3   OH2 7928   5.134   3.786   0.578 -0.2190  0.0169 -0.0214
 2655TIP3    H1 7929   5.087   3.704   0.568  0.2351 -0.5282  1.8714
 2655TIP3    H2 7930   5.132   3.804   0.672 -0.5419  2.3270 -0.3882
 2656TIP3   OH2 7931   5.156   0.762   4.061 -0.7598 -0.4778  0.2875
 2656TIP3    H1 7932   5.182   0.681   4.105 -0.7329 -0.4404  0.3400
 2656TIP3    H2 7933   5.226   0.779   3.998  0.0091  0.3250  1.3269
 2657TIP3   OH2 7934   3.759   0.975   1.982 -0.1826 -0.2480  0.4235
 2657TIP3    H1 7935   3.790   1.008   2.066 -0.6294  2.4369 -0.3550
 2657TIP3    H2 7936   3.669   1.009   1.974 -0.9247 -2.1962 -0.2736
 2658TIP3   OH2 7937   4.435   4.909   1.290  0.1841  0.6266  0.3627
 2658TIP3    H1 7938   4.475   4.980   1.340  1.0438 -1.5915  3.1438
 2658TIP3    H2 7939   4.344   4.907   1.320  0.9924 -1.4957  3.1289
 2659TIP3   OH2 7940   0.036   0.476   3.393  0.3682 -0.0546 -0.5110
 2659TIP3    H1 7941   0.066   0.392   3.360  1.7892 -0.1340  0.9070
 2659TIP3    H2 7942  -0.049   0.457   3.432  1.3610 -1.1838  1.1856
 2660TIP3   OH2 7943   5.094   3.747   2.241 -0.5591  0.4840  0.5738
 2660TIP3    H1 7944   5.077   3.701   2.159  0.8885  0.5801  0.1797
 2660TIP3    H2 7945   5.014   3.738   2.292 -1.2276 -0.1867 -0.5672
 2661TIP3   OH2 7946   1.987   6.198   0.427 -0.5621 -0.2402  0.1696
 2661TIP3    H1 7947   1.940   6.119   0.454 -0.3409 -0.6012 -0.4754
 2661TIP3    H2 7948   1.975   6.259   0.500 -0.7216 -0.8732  0.6866
 2662TIP3   OH2 7949   2.491   3.248   0.026  0.0566  0.2989  0.3309
 2662TIP3    H1 7950   2.582   3.228   0.002  0.4209  0.6227  1.3990
 2662TIP3    H2 7951   2.468   3.324  -0.028 -0.2482 -0.9382 -1.3666
 2663TIP3   OH2 7952   4.234   2.601   3.709  0.1788 -0.0432  0.2301
 2663TIP3    H1 7953   4.293   2.668   3.741  1.1171 -0.1656 -1.1875
 2663TIP3    H2 7954   4.148   2.642   3.710  0.7306  1.1839 -0.5767
 2664TIP3   OH2 7955   1.803   4.277   1.448  0.7708  0.5529 -0.2455
 2664TIP3    H1 7956   1.743   4.318   1.386 -0.9507 -0.4459  0.6838
 2664TIP3    H2 7957   1.747   4.220   1.502  2.4989 -0.1290  0.9221
 2665TIP3   OH2 7958   3.294   4.420   0.973 -0.3117  0.3927  0.5727
 2665TIP3    H1 7959   3.363   4.484   0.961 -0.9412  0.9978  0.1152
 2665TIP3    H2 7960   3.304   4.390   1.063  1.1105 -0.2086  0.2386
 2666TIP3   OH2 7961   1.316   4.499   0.632  0.2453 -0.9273  0.1405
 2666TIP3    H1 7962   1.328   4.592   0.610  1.7301 -1.2393 -0.5092
 2666TIP3    H2 7963   1.231   4.477   0.595  0.9222 -0.4118 -1.8708
 2667TIP3   OH2 7964   4.657   1.464   0.292 -0.5334 -0.5602  0.1928
 2667TIP3    H1 7965   4.587   1.401   0.311 -1.6837  0.6571  0.1815
 2667TIP3    H2 7966   4.633   1.501   0.207  1.4617 -1.8322 -0.9958
 2668TIP3   OH2 7967   1.196   0.799   2.586  0.1889  0.0695 -0.2582
 2668TIP3    H1 7968   1.111   0.781   2.627  1.5129  0.3730  2.9162
 2668TIP3    H2 7969   1.240   0.714   2.586  0.3897  0.1728 -0.6341
 2669TIP3   OH2 7970   6.838   3.695   1.113  0.2440 -0.0204  0.5914
 2669TIP3    H1 7971   6.914   3.739   1.075  0.1341  0.0024  0.3979
 2669TIP3    H2 7972   6.854   3.696   1.207  0.4887 -0.0250  0.5499
 2670TIP3   OH2 7973   4.842   1.168   2.179 -0.1869  0.0634 -0.2262
 2670TIP3    H1 7974   4.814   1.077   2.187 -0.9869  0.3903  1.1004
 2670TIP3    H2 7975   4.912   1.167   2.114 -1.7112 -1.1532 -1.9387
 2671TIP3   OH2 7976   1.346   3.047   2.346 -0.4861  0.0325  0.0113
 2671TIP3    H1 7977   1.315   2.982   2.283 -2.3963  0.5940  0.2837
 2671TIP3    H2 7978   1.309   3.130   2.315 -0.7788  0.4495  1.3862
 2672TIP3   OH2 7979   6.239   1.129   3.943  0.0839  0.0041 -0.2827
 2672TIP3    H1 7980   6.322   1.089   3.971 -0.3527  0.9748  2.8249
 2672TIP3    H2 7981   6.262   1.183   3.868  2.6541  1.3858  1.3515
 2673TIP3   OH2 7982   1.733   4.842   5.624 -0.5676  0.0639 -0.0186
 2673TIP3    H1 7983   1.724   4.937   5.617 -0.5592  0.1411  0.8388
 2673TIP3    H2 7984   1.658   4.816   5.677 -1.5006 -0.6321 -1.6101
 2674TIP3   OH2 7985   6.874   5.626   1.356  0.0420 -0.2032 -0.3770
 2674TIP3    H1 7986   6.872   5.716   1.388 -2.0015  0.1241 -1.2444
 2674TIP3    H2 7987   6.957   5.619   1.309  0.3255  1.1591 -0.1214
 2675TIP3   OH2 7988   6.048   3.611   3.539  0.4381  0.3411  0.3715
 2675TIP3    H1 7989   5.996   3.642   3.464  0.2906  2.6226  1.3428
 2675TIP3    H2 7990   6.137   3.606   3.505  0.1848  0.1393 -0.2831
 2676TIP3   OH2 7991   5.619   4.905   4.433  0.1566  0.0991 -0.2588
 2676TIP3    H1 7992   5.534   4.859   4.437  0.7418 -1.1628 -1.6289
 2676TIP3    H2 7993   5.645   4.900   4.341  1.4583  0.9816  0.0401
 2677TIP3   OH2 7994   3.555   2.262   5.467  0.1990  0.1125 -0.3115
 2677TIP3    H1 7995   3.516   2.222   5.389  1.4318 -0.7293 -0.5322
 2677TIP3    H2 7996   3.531   2.354   5.462  1.6414  0.4485 -2.6349
 2678TIP3   OH2 7997   1.747   0.774   2.404 -0.0803 -0.1324 -0.0060
 2678TIP3    H1 7998   1.715   0.716   2.335  0.8077  0.2614 -0.7618
 2678TIP3    H2 7999   1.835   0.799   2.376  1.2854 -1.8213  2.3987
 2679TIP3   OH2 8000   4.641   0.395   0.786 -0.0039 -0.1607 -0.0633
 2679TIP3    H1 8001   4.699   0.470   0.783 -1.3891  0.9063 -2.4578
 2679TIP3    H2 8002   4.576   0.411   0.718 -1.4197 -2.6743  0.5527
 2680TIP3   OH2 8003   6.690   6.710   0.720  0.4656 -0.6151  0.2561
 2680TIP3    H1 8004   6.607   6.733   0.763  0.8857  1.8202 -0.0534
 2680TIP3    H2 8005   6.746   6.678   0.790  0.5976  1.7344  1.3085
 2681TIP3   OH2 8006   1.899   0.257   5.798  0.0455  0.7344  0.2966
 2681TIP3    H1 8007   1.961   0.263   5.871  2.0567 -0.2649 -1.2283
 2681TIP3    H2 8008   1.816   0.232   5.840  0.4186  2.7726  2.4834
 2682TIP3   OH2 8009   6.449   0.531   1.267 -0.4473 -0.4643 -0.1941
 2682TIP3    H1 8010   6.472   0.612   1.312  0.4768 -0.6898 -0.2358
 2682TIP3    H2 8011   6.533   0.490   1.246 -0.8945 -1.3516 -0.3238
 2683TIP3   OH2 8012   1.812   1.159   3.322 -0.2913  0.0264 -0.2167
 2683TIP3    H1 8013   1.866   1.138   3.246  1.5420 -2.4320  1.6152
 2683TIP3    H2 8014   1.730   1.112   3.307  0.0813 -0.4958 -0.6547
 2684TIP3   OH2 8015   5.585   4.920   1.922  0.3452  0.2451  0.8171
 2684TIP3    H1 8016   5.640   4.899   1.847  1.0691 -2.6596  2.0161
 2684TIP3    H2 8017   5.647   4.943   1.991 -0.1309  0.0594  1.3102
 2685TIP3   OH2 8018   6.819   1.230   0.226 -0.0013 -0.8361 -0.2225
 2685TIP3    H1 8019   6.784   1.280   0.301  0.0664 -0.9745 -0.0990
 2685TIP3    H2 8020   6.874   1.163   0.266 -0.9580 -1.7044 -0.3239
 2686TIP3   OH2 8021   1.118   2.462   4.399  0.0572  0.0724 -0.5407
 2686TIP3    H1 8022   1.081   2.481   4.486  0.5955  1.7525 -0.6363
 2686TIP3    H2 8023   1.207   2.496   4.403 -0.2555  1.1719 -2.0768
 2687TIP3   OH2 8024   4.827   3.853   4.045  0.4511 -0.4170  0.3557
 2687TIP3    H1 8025   4.917   3.830   4.069  0.2586 -0.3856  1.1356
 2687TIP3    H2 8026   4.774   3.781   4.078  0.1660 -0.3195  0.1161
 2688TIP3   OH2 8027   3.669   3.942   5.825 -0.0440 -0.6312  0.0937
 2688TIP3    H1 8028   3.625   3.948   5.740  1.8194  2.7742 -0.8383
 2688TIP3    H2 8029   3.746   3.887   5.808 -0.3433 -1.0178 -0.0386
 2689TIP3   OH2 8030   2.043   1.496   1.700  0.4056  0.2129 -0.0615
 2689TIP3    H1 8031   1.991   1.515   1.778  1.5131  0.9860  0.5066
 2689TIP3    H2 8032   1.984   1.445   1.644 -0.8074  0.6795  0.7541
 2690TIP3   OH2 8033   6.728   0.069   3.681 -0.2552  0.1260 -0.7732
 2690TIP3    H1 8034   6.707   0.095   3.591 -0.7225 -1.1218 -1.0449
 2690TIP3    H2 8035   6.702   0.143   3.734 -0.8178  0.5296 -1.5850
 2691TIP3   OH2 8036   3.348   1.296   1.152 -0.0528  0.8845  0.0047
 2691TIP3    H1 8037   3.253   1.293   1.139 -0.0175  1.5192 -0.4175
 2691TIP3    H2 8038   3.360   1.338   1.238 -0.1956 -0.8479  0.9279
 2692TIP3   OH2 8039   1.179   3.079   0.681 -0.2337 -0.2836  0.1664
 2692TIP3    H1 8040   1.202   3.144   0.614 -0.2243 -0.5155 -0.0569
 2692TIP3    H2 8041   1.205   3.120   0.764  2.2287 -1.0676 -0.1595
 2693TIP3   OH2 8042   4.792   2.980   0.758 -0.1737  0.0210  0.3360
 2693TIP3    H1 8043   4.756   3.034   0.828 -0.2609  0.4062 -0.0055
 2693TIP3    H2 8044   4.800   3.039   0.684 -1.6222 -0.7591 -0.4811
 2694TIP3   OH2 8045   3.311   4.271   2.753 -0.5914 -0.0859 -0.3165
 2694TIP3    H1 8046   3.291   4.199   2.694  0.0583 -0.3292 -0.2431
 2694TIP3    H2 8047   3.358   4.230   2.826  1.4220  0.6575 -1.1385
 2695TIP3   OH2 8048   7.009   2.206   0.110 -0.3848  0.1046 -0.6608
 2695TIP3    H1 8049   6.933   2.148   0.121  0.5090 -0.6162  2.6797
 2695TIP3    H2 8050   6.977   2.293   0.134 -0.4405  0.0317 -0.4740
 2696TIP3   OH2 8051   1.956   0.881   2.881 -0.0164  0.0560 -0.1497
 2696TIP3    H1 8052   1.937   0.927   2.800 -0.0949 -0.2505 -0.3041
 2696TIP3    H2 8053   1.887   0.908   2.941  0.4936  0.9198  0.0725
 2697TIP3   OH2 8054   3.744   2.363   4.203 -0.3015  0.0753  0.1706
 2697TIP3    H1 8055   3.814   2.332   4.260 -0.2361 -1.0889 -0.5068
 2697TIP3    H2 8056   3.761   2.457   4.193  0.5721 -0.0006  0.8193
 2698TIP3   OH2 8057   4.240   6.352   3.145 -0.7037  0.5530  0.0457
 2698TIP3    H1 8058   4.236   6.439   3.105  3.6409  2.5431  3.1094
 2698TIP3    H2 8059   4.297   6.301   3.088 -1.4386  0.4076 -0.5817
 2699TIP3   OH2 8060   4.713   4.126   2.083  0.2823 -0.2481  0.6602
 2699TIP3    H1 8061   4.804   4.098   2.072  1.2245  2.1321  1.6771
 2699TIP3    H2 8062   4.672   4.109   1.998  2.0202 -0.2472 -0.2254
 2700TIP3   OH2 8063   1.872   6.111   0.910 -0.0695  0.1560 -0.0933
 2700TIP3    H1 8064   1.845   6.074   0.826 -1.2556 -0.7764  0.6622
 2700TIP3    H2 8065   1.791   6.141   0.950  0.6259  1.6771  0.2415
 2701TIP3   OH2 8066   7.015   3.674   5.801  0.1486  0.3265  0.6324
 2701TIP3    H1 8067   6.985   3.747   5.856 -0.2970  0.6122  0.0332
 2701TIP3    H2 8068   7.036   3.604   5.862  1.0973  1.1323  1.2638
 2702TIP3   OH2 8069   0.510   3.682   2.394  0.0803 -0.5739 -0.2947
 2702TIP3    H1 8070   0.509   3.692   2.299  0.5230 -2.6446 -0.5717
 2702TIP3    H2 8071   0.570   3.750   2.425 -0.9693  0.8801 -1.3500
 2703TIP3   OH2 8072   1.535   6.812   5.797  0.5761 -0.5248  0.2651
 2703TIP3    H1 8073   1.610   6.819   5.738  1.1911 -0.0237  1.0781
 2703TIP3    H2 8074   1.504   6.722   5.786  0.6699 -0.4439 -0.8069
 2704TIP3   OH2 8075   3.668   4.890   1.293 -0.2809 -0.4872  0.2941
 2704TIP3    H1 8076   3.742   4.852   1.340 -0.1408 -2.4056 -1.3627
 2704TIP3    H2 8077   3.700   4.903   1.204 -1.0295  1.5675  0.2640
 2705TIP3   OH2 8078   0.037   6.699   5.322 -0.0019  0.3839  0.1195
 2705TIP3    H1 8079   0.030   6.726   5.230  1.4942  0.6706  0.0642
 2705TIP3    H2 8080  -0.016   6.620   5.327  0.6691 -0.1985 -1.2431
 2706TIP3   OH2 8081   3.755   5.229   2.206 -0.3577 -0.6145 -0.6113
 2706TIP3    H1 8082   3.709   5.296   2.257 -1.9215 -1.4149 -0.8939
 2706TIP3    H2 8083   3.809   5.184   2.271  0.1235  0.4189 -0.2787
 2707TIP3   OH2 8084   4.902   0.907   1.580 -0.1385  0.5153  0.3860
 2707TIP3    H1 8085   4.995   0.901   1.555 -0.0102  1.2552  0.6768
 2707TIP3    H2 8086   4.893   0.845   1.652 -0.1154 -0.3385 -0.3183
 2708TIP3   OH2 8087   2.366   4.946   3.452  0.1633  0.5147 -0.0936
 2708TIP3    H1 8088   2.328   4.940   3.365 -1.2905 -0.0250  0.5318
 2708TIP3    H2 8089   2.365   5.040   3.473 -0.8118  0.5294 -0.1331
 2709TIP3   OH2 8090   3.628   4.184   3.276 -0.2002  0.3912  0.1120
 2709TIP3    H1 8091   3.695   4.252   3.270 -0.0476  0.2129 -0.2115
 2709TIP3    H2 8092   3.573   4.212   3.349 -0.9893  1.6449 -0.9026
 2710TIP3   OH2 8093   3.193   5.687   0.802  0.1557  0.8245  0.1179
 2710TIP3    H1 8094   3.259   5.637   0.753  1.0169  1.5212  0.5292
 2710TIP3    H2 8095   3.227   5.776   0.803  0.4774  0.7353  2.4626
 2711TIP3   OH2 8096   6.034   2.449   0.326 -0.0537  0.1152 -0.0673
 2711TIP3    H1 8097   6.121   2.489   0.331 -0.2474  0.7917 -1.5516
 2711TIP3    H2 8098   6.039   2.388   0.252 -0.2448 -1.4683  1.1668
 2712TIP3   OH2 8099   5.361   0.227   2.073  0.0911 -0.5879  0.0247
 2712TIP3    H1 8100   5.315   0.188   2.147  0.3619 -2.8408 -0.9236
 2712TIP3    H2 8101   5.447   0.186   2.074  0.7408  0.7096 -0.4912
 2713TIP3   OH2 8102   2.329   6.338   0.802 -0.5787 -0.7828 -0.4451
 2713TIP3    H1 8103   2.310   6.432   0.800 -0.4892 -0.7712 -1.5576
 2713TIP3    H2 8104   2.295   6.308   0.886 -0.4463  0.2787  0.0030
 2714TIP3   OH2 8105   4.036   4.216   3.786  0.0625 -0.1085  0.3589
 2714TIP3    H1 8106   4.079   4.218   3.701 -1.0839  0.2850 -0.2368
 2714TIP3    H2 8107   4.099   4.257   3.845  1.4383 -1.6112  0.0067
 2715TIP3   OH2 8108   4.994   1.584   1.811 -0.0921 -0.0609 -0.4310
 2715TIP3    H1 8109   4.977   1.494   1.783 -1.6819  0.5830 -1.6981
 2715TIP3    H2 8110   5.016   1.631   1.731  1.2962  0.5988  0.2990
 2716TIP3   OH2 8111   1.021   3.953   4.006 -0.0759  0.4408  0.5595
 2716TIP3    H1 8112   1.000   4.011   3.933  0.2270 -2.2109 -1.8154
 2716TIP3    H2 8113   1.082   4.004   4.060 -1.0547  2.8494 -0.4579
 2717TIP3   OH2 8114   1.127   4.657   1.244 -0.2024 -0.3143 -0.0751
 2717TIP3    H1 8115   1.115   4.729   1.306 -1.9570 -0.2830 -0.4089
 2717TIP3    H2 8116   1.168   4.587   1.296 -1.7784 -0.3489  1.1985
 2718TIP3   OH2 8117   2.545   4.008   4.258  0.1760  0.3654 -0.3279
 2718TIP3    H1 8118   2.489   4.028   4.333  1.8236  0.3682  0.9598
 2718TIP3    H2 8119   2.539   3.913   4.248 -1.8540  0.5702 -1.7364
 2719TIP3   OH2 8120   0.618   2.164   5.315 -0.3270  0.2602  0.1763
 2719TIP3    H1 8121   0.540   2.203   5.276  0.2323 -0.1573 -1.4294
 2719TIP3    H2 8122   0.675   2.144   5.241  1.3915  0.6922  1.3014
 2720TIP3   OH2 8123   5.539   2.531   5.480  0.0717 -0.2677  0.3424
 2720TIP3    H1 8124   5.473   2.464   5.494 -1.3142  0.9252 -0.1470
 2720TIP3    H2 8125   5.603   2.491   5.422 -1.1417 -0.9307 -0.5797
 2721TIP3   OH2 8126   0.009   3.204   3.923 -0.6099  0.2341  0.1277
 2721TIP3    H1 8127  -0.030   3.290   3.914  2.1206  1.6567  0.6071
 2721TIP3    H2 8128   0.078   3.216   3.989  0.5631 -2.0322 -0.5618
 2722TIP3   OH2 8129   3.434   2.919   3.333 -0.2518  0.3864  0.3044
 2722TIP3    H1 8130   3.427   2.901   3.239  0.0637 -0.6601  0.4756
 2722TIP3    H2 8131   3.499   2.989   3.339 -0.3619  0.5441 -0.2594
 2723TIP3   OH2 8132   4.342   0.542   0.638  0.3776 -0.0054  0.4432
 2723TIP3    H1 8133   4.384   0.605   0.696 -0.4355  0.6213  0.3556
 2723TIP3    H2 8134   4.379   0.560   0.551 -0.4245  0.8830  0.2730
 2724TIP3   OH2 8135   3.658   6.082   5.040  0.4898  0.5074  0.5625
 2724TIP3    H1 8136   3.658   6.007   4.980  2.5037  1.5018 -0.7972
 2724TIP3    H2 8137   3.583   6.134   5.014  0.8627  0.5020 -0.5982
 2725TIP3   OH2 8138   0.998   6.010   3.516 -0.3074 -0.2184 -0.4628
 2725TIP3    H1 8139   0.970   5.956   3.590 -0.3001  1.2725  0.6869
 2725TIP3    H2 8140   1.076   6.056   3.548  0.4787 -0.4983 -1.8710
 2726TIP3   OH2 8141   2.317   2.945   5.720  0.0701  0.3586 -0.0367
 2726TIP3    H1 8142   2.259   2.986   5.784  0.2004 -0.5273  0.6865
 2726TIP3    H2 8143   2.341   2.861   5.761  0.9294  0.2025 -0.8291
 2727TIP3   OH2 8144   2.418   6.303   2.102  0.2205  0.4397  0.3384
 2727TIP3    H1 8145   2.452   6.302   2.191  0.5117  3.8652  0.4048
 2727TIP3    H2 8146   2.362   6.380   2.099 -1.1398 -0.5246 -2.0271
 2728TIP3   OH2 8147   0.461   6.170   1.690 -0.5716 -0.2487 -0.0364
 2728TIP3    H1 8148   0.510   6.226   1.630 -0.7840 -0.6035 -0.5402
 2728TIP3    H2 8149   0.387   6.224   1.719 -1.1252 -0.4848 -1.0038
 2729TIP3   OH2 8150   4.918   1.950   1.370 -0.1521 -0.5165  0.4199
 2729TIP3    H1 8151   5.008   1.918   1.374  0.5901  1.4450  0.7547
 2729TIP3    H2 8152   4.926   2.045   1.384 -2.3595 -0.4251  1.5606
 2730TIP3   OH2 8153   3.888   5.961   3.199  0.5590 -0.2038 -0.2627
 2730TIP3    H1 8154   3.968   5.915   3.175  1.1098  1.0997 -1.0130
 2730TIP3    H2 8155   3.898   5.980   3.292 -0.3890 -2.9102  0.5011
 2731TIP3   OH2 8156   6.538   4.682   1.431 -0.4866 -0.2434 -0.0294
 2731TIP3    H1 8157   6.447   4.711   1.432 -0.7122 -0.9406  0.3854
 2731TIP3    H2 8158   6.547   4.627   1.508  0.2239 -0.3862 -0.2007
 2732TIP3   OH2 8159   4.519   0.186   2.249  0.2412 -0.3050 -0.6664
 2732TIP3    H1 8160   4.481   0.245   2.314 -1.5917 -1.2223 -0.8518
 2732TIP3    H2 8161   4.486   0.218   2.165  0.6048 -0.5868 -0.9194
 2733TIP3   OH2 8162   4.314   2.064   2.445 -0.0906 -0.0241  0.1211
 2733TIP3    H1 8163   4.243   2.101   2.392 -0.2650  0.2826  0.5557
 2733TIP3    H2 8164   4.344   1.988   2.396 -0.2417  0.2578 -0.4192
 2734TIP3   OH2 8165   5.497   2.447   1.655  0.4283 -0.4351 -0.0933
 2734TIP3    H1 8166   5.553   2.459   1.731 -1.8519 -1.6471  1.8829
 2734TIP3    H2 8167   5.537   2.374   1.607  1.3143 -0.3419  0.4841
 2735TIP3   OH2 8168   3.445   0.522   3.508 -0.0815  0.0378 -0.2279
 2735TIP3    H1 8169   3.367   0.479   3.474 -1.9949  1.7850  1.7018
 2735TIP3    H2 8170   3.467   0.472   3.587 -0.2224  0.5238  0.1180
 2736TIP3   OH2 8171   4.044   4.448   1.374  0.1667 -0.0858 -0.2163
 2736TIP3    H1 8172   3.980   4.478   1.440 -0.1192 -1.1730  0.0130
 2736TIP3    H2 8173   4.110   4.517   1.373 -0.4000  0.4917  0.4043
 2737TIP3   OH2 8174   0.288   6.572   5.403  0.1371  0.0252 -0.1171
 2737TIP3    H1 8175   0.232   6.649   5.390 -0.2849  0.4654  3.3672
 2737TIP3    H2 8176   0.241   6.501   5.358 -1.1719  1.1452 -0.5943
 2738TIP3   OH2 8177   4.382   1.827   4.090 -0.3307 -0.2411  0.6071
 2738TIP3    H1 8178   4.330   1.904   4.069 -0.6767 -0.2671  1.3525
 2738TIP3    H2 8179   4.379   1.774   4.010 -0.7677  0.1363  0.3680
 2739TIP3   OH2 8180   1.348   1.650   1.907 -0.2923 -0.4411 -0.0082
 2739TIP3    H1 8181   1.406   1.574   1.894 -0.9327 -1.1143  0.9487
 2739TIP3    H2 8182   1.396   1.706   1.969 -0.3153 -0.6034  0.1555
 2740TIP3   OH2 8183   3.714   1.565   3.353 -0.2268  0.3581 -0.1109
 2740TIP3    H1 8184   3.687   1.637   3.296 -2.9400 -0.0636  0.4989
 2740TIP3    H2 8185   3.715   1.488   3.295 -3.7977 -0.2303  0.3547
 2741TIP3   OH2 8186   3.407   5.124   3.841 -0.6633  0.2408 -0.2136
 2741TIP3    H1 8187   3.483   5.180   3.859 -0.3969  0.1981 -1.1401
 2741TIP3    H2 8188   3.364   5.166   3.766 -1.6453  0.3487  0.3943
 2742TIP3   OH2 8189   4.899   3.405   4.794 -0.7184  0.3862 -0.4444
 2742TIP3    H1 8190   4.866   3.478   4.742 -0.7573 -0.4035 -1.5652
 2742TIP3    H2 8191   4.924   3.444   4.878  4.0789  2.7480 -2.5839
 2743TIP3   OH2 8192   0.495   1.764   2.263  0.0524 -0.2801  0.4256
 2743TIP3    H1 8193   0.560   1.706   2.223 -0.6090 -0.9799  0.3456
 2743TIP3    H2 8194   0.415   1.746   2.214 -0.3552  0.0981  0.9562
 2744TIP3   OH2 8195   5.278   5.828   1.419 -0.0934 -0.3169  0.0520
 2744TIP3    H1 8196   5.350   5.872   1.373 -1.4489  0.6781 -1.1899
 2744TIP3    H2 8197   5.291   5.735   1.401 -0.8118  0.0410 -2.8197
 2745TIP3   OH2 8198   5.546   2.790   3.461 -0.3565  0.0254 -0.0159
 2745TIP3    H1 8199   5.501   2.800   3.377 -0.9474 -1.8440  0.0443
 2745TIP3    H2 8200   5.480   2.752   3.519  0.8728 -1.4149  0.4856
 2746TIP3   OH2 8201   6.838   4.270   3.475 -0.7018  0.1945  0.1141
 2746TIP3    H1 8202   6.867   4.220   3.398 -1.0828  0.7451 -0.3955
 2746TIP3    H2 8203   6.832   4.360   3.444  0.1886  0.6043  1.0854
 2747TIP3   OH2 8204   3.053   3.940   5.836  0.0364  0.4058 -0.2825
 2747TIP3    H1 8205   3.080   3.971   5.922  0.0848  0.7189 -0.4082
 2747TIP3    H2 8206   3.134   3.908   5.796 -0.1806 -0.8752  0.2430
 2748TIP3   OH2 8207   1.115   2.342   0.267 -0.3128  0.1425  0.7353
 2748TIP3    H1 8208   1.039   2.390   0.234 -0.4564 -1.6524 -1.8411
 2748TIP3    H2 8209   1.097   2.329   0.360 -1.3252  2.9653  1.0258
 2749TIP3   OH2 8210   0.196   0.387   3.118  0.3452  0.0611  0.6063
 2749TIP3    H1 8211   0.229   0.361   3.204  1.0805  1.4381  0.7709
 2749TIP3    H2 8212   0.119   0.332   3.104 -0.3392  0.4536  2.5704
 2750TIP3   OH2 8213   0.824   3.519   2.420  0.2672 -0.0014  0.4112
 2750TIP3    H1 8214   0.912   3.481   2.426  0.8214  1.1785  0.0574
 2750TIP3    H2 8215   0.816   3.546   2.328 -0.5778 -0.3441  0.3786
 2751TIP3   OH2 8216   2.688   6.356   2.915 -0.5195  0.3243  0.1783
 2751TIP3    H1 8217   2.681   6.442   2.955 -0.6465  0.6196 -0.4662
 2751TIP3    H2 8218   2.600   6.318   2.924 -0.5335  0.3698  0.2298
 2752TIP3   OH2 8219   1.045   0.602   1.800 -0.5379  0.1812 -0.3846
 2752TIP3    H1 8220   1.041   0.680   1.856  0.8265  0.7265 -1.0194
 2752TIP3    H2 8221   1.053   0.530   1.862 -2.0099  0.4990  0.2217
 2753TIP3   OH2 8222   3.428   3.449   0.518 -0.4556  0.6668  0.5776
 2753TIP3    H1 8223   3.479   3.511   0.467 -2.7676  2.0383 -0.2388
 2753TIP3    H2 8224   3.354   3.500   0.552 -1.9876 -1.4223  0.6300
 2754TIP3   OH2 8225   0.641   5.479   2.834  0.3392 -0.4728 -0.3660
 2754TIP3    H1 8226   0.730   5.469   2.800  1.1084  2.7606  0.3204
 2754TIP3    H2 8227   0.605   5.554   2.785 -1.3599 -0.6088  0.5916
 2755TIP3   OH2 8228   2.139   0.026   0.528  0.5630  0.1064 -0.0487
 2755TIP3    H1 8229   2.181  -0.036   0.468  2.7304  2.2039 -0.8624
 2755TIP3    H2 8230   2.115   0.100   0.473  0.3917  1.0642  1.2775
 2756TIP3   OH2 8231   5.547   2.797   5.192 -0.4056  0.0199 -0.2997
 2756TIP3    H1 8232   5.519   2.871   5.246 -1.7026  0.6623 -1.7789
 2756TIP3    H2 8233   5.479   2.731   5.205  0.3950 -0.6827  0.4815
 2757TIP3   OH2 8234   4.030   0.915   1.879  0.2578  0.0807  0.2127
 2757TIP3    H1 8235   3.996   0.930   1.967 -0.0256 -0.9976  0.2958
 2757TIP3    H2 8236   3.953   0.922   1.822  0.6101  1.8803 -0.1032
 2758TIP3   OH2 8237   1.144   1.736   2.090 -0.9142  0.1158 -0.5184
 2758TIP3    H1 8238   1.189   1.747   2.174 -0.5904 -1.6921 -0.4120
 2758TIP3    H2 8239   1.214   1.722   2.026 -1.1495  1.7031 -1.1594
 2759TIP3   OH2 8240   1.174   2.954   3.250  0.8154  0.2854  0.2968
 2759TIP3    H1 8241   1.103   3.017   3.241  0.2087 -0.3221  0.6595
 2759TIP3    H2 8242   1.243   2.986   3.193  0.3439  1.0309  0.1391
 2760TIP3   OH2 8243   3.265   5.822   2.727  0.0904  0.0391  0.5064
 2760TIP3    H1 8244   3.202   5.812   2.655  0.1118  0.6501  0.3967
 2760TIP3    H2 8245   3.319   5.896   2.701 -1.0070  1.4002  1.9335
 2761TIP3   OH2 8246   3.126   3.168   4.162 -0.1598 -0.1994  0.0871
 2761TIP3    H1 8247   3.163   3.245   4.118  0.0212  1.7224  3.3106
 2761TIP3    H2 8248   3.072   3.126   4.095 -0.6191  2.9696 -1.7191
 2762TIP3   OH2 8249   3.911   3.083   3.684  0.1982  0.1478 -0.4658
 2762TIP3    H1 8250   3.837   3.081   3.745 -1.7954  1.0728 -2.6891
 2762TIP3    H2 8251   3.908   2.998   3.639  0.0656  0.4325 -1.0049
 2763TIP3   OH2 8252   4.602   5.412   2.550 -0.1550  1.5043 -0.1494
 2763TIP3    H1 8253   4.528   5.357   2.573  0.6436  0.7894  0.8073
 2763TIP3    H2 8254   4.609   5.475   2.622  1.1703  0.4951  0.6457
 2764TIP3   OH2 8255   4.293   2.432   1.746  0.0799 -0.1198  0.4263
 2764TIP3    H1 8256   4.246   2.349   1.757 -1.4609  0.5043 -1.0192
 2764TIP3    H2 8257   4.225   2.499   1.746  0.8064  0.7713 -2.2724
 2765TIP3   OH2 8258   1.980   2.874   3.267  0.4665 -0.2357 -0.7035
 2765TIP3    H1 8259   1.977   2.953   3.213 -1.2151 -1.3414 -2.3393
 2765TIP3    H2 8260   2.037   2.814   3.219  0.6377 -0.5133 -0.1707
 2766TIP3   OH2 8261   0.743   1.834   0.761 -0.1389 -0.1847 -0.0271
 2766TIP3    H1 8262   0.794   1.914   0.772 -0.9999  0.3103  0.3849
 2766TIP3    H2 8263   0.652   1.863   0.755 -0.4198 -1.0904 -0.3900
 2767TIP3   OH2 8264   4.755   5.184   1.817  0.1750  0.6925 -0.0021
 2767TIP3    H1 8265   4.845   5.166   1.843  0.1347  0.1999 -0.2023
 2767TIP3    H2 8266   4.723   5.247   1.882  0.2096 -0.2149  0.9057
 2768TIP3   OH2 8267   0.568   5.591   3.464 -0.2674 -0.2780 -0.4005
 2768TIP3    H1 8268   0.480   5.553   3.467  0.5911 -2.4031  2.5267
 2768TIP3    H2 8269   0.626   5.517   3.447  1.1511  0.4425  1.0042
 2769TIP3   OH2 8270   6.683   4.544   4.749 -0.3819 -0.4599  0.4189
 2769TIP3    H1 8271   6.612   4.562   4.688  0.0208  0.9018  0.3378
 2769TIP3    H2 8272   6.642   4.549   4.836 -0.8199 -1.7980  0.3178
 2770TIP3   OH2 8273   3.772   3.216   0.450 -0.0276  0.6016 -0.1498
 2770TIP3    H1 8274   3.743   3.295   0.404 -1.0266  0.0435 -0.4956
 2770TIP3    H2 8275   3.715   3.211   0.527  0.2368  0.3777  0.0325
 2771TIP3   OH2 8276   5.641   2.117   4.144 -0.5004  0.2649 -0.2951
 2771TIP3    H1 8277   5.725   2.095   4.103 -0.4976 -0.3117  0.0091
 2771TIP3    H2 8278   5.576   2.070   4.092 -0.5904  0.3547 -0.2638
 2772TIP3   OH2 8279   1.858   4.557   3.971 -0.1238 -0.0190  0.2353
 2772TIP3    H1 8280   1.768   4.562   4.002 -0.8925 -0.0634 -1.8326
 2772TIP3    H2 8281   1.877   4.646   3.939 -0.6990 -0.7471 -2.4270
 2773TIP3   OH2 8282   1.307   3.474   3.305 -0.0210 -0.0396 -0.3839
 2773TIP3    H1 8283   1.319   3.566   3.328  2.5095 -0.4449  0.2664
 2773TIP3    H2 8284   1.396   3.439   3.298 -0.8845 -2.1893 -1.7235
 2774TIP3   OH2 8285   5.412   2.162   1.201 -0.0420 -0.0851  0.1051
 2774TIP3    H1 8286   5.395   2.234   1.261 -2.4116  0.1334 -0.7265
 2774TIP3    H2 8287   5.408   2.201   1.114 -0.5678 -1.0674 -0.3267
 2775TIP3   OH2 8288   3.254   3.374   3.994 -0.3605  0.3579  0.1476
 2775TIP3    H1 8289   3.286   3.418   4.073  1.2183  0.2383 -0.3780
 2775TIP3    H2 8290   3.291   3.426   3.922 -1.7009  0.4189 -0.5212
 2776TIP3   OH2 8291   3.556   0.142   1.109 -0.2073 -0.1694 -0.2300
 2776TIP3    H1 8292   3.498   0.095   1.049 -1.6477 -1.3165  1.9233
 2776TIP3    H2 8293   3.619   0.077   1.139  0.5767  0.4168 -0.5821
 2777TIP3   OH2 8294   5.625   3.037   0.576 -0.3178 -0.4730  0.0133
 2777TIP3    H1 8295   5.715   3.067   0.561 -0.0117 -1.8686 -1.1932
 2777TIP3    H2 8296   5.570   3.112   0.553  0.4439 -0.5301 -2.1657
 2778TIP3   OH2 8297   4.907   0.016   0.915  0.4880  0.9689  0.1946
 2778TIP3    H1 8298   4.994   0.054   0.901  0.7184  0.8163  1.1002
 2778TIP3    H2 8299   4.909  -0.013   1.007 -0.7210  1.4836  0.3981
 2779TIP3   OH2 8300   2.401   5.806   3.109 -0.6400 -0.3798 -0.2972
 2779TIP3    H1 8301   2.309   5.786   3.092 -0.6480 -0.5285 -0.0868
 2779TIP3    H2 8302   2.447   5.723   3.092 -0.2958  0.1647 -2.2715
 2780TIP3   OH2 8303   0.386   4.605   1.460  0.1354 -0.0124 -0.2173
 2780TIP3    H1 8304   0.472   4.645   1.472 -0.7627  1.6549  1.0529
 2780TIP3    H2 8305   0.343   4.660   1.395  0.0337 -0.8924 -0.9129
 2781TIP3   OH2 8306   6.767   5.315   5.567  0.3845 -0.1946  0.2999
 2781TIP3    H1 8307   6.706   5.379   5.604 -0.3478 -0.9422  0.4000
 2781TIP3    H2 8308   6.846   5.366   5.549 -0.3974  0.8859 -0.2216
 2782TIP3   OH2 8309   0.128   6.496   4.939 -0.4336 -0.6470  0.3740
 2782TIP3    H1 8310   0.138   6.524   4.848  0.1543 -3.1944 -0.4172
 2782TIP3    H2 8311   0.166   6.408   4.942 -0.8362 -0.8182  2.9922
 2783TIP3   OH2 8312   6.527   0.452   3.318 -0.0652 -0.5929 -0.7834
 2783TIP3    H1 8313   6.534   0.476   3.226 -0.3255  0.9599 -0.4256
 2783TIP3    H2 8314   6.435   0.427   3.330 -0.6919  1.6466 -0.4434
 2784TIP3   OH2 8315   1.624   2.438   3.460  0.1191  0.2243 -0.2030
 2784TIP3    H1 8316   1.558   2.369   3.457 -0.9721  1.2360 -0.3282
 2784TIP3    H2 8317   1.577   2.514   3.495  1.0973  1.1041 -0.7450
 2785TIP3   OH2 8318   1.663   4.244   0.551  0.4161 -0.1391 -0.3197
 2785TIP3    H1 8319   1.647   4.333   0.519  4.0830  1.3699  1.3370
 2785TIP3    H2 8320   1.590   4.226   0.610 -0.6641  1.5548 -1.0673
 2786TIP3   OH2 8321   2.246   4.043   2.536 -0.2240 -0.2743 -0.6267
 2786TIP3    H1 8322   2.217   4.096   2.462 -0.2904 -0.1436 -0.5073
 2786TIP3    H2 8323   2.229   3.953   2.509 -2.8222 -0.1382  0.3090
 2787TIP3   OH2 8324   1.392   1.688   3.103  0.1100  0.4351 -0.0457
 2787TIP3    H1 8325   1.301   1.657   3.107  0.3789 -0.7039 -1.6345
 2787TIP3    H2 8326   1.410   1.697   3.010  1.7694  0.2308  0.2289
 2788TIP3   OH2 8327   6.826   2.399   0.221 -0.6063  0.2495 -0.6217
 2788TIP3    H1 8328   6.758   2.344   0.182 -0.7808  0.7900 -1.1065
 2788TIP3    H2 8329   6.783   2.439   0.297 -0.5304 -0.1533 -0.3659
 2789TIP3   OH2 8330   4.360   4.131   1.654 -0.1295  0.0545 -0.6089
 2789TIP3    H1 8331   4.293   4.077   1.694  1.1110  0.2846  1.9503
 2789TIP3    H2 8332   4.334   4.221   1.672  0.1447  0.1833 -0.8352
 2790TIP3   OH2 8333   4.009   4.654   2.417 -0.1236 -0.5869 -0.1059
 2790TIP3    H1 8334   4.016   4.578   2.475 -1.2485 -0.0256  0.8027
 2790TIP3    H2 8335   3.932   4.701   2.449  1.4704  1.8417  0.4311
 2791TIP3   OH2 8336   5.234   3.364   3.256  0.2601 -0.6871  0.5886
 2791TIP3    H1 8337   5.201   3.311   3.183  0.1188 -0.5078  0.5208
 2791TIP3    H2 8338   5.277   3.439   3.214 -0.6384 -0.0993  0.6971
 2792TIP3   OH2 8339   0.446   5.534   3.765  0.3981  0.4442 -0.5333
 2792TIP3    H1 8340   0.470   5.567   3.679  0.5306  2.0099  0.0674
 2792TIP3    H2 8341   0.528   5.501   3.802  0.0990 -1.4774 -1.4895
 2793TIP3   OH2 8342   4.527   6.544   1.164  0.5322 -0.2640  0.1764
 2793TIP3    H1 8343   4.606   6.525   1.112  0.3278  1.1755 -0.7125
 2793TIP3    H2 8344   4.494   6.457   1.189  0.5355 -1.0488 -2.2651
 2794TIP3   OH2 8345   2.703   0.988   3.114 -0.2460 -0.4294 -0.1691
 2794TIP3    H1 8346   2.792   0.974   3.144  0.2495  0.6959 -1.0367
 2794TIP3    H2 8347   2.655   1.015   3.192  0.2057 -0.8887  0.2711
 2795TIP3   OH2 8348   2.103   6.506   1.118 -0.0286 -0.4700 -0.2601
 2795TIP3    H1 8349   2.190   6.476   1.143 -0.8984 -0.9174  2.5084
 2795TIP3    H2 8350   2.081   6.453   1.041  0.8205 -2.8279  1.0073
 2796TIP3   OH2 8351   5.382   2.176   3.304 -0.2282  0.3029  0.2736
 2796TIP3    H1 8352   5.423   2.090   3.294 -1.4804 -0.7654  3.1671
 2796TIP3    H2 8353   5.454   2.236   3.324  0.5537 -0.1986 -0.9252
 2797TIP3   OH2 8354   6.023   5.579   4.332  0.3051 -0.5049  0.2533
 2797TIP3    H1 8355   6.075   5.640   4.385 -1.1078 -0.4152  1.6234
 2797TIP3    H2 8356   5.933   5.607   4.347 -0.3364 -2.5792  0.4695
 2798TIP3   OH2 8357   4.102   4.286   3.194 -0.3332 -0.1713  0.7543
 2798TIP3    H1 8358   4.159   4.216   3.225 -3.0425 -2.7338  0.3483
 2798TIP3    H2 8359   4.151   4.327   3.123  1.5689 -1.2458  1.3843
 2799TIP3   OH2 8360   6.094   5.461   0.784 -0.8959  0.2792  0.3340
 2799TIP3    H1 8361   6.083   5.513   0.864 -1.5710  0.0014  0.4273
 2799TIP3    H2 8362   6.019   5.402   0.783 -0.1084 -0.7606  0.2616
 2800TIP3   OH2 8363   5.296   2.187   0.076 -0.1992  0.1170 -0.1616
 2800TIP3    H1 8364   5.256   2.140   0.148 -0.7686 -2.5936 -2.0838
 2800TIP3    H2 8365   5.245   2.267   0.068 -0.0428  0.5624  2.4393
 2801TIP3   OH2 8366   2.290   4.347   5.469 -0.1087 -0.0456  0.2975
 2801TIP3    H1 8367   2.245   4.326   5.387  0.9733 -0.8668 -0.1069
 2801TIP3    H2 8368   2.267   4.275   5.528 -1.0818  0.6679  0.8199
 2802TIP3   OH2 8369   3.039   6.374   3.797  0.2820 -0.1189  0.0400
 2802TIP3    H1 8370   3.116   6.329   3.832  1.2672  1.1470 -0.4285
 2802TIP3    H2 8371   3.000   6.310   3.737 -1.0421 -2.0701  2.7608
 2803TIP3   OH2 8372   0.021   2.717   3.316 -0.8160 -0.0452 -0.3557
 2803TIP3    H1 8373   0.095   2.702   3.258  0.0946 -0.8552  0.9408
 2803TIP3    H2 8374  -0.055   2.685   3.268 -0.7469  2.8875 -2.6444
 2804TIP3   OH2 8375   3.558   0.008   5.738  0.3125 -0.4792 -0.0878
 2804TIP3    H1 8376   3.570   0.041   5.827 -1.2607 -1.0010  0.3408
 2804TIP3    H2 8377   3.464   0.011   5.724  0.4572 -1.3660 -1.3653
 2805TIP3   OH2 8378   3.589   5.903   4.543  0.5897  0.1049 -0.2838
 2805TIP3    H1 8379   3.575   5.825   4.597 -1.8230  0.2823 -0.5643
 2805TIP3    H2 8380   3.553   5.881   4.458 -0.3390  1.5670 -0.3121
 2806TIP3   OH2 8381   4.286   0.704   4.342  0.2109 -0.4188 -0.1180
 2806TIP3    H1 8382   4.242   0.645   4.282  1.1872  0.7989 -2.1328
 2806TIP3    H2 8383   4.220   0.724   4.409 -0.9236 -1.7733 -0.7827
 2807TIP3   OH2 8384   0.376   3.264   2.137  0.3820 -0.0012 -0.0193
 2807TIP3    H1 8385   0.411   3.310   2.213 -0.6547 -2.4056  2.0703
 2807TIP3    H2 8386   0.441   3.197   2.117 -0.9365 -1.7165  1.1493
 2808TIP3   OH2 8387   4.731   1.493   2.590 -0.5146 -0.5145  0.2735
 2808TIP3    H1 8388   4.783   1.470   2.513 -1.8499 -1.6776 -0.3157
 2808TIP3    H2 8389   4.796   1.510   2.658  0.7650  1.5390 -1.3181
 2809TIP3   OH2 8390   3.641   2.721   3.471 -0.3948 -0.3793  0.1173
 2809TIP3    H1 8391   3.655   2.632   3.504  0.0808 -0.4540 -0.2697
 2809TIP3    H2 8392   3.549   2.723   3.444 -0.2218 -0.9881 -0.5538
 2810TIP3   OH2 8393   6.925   3.068   3.992  0.0026 -0.0876  0.4382
 2810TIP3    H1 8394   6.994   3.034   3.935  1.2831  1.6353  0.8932
 2810TIP3    H2 8395   6.899   3.150   3.952  0.0466  0.5321  1.6358
 2811TIP3   OH2 8396   7.013   2.828   4.941 -0.9538  0.7052  0.1642
 2811TIP3    H1 8397   7.009   2.844   5.035 -1.3252  0.5331  0.1829
 2811TIP3    H2 8398   7.076   2.757   4.932 -1.4634  0.2145  0.3614
 2812TIP3   OH2 8399   4.910   6.135   0.320 -0.1555 -0.7454  0.0501
 2812TIP3    H1 8400   4.900   6.227   0.298  0.7789 -0.8680 -0.9885
 2812TIP3    H2 8401   4.827   6.111   0.362  0.6500  1.2856  3.1851
 2813TIP3   OH2 8402   6.172   1.144   5.011  0.0252  0.0481 -0.1918
 2813TIP3    H1 8403   6.118   1.216   5.042  1.0272  1.8656 -2.3684
 2813TIP3    H2 8404   6.262   1.174   5.025  0.4748 -1.0436 -0.6237
 2814TIP3   OH2 8405   3.281   2.931   5.449  0.0512 -0.1042 -0.3247
 2814TIP3    H1 8406   3.321   2.854   5.488 -2.3735 -0.8435  0.9520
 2814TIP3    H2 8407   3.202   2.897   5.406 -2.1930  1.8091  1.9988
 2815TIP3   OH2 8408   1.110   2.329   1.825  0.0085  0.2094  0.5748
 2815TIP3    H1 8409   1.034   2.272   1.816  1.3325 -1.5746  0.2223
 2815TIP3    H2 8410   1.104   2.389   1.750 -0.6861 -0.3341  0.1867
 2816TIP3   OH2 8411   4.431   2.366   4.403  0.3972 -0.3205  0.3939
 2816TIP3    H1 8412   4.392   2.287   4.367  0.5277  0.6413 -2.1195
 2816TIP3    H2 8413   4.356   2.420   4.428  0.1825 -0.1540 -0.5357
 2817TIP3   OH2 8414   7.042   1.222   1.030 -0.1424 -0.0791 -0.5230
 2817TIP3    H1 8415   7.026   1.275   1.109 -0.4920 -0.1867 -0.5209
 2817TIP3    H2 8416   6.981   1.257   0.965 -1.3799 -1.3913 -0.1073
 2818TIP3   OH2 8417   3.322   1.149   3.429  0.1286  0.0724 -0.4151
 2818TIP3    H1 8418   3.367   1.096   3.363  0.3281 -1.1894  0.6701
 2818TIP3    H2 8419   3.382   1.221   3.448  0.4382 -0.0277 -1.0024
 2819TIP3   OH2 8420   5.748   5.220   2.734 -0.5071  0.0309 -0.6459
 2819TIP3    H1 8421   5.810   5.214   2.808 -0.4113 -0.1325 -0.7386
 2819TIP3    H2 8422   5.804   5.224   2.657 -0.5556  1.7312 -0.6391
 2820TIP3   OH2 8423   5.476   6.670   1.859 -0.5221 -0.1743 -0.1914
 2820TIP3    H1 8424   5.419   6.630   1.794  0.6271 -1.7563 -0.2889
 2820TIP3    H2 8425   5.486   6.604   1.927 -0.5749  0.9218  0.9135
 2821TIP3   OH2 8426   0.822   1.751   0.047  0.1711  0.3360  0.2889
 2821TIP3    H1 8427   0.801   1.843   0.061  1.2577  0.3700  2.0726
 2821TIP3    H2 8428   0.741   1.704   0.068  0.0526  0.8061  0.9243
 2822TIP3   OH2 8429   0.766   3.491   0.571 -0.2187 -0.2594 -0.4937
 2822TIP3    H1 8430   0.735   3.526   0.487 -0.3308 -1.4313 -0.9613
 2822TIP3    H2 8431   0.800   3.567   0.617  0.1854  0.3654 -1.7542
 2823TIP3   OH2 8432   1.046   6.162   3.970 -0.1726  0.0194  0.2893
 2823TIP3    H1 8433   0.989   6.238   3.959  0.9644  0.7736 -0.6300
 2823TIP3    H2 8434   1.118   6.193   4.025  0.8671 -0.0320 -0.9737
 2824TIP3   OH2 8435   7.175   5.927   0.789 -0.0643  0.1063 -0.4022
 2824TIP3    H1 8436   7.271   5.920   0.784  0.1516  2.4482 -0.8291
 2824TIP3    H2 8437   7.157   6.020   0.772 -2.3216  0.0427  1.1618
 2825TIP3   OH2 8438   2.950   6.126   0.360 -0.3611  0.4136 -0.7867
 2825TIP3    H1 8439   3.031   6.081   0.333  0.2534  0.0400  1.4814
 2825TIP3    H2 8440   2.897   6.128   0.281  0.6100 -2.0914 -1.6100
 2826TIP3   OH2 8441   4.958   0.676   3.651  0.2223  0.5642 -0.0359
 2826TIP3    H1 8442   4.903   0.696   3.575 -0.5304  1.4683  0.7214
 2826TIP3    H2 8443   4.934   0.742   3.716  0.5429 -0.4430  1.1403
 2827TIP3   OH2 8444   5.791   6.534   4.256  0.2820 -0.2881 -0.4045
 2827TIP3    H1 8445   5.806   6.443   4.283 -1.5482 -0.5132  0.0149
 2827TIP3    H2 8446   5.848   6.586   4.313  0.6482 -1.1112 -0.0029
 2828TIP3   OH2 8447   7.030   1.425   3.382  0.0628  0.5169  0.4141
 2828TIP3    H1 8448   7.011   1.515   3.353  0.5358  0.5086  0.0715
 2828TIP3    H2 8449   7.019   1.372   3.304 -2.7549 -0.1343  1.1288
 2829TIP3   OH2 8450   2.267   3.378   0.286  0.1519  0.5118 -0.3433
 2829TIP3    H1 8451   2.231   3.289   0.283 -0.3148  0.6120  1.4351
 2829TIP3    H2 8452   2.242   3.417   0.202  1.2292 -1.3300 -1.5881
 2830TIP3   OH2 8453   5.169   4.779   0.515 -0.4181  0.0933  0.4787
 2830TIP3    H1 8454   5.094   4.723   0.494 -0.9270  0.6624  0.7414
 2830TIP3    H2 8455   5.146   4.864   0.479 -0.5005  0.6135  1.7032
 2831TIP3   OH2 8456   0.864   0.997   5.290 -0.5705  0.2183  0.1415
 2831TIP3    H1 8457   0.813   1.057   5.236 -0.7079 -0.5250 -0.5727
 2831TIP3    H2 8458   0.819   0.913   5.281  0.4077 -0.3001  0.0194
 2832TIP3   OH2 8459   0.704   2.979   3.805  0.7322  0.3382  0.0728
 2832TIP3    H1 8460   0.732   3.070   3.814  1.5514  0.1153 -0.1580
 2832TIP3    H2 8461   0.782   2.932   3.776  0.8856 -0.8103  2.1209
 2833TIP3   OH2 8462   1.198   1.006   2.217 -0.0613 -0.3452 -0.1927
 2833TIP3    H1 8463   1.261   0.934   2.226 -1.3202 -1.3022  1.6220
 2833TIP3    H2 8464   1.129   0.971   2.162 -0.3182 -0.2548  0.0716
 2834TIP3   OH2 8465   6.453   4.325   1.584 -0.2402 -0.1966 -0.2390
 2834TIP3    H1 8466   6.532   4.295   1.627 -0.7123  0.1324  0.9107
 2834TIP3    H2 8467   6.443   4.416   1.613 -2.2714 -0.9059  1.5836
 2835TIP3   OH2 8468   0.606   0.719   0.229  0.5172  0.4216  0.8264
 2835TIP3    H1 8469   0.595   0.786   0.161  0.8981  0.1378  0.4807
 2835TIP3    H2 8470   0.634   0.768   0.306  0.6063  0.6871  0.6295
 2836TIP3   OH2 8471   0.858   2.177   4.047  0.0783  0.7152  0.1762
 2836TIP3    H1 8472   0.830   2.102   4.100  1.3973 -0.7314 -1.0680
 2836TIP3    H2 8473   0.893   2.239   4.111 -3.7288  1.7251  1.5867
 2837TIP3   OH2 8474   2.895   3.806   4.360  0.4328 -0.5329 -0.2521
 2837TIP3    H1 8475   2.811   3.780   4.397 -1.4410  3.5986 -1.0065
 2837TIP3    H2 8476   2.932   3.865   4.426  1.5336 -0.3244 -1.0315
 2838TIP3   OH2 8477   6.207   4.428   5.786  0.1028 -0.1320 -0.2584
 2838TIP3    H1 8478   6.252   4.399   5.865  0.7629 -0.9084 -0.9084
 2838TIP3    H2 8479   6.156   4.353   5.757 -0.7428  0.3866 -0.1584
 2839TIP3   OH2 8480   1.143   0.467   5.144  0.1868  0.7776  0.4469
 2839TIP3    H1 8481   1.074   0.406   5.169 -0.4580  0.9491 -0.8537
 2839TIP3    H2 8482   1.100   0.553   5.142  1.1013  1.3629  2.3669
 2840TIP3   OH2 8483   5.778   3.400   1.652 -0.2538  0.1378  0.1824
 2840TIP3    H1 8484   5.688   3.431   1.656  0.2590  1.6111  2.8964
 2840TIP3    H2 8485   5.813   3.438   1.572 -1.9471 -0.2396 -0.7667
 2841TIP3   OH2 8486   4.748   0.957   4.679 -0.2628  0.1400 -0.0956
 2841TIP3    H1 8487   4.790   0.875   4.654  0.7404  0.0233  1.8241
 2841TIP3    H2 8488   4.758   1.014   4.603  0.7664 -0.8737 -0.7358
 2842TIP3   OH2 8489   7.199   6.084   0.178 -0.2263 -0.0928  0.0907
 2842TIP3    H1 8490   7.127   6.119   0.126  1.2088  0.0985 -1.8881
 2842TIP3    H2 8491   7.162   6.073   0.266 -1.5369  3.8751  0.2542
 2843TIP3   OH2 8492   5.924   0.817   4.373  0.1187 -0.1600  0.5189
 2843TIP3    H1 8493   5.925   0.899   4.324  0.0264  0.4787  1.5430
 2843TIP3    H2 8494   5.990   0.762   4.331  1.1197  0.9340  0.6042
 2844TIP3   OH2 8495   1.057   2.822   4.922  0.0534  0.5708 -0.1438
 2844TIP3    H1 8496   1.137   2.804   4.872 -1.2901 -1.3703 -1.7711
 2844TIP3    H2 8497   1.011   2.888   4.869  0.4963  1.6123  0.7392
 2845TIP3   OH2 8498   3.925   6.190   2.152  0.2207 -0.1341 -0.1247
 2845TIP3    H1 8499   3.981   6.115   2.170 -0.3632 -0.9008 -1.3883
 2845TIP3    H2 8500   3.934   6.206   2.058 -1.0966  0.1909 -0.2215
 2846TIP3   OH2 8501   6.236   3.805   0.841 -0.1375 -0.7393 -0.0724
 2846TIP3    H1 8502   6.145   3.780   0.854 -0.8379  1.3501 -0.6276
 2846TIP3    H2 8503   6.232   3.889   0.796  2.0633 -0.3775  0.2922
 2847TIP3   OH2 8504   0.619   5.355   3.103 -0.0641 -0.3637  0.2960
 2847TIP3    H1 8505   0.569   5.279   3.074  0.5386 -0.2572 -1.1404
 2847TIP3    H2 8506   0.650   5.396   3.021 -1.2824  2.0504  0.9370
 2848TIP3   OH2 8507   7.235   4.499   3.871 -0.1243  0.0412 -0.1636
 2848TIP3    H1 8508   7.206   4.408   3.881  0.6363 -0.2372 -0.4473
 2848TIP3    H2 8509   7.165   4.541   3.821 -1.2270  0.0098  1.2841
 2849TIP3   OH2 8510   0.173   4.520   1.893 -0.6767  0.7256 -0.1666
 2849TIP3    H1 8511   0.196   4.605   1.855 -3.4157  2.2807  1.3035
 2849TIP3    H2 8512   0.194   4.530   1.986  1.6425 -1.3465 -0.3756
 2850TIP3   OH2 8513   2.741   5.565   2.677 -0.0855  0.5830  0.0490
 2850TIP3    H1 8514   2.837   5.564   2.674 -0.0907 -0.7323 -2.0517
 2850TIP3    H2 8515   2.718   5.657   2.663  0.8783  0.8080 -0.1690
 2851TIP3   OH2 8516   1.540   5.963   3.945  0.1886 -0.2263  0.2311
 2851TIP3    H1 8517   1.585   5.878   3.950 -0.4538 -0.5134  1.7980
 2851TIP3    H2 8518   1.508   5.968   3.855  3.3649  0.0440 -1.0368
 2852TIP3   OH2 8519   0.306   6.229   2.267 -0.1822 -1.1355 -0.4556
 2852TIP3    H1 8520   0.369   6.286   2.222 -0.4583 -0.2828  0.2163
 2852TIP3    H2 8521   0.220   6.257   2.234 -0.3145 -1.2553 -0.2195
 2853TIP3   OH2 8522   1.006   1.436   4.487  0.3080 -0.2378 -0.5522
 2853TIP3    H1 8523   1.035   1.526   4.497  0.7680 -0.2995 -1.2305
 2853TIP3    H2 8524   1.054   1.387   4.553 -1.5877  0.3254  1.3440
 2854TIP3   OH2 8525   4.220   4.360   3.936 -0.4901 -0.2027 -0.1285
 2854TIP3    H1 8526   4.312   4.338   3.927 -0.2703  0.9322 -0.8441
 2854TIP3    H2 8527   4.206   4.367   4.031 -0.1680 -1.5848  0.0491
 2855TIP3   OH2 8528   6.676   4.791   4.252 -0.1216  0.5177  0.0430
 2855TIP3    H1 8529   6.693   4.711   4.302 -2.1756  0.0766  0.1106
 2855TIP3    H2 8530   6.763   4.827   4.235  0.8125 -1.2358  0.8079
 2856TIP3   OH2 8531   0.530   2.460   5.528  0.4068  0.2648 -0.0247
 2856TIP3    H1 8532   0.622   2.485   5.532  0.2903  0.7373 -0.1658
 2856TIP3    H2 8533   0.486   2.521   5.588  0.0849  0.5495 -0.5415
 2857TIP3   OH2 8534   6.428   5.282   2.634 -0.1555 -0.1631 -0.0910
 2857TIP3    H1 8535   6.444   5.247   2.722  0.1090  1.2515  0.4623
 2857TIP3    H2 8536   6.334   5.299   2.632 -0.1624 -0.1977 -0.0701
 2858TIP3   OH2 8537   5.934   0.779   0.283  0.6896  0.2343  0.8584
 2858TIP3    H1 8538   5.870   0.711   0.305  0.1985  0.7727  1.1225
 2858TIP3    H2 8539   5.939   0.834   0.361  0.9543  0.5986  0.5908
 2859TIP3   OH2 8540   6.988   0.847   1.465 -0.3563 -0.0278  0.4595
 2859TIP3    H1 8541   6.929   0.922   1.476 -0.1726  0.2492 -0.3500
 2859TIP3    H2 8542   6.935   0.782   1.419  0.0611  0.3626 -0.6064
 2860TIP3   OH2 8543   5.250   0.589   0.285  0.3585 -0.3053 -0.1615
 2860TIP3    H1 8544   5.299   0.577   0.204  2.8513 -0.1516  1.2356
 2860TIP3    H2 8545   5.308   0.641   0.341 -1.4943  0.0466  1.5613
 2861TIP3   OH2 8546   2.398   1.878   3.964 -0.0366  0.2505 -0.0837
 2861TIP3    H1 8547   2.452   1.952   3.936  1.2002  0.1430  1.7880
 2861TIP3    H2 8548   2.397   1.819   3.889  2.1302  0.4723 -0.3640
 2862TIP3   OH2 8549   2.778   3.803   2.921 -0.9506 -0.1848 -0.1403
 2862TIP3    H1 8550   2.864   3.779   2.889 -0.5125  0.1877  0.7114
 2862TIP3    H2 8551   2.753   3.731   2.980 -0.1171  0.8365  1.5470
 2863TIP3   OH2 8552   1.093   2.545   0.927 -0.1225 -0.0822  0.4815
 2863TIP3    H1 8553   1.089   2.604   0.852  1.1530  1.9856  1.9179
 2863TIP3    H2 8554   1.002   2.533   0.954 -0.4833  0.2954 -0.5142
 2864TIP3   OH2 8555   1.807   3.806   4.500  1.0564 -0.2948  0.0412
 2864TIP3    H1 8556   1.841   3.718   4.481 -0.3183 -0.9453  0.4374
 2864TIP3    H2 8557   1.810   3.813   4.595  0.1630 -0.3509  0.0837
 2865TIP3   OH2 8558   4.481   5.889   2.951 -0.1154 -0.1106  0.3552
 2865TIP3    H1 8559   4.553   5.950   2.937 -0.5861  0.3311 -0.1815
 2865TIP3    H2 8560   4.486   5.868   3.044 -0.6186  1.6364  0.8248
 2866TIP3   OH2 8561   0.926   4.733   3.563 -0.8038  0.3807  0.2131
 2866TIP3    H1 8562   0.859   4.744   3.495 -1.6626  1.0326  1.1409
 2866TIP3    H2 8563   0.926   4.639   3.580  0.2926  0.0198 -1.5217
 2867TIP3   OH2 8564   1.576   5.934   4.363 -0.1792 -0.0547 -0.1144
 2867TIP3    H1 8565   1.655   5.912   4.314 -1.0354 -0.7495 -1.2416
 2867TIP3    H2 8566   1.597   6.017   4.406  1.2884 -0.4204 -0.0599
 2868TIP3   OH2 8567   4.675   3.377   3.493  0.4402  0.0502  0.3462
 2868TIP3    H1 8568   4.609   3.354   3.427 -1.4472  2.2320  1.3361
 2868TIP3    H2 8569   4.757   3.380   3.444 -0.3837 -1.3061 -1.2550
 2869TIP3   OH2 8570   0.013   5.979   1.100  0.9051  0.8384 -0.0953
 2869TIP3    H1 8571   0.058   5.906   1.058  0.1215 -0.1751  0.7654
 2869TIP3    H2 8572   0.013   6.048   1.034 -0.0114 -0.5897 -1.6807
 2870TIP3   OH2 8573   5.401   0.070   2.332  0.0921 -0.0437  0.2225
 2870TIP3    H1 8574   5.474   0.023   2.291 -1.3326 -1.4478 -0.8319
 2870TIP3    H2 8575   5.429   0.086   2.422  1.3880 -1.2308  0.0541
 2871TIP3   OH2 8576   5.525   6.765   1.317  0.7443 -0.4035  0.2013
 2871TIP3    H1 8577   5.559   6.821   1.388 -0.6672 -0.0837  0.6611
 2871TIP3    H2 8578   5.594   6.766   1.251  2.0743 -0.6359  1.5225
 2872TIP3   OH2 8579   6.509   2.880   4.629  0.0993  0.0240 -0.0700
 2872TIP3    H1 8580   6.571   2.866   4.701  0.0403 -1.1957 -0.2420
 2872TIP3    H2 8581   6.424   2.856   4.666 -0.4402  2.3954  0.3995
 2873TIP3   OH2 8582   3.222   5.711   5.028  0.4441 -0.0968  0.3293
 2873TIP3    H1 8583   3.144   5.748   4.988  0.1008 -1.2075 -0.0575
 2873TIP3    H2 8584   3.249   5.777   5.092  0.5343  1.3423 -1.1250
 2874TIP3   OH2 8585   0.153   4.199   0.502 -0.7409  0.4514  0.7759
 2874TIP3    H1 8586   0.135   4.278   0.451  0.7092  0.0149 -0.4677
 2874TIP3    H2 8587   0.150   4.229   0.593  0.5870  2.1369  0.3137
 2875TIP3   OH2 8588   1.604   0.652   1.430 -0.2049  0.0355  0.5996
 2875TIP3    H1 8589   1.660   0.726   1.406  1.1713 -0.7267  1.2812
 2875TIP3    H2 8590   1.588   0.663   1.523 -1.2240  0.2426  0.4111
 2876TIP3   OH2 8591   4.952   0.249   0.157 -0.0502 -0.3882  0.0161
 2876TIP3    H1 8592   5.043   0.217   0.153  0.2909  0.6562 -1.3330
 2876TIP3    H2 8593   4.899   0.172   0.135  0.5974 -0.6937 -0.5254
 2877TIP3   OH2 8594   6.457   5.066   4.455 -0.2312  0.2776  0.4735
 2877TIP3    H1 8595   6.433   5.081   4.546  0.9871  0.6649  0.7472
 2877TIP3    H2 8596   6.542   5.109   4.445 -0.3072  0.1722 -0.8241
 2878TIP3   OH2 8597   6.289   4.351   3.220 -0.3050 -0.0339  0.2170
 2878TIP3    H1 8598   6.381   4.366   3.243 -0.3243  0.4887 -0.0238
 2878TIP3    H2 8599   6.278   4.397   3.136 -0.5814 -0.7724 -0.1536
 2879TIP3   OH2 8600   2.396   1.979   5.501 -0.0840 -0.2875 -0.4953
 2879TIP3    H1 8601   2.439   1.968   5.416  0.0698  0.4411 -0.5224
 2879TIP3    H2 8602   2.376   1.890   5.530 -1.8156 -0.5280 -2.1591
 2880TIP3   OH2 8603   5.604   2.521   5.793 -0.0529  0.8050  0.3263
 2880TIP3    H1 8604   5.571   2.599   5.749  0.0517  0.2708 -0.7556
 2880TIP3    H2 8605   5.529   2.486   5.841 -0.3261  1.1039  0.1157
 2881TIP3   OH2 8606   3.627   4.716   5.842  0.0882 -0.0105 -0.1371
 2881TIP3    H1 8607   3.539   4.751   5.831  1.0238  2.4208 -0.6328
 2881TIP3    H2 8608   3.642   4.664   5.762  0.4540  2.8691 -2.1043
 2882TIP3   OH2 8609   0.998   1.210   2.251 -0.4922 -0.1291 -0.1083
 2882TIP3    H1 8610   1.080   1.160   2.250 -0.8223 -0.6800  0.0675
 2882TIP3    H2 8611   0.935   1.152   2.293 -0.8516  0.4909  0.2200
 2883TIP3   OH2 8612   2.819   4.145   5.029  0.0504 -0.1909  0.3952
 2883TIP3    H1 8613   2.766   4.066   5.042 -0.7834  0.5421  1.6451
 2883TIP3    H2 8614   2.834   4.148   4.935  1.4976 -2.6995  0.4488
 2884TIP3   OH2 8615   2.462   6.190   3.514  0.1102  0.2492  0.1403
 2884TIP3    H1 8616   2.445   6.118   3.575  0.3683 -0.4684 -0.6173
 2884TIP3    H2 8617   2.539   6.233   3.550  0.1419 -0.0438  0.4362
 2885TIP3   OH2 8618   5.232   5.501   1.777 -0.5404 -0.2743 -0.5294
 2885TIP3    H1 8619   5.284   5.575   1.746  0.5418 -0.1841  1.3923
 2885TIP3    H2 8620   5.267   5.425   1.730  1.3410 -0.2088  0.6721
 2886TIP3   OH2 8621   1.195   6.613   3.094 -0.4747  0.0435 -0.2445
 2886TIP3    H1 8622   1.116   6.665   3.079 -0.4351  0.0890 -0.2953
 2886TIP3    H2 8623   1.261   6.676   3.120 -0.4043  0.0295 -0.3869
 2887TIP3   OH2 8624   0.073   3.995   1.254 -0.1388  0.0121  0.1038
 2887TIP3    H1 8625   0.003   3.958   1.201  0.7419 -0.1379 -0.9896
 2887TIP3    H2 8626   0.029   4.058   1.312 -1.1714 -0.1086 -0.5330
 2888TIP3   OH2 8627   4.999   1.926   4.263  0.2576  0.0719  0.0516
 2888TIP3    H1 8628   4.982   1.848   4.210  2.0308  1.2329 -2.4442
 2888TIP3    H2 8629   4.928   1.987   4.241  0.0854 -0.0442  0.2869
 2889TIP3   OH2 8630   2.234   5.952   2.377 -0.2472  0.2817 -0.2721
 2889TIP3    H1 8631   2.250   5.953   2.283 -1.7893  1.4387 -0.5572
 2889TIP3    H2 8632   2.140   5.964   2.385 -0.5122 -2.2398  1.3802
 2890TIP3   OH2 8633   2.901   2.325   5.743  0.5623  0.5269  0.0299
 2890TIP3    H1 8634   2.854   2.271   5.680  1.6412 -0.2175 -0.1747
 2890TIP3    H2 8635   2.834   2.380   5.784 -0.2678  0.3997 -1.1393
 2891TIP3   OH2 8636   4.821   3.683   0.715 -0.5623  0.0019  0.0912
 2891TIP3    H1 8637   4.732   3.654   0.734 -0.8793 -0.7344 -2.1925
 2891TIP3    H2 8638   4.876   3.635   0.776 -1.5796 -0.9328  0.2973
 2892TIP3   OH2 8639   6.499   0.996   0.816  0.7287 -0.0322  0.4085
 2892TIP3    H1 8640   6.431   1.041   0.866  0.4928 -0.4399  0.4655
 2892TIP3    H2 8641   6.451   0.945   0.750  0.7908 -2.0116  1.7803
 2893TIP3   OH2 8642   7.011   4.850   2.365  0.5447  0.1195 -0.2278
 2893TIP3    H1 8643   6.943   4.892   2.312  0.9192  1.4770  0.3206
 2893TIP3    H2 8644   6.966   4.779   2.410 -0.1837  0.1083 -0.9432
 2894TIP3   OH2 8645   5.693   1.696   1.870  0.2296 -0.4547  0.4132
 2894TIP3    H1 8646   5.734   1.761   1.812  0.6650 -0.3612  0.8188
 2894TIP3    H2 8647   5.623   1.658   1.817 -1.1279  1.4885  0.7145
 2895TIP3   OH2 8648   5.304   1.473   0.873  0.7434  0.0365  0.4445
 2895TIP3    H1 8649   5.316   1.426   0.790 -2.1277  0.1520 -0.1422
 2895TIP3    H2 8650   5.267   1.408   0.932 -0.4638  0.8011  0.5531
 2896TIP3   OH2 8651   2.388   5.196   3.527 -0.3215 -0.4743 -0.0158
 2896TIP3    H1 8652   2.411   5.281   3.488  1.2924 -0.7519  0.2460
 2896TIP3    H2 8653   2.391   5.213   3.622 -1.1807 -0.5414  0.0237
 2897TIP3   OH2 8654   3.113   3.889   0.124 -0.2261  0.1400 -0.0407
 2897TIP3    H1 8655   3.146   3.973   0.091  0.6450  0.1367  0.7596
 2897TIP3    H2 8656   3.190   3.832   0.125 -0.6924 -0.5041 -0.0421
 2898TIP3   OH2 8657   5.130   4.057   5.783  0.0880  0.2605 -0.7083
 2898TIP3    H1 8658   5.129   4.081   5.690 -0.5336  1.8641 -0.3325
 2898TIP3    H2 8659   5.220   4.028   5.799 -0.0662 -1.0520 -2.0209
 2899TIP3   OH2 8660   1.511   2.342   3.973 -0.6219  0.0191 -0.1736
 2899TIP3    H1 8661   1.520   2.311   3.883 -0.1730 -0.5705  0.0702
 2899TIP3    H2 8662   1.484   2.264   4.022  0.3049  0.0503  0.4069
 2900TIP3   OH2 8663   1.996   4.501   3.227  0.6631 -0.2642  0.5176
 2900TIP3    H1 8664   1.988   4.595   3.209 -0.3481 -0.3648  0.3513
 2900TIP3    H2 8665   2.077   4.475   3.184  0.2377  0.2619 -0.6650
 2901TIP3   OH2 8666   1.621   6.126   3.099 -0.3722 -0.6385  0.3596
 2901TIP3    H1 8667   1.676   6.079   3.163  0.1068  1.2974  1.4402
 2901TIP3    H2 8668   1.683   6.169   3.041 -0.7889 -0.7934 -0.2024
 2902TIP3   OH2 8669   2.919   4.233   0.339  0.2177  0.5718 -0.1810
 2902TIP3    H1 8670   2.946   4.241   0.248  0.3716  0.1903 -0.1731
 2902TIP3    H2 8671   2.961   4.305   0.385 -1.0978  1.7030 -0.6849
 2903TIP3   OH2 8672   6.008   3.886   1.503  0.0655  0.5000 -0.4792
 2903TIP3    H1 8673   6.072   3.840   1.558 -0.5390  0.3680  0.1327
 2903TIP3    H2 8674   5.980   3.961   1.556 -0.6083  0.3079 -0.5526
 2904TIP3   OH2 8675   3.159   1.286   2.345 -0.1492 -0.0622 -0.5105
 2904TIP3    H1 8676   3.252   1.266   2.355  0.0034  1.4247  2.0093
 2904TIP3    H2 8677   3.119   1.203   2.319  1.5860 -1.3083  0.5753
 2905TIP3   OH2 8678   0.897   2.906   1.724 -0.2746  0.4323  0.1305
 2905TIP3    H1 8679   0.851   2.990   1.721 -0.4666  0.3515  0.6868
 2905TIP3    H2 8680   0.869   2.867   1.807  1.2119  0.6125  0.7490
 2906TIP3   OH2 8681   1.642   1.727   2.636 -0.2720  0.1601  0.5518
 2906TIP3    H1 8682   1.696   1.724   2.557 -0.0927 -1.2664  0.7153
 2906TIP3    H2 8683   1.684   1.795   2.690  0.7919 -0.2469  0.2700
 2907TIP3   OH2 8684   4.581   5.200   2.091  0.5357 -0.2843  0.3035
 2907TIP3    H1 8685   4.645   5.250   2.142  1.4423 -0.9717 -0.1401
 2907TIP3    H2 8686   4.613   5.110   2.095  0.1577 -0.4713 -0.7949
 2908TIP3   OH2 8687   6.352   4.920   3.825  0.7246 -0.4692 -0.2904
 2908TIP3    H1 8688   6.279   4.859   3.839  0.7570 -0.5900 -0.6269
 2908TIP3    H2 8689   6.420   4.890   3.885  0.8761 -0.9953 -0.7165
 2909TIP3   OH2 8690   0.491   0.336   5.366 -0.4569 -0.1866 -0.2240
 2909TIP3    H1 8691   0.465   0.281   5.440 -0.4606 -1.7093 -1.3301
 2909TIP3    H2 8692   0.413   0.339   5.310 -0.2439  0.4358 -0.4970
 2910TIP3   OH2 8693   7.154   3.074   2.071  0.2862 -0.4402  0.3344
 2910TIP3    H1 8694   7.075   3.087   2.018  0.6772  0.3556 -0.0780
 2910TIP3    H2 8695   7.219   3.133   2.031 -0.1261  2.2902  3.2568
 2911TIP3   OH2 8696   0.453   2.752   3.359  0.0396  0.7558 -1.0515
 2911TIP3    H1 8697   0.445   2.836   3.405  1.6719  0.6171 -0.4634
 2911TIP3    H2 8698   0.373   2.746   3.307 -0.8582  1.9164  0.1375
 2912TIP3   OH2 8699   1.897   3.531   3.899 -0.5389 -0.2337  0.0947
 2912TIP3    H1 8700   1.881   3.540   3.993  0.3801 -0.2177  0.2582
 2912TIP3    H2 8701   1.941   3.612   3.874  1.1333 -1.0945  0.0931
 2913TIP3   OH2 8702   6.649   0.227   0.254  0.4227  0.3411  0.0367
 2913TIP3    H1 8703   6.703   0.174   0.313 -1.7450 -1.4129  0.5713
 2913TIP3    H2 8704   6.561   0.222   0.290 -0.6665  0.7190 -2.3496
 2914TIP3   OH2 8705   3.581   1.237   0.895  0.0332 -0.1235  0.2645
 2914TIP3    H1 8706   3.567   1.298   0.966 -0.6919 -1.4994  1.3476
 2914TIP3    H2 8707   3.494   1.221   0.859  0.3066  0.0250 -0.4840
 2915TIP3   OH2 8708   5.574   1.608   3.552  0.0220  0.2899  0.0626
 2915TIP3    H1 8709   5.591   1.687   3.602 -3.1125  0.0962  1.6849
 2915TIP3    H2 8710   5.490   1.624   3.509  0.3446 -1.3707 -1.3110
 2916TIP3   OH2 8711   1.147   0.616   0.179 -0.9645  0.2417 -0.2613
 2916TIP3    H1 8712   1.129   0.534   0.225 -1.0137  1.0531  1.2317
 2916TIP3    H2 8713   1.182   0.589   0.094 -1.7734 -1.3181 -0.1343
 2917TIP3   OH2 8714   4.557   2.167   5.199 -0.5331 -0.2943  0.1995
 2917TIP3    H1 8715   4.558   2.187   5.106  3.0481  1.2612  0.4164
 2917TIP3    H2 8716   4.634   2.112   5.213  0.1611  1.0997  2.4404
 2918TIP3   OH2 8717   4.908   6.656   5.115  0.4077  0.4727  0.0548
 2918TIP3    H1 8718   4.836   6.658   5.178 -0.1862 -2.0709 -0.4398
 2918TIP3    H2 8719   4.982   6.620   5.163  0.2201 -0.5602 -0.3833
 2919TIP3   OH2 8720   0.153   0.699   3.079 -0.4276  0.4667 -0.1004
 2919TIP3    H1 8721   0.162   0.603   3.082 -2.1395  0.2517 -0.8466
 2919TIP3    H2 8722   0.243   0.731   3.081  0.1637 -1.0373  2.6924
 2920TIP3   OH2 8723   1.984   1.633   5.013 -0.9703  0.1107  0.1273
 2920TIP3    H1 8724   1.987   1.715   4.963  0.4267  1.1873  1.8627
 2920TIP3    H2 8725   2.075   1.611   5.030 -1.2966 -2.0244 -0.5458
 2921TIP3   OH2 8726   3.655   3.992   4.433  0.0821 -0.1500  0.3062
 2921TIP3    H1 8727   3.569   3.994   4.392  1.3706 -0.6480 -2.6621
 2921TIP3    H2 8728   3.671   4.082   4.462 -0.8586  0.2469 -0.3871
 2922TIP3   OH2 8729   1.730   6.135   4.434  0.1614 -0.1283  0.5718
 2922TIP3    H1 8730   1.687   6.213   4.469 -1.2156  0.1854 -1.6519
 2922TIP3    H2 8731   1.819   6.165   4.413  0.3093  0.2526  1.6595
 2923TIP3   OH2 8732   6.317   0.988   0.357 -0.2690  0.2392  0.1033
 2923TIP3    H1 8733   6.301   0.908   0.306 -2.4810  1.5382 -1.4125
 2923TIP3    H2 8734   6.395   1.026   0.318  0.9823 -1.2637  1.0293
 2924TIP3   OH2 8735   2.216   3.965   0.365 -0.2024  0.1080 -0.3695
 2924TIP3    H1 8736   2.154   4.037   0.375  0.6709  0.6809  1.5045
 2924TIP3    H2 8737   2.302   4.005   0.382  0.3607 -1.2273  0.0495
 2925TIP3   OH2 8738   5.631   0.883   1.569 -0.1736  0.0024 -0.6129
 2925TIP3    H1 8739   5.572   0.926   1.630 -1.4891 -1.6426 -0.6492
 2925TIP3    H2 8740   5.719   0.909   1.598 -0.8205  0.5980  0.9371
 2926TIP3   OH2 8741   3.075   5.410   1.779  0.0711 -0.3874 -0.0031
 2926TIP3    H1 8742   3.002   5.438   1.833 -0.5766 -0.2881 -0.9025
 2926TIP3    H2 8743   3.096   5.487   1.726  1.0012 -0.3345  0.4270
 2927TIP3   OH2 8744   6.523   0.616   2.350  0.0944 -0.5349  0.3503
 2927TIP3    H1 8745   6.521   0.694   2.405  0.2846  0.4807 -1.0508
 2927TIP3    H2 8746   6.561   0.645   2.268 -0.9174 -1.8382 -0.6166
 2928TIP3   OH2 8747   4.617   0.486   4.593  0.5305 -0.2207  0.0200
 2928TIP3    H1 8748   4.573   0.459   4.513 -0.7579 -0.7295  0.8549
 2928TIP3    H2 8749   4.701   0.440   4.592  0.4057 -0.4410 -0.8929
 2929TIP3   OH2 8750   4.159   0.477   2.057  0.1707 -0.1109 -0.6428
 2929TIP3    H1 8751   4.156   0.555   2.002 -1.2522 -0.0262 -0.4843
 2929TIP3    H2 8752   4.070   0.444   2.057  0.3244 -0.6162  0.8937
 2930TIP3   OH2 8753   3.818   0.644   4.484  0.0521 -0.1497  0.0762
 2930TIP3    H1 8754   3.810   0.713   4.418 -0.7184  0.0664  0.3843
 2930TIP3    H2 8755   3.859   0.689   4.559 -0.7933  0.0712  0.4110
 2931TIP3   OH2 8756   2.308   2.019   4.196  0.0703  0.1349 -0.2575
 2931TIP3    H1 8757   2.223   2.006   4.239  0.3460 -1.6010 -0.1552
 2931TIP3    H2 8758   2.300   1.972   4.113  0.6888  0.5931 -0.5778
 2932TIP3   OH2 8759   4.395   6.483   2.798  0.0356 -0.1237 -0.3257
 2932TIP3    H1 8760   4.359   6.506   2.712  0.4563  0.1431 -0.4319
 2932TIP3    H2 8761   4.367   6.392   2.811  0.4663 -0.3690 -1.0143
 2933TIP3   OH2 8762   3.675   2.148   1.158 -0.0558  0.0494  0.0932
 2933TIP3    H1 8763   3.738   2.217   1.134  1.5366 -1.1474  0.6794
 2933TIP3    H2 8764   3.610   2.150   1.088  1.0553  0.8242 -0.9642
 2934TIP3   OH2 8765   1.306   0.085   0.903  0.0808 -0.1270 -0.3918
 2934TIP3    H1 8766   1.358   0.005   0.902  1.3615  0.6410 -2.1469
 2934TIP3    H2 8767   1.268   0.090   0.815 -1.0317  0.5622  0.0943
 2935TIP3   OH2 8768   2.959   1.126   0.513 -0.1061  0.1751 -0.0211
 2935TIP3    H1 8769   3.050   1.136   0.540  0.1774 -1.2089 -0.3550
 2935TIP3    H2 8770   2.938   1.207   0.467  0.5435  1.0360  1.1423
 2936TIP3   OH2 8771   3.987   4.495   0.967 -0.9396 -0.2068  0.6023
 2936TIP3    H1 8772   3.916   4.501   0.903  0.1688 -0.6146 -0.7197
 2936TIP3    H2 8773   3.993   4.584   1.004  1.2943  1.4569 -3.1792
 2937TIP3   OH2 8774   6.608   1.982   5.049 -0.4171 -0.5058 -0.5678
 2937TIP3    H1 8775   6.697   1.993   5.081  0.2671 -2.8844 -1.4242
 2937TIP3    H2 8776   6.557   1.961   5.128  0.3980 -2.0360 -0.4054
 2938TIP3   OH2 8777   0.248   3.108   1.089 -0.2542 -0.6255  0.2592
 2938TIP3    H1 8778   0.197   3.164   1.031  1.9213 -1.2825 -2.5279
 2938TIP3    H2 8779   0.325   3.160   1.112  0.4684 -1.5054 -0.1184
 2939TIP3   OH2 8780   3.107   4.669   2.662  0.1316 -0.0290  0.3464
 2939TIP3    H1 8781   3.046   4.687   2.733  0.2186  0.0426  0.4029
 2939TIP3    H2 8782   3.124   4.575   2.667  0.2758  0.0072  0.5304
 2940TIP3   OH2 8783   5.634   2.516   0.035  0.3534 -0.1660  0.0820
 2940TIP3    H1 8784   5.657   2.533   0.127  3.0782  1.2310 -0.7670
 2940TIP3    H2 8785   5.588   2.595   0.006 -1.7886 -1.1623  0.5283
 2941TIP3   OH2 8786   0.703   4.749   4.562  0.1009 -0.9839  0.1442
 2941TIP3    H1 8787   0.761   4.697   4.618  1.1725 -0.2701 -0.2502
 2941TIP3    H2 8788   0.658   4.685   4.507  1.0422 -1.5309 -0.0143
 2942TIP3   OH2 8789   1.349   4.587   3.684  0.3130 -0.5927 -0.0698
 2942TIP3    H1 8790   1.307   4.673   3.679  2.6583  0.6576  0.3827
 2942TIP3    H2 8791   1.281   4.526   3.657 -0.8706  1.5491 -2.3885
 2943TIP3   OH2 8792   1.592   1.943   4.500  0.6457 -0.5726  0.5291
 2943TIP3    H1 8793   1.547   1.910   4.422  2.4874 -0.2779 -0.7146
 2943TIP3    H2 8794   1.523   1.952   4.566 -0.9760 -0.7668 -1.0797
 2944TIP3   OH2 8795   1.005   3.519   1.382  0.0014  0.7017 -0.1126
 2944TIP3    H1 8796   0.971   3.454   1.444  1.8720  0.7322  1.0332
 2944TIP3    H2 8797   0.928   3.571   1.358 -1.3542 -1.2289 -0.2453
 2945TIP3   OH2 8798   3.040   2.220   4.144 -0.0206  0.1121  0.2645
 2945TIP3    H1 8799   3.056   2.165   4.221  0.2382 -1.2373 -0.7023
 2945TIP3    H2 8800   2.960   2.184   4.105 -0.1205  0.7446 -0.1304
 2946TIP3   OH2 8801   5.300   2.922   0.436  0.2454 -0.1720  0.1105
 2946TIP3    H1 8802   5.313   2.987   0.367 -1.2706 -0.5988 -0.6235
 2946TIP3    H2 8803   5.388   2.894   0.460  0.8017 -0.7382 -2.3663
 2947TIP3   OH2 8804   0.652   6.659   2.619  0.4626 -0.3816  0.1047
 2947TIP3    H1 8805   0.605   6.581   2.591  0.0987 -0.8679  1.8923
 2947TIP3    H2 8806   0.737   6.654   2.575 -0.3740 -0.5646 -1.5641
 2948TIP3   OH2 8807   1.675   0.118   0.848  0.7160  0.1149 -0.1893
 2948TIP3    H1 8808   1.707   0.193   0.898  0.7800  0.1975 -0.3535
 2948TIP3    H2 8809   1.675   0.046   0.911 -1.8825  0.8174  0.7373
 2949TIP3   OH2 8810   2.538   6.693   5.345  0.1997  0.1392 -0.1253
 2949TIP3    H1 8811   2.526   6.652   5.431  0.3377  1.4062  0.5277
 2949TIP3    H2 8812   2.612   6.646   5.306  0.2728 -0.3121  0.5427
 2950TIP3   OH2 8813   6.673   0.607   4.547  0.3710  0.1512  0.0635
 2950TIP3    H1 8814   6.737   0.586   4.615 -0.2030  0.9715  0.8665
 2950TIP3    H2 8815   6.703   0.690   4.510 -0.9381  1.2699  1.3875
 2951TIP3   OH2 8816   5.108   6.424   3.705 -0.4608  0.3924  0.3876
 2951TIP3    H1 8817   5.187   6.454   3.750 -0.6782  0.8621  0.4665
 2951TIP3    H2 8818   5.126   6.333   3.682 -0.5371 -0.0253  1.8933
 2952TIP3   OH2 8819   4.154   2.208   3.163 -0.3641 -0.6074  0.3283
 2952TIP3    H1 8820   4.202   2.225   3.243 -0.4647  0.0520  0.2529
 2952TIP3    H2 8821   4.222   2.194   3.097 -0.2769  0.0465  0.2792
 2953TIP3   OH2 8822   3.224   1.763   5.501  0.0304 -0.1550 -0.0699
 2953TIP3    H1 8823   3.221   1.821   5.577  0.2839  0.8002 -0.7564
 2953TIP3    H2 8824   3.304   1.789   5.455 -0.1163 -0.7223 -0.6604
 2954TIP3   OH2 8825   5.084   2.567   2.662  0.0410  0.0234 -0.5304
 2954TIP3    H1 8826   5.160   2.599   2.712 -0.8845  0.2762  0.7709
 2954TIP3    H2 8827   5.084   2.473   2.676  0.7751 -0.1310 -1.5016
 2955TIP3   OH2 8828   2.250   3.717   0.509 -0.3420 -0.1984 -0.8743
 2955TIP3    H1 8829   2.325   3.663   0.486 -0.0430 -0.1643 -0.0356
 2955TIP3    H2 8830   2.256   3.794   0.452  0.4224 -0.0637 -0.6141
 2956TIP3   OH2 8831   4.269   5.974   3.691 -0.0794 -0.1953  0.1654
 2956TIP3    H1 8832   4.241   6.002   3.778 -2.0281  1.9598 -1.0634
 2956TIP3    H2 8833   4.246   5.881   3.688 -0.9509 -0.0613  1.5766
 2957TIP3   OH2 8834   6.359   2.710   1.209 -0.1366 -0.1899  0.0267
 2957TIP3    H1 8835   6.268   2.727   1.231 -0.0148 -0.8172  1.0872
 2957TIP3    H2 8836   6.356   2.629   1.157 -0.2498  0.2563 -0.6773
 2958TIP3   OH2 8837   4.307   1.340   5.853  0.1057  0.2036 -0.4994
 2958TIP3    H1 8838   4.298   1.418   5.799 -1.9801 -1.8072 -3.3388
 2958TIP3    H2 8839   4.316   1.268   5.791  1.0377 -1.9634  1.9464
 2959TIP3   OH2 8840   4.234   2.609   4.784  0.1258  0.3452  0.0754
 2959TIP3    H1 8841   4.317   2.578   4.820 -0.7603  1.1803  3.1501
 2959TIP3    H2 8842   4.179   2.530   4.779  0.5510  0.0705 -0.3418
 2960TIP3   OH2 8843   5.200   3.200   4.754 -0.2934  0.2443 -0.0214
 2960TIP3    H1 8844   5.190   3.148   4.675  1.8766  0.5335 -0.5576
 2960TIP3    H2 8845   5.195   3.137   4.826  1.6419 -0.6692 -0.6293
 2961TIP3   OH2 8846   3.766   1.039   0.830 -0.2146  0.1087 -0.7398
 2961TIP3    H1 8847   3.691   1.093   0.854  0.7903  0.8791  0.8788
 2961TIP3    H2 8848   3.747   0.953   0.867 -0.2904  0.2955 -0.3472
 2962TIP3   OH2 8849   6.793   5.544   2.526  0.3379  0.0789 -0.0950
 2962TIP3    H1 8850   6.884   5.517   2.514  0.4714  1.2255 -2.0097
 2962TIP3    H2 8851   6.742   5.476   2.483  0.3330 -0.0400  0.0949
 2963TIP3   OH2 8852   3.573   2.552   5.431  0.0021 -0.0069  0.5373
 2963TIP3    H1 8853   3.641   2.536   5.367 -0.3344  3.8867 -1.0508
 2963TIP3    H2 8854   3.620   2.567   5.513  0.6750 -1.3817  0.4352
 2964TIP3   OH2 8855   1.524   4.406   3.806  0.0972  0.1808 -0.5543
 2964TIP3    H1 8856   1.512   4.343   3.736 -1.4837 -1.9910  1.5244
 2964TIP3    H2 8857   1.463   4.477   3.785 -0.6525 -0.6224 -1.1651
 2965TIP3   OH2 8858   3.067   1.682   1.955  0.2100 -0.5327 -0.0476
 2965TIP3    H1 8859   3.044   1.659   1.865 -1.6001  0.2825  0.1719
 2965TIP3    H2 8860   3.086   1.598   1.996 -0.5035 -1.0799 -0.7940
 2966TIP3   OH2 8861   2.002   6.338   5.508  0.2198  0.1209  0.0764
 2966TIP3    H1 8862   2.020   6.432   5.504  0.2262  0.0822 -2.1073
 2966TIP3    H2 8863   1.948   6.321   5.430  0.4262 -1.7182  0.3027
 2967TIP3   OH2 8864   1.648   3.867   4.005  0.3843  0.1540 -0.6625
 2967TIP3    H1 8865   1.574   3.818   4.041  1.2150 -0.0019  0.9049
 2967TIP3    H2 8866   1.652   3.841   3.913 -1.4729  0.1421 -0.7725
 2968TIP3   OH2 8867   2.252   4.952   0.014  0.5361 -0.1660  0.2381
 2968TIP3    H1 8868   2.301   5.034   0.027  1.5708 -0.3478 -2.0984
 2968TIP3    H2 8869   2.167   4.980  -0.021  0.1042 -0.0352  1.3242
 2969TIP3   OH2 8870   3.723   6.780   5.689 -0.6701  0.2162  0.1786
 2969TIP3    H1 8871   3.771   6.774   5.607 -0.9955 -1.2586  0.0703
 2969TIP3    H2 8872   3.787   6.811   5.753  0.2010 -0.8618 -0.1529
 2970TIP3   OH2 8873   2.781   4.548   0.015 -0.3178 -0.2765 -0.4745
 2970TIP3    H1 8874   2.782   4.507  -0.071  0.2327  0.3590 -0.7862
 2970TIP3    H2 8875   2.859   4.514   0.059 -1.8827 -2.5085  0.7337
 2971TIP3   OH2 8876   1.180   4.714   2.561 -0.0385 -0.2014  0.6596
 2971TIP3    H1 8877   1.272   4.691   2.571 -0.2718 -0.6606  1.8724
 2971TIP3    H2 8878   1.134   4.630   2.562 -0.3624 -0.1232 -1.6981
 2972TIP3   OH2 8879   7.131   1.012   5.505 -0.0649  0.1093 -0.2552
 2972TIP3    H1 8880   7.106   1.020   5.413 -0.0182 -1.2406 -0.4081
 2972TIP3    H2 8881   7.055   0.973   5.548 -0.4456  1.5777  0.4969
 2973TIP3   OH2 8882   5.173   4.692   4.178  0.4394 -0.0851  0.0678
 2973TIP3    H1 8883   5.132   4.697   4.091 -1.1488 -0.7466  0.7248
 2973TIP3    H2 8884   5.101   4.709   4.239  1.7298  1.3640  1.2580
 2974TIP3   OH2 8885   2.683   6.660   0.751 -0.0874  0.2300 -0.1661
 2974TIP3    H1 8886   2.749   6.615   0.699  0.5824  1.8577 -0.7851
 2974TIP3    H2 8887   2.726   6.740   0.780 -1.3096  0.6040  0.6990
 2975TIP3   OH2 8888   1.724   5.033   1.819 -0.0405  0.1755 -0.3097
 2975TIP3    H1 8889   1.634   5.009   1.799 -0.2483 -0.1968  0.9592
 2975TIP3    H2 8890   1.778   4.967   1.776 -0.4734 -0.7385  0.5115
 2976TIP3   OH2 8891   0.365   2.450   1.912  0.1840  0.1797  0.3115
 2976TIP3    H1 8892   0.393   2.363   1.941 -1.0093 -0.0880  0.7298
 2976TIP3    H2 8893   0.314   2.433   1.832  2.2475  0.7781 -1.1994
 2977TIP3   OH2 8894   3.777   4.619   5.344  0.3089 -0.3164  0.0680
 2977TIP3    H1 8895   3.840   4.556   5.310 -0.4157 -0.2576 -1.4760
 2977TIP3    H2 8896   3.708   4.623   5.278 -1.2727 -0.2860  1.6261
 2978TIP3   OH2 8897   1.931   4.470   1.145  0.0937  0.3508 -0.3767
 2978TIP3    H1 8898   1.912   4.540   1.206 -0.8542 -0.6981  0.5732
 2978TIP3    H2 8899   1.932   4.513   1.059 -1.0815  1.4127  0.1151
 2979TIP3   OH2 8900   6.949   0.296   3.756  0.2824  0.2392  0.4823
 2979TIP3    H1 8901   7.000   0.216   3.745 -0.8836 -0.7125  1.6939
 2979TIP3    H2 8902   6.936   0.329   3.667  0.9123 -0.8375 -0.0182
 2980TIP3   OH2 8903   6.117   2.157   3.672 -0.5794 -0.3980  0.2789
 2980TIP3    H1 8904   6.031   2.199   3.673 -1.3351 -1.8206  2.3338
 2980TIP3    H2 8905   6.119   2.109   3.589 -1.8065 -0.3963  0.2281
 2981TIP3   OH2 8906   6.768   3.863   0.115 -0.3115 -0.2601 -0.0150
 2981TIP3    H1 8907   6.673   3.851   0.112 -0.2896 -0.9300  1.0801
 2981TIP3    H2 8908   6.780   3.954   0.141 -0.6276  0.0758 -0.9987
 2982TIP3   OH2 8909   6.818   2.845   0.110  0.1671  0.0147  0.1976
 2982TIP3    H1 8910   6.873   2.906   0.159 -0.7185  0.6436  0.4327
 2982TIP3    H2 8911   6.775   2.899   0.043 -0.3152 -0.4246  0.1458
 2983TIP3   OH2 8912   2.092   2.645   1.961 -0.5414  0.0018 -0.6169
 2983TIP3    H1 8913   2.073   2.552   1.943 -0.4538 -0.0912 -0.2317
 2983TIP3    H2 8914   2.118   2.647   2.053  1.6201  0.0863 -1.1771
 2984TIP3   OH2 8915   0.744   4.489   3.566  0.9837  0.0121  0.7510
 2984TIP3    H1 8916   0.669   4.476   3.508  0.1098  0.4015  1.7606
 2984TIP3    H2 8917   0.748   4.410   3.619  2.2120 -0.6522 -0.2697
 2985TIP3   OH2 8918   5.278   4.699   1.158 -0.3314  0.0792 -0.3670
 2985TIP3    H1 8919   5.351   4.664   1.107 -0.8377  0.1548 -1.1460
 2985TIP3    H2 8920   5.309   4.696   1.249  0.6814  0.2133 -0.6991
 2986TIP3   OH2 8921   3.030   6.098   1.283 -0.3691  0.4223  0.1763
 2986TIP3    H1 8922   3.001   6.096   1.192  0.3413 -0.9255 -0.0551
 2986TIP3    H2 8923   3.103   6.159   1.284  2.0593 -2.1937 -1.0242
 2987TIP3   OH2 8924   2.259   3.762   2.473 -0.3085 -0.1728  0.0464
 2987TIP3    H1 8925   2.198   3.705   2.520 -1.3551  1.8303  1.2598
 2987TIP3    H2 8926   2.346   3.730   2.497 -0.8671 -0.8957  1.1568
 2988TIP3   OH2 8927   2.207   4.431   1.305 -0.3983 -0.2083  0.0370
 2988TIP3    H1 8928   2.260   4.488   1.249  0.1058 -1.9527 -1.3697
 2988TIP3    H2 8929   2.119   4.436   1.267  0.1531 -2.2065 -1.7237
 2989TIP3   OH2 8930   0.312   1.065   2.868 -1.0446  0.5506  0.4432
 2989TIP3    H1 8931   0.238   1.024   2.825  0.2194  0.2555 -1.6023
 2989TIP3    H2 8932   0.378   1.075   2.799  0.5699  1.4300  2.0034
 2990TIP3   OH2 8933   0.837   4.244   0.455 -0.5308 -0.2883 -0.1252
 2990TIP3    H1 8934   0.878   4.313   0.403 -0.1144  0.5009  1.2035
 2990TIP3    H2 8935   0.747   4.241   0.424 -1.0545  2.0866  0.9382
 2991TIP3   OH2 8936   2.966   3.773   1.534 -0.3236  0.1534 -0.6870
 2991TIP3    H1 8937   3.017   3.696   1.558 -1.5399 -0.7100 -0.7728
 2991TIP3    H2 8938   3.018   3.817   1.466  1.7237  0.9809  1.2818
 2992TIP3   OH2 8939   3.210   4.155   1.606 -0.3012  0.0274  0.5196
 2992TIP3    H1 8940   3.226   4.088   1.673 -0.9667 -1.3394 -0.6430
 2992TIP3    H2 8941   3.151   4.218   1.649  0.9560  0.3309  1.8791
 2993TIP3   OH2 8942   3.442   5.657   2.578 -0.2850 -0.1950 -0.4990
 2993TIP3    H1 8943   3.410   5.696   2.659  2.6247  0.1254  0.6413
 2993TIP3    H2 8944   3.397   5.704   2.508 -1.7624  0.5494  0.8968
 2994TIP3   OH2 8945   0.104   2.509   0.951 -0.3926 -0.3400 -0.0179
 2994TIP3    H1 8946   0.038   2.474   0.892 -1.0133  1.7599 -0.6723
 2994TIP3    H2 8947   0.174   2.541   0.894 -0.3916  0.5150  0.4288
 2995TIP3   OH2 8948   4.362   0.033   3.211 -0.6030  0.2232  0.6102
 2995TIP3    H1 8949   4.299   0.061   3.144  0.6563  0.1912 -0.6358
 2995TIP3    H2 8950   4.362   0.104   3.275 -2.2845 -0.0219  0.9340
 2996TIP3   OH2 8951   0.046   0.855   2.180  0.1188  0.7942 -0.9207
 2996TIP3    H1 8952   0.020   0.763   2.176 -1.5475  1.2280 -0.7307
 2996TIP3    H2 8953  -0.034   0.901   2.203  1.0108  2.2683 -0.6758
 2997TIP3   OH2 8954   2.905   4.918   3.097  0.4462  0.0987  0.1943
 2997TIP3    H1 8955   2.830   4.960   3.140  0.7681  0.1602  0.7038
 2997TIP3    H2 8956   2.925   4.975   3.023 -0.2338 -0.1080 -0.1527
 2998TIP3   OH2 8957   2.834   5.024   1.909  0.2652  0.2782 -0.0771
 2998TIP3    H1 8958   2.916   5.052   1.950  0.0805 -0.6463  0.9883
 2998TIP3    H2 8959   2.807   4.949   1.961 -0.8394  0.0691 -0.9336
 2999TIP3   OH2 8960   0.733   4.020   0.797 -0.3908  0.0637 -0.5729
 2999TIP3    H1 8961   0.663   4.058   0.744 -0.7150 -0.6168 -0.6451
 2999TIP3    H2 8962   0.723   4.061   0.883 -2.4309 -1.7569  0.1560
 3000TIP3   OH2 8963   5.576   0.444   4.746 -0.7767  0.1628 -0.0327
 3000TIP3    H1 8964   5.625   0.412   4.670 -0.8639  0.2154 -0.1118
 3000TIP3    H2 8965   5.526   0.519   4.712  0.4418  1.2378  0.4502
 3001TIP3   OH2 8966   5.623   1.494   3.299  0.1641  0.4693 -0.8311
 3001TIP3    H1 8967   5.601   1.519   3.388 -1.1481 -0.3358 -0.8936
 3001TIP3    H2 8968   5.548   1.442   3.270  2.0464 -2.2517 -1.1957
 3002TIP3   OH2 8969   3.426   1.634   1.206 -0.4094 -0.5996 -0.3350
 3002TIP3    H1 8970   3.405   1.640   1.299 -1.4974  0.7794 -0.6181
 3002TIP3    H2 8971   3.493   1.701   1.192 -0.0103 -1.0274 -0.4902
 3003TIP3   OH2 8972   0.747   6.216   3.679  0.0670 -0.0652  0.2281
 3003TIP3    H1 8973   0.663   6.175   3.700 -0.3281 -0.3117 -1.5986
 3003TIP3    H2 8974   0.812   6.147   3.693  0.0768  0.3061  2.2360
 3004TIP3   OH2 8975   4.960   4.430   5.346 -0.2027  0.0720 -0.6512
 3004TIP3    H1 8976   4.929   4.501   5.290  0.6815  0.5398 -0.5762
 3004TIP3    H2 8977   4.903   4.357   5.327 -1.7377  1.0649 -0.0506
 3005TIP3   OH2 8978   3.003   2.089   4.628  0.4627  0.5666  0.0260
 3005TIP3    H1 8979   2.947   2.068   4.553 -0.8667 -0.0539  1.1389
 3005TIP3    H2 8980   3.056   2.011   4.642  0.5282  0.5852 -0.1255
 3006TIP3   OH2 8981   1.367   4.417   1.037 -0.0367  0.2115  0.0837
 3006TIP3    H1 8982   1.354   4.503   1.078  1.8233  0.8152 -0.4506
 3006TIP3    H2 8983   1.281   4.391   1.006 -0.7513  1.5996  0.8224
 3007TIP3   OH2 8984   3.713   1.472   1.566  0.0551 -0.5099  0.0535
 3007TIP3    H1 8985   3.801   1.475   1.602  1.2923 -1.0088 -2.7003
 3007TIP3    H2 8986   3.670   1.550   1.601  2.5177  1.3090 -0.7075
 3008TIP3   OH2 8987   4.167   6.427   1.148 -0.4120  0.4943  0.3963
 3008TIP3    H1 8988   4.246   6.385   1.183  0.8457  1.9316 -0.5597
 3008TIP3    H2 8989   4.198   6.474   1.070 -2.2645  0.9603 -0.1032
 3009TIP3   OH2 8990   2.453   0.817   2.363  0.2209 -0.2318  0.1394
 3009TIP3    H1 8991   2.473   0.761   2.438  0.6008  0.3774  0.5045
 3009TIP3    H2 8992   2.496   0.900   2.383 -1.0273  0.4842  0.0209
 3010TIP3   OH2 8993   2.205   2.712   5.064 -0.5752  0.6222  0.1151
 3010TIP3    H1 8994   2.146   2.698   4.989  0.6379  0.2908 -0.8099
 3010TIP3    H2 8995   2.229   2.804   5.058 -0.6637  0.6539  0.2450
 3011TIP3   OH2 8996   0.749   1.151   0.506 -0.7188  0.0324 -0.7106
 3011TIP3    H1 8997   0.837   1.156   0.542 -1.7098  0.4457  1.9196
 3011TIP3    H2 8998   0.745   1.222   0.442  0.6818  0.3701 -0.4611
 3012TIP3   OH2 8999   4.208   5.124   5.224 -0.0720  0.3855  0.5282
 3012TIP3    H1 9000   4.274   5.059   5.250  0.8853  1.1406  0.0577
 3012TIP3    H2 9001   4.125   5.079   5.234  0.4444 -0.2738  2.1082
 3013TIP3   OH2 9002   4.745   2.939   2.912  0.3373 -0.4387  0.1507
 3013TIP3    H1 9003   4.788   2.862   2.876  0.0000 -0.1049 -0.9936
 3013TIP3    H2 9004   4.707   2.983   2.836 -0.1801  0.4132  0.8896
 3014TIP3   OH2 9005   3.405   0.479   4.740  0.4936 -0.1792 -0.0890
 3014TIP3    H1 9006   3.377   0.474   4.649  0.4326 -2.0381 -0.0066
 3014TIP3    H2 9007   3.490   0.524   4.737 -0.1747  1.0651 -0.8715
 3015TIP3   OH2 9008   7.139   4.491   5.150 -0.1222 -0.2317  0.1526
 3015TIP3    H1 9009   7.077   4.560   5.125  1.1617  0.5848 -0.8712
 3015TIP3    H2 9010   7.208   4.535   5.199  1.2705 -0.5480 -1.4315
 3016TIP3   OH2 9011   5.259   0.838   2.395  0.6718  0.3039  0.6332
 3016TIP3    H1 9012   5.321   0.782   2.442 -0.3306  0.2537  1.9246
 3016TIP3    H2 9013   5.281   0.927   2.424  1.3708  0.4905 -0.3872
 3017TIP3   OH2 9014   6.094   2.906   1.957  0.2558 -0.2436  0.0487
 3017TIP3    H1 9015   6.132   2.983   1.915 -1.0192  0.8395  0.7744
 3017TIP3    H2 9016   6.034   2.943   2.023 -0.0807 -1.8665  0.6876
 3018TIP3   OH2 9017   3.666   5.609   4.279  0.3971  0.2077 -0.1444
 3018TIP3    H1 9018   3.629   5.695   4.300  0.7203 -0.1576  2.0871
 3018TIP3    H2 9019   3.595   5.547   4.293  0.5172 -0.0198 -0.5247
 3019TIP3   OH2 9020   6.397   6.695   2.763 -0.2278 -0.2959  0.3857
 3019TIP3    H1 9021   6.389   6.616   2.816  0.6663 -0.0341  0.9265
 3019TIP3    H2 9022   6.418   6.663   2.675  1.2392 -0.6426  0.8343
 3020TIP3   OH2 9023   1.928   0.243   2.483 -0.1833  0.1112 -0.5942
 3020TIP3    H1 9024   1.857   0.229   2.545  0.6049 -0.7064  0.1514
 3020TIP3    H2 9025   1.938   0.338   2.480 -0.7249  0.1935 -0.0408
 3021TIP3   OH2 9026   3.626   4.270   0.728  0.3356 -0.7843  0.1616
 3021TIP3    H1 9027   3.639   4.185   0.687 -0.1248 -2.2344  2.8056
 3021TIP3    H2 9028   3.539   4.265   0.767  1.0180  0.1794  1.9248
 3022TIP3   OH2 9029   1.017   6.627   5.556  0.4030  0.5287  0.1718
 3022TIP3    H1 9030   1.088   6.570   5.585 -0.2525 -0.2989  0.1621
 3022TIP3    H2 9031   0.981   6.583   5.478  0.8041  1.6696 -0.6913
 3023TIP3   OH2 9032   2.147   0.692   0.483  0.1993  0.2561 -0.4200
 3023TIP3    H1 9033   2.234   0.652   0.486  0.4655  0.8676  1.7238
 3023TIP3    H2 9034   2.086   0.618   0.487  0.6358 -0.1210 -0.7279
 3024TIP3   OH2 9035   1.476   3.675   5.624 -0.0031 -0.3146  0.1899
 3024TIP3    H1 9036   1.570   3.676   5.607 -0.0754 -0.4926 -0.2521
 3024TIP3    H2 9037   1.465   3.727   5.703  0.4811 -0.3973  0.3150
 3025TIP3   OH2 9038   0.951   3.125   5.625 -0.4417 -0.3257  0.4654
 3025TIP3    H1 9039   0.919   3.186   5.559  0.9275 -0.0602  0.0168
 3025TIP3    H2 9040   1.046   3.121   5.610 -0.2040 -0.7994  1.9653
 3026TIP3   OH2 9041   3.417   4.738   1.437  0.0420  1.0390  0.3379
 3026TIP3    H1 9042   3.482   4.670   1.418  0.5484  1.1385  1.6234
 3026TIP3    H2 9043   3.338   4.689   1.460  0.2045  0.8880  0.5818
 3027TIP3   OH2 9044   3.603   5.014   2.142  0.2809 -0.0381 -0.1770
 3027TIP3    H1 9045   3.666   5.086   2.149  1.2076 -0.7050 -1.2422
 3027TIP3    H2 9046   3.562   5.027   2.056 -0.5685  0.0203  0.2350
 3028TIP3   OH2 9047   4.997   4.355   5.618  0.2333  0.6175  0.5094
 3028TIP3    H1 9048   4.977   4.393   5.533 -0.1433  0.4557  0.5231
 3028TIP3    H2 9049   5.089   4.378   5.634  1.0749 -1.3441 -1.0239
 3029TIP3   OH2 9050   2.131   5.349   1.614  0.2005 -0.1444  0.1691
 3029TIP3    H1 9051   2.197   5.300   1.565 -0.1683 -1.1107  0.6136
 3029TIP3    H2 9052   2.162   5.348   1.704  0.0514  0.2318  0.2279
 3030TIP3   OH2 9053   3.815   2.622   4.186  0.0977 -0.1107 -0.0010
 3030TIP3    H1 9054   3.905   2.629   4.217  0.8915 -1.0722 -1.9393
 3030TIP3    H2 9055   3.798   2.705   4.142 -0.3538  0.4911  1.2856
 3031TIP3   OH2 9056   5.431   1.122   0.204  0.1975  0.3141 -0.2313
 3031TIP3    H1 9057   5.340   1.140   0.226  0.1212 -0.8633  0.5243
 3031TIP3    H2 9058   5.434   1.026   0.196  1.4989  0.3001  0.3462
 3032TIP3   OH2 9059   1.133   5.434   0.851  0.7041 -0.0943  0.7086
 3032TIP3    H1 9060   1.213   5.407   0.896  0.6989 -1.7968 -0.2368
 3032TIP3    H2 9061   1.062   5.388   0.897  0.6823 -1.7294 -0.8511
 3033TIP3   OH2 9062   1.078   1.796   4.356 -0.2991  0.8570  0.6661
 3033TIP3    H1 9063   0.983   1.785   4.354 -0.2960  0.8177  0.7161
 3033TIP3    H2 9064   1.109   1.753   4.276 -0.2720  0.3446  0.9458
 3034TIP3   OH2 9065   4.809   1.705   1.097  0.2656  0.0037 -0.5648
 3034TIP3    H1 9066   4.801   1.624   1.047 -1.6060  0.0917 -0.4739
 3034TIP3    H2 9067   4.854   1.680   1.178  0.6655 -0.7161 -1.0017
 3035TIP3   OH2 9068   4.516   4.205   5.679 -0.1752  0.0057 -0.0398
 3035TIP3    H1 9069   4.443   4.208   5.740 -0.5806 -3.7294 -0.1525
 3035TIP3    H2 9070   4.594   4.196   5.735  0.3368  3.5177  0.0575
 3036TIP3   OH2 9071   6.919   6.025   3.015  0.1858 -0.2313 -0.5825
 3036TIP3    H1 9072   6.853   5.985   3.071  0.3813  1.5046  0.9876
 3036TIP3    H2 9073   6.992   5.964   3.015  0.2051 -0.2462  1.1487
 3037TIP3   OH2 9074   3.614   6.251   1.114  0.4608  0.0702  0.6550
 3037TIP3    H1 9075   3.580   6.329   1.070 -3.3678 -0.6935  1.9008
 3037TIP3    H2 9076   3.641   6.193   1.043  1.8247  1.8160 -0.3376
 3038TIP3   OH2 9077   1.928   0.168   1.166  0.1167 -0.6247 -0.3275
 3038TIP3    H1 9078   1.846   0.211   1.140 -0.5855 -2.2296 -0.8397
 3038TIP3    H2 9079   1.900   0.093   1.218  1.0925 -2.7895 -2.7756
 3039TIP3   OH2 9080   1.181   2.776   0.721 -0.6051  0.1972  0.0555
 3039TIP3    H1 9081   1.189   2.864   0.684 -0.3737  0.1932  0.0947
 3039TIP3    H2 9082   1.231   2.721   0.661  0.8698  0.3861  1.0632
 3040TIP3   OH2 9083   0.623   1.395   2.465  0.0959  0.5203  0.3938
 3040TIP3    H1 9084   0.703   1.427   2.423  0.7452 -0.2803  0.9785
 3040TIP3    H2 9085   0.645   1.306   2.492 -1.2020  0.0614  0.0264
 3041TIP3   OH2 9086   1.949   2.996   5.232 -0.6888 -0.1829 -0.5783
 3041TIP3    H1 9087   2.022   3.050   5.200 -0.4869 -0.7522 -1.1090
 3041TIP3    H2 9088   1.909   3.048   5.301 -0.6638  0.7718 -1.2554
 3042TIP3   OH2 9089   4.958   0.233   3.011  0.0146  0.5021  0.0402
 3042TIP3    H1 9090   4.873   0.209   2.974  0.0279  2.3213 -1.3443
 3042TIP3    H2 9091   5.010   0.261   2.936  1.8502 -0.5243  0.8656
 3043TIP3   OH2 9092   2.690   1.108   4.516 -0.0013  0.6325  0.1847
 3043TIP3    H1 9093   2.627   1.095   4.587  0.3274 -0.0198  0.3590
 3043TIP3    H2 9094   2.733   1.191   4.538  1.8495 -0.7303  2.1164
 3044TIP3   OH2 9095   0.044   6.727   5.591 -0.0133  0.4701 -0.1931
 3044TIP3    H1 9096   0.101   6.802   5.604  1.7252 -0.6888 -0.8221
 3044TIP3    H2 9097   0.039   6.716   5.496 -1.9432  0.9918 -0.1970
 3045TIP3   OH2 9098   1.377   3.473   1.791  0.1541 -0.9040 -0.1532
 3045TIP3    H1 9099   1.337   3.449   1.708 -0.8400  0.0297  0.0272
 3045TIP3    H2 9100   1.304   3.508   1.843  0.3700 -3.0985  1.7862
 3046TIP3   OH2 9101   6.604   1.639   4.518 -0.2935 -0.1323  0.3982
 3046TIP3    H1 9102   6.671   1.606   4.578  0.0787 -1.3512 -0.6513
 3046TIP3    H2 9103   6.649   1.705   4.465 -0.2402 -0.1189  0.4603
 3047TIP3   OH2 9104   0.760   5.529   5.437 -0.5075 -0.8345 -0.0436
 3047TIP3    H1 9105   0.714   5.613   5.433 -1.2001 -1.2208 -0.1786
 3047TIP3    H2 9106   0.738   5.485   5.355  0.5930 -0.7737 -0.3929
 3048TIP3   OH2 9107   2.575   0.434   3.371  0.7515  0.6625  0.0157
 3048TIP3    H1 9108   2.587   0.528   3.357  1.9848  0.4274 -0.6520
 3048TIP3    H2 9109   2.663   0.397   3.361  0.3227 -0.5413  0.4900
 3049TIP3   OH2 9110   2.711   0.804   3.567  0.0755  0.5898 -0.4031
 3049TIP3    H1 9111   2.628   0.817   3.522 -2.1949 -3.0138  2.1527
 3049TIP3    H2 9112   2.763   0.751   3.507 -0.1260  1.4700 -1.3758
 3050TIP3   OH2 9113   5.387   4.842   5.799  0.2741 -0.6705 -0.3518
 3050TIP3    H1 9114   5.300   4.821   5.766  0.5090 -0.8368 -0.8784
 3050TIP3    H2 9115   5.373   4.919   5.855 -0.0321  0.0796 -1.4288
 3051TIP3   OH2 9116   1.611   5.996   0.345  0.7037 -0.1163 -0.7897
 3051TIP3    H1 9117   1.599   5.910   0.306  2.5204 -0.6653 -0.2192
 3051TIP3    H2 9118   1.691   5.989   0.396  1.0800  2.0094 -0.9785
 3052TIP3   OH2 9119   6.717   4.431   0.999 -0.7358  0.2321 -0.1921
 3052TIP3    H1 9120   6.775   4.423   1.074 -0.1355 -0.4092 -0.7172
 3052TIP3    H2 9121   6.683   4.343   0.984 -1.3943  0.4870 -0.2490
 3053TIP3   OH2 9122   6.487   3.652   1.217  0.5885  0.0433 -0.4257
 3053TIP3    H1 9123   6.489   3.711   1.142 -1.1862  0.8501  0.1178
 3053TIP3    H2 9124   6.540   3.696   1.284  1.1848 -0.1111 -0.7912
 3054TIP3   OH2 9125   4.645   1.863   4.952 -0.3388  0.6468  0.2636
 3054TIP3    H1 9126   4.596   1.890   5.030  0.0764  0.7999  0.4764
 3054TIP3    H2 9127   4.579   1.853   4.884 -0.6316  1.1139  0.4782
 3055TIP3   OH2 9128   4.157   1.973   4.081 -0.2336  0.0808 -0.0267
 3055TIP3    H1 9129   4.145   1.893   4.133 -1.0633  1.2772  1.7303
 3055TIP3    H2 9130   4.076   2.022   4.093  0.5908  1.5910 -0.3359
 3056TIP3   OH2 9131   0.264   2.902   2.159  0.1301  0.4377 -0.3958
 3056TIP3    H1 9132   0.231   2.992   2.165 -0.6348  0.1656 -0.3470
 3056TIP3    H2 9133   0.343   2.909   2.106  0.7092  1.2886  0.5625
 3057TIP3   OH2 9134   2.402   5.517   4.378 -0.0093  0.1169 -0.1325
 3057TIP3    H1 9135   2.326   5.518   4.436 -0.1634  1.5137 -0.3193
 3057TIP3    H2 9136   2.366   5.526   4.290  0.3018 -0.6187 -0.3445
 3058TIP3   OH2 9137   0.976   1.621   4.826  0.1601 -0.0386  0.3143
 3058TIP3    H1 9138   1.065   1.656   4.835  0.0079 -0.0191  2.1826
 3058TIP3    H2 9139   0.925   1.692   4.788  1.3979 -0.8641 -3.2263
 3059TIP3   OH2 9140   1.722   1.647   2.120 -0.3755  0.2106 -0.0102
 3059TIP3    H1 9141   1.734   1.574   2.180 -1.1031  0.2374  0.1798
 3059TIP3    H2 9142   1.809   1.661   2.081 -0.4269 -1.3582 -0.7657
 3060TIP3   OH2 9143   0.794   2.787   1.954 -0.3816 -0.4122 -0.0368
 3060TIP3    H1 9144   0.714   2.738   1.973  0.6791 -2.3929 -0.3335
 3060TIP3    H2 9145   0.858   2.753   2.016  0.4643  0.4946 -0.3849
 3061TIP3   OH2 9146   3.396   4.450   3.953 -0.0055 -0.0732  0.0455
 3061TIP3    H1 9147   3.433   4.504   3.884  2.3568 -0.3438  1.0260
 3061TIP3    H2 9148   3.318   4.410   3.913 -0.9438  2.7489 -1.1767
 3062TIP3   OH2 9149   0.887   2.612   2.158 -0.1179 -0.2971  0.4025
 3062TIP3    H1 9150   0.943   2.651   2.226 -1.2048 -0.9550  1.7225
 3062TIP3    H2 9151   0.941   2.544   2.119  1.0229  1.0173 -0.4083
 3063TIP3   OH2 9152   3.231   2.348   1.016 -0.1761 -0.2349 -0.4770
 3063TIP3    H1 9153   3.235   2.443   1.021  1.2882 -0.3242  1.2101
 3063TIP3    H2 9154   3.315   2.322   0.979 -0.2558 -0.8930 -0.2218
 3064TIP3   OH2 9155   6.432   2.111   0.666  0.8700  0.1483 -0.1906
 3064TIP3    H1 9156   6.499   2.178   0.680  0.9151  0.0379  0.1506
 3064TIP3    H2 9157   6.349   2.155   0.683  0.7446  0.6428 -1.9315
 3065TIP3   OH2 9158   6.718   1.161   0.779  0.1845  0.2271  0.1883
 3065TIP3    H1 9159   6.724   1.128   0.690 -0.3991  1.5883 -0.3873
 3065TIP3    H2 9160   6.653   1.105   0.821  0.8091 -0.7214 -0.0851
 3066TIP3   OH2 9161   6.662   4.106   5.588 -0.1883  0.3940  0.5937
 3066TIP3    H1 9162   6.716   4.032   5.617 -0.6249 -1.0754 -1.9682
 3066TIP3    H2 9163   6.588   4.107   5.649  0.9763  0.2540  2.0738
 3067TIP3   OH2 9164   4.192   5.577   4.801  0.1494 -0.7828 -0.0386
 3067TIP3    H1 9165   4.240   5.507   4.757 -1.2772 -2.5670  1.1086
 3067TIP3    H2 9166   4.258   5.642   4.824  1.5936 -1.9902 -0.6823
 3068TIP3   OH2 9167   0.087   3.595   1.787  0.2138 -0.2629 -0.2588
 3068TIP3    H1 9168   0.164   3.538   1.787 -0.8606 -1.7691  0.1628
 3068TIP3    H2 9169   0.119   3.678   1.823  1.8465 -0.5298 -0.9936
 3069TIP3   OH2 9170   0.192   6.263   0.557 -0.1871 -0.1793 -0.1553
 3069TIP3    H1 9171   0.237   6.323   0.498 -0.7222 -0.3613 -0.7689
 3069TIP3    H2 9172   0.258   6.198   0.581 -0.6316 -1.7784 -2.8622
 3070TIP3   OH2 9173   3.288   4.297   5.790 -0.2420 -0.7482 -0.2142
 3070TIP3    H1 9174   3.228   4.356   5.835 -0.9061 -1.3365 -0.3016
 3070TIP3    H2 9175   3.315   4.234   5.857  1.1900  0.1828  0.1111
 3071TIP3   OH2 9176   5.983   6.720   0.233  0.2930 -0.3194 -0.1323
 3071TIP3    H1 9177   5.921   6.763   0.174 -0.9553  1.4224  2.2585
 3071TIP3    H2 9178   6.035   6.792   0.270  0.8256 -1.2855  1.0841
 3072TIP3   OH2 9179   3.994   6.534   2.971  0.4973 -0.5069  0.7130
 3072TIP3    H1 9180   3.904   6.544   3.002  0.5056  0.5293  0.4472
 3072TIP3    H2 9181   3.986   6.500   2.882  0.1619  2.6265 -0.6132
 3073TIP3   OH2 9182   2.813   0.273   0.543  0.0123  0.0639 -0.0302
 3073TIP3    H1 9183   2.724   0.306   0.549 -0.0039  0.2125 -0.8636
 3073TIP3    H2 9184   2.847   0.309   0.461  0.4179 -0.9587 -0.3411
 3074TIP3   OH2 9185   3.106   3.225   3.168 -0.1664 -0.0334  0.6871
 3074TIP3    H1 9186   3.146   3.212   3.254 -0.5258 -0.5745  0.7807
 3074TIP3    H2 9187   3.012   3.230   3.185 -0.3514 -1.3466  0.2262
 3075TIP3   OH2 9188   5.718   0.166   2.377  0.3460 -0.1653 -0.4766
 3075TIP3    H1 9189   5.722   0.141   2.470  1.8643 -1.1487 -0.7673
 3075TIP3    H2 9190   5.755   0.254   2.374 -2.3544  1.1011  0.1745
 3076TIP3   OH2 9191   0.430   3.904   4.503 -0.7609  0.0625 -0.1348
 3076TIP3    H1 9192   0.353   3.961   4.509 -0.8316 -0.1419  1.6226
 3076TIP3    H2 9193   0.482   3.927   4.580  0.5622 -0.3492 -0.8770
 3077TIP3   OH2 9194   1.386   6.295   1.357 -0.0213 -0.3360 -0.3712
 3077TIP3    H1 9195   1.413   6.204   1.360  0.6667 -0.1827 -1.4956
 3077TIP3    H2 9196   1.437   6.337   1.426  1.6381 -0.3285 -1.5392
 3078TIP3   OH2 9197   1.665   4.492   5.259 -0.4911  0.7040  0.1101
 3078TIP3    H1 9198   1.671   4.584   5.233 -0.4639  1.1047  1.4665
 3078TIP3    H2 9199   1.688   4.492   5.351  0.0661 -0.7577 -0.0095
 3079TIP3   OH2 9200   4.491   4.086   1.278  0.0926 -0.3523 -0.1209
 3079TIP3    H1 9201   4.531   4.010   1.320  0.6246 -0.0353 -0.0325
 3079TIP3    H2 9202   4.525   4.086   1.189  0.6670  0.1680  0.0835
 3080TIP3   OH2 9203   5.504   3.194   4.890  0.3427  0.8183  0.4193
 3080TIP3    H1 9204   5.436   3.259   4.874  0.7279  1.2037  0.3025
 3080TIP3    H2 9205   5.560   3.199   4.813 -0.1155 -0.2920 -0.0026
 3081TIP3   OH2 9206   3.135   5.629   3.876 -0.5230  0.0216  0.6193
 3081TIP3    H1 9207   3.148   5.690   3.803  2.3017  0.5415  1.4281
 3081TIP3    H2 9208   3.063   5.667   3.926 -1.5688  0.4129 -1.0927
 3082TIP3   OH2 9209   5.107   3.794   3.148  0.1495 -0.0988  0.2112
 3082TIP3    H1 9210   5.084   3.705   3.122 -0.1526  0.2796 -0.8778
 3082TIP3    H2 9211   5.187   3.812   3.099  0.7712 -0.1123  1.1935
 3083TIP3   OH2 9212   1.712   1.547   5.055 -0.2227 -0.3840 -0.0318
 3083TIP3    H1 9213   1.705   1.524   5.147 -1.5433 -1.3674 -0.3541
 3083TIP3    H2 9214   1.806   1.556   5.039  0.0320 -0.5656  1.3130
 3084TIP3   OH2 9215   1.515   4.045   2.219 -0.0670  1.1144  0.2306
 3084TIP3    H1 9216   1.446   4.025   2.156  0.0339  1.6113 -0.0489
 3084TIP3    H2 9217   1.504   3.981   2.288  1.7922 -1.5815 -1.7769
 3085TIP3   OH2 9218   0.506   3.068   1.340 -0.3384 -0.0565 -0.6742
 3085TIP3    H1 9219   0.536   3.112   1.260 -0.0638 -0.3779 -0.7503
 3085TIP3    H2 9220   0.438   3.008   1.310  0.7457 -1.2181 -0.8864
 3086TIP3   OH2 9221   4.602   0.676   4.792 -0.1221  0.6768  0.1750
 3086TIP3    H1 9222   4.630   0.608   4.731  2.9547  1.7968  0.1530
 3086TIP3    H2 9223   4.540   0.729   4.741  0.5202  0.1788 -1.1933
 3087TIP3   OH2 9224   4.027   2.025   1.476 -0.3806  0.3426 -0.0129
 3087TIP3    H1 9225   3.967   1.983   1.537 -0.5437  0.7314  0.0984
 3087TIP3    H2 9226   4.104   1.968   1.474  0.3519  1.1931  1.8673
 3088TIP3   OH2 9227   5.026   2.489   3.258  0.6280 -0.7658 -0.2033
 3088TIP3    H1 9228   5.106   2.517   3.212 -0.2266 -0.0723 -1.3206
 3088TIP3    H2 9229   5.031   2.534   3.342  0.7830  0.3564 -0.7817
 3089TIP3   OH2 9230   4.839   1.319   1.833  0.3977 -0.4102  0.3310
 3089TIP3    H1 9231   4.806   1.326   1.743  1.1775 -2.4399 -0.1706
 3089TIP3    H2 9232   4.760   1.326   1.887 -0.2697 -0.5468 -0.5789
 3090TIP3   OH2 9233   4.120   2.805   3.336 -0.7360  0.0709 -0.2943
 3090TIP3    H1 9234   4.061   2.774   3.267  1.3253  0.4091 -2.3068
 3090TIP3    H2 9235   4.110   2.900   3.336 -1.4433  0.0158  0.6067
 3091TIP3   OH2 9236   6.132   2.669   5.276 -0.3408  0.3887  0.5871
 3091TIP3    H1 9237   6.164   2.644   5.189 -1.3612 -1.6874  0.7297
 3091TIP3    H2 9238   6.211   2.688   5.326  0.3012  0.9236 -0.5838
 3092TIP3   OH2 9239   1.153   0.424   2.364  0.2206 -0.3847 -0.0820
 3092TIP3    H1 9240   1.062   0.394   2.362 -0.0424  0.3947 -0.6848
 3092TIP3    H2 9241   1.153   0.501   2.307  1.1458 -0.0576  0.3482
 3093TIP3   OH2 9242   1.864   3.499   0.665  0.3271  0.4217  0.4069
 3093TIP3    H1 9243   1.937   3.481   0.723 -0.8727 -1.6174  1.4082
 3093TIP3    H2 9244   1.831   3.412   0.640 -1.8794  1.2562  0.1941
 3094TIP3   OH2 9245   0.199   5.129   0.689  0.5928 -0.3990  0.1936
 3094TIP3    H1 9246   0.269   5.157   0.631  0.2482  1.3943  0.5936
 3094TIP3    H2 9247   0.198   5.193   0.760 -0.1496 -1.5311  1.2575
 3095TIP3   OH2 9248   6.110   4.984   0.394  0.2128 -0.4286  0.3097
 3095TIP3    H1 9249   6.103   4.961   0.486 -0.3332  0.6336  0.5497
 3095TIP3    H2 9250   6.039   5.046   0.379 -0.0163 -0.9628 -0.9520
 3096TIP3   OH2 9251   5.009   3.808   5.369  1.1252 -0.2767  1.0596
 3096TIP3    H1 9252   5.070   3.876   5.342 -0.5145  0.7347 -0.2394
 3096TIP3    H2 9253   5.062   3.728   5.373  2.3024  0.3077 -1.2439
 3097TIP3   OH2 9254   3.429   1.220   2.344  0.0589 -0.6703 -0.4125
 3097TIP3    H1 9255   3.484   1.169   2.284 -0.0483  0.4426 -1.4838
 3097TIP3    H2 9256   3.483   1.232   2.422  0.6856 -1.0615 -0.7754
 3098TIP3   OH2 9257   2.245   1.658   1.561  0.0115  0.5767  0.2071
 3098TIP3    H1 9258   2.295   1.576   1.557  0.4951  0.8864 -0.2199
 3098TIP3    H2 9259   2.170   1.637   1.615 -0.1513 -0.3101 -0.3380
 3099TIP3   OH2 9260   2.884   1.994   0.890 -0.7086  0.4279  0.3201
 3099TIP3    H1 9261   2.825   2.022   0.820  0.7600 -0.9608 -1.5612
 3099TIP3    H2 9262   2.901   2.074   0.939 -1.1752  1.6330 -1.3801
 3100TIP3   OH2 9263   6.570   3.922   4.163  0.0654 -0.1904 -0.0271
 3100TIP3    H1 9264   6.589   3.873   4.243  0.8100 -0.1990 -0.1969
 3100TIP3    H2 9265   6.646   3.979   4.152  0.0388 -0.3002 -0.8071
 3101TIP3   OH2 9266   2.289   1.797   0.711 -0.6742  0.4669  0.1235
 3101TIP3    H1 9267   2.223   1.747   0.661 -1.1332 -0.0987  1.2497
 3101TIP3    H2 9268   2.336   1.730   0.761  1.1361  0.8034 -1.0408
 3102TIP3   OH2 9269   1.648   0.428   1.935 -0.4773  0.1204  0.2794
 3102TIP3    H1 9270   1.657   0.456   2.026  0.1721 -0.3413  0.3638
 3102TIP3    H2 9271   1.565   0.465   1.907 -0.7056  0.2323  1.0763
 3103TIP3   OH2 9272   2.984   6.713   0.027  0.5677  0.0420  0.6271
 3103TIP3    H1 9273   3.047   6.772   0.069  1.2467 -0.2375  0.0210
 3103TIP3    H2 9274   2.985   6.635   0.083  1.1183 -0.1459  0.3613
 3104TIP3   OH2 9275   5.137   0.134   0.837  0.1365  0.4492 -0.3089
 3104TIP3    H1 9276   5.087   0.208   0.803  0.7784  1.5225  0.9838
 3104TIP3    H2 9277   5.191   0.171   0.907  0.5379 -1.2313  0.3332
 3105TIP3   OH2 9278   6.952   6.527   1.954  0.1889 -0.0544  0.0307
 3105TIP3    H1 9279   6.911   6.586   1.890 -1.4221 -0.0298  1.0423
 3105TIP3    H2 9280   6.960   6.579   2.033  1.3593 -0.3620  0.1312
 3106TIP3   OH2 9281   5.737   6.525   1.878 -0.3687 -0.6245 -0.6795
 3106TIP3    H1 9282   5.735   6.475   1.796  1.1144  0.5161 -1.4471
 3106TIP3    H2 9283   5.821   6.501   1.919 -0.0895  0.4663 -0.5806
 3107TIP3   OH2 9284   3.648   4.619   5.590 -0.0916 -0.6006 -0.3656
 3107TIP3    H1 9285   3.588   4.549   5.565  0.2833 -0.9827 -0.2047
 3107TIP3    H2 9286   3.701   4.634   5.512  0.0250 -0.7010 -0.3062
 3108TIP3   OH2 9287   2.198   4.844   4.802 -0.0296  0.1801  0.3148
 3108TIP3    H1 9288   2.194   4.931   4.842  0.2027  0.1757  0.3535
 3108TIP3    H2 9289   2.130   4.793   4.847 -0.1834  0.3491  0.2734
 3109TIP3   OH2 9290   3.757   5.880   1.108  0.2212  0.0846 -0.2517
 3109TIP3    H1 9291   3.779   5.973   1.109 -0.4078  0.2337 -0.0547
 3109TIP3    H2 9292   3.827   5.840   1.056  0.8210  0.5806  0.1481
 3110TIP3   OH2 9293   2.613   0.926   1.936  0.4054  0.4228 -0.6997
 3110TIP3    H1 9294   2.676   0.994   1.961 -0.9288  1.8383 -1.0821
 3110TIP3    H2 9295   2.636   0.904   1.846 -0.9947  2.5668 -1.6347
 3111TIP3   OH2 9296   4.470   0.333   4.866  0.2182 -0.6947  0.3545
 3111TIP3    H1 9297   4.407   0.405   4.876 -0.3538 -0.6957 -2.5207
 3111TIP3    H2 9298   4.556   0.375   4.873 -0.1151  0.1883 -0.6366
 3112TIP3   OH2 9299   3.421   3.926   1.186 -0.0702  0.1537  0.1518
 3112TIP3    H1 9300   3.457   4.014   1.171  0.7515 -0.1103  0.5427
 3112TIP3    H2 9301   3.350   3.940   1.249 -0.9189  0.7247 -0.8888
 3113TIP3   OH2 9302   7.004   0.388   2.877 -0.5058  0.4937 -0.3886
 3113TIP3    H1 9303   7.033   0.301   2.850 -1.5246  0.0840 -0.2220
 3113TIP3    H2 9304   6.953   0.373   2.957 -0.4251  1.2850 -0.1724
 3114TIP3   OH2 9305   1.768   5.431   1.198 -0.1003  0.1484  0.1798
 3114TIP3    H1 9306   1.800   5.516   1.228 -1.4971  0.3605  1.1863
 3114TIP3    H2 9307   1.838   5.370   1.218  1.1569  1.1330 -1.0707
 3115TIP3   OH2 9308   2.878   4.433   2.611  0.1293  0.0614  0.1088
 3115TIP3    H1 9309   2.930   4.424   2.690  1.0834  0.5327 -0.4458
 3115TIP3    H2 9310   2.923   4.380   2.545  0.0334  0.6290 -0.4309
 3116TIP3   OH2 9311   7.177   6.675   3.889 -0.6181  0.2318  0.3374
 3116TIP3    H1 9312   7.237   6.633   3.950  0.2445 -1.1549 -1.3759
 3116TIP3    H2 9313   7.205   6.766   3.887  0.3920 -0.0524  0.7765
 3117TIP3   OH2 9314   5.526   4.624   3.467  0.2520 -0.4692  0.3800
 3117TIP3    H1 9315   5.453   4.590   3.415 -0.6449  0.7991  0.7817
 3117TIP3    H2 9316   5.574   4.546   3.494 -1.5527 -1.4168  0.9933
 3118TIP3   OH2 9317   4.406   0.073   0.678  0.0825 -0.0071 -0.8500
 3118TIP3    H1 9318   4.341   0.031   0.734 -1.2094  2.0039 -0.7432
 3118TIP3    H2 9319   4.485   0.079   0.733  0.6271 -2.9610 -1.1673
 3119TIP3   OH2 9320   4.992   2.105   0.099 -0.5298  0.1455 -0.5081
 3119TIP3    H1 9321   5.007   2.098   0.004  1.4425  0.9289 -0.2982
 3119TIP3    H2 9322   5.010   2.197   0.119  1.2402 -0.4677  0.9346
 3120TIP3   OH2 9323   1.969   0.981   5.079 -0.6066 -0.2214  0.1857
 3120TIP3    H1 9324   1.931   0.940   5.001 -0.0516 -2.0866  0.8248
 3120TIP3    H2 9325   2.061   0.994   5.056 -1.0559  2.0710 -0.5114
 3121TIP3   OH2 9326   6.380   5.352   5.478  0.5465  0.1109 -0.5248
 3121TIP3    H1 9327   6.348   5.403   5.403  0.7584  1.7238  0.4348
 3121TIP3    H2 9328   6.387   5.416   5.549 -2.8369 -1.8960  1.9297
 3122TIP3   OH2 9329   1.341   2.104   5.606 -0.1439  0.5614 -0.3821
 3122TIP3    H1 9330   1.324   2.039   5.675  0.5804 -0.0741 -0.7822
 3122TIP3    H2 9331   1.341   2.052   5.525 -0.5409  1.2270 -0.8141
 3123TIP3   OH2 9332   1.862   4.439   2.881  0.1299  0.2719 -0.0077
 3123TIP3    H1 9333   1.770   4.413   2.876  0.1896 -0.1712  0.9616
 3123TIP3    H2 9334   1.863   4.511   2.944 -0.1262  3.2385 -3.1228
 3124TIP3   OH2 9335   1.729   0.232   3.898 -0.1064  0.0319  0.4041
 3124TIP3    H1 9336   1.704   0.144   3.872  0.2678  0.6385 -2.2853
 3124TIP3    H2 9337   1.670   0.290   3.850  2.0364  1.2921 -0.9076
 3125TIP3   OH2 9338   3.768   1.735   2.973 -0.2841  0.0531  0.4166
 3125TIP3    H1 9339   3.833   1.665   2.971 -0.5933 -0.2384  0.5273
 3125TIP3    H2 9340   3.815   1.812   2.940 -0.3549 -0.5406 -1.1258
 3126TIP3   OH2 9341   5.523   1.772   1.189  0.3043 -0.4405  0.0021
 3126TIP3    H1 9342   5.604   1.722   1.175 -0.1512 -1.1618 -0.1220
 3126TIP3    H2 9343   5.457   1.723   1.141  0.1534  1.2676 -1.6102
 3127TIP3   OH2 9344   5.497   1.317   1.470  0.1026 -0.0286  0.2900
 3127TIP3    H1 9345   5.495   1.256   1.395  1.5731  1.5506 -1.1002
 3127TIP3    H2 9346   5.414   1.365   1.464  0.8387  1.1261 -1.2897
 3128TIP3   OH2 9347   4.053   6.038   2.477 -0.1022  0.5178 -0.0764
 3128TIP3    H1 9348   4.055   6.053   2.382 -0.4707  1.5528  0.0590
 3128TIP3    H2 9349   3.962   6.055   2.502  0.1211  0.8540  0.5381
 3129TIP3   OH2 9350   2.812   4.310   3.899  0.1155  0.1695  0.2780
 3129TIP3    H1 9351   2.877   4.293   3.968 -0.4450 -0.9023  0.5714
 3129TIP3    H2 9352   2.844   4.260   3.824  0.1363  0.4283  0.1135
 3130TIP3   OH2 9353   2.122   1.278   4.976  0.1679 -0.1665 -0.7268
 3130TIP3    H1 9354   2.037   1.279   5.022 -0.8696 -1.1766 -2.4982
 3130TIP3    H2 9355   2.151   1.187   4.983  0.2620 -0.2052 -1.5730
 3131TIP3   OH2 9356   2.692   0.147   0.265  0.4615  0.1078 -0.4813
 3131TIP3    H1 9357   2.772   0.170   0.219 -0.2966 -0.2889 -2.0583
 3131TIP3    H2 9358   2.719   0.135   0.356  2.1580  0.1023 -0.9593
 3132TIP3   OH2 9359   4.665   4.697   4.479 -0.4152 -0.7362 -0.1085
 3132TIP3    H1 9360   4.680   4.678   4.572 -0.7049 -0.1710  0.0604
 3132TIP3    H2 9361   4.623   4.784   4.479 -1.5148 -1.2442 -0.6931
 3133TIP3   OH2 9362   2.908   4.714   3.939 -0.5992 -0.0946 -0.7029
 3133TIP3    H1 9363   2.898   4.754   3.853  0.4639 -0.2310 -0.9043
 3133TIP3    H2 9364   2.924   4.788   3.998  2.2335 -0.1703 -1.2058
 3134TIP3   OH2 9365   4.615   2.706   5.407  0.1926 -0.6291 -0.0766
 3134TIP3    H1 9366   4.596   2.666   5.492 -1.5961 -0.9624 -0.5896
 3134TIP3    H2 9367   4.540   2.682   5.352  1.1140 -0.0813 -1.6352
 3135TIP3   OH2 9368   0.578   1.221   3.275  0.4397 -0.1820  0.0189
 3135TIP3    H1 9369   0.542   1.265   3.198  1.1392  1.1064  0.4119
 3135TIP3    H2 9370   0.501   1.188   3.322 -0.1232  0.9156 -0.1168
 3136TIP3   OH2 9371   6.996   6.248   0.450  0.0762 -0.2497  0.1785
 3136TIP3    H1 9372   6.995   6.197   0.531 -1.0751 -1.0796 -0.3357
 3136TIP3    H2 9373   6.917   6.220   0.403 -1.4748  3.0902  0.5412
 3137TIP3   OH2 9374   2.494   3.664   2.559 -0.1344 -0.4580  0.4687
 3137TIP3    H1 9375   2.518   3.754   2.580  0.0272 -0.6047  0.9309
 3137TIP3    H2 9376   2.573   3.626   2.521 -0.1436 -0.4618  0.4535
 3138TIP3   OH2 9377   6.049   4.093   5.065  0.2617 -0.1651  0.5224
 3138TIP3    H1 9378   6.049   4.099   5.161  0.3877 -0.1013  0.5185
 3138TIP3    H2 9379   6.139   4.073   5.043  0.5287  1.1508  0.3368
 3139TIP3   OH2 9380   0.278   6.342   1.825 -0.2168  0.1659  0.0299
 3139TIP3    H1 9381   0.191   6.379   1.836 -0.1132  0.1955  0.8124
 3139TIP3    H2 9382   0.338   6.415   1.840 -0.0592  0.4414 -1.7399
 3140TIP3   OH2 9383   6.824   5.825   5.629 -0.4717  0.9441  0.0908
 3140TIP3    H1 9384   6.832   5.775   5.710  1.2790  2.4038  0.8812
 3140TIP3    H2 9385   6.855   5.766   5.560 -0.5565  0.2061  0.6788
 3141TIP3   OH2 9386   0.220   0.882   1.338  0.5030  0.0658  0.4001
 3141TIP3    H1 9387   0.156   0.951   1.352 -1.8352 -1.5857 -1.4425
 3141TIP3    H2 9388   0.205   0.820   1.410  1.6573  0.7319  1.2579
 3142TIP3   OH2 9389   3.865   5.653   2.932  0.8596 -0.4232 -0.6614
 3142TIP3    H1 9390   3.802   5.725   2.936  2.2122  0.7549  0.8962
 3142TIP3    H2 9391   3.842   5.596   3.004  0.6434 -0.8236 -1.0428
 3143TIP3   OH2 9392   5.269   1.468   1.384  0.5276  0.0568 -0.5492
 3143TIP3    H1 9393   5.209   1.531   1.344 -0.5799  0.2227  1.2491
 3143TIP3    H2 9394   5.213   1.410   1.435  1.7425 -0.9641 -0.3146
 3144TIP3   OH2 9395   7.168   0.701   0.958 -0.5412  0.4396  0.0787
 3144TIP3    H1 9396   7.213   0.656   1.029 -1.2186 -2.5039 -1.2236
 3144TIP3    H2 9397   7.237   0.730   0.899 -0.0343  2.1414  1.4401
 3145TIP3   OH2 9398   3.318   0.354   5.135  0.5756  0.5176 -0.4064
 3145TIP3    H1 9399   3.391   0.337   5.075 -0.8226 -3.5459 -1.2557
 3145TIP3    H2 9400   3.245   0.377   5.078  0.0146 -0.2659 -0.0176
 3146TIP3   OH2 9401   1.316   3.755   0.138 -0.0689  0.5061  0.2562
 3146TIP3    H1 9402   1.357   3.688   0.193  0.4782 -0.4741 -1.2748
 3146TIP3    H2 9403   1.388   3.814   0.114  0.1167 -0.1585 -0.9185
 3147TIP3   OH2 9404   6.910   5.121   4.891 -0.4537 -0.2012  0.4761
 3147TIP3    H1 9405   6.875   5.161   4.811 -3.0643 -0.8070  1.2067
 3147TIP3    H2 9406   6.982   5.178   4.917 -1.1882  1.4553 -0.9259
 3148TIP3   OH2 9407   1.755   1.500   5.335 -0.1226  0.2954 -0.2596
 3148TIP3    H1 9408   1.805   1.572   5.373 -0.8930  0.8071 -0.1898
 3148TIP3    H2 9409   1.730   1.447   5.411 -1.2383  1.0481 -0.0717
 3149TIP3   OH2 9410   5.738   2.817   1.270 -0.2965  0.2328  0.5553
 3149TIP3    H1 9411   5.769   2.747   1.213  0.8169 -0.0764  1.4949
 3149TIP3    H2 9412   5.700   2.772   1.345 -1.2129  0.6392  0.3477
 3150TIP3   OH2 9413   6.001   3.632   4.272 -0.0402  0.5383  0.0721
 3150TIP3    H1 9414   6.006   3.582   4.190 -1.5877  1.3849 -0.5895
 3150TIP3    H2 9415   6.010   3.723   4.245 -0.1585  0.8056  0.9080
 3151TIP3   OH2 9416   0.525   4.967   1.340  0.0764 -0.2672  0.2856
 3151TIP3    H1 9417   0.500   4.877   1.356  1.8785 -0.5828  1.5550
 3151TIP3    H2 9418   0.497   5.015   1.418 -1.2196  0.3939 -0.5390
 3152TIP3   OH2 9419   6.213   6.320   4.520  0.2921 -0.2131  0.2004
 3152TIP3    H1 9420   6.161   6.338   4.441  0.5476  1.0399  0.2938
 3152TIP3    H2 9421   6.191   6.230   4.543  0.1594 -0.5799 -1.2570
 3153TIP3   OH2 9422   3.980   6.381   3.242  0.1020 -0.1945  0.2194
 3153TIP3    H1 9423   4.065   6.385   3.199 -0.2649  4.3266 -0.5838
 3153TIP3    H2 9424   3.921   6.346   3.176  1.0356 -2.0918  0.3314
 3154TIP3   OH2 9425   0.544   3.903   1.477  0.2881 -0.2191  0.5124
 3154TIP3    H1 9426   0.558   3.992   1.512  0.3626 -0.6290  1.5708
 3154TIP3    H2 9427   0.508   3.917   1.390  2.1697  0.8648 -0.1584
 3155TIP3   OH2 9428   6.369   6.179   3.820  0.2428 -0.3364 -0.2136
 3155TIP3    H1 9429   6.312   6.171   3.743 -0.8642  0.9779  0.4151
 3155TIP3    H2 9430   6.450   6.136   3.795 -0.3964 -0.6854 -1.8065
 3156TIP3   OH2 9431   4.950   5.597   4.649  0.4176 -0.1132 -0.2917
 3156TIP3    H1 9432   5.025   5.537   4.643 -0.7372 -1.5769 -0.6777
 3156TIP3    H2 9433   4.973   5.656   4.721  0.7337 -2.3470  1.5476
 3157TIP3   OH2 9434   3.517   2.701   1.857  0.4422 -0.2283  0.4535
 3157TIP3    H1 9435   3.514   2.685   1.762 -0.3383 -0.6261  0.5342
 3157TIP3    H2 9436   3.550   2.620   1.894  0.1176 -0.3102  0.5695
 3158TIP3   OH2 9437   6.779   2.487   0.782  0.0353  0.5531  0.6247
 3158TIP3    H1 9438   6.753   2.543   0.856 -1.2807 -0.9118  1.3254
 3158TIP3    H2 9439   6.792   2.401   0.821 -0.1189 -0.1284 -0.7764
 3159TIP3   OH2 9440   4.782   2.124   2.589  0.0002  0.4381  0.1985
 3159TIP3    H1 9441   4.777   2.109   2.495  0.8014 -0.9879  0.3653
 3159TIP3    H2 9442   4.863   2.173   2.601 -0.5390  1.3927  0.0824
 3160TIP3   OH2 9443   5.465   6.341   4.373  0.2408  0.1885 -0.0075
 3160TIP3    H1 9444   5.489   6.433   4.384 -0.3011  0.1996  1.1533
 3160TIP3    H2 9445   5.549   6.294   4.378  0.3441  0.4734  1.1966
 3161TIP3   OH2 9446   1.684   2.472   3.029 -0.4518 -0.0612 -0.0057
 3161TIP3    H1 9447   1.662   2.543   2.969  0.1520 -0.0824 -0.2652
 3161TIP3    H2 9448   1.713   2.400   2.972 -0.8167 -0.4263  0.2667
 3162TIP3   OH2 9449   1.685   3.639   1.083 -0.1319 -0.3344  0.0134
 3162TIP3    H1 9450   1.670   3.657   1.176  0.6156 -0.1900  0.1108
 3162TIP3    H2 9451   1.702   3.724   1.045  0.4225 -0.4935 -0.0940
 3163TIP3   OH2 9452   7.122   5.833   5.000 -0.6929 -0.2179  0.4329
 3163TIP3    H1 9453   7.105   5.926   4.983 -3.5267 -0.4336  1.4619
 3163TIP3    H2 9454   7.082   5.788   4.925  0.0652 -0.6445  0.2792
 3164TIP3   OH2 9455   6.256   1.717   5.737  0.8011 -0.4276  0.3419
 3164TIP3    H1 9456   6.276   1.626   5.758 -0.7041 -0.4959  1.7399
 3164TIP3    H2 9457   6.321   1.767   5.785  1.0599 -0.7410  0.3245
 3165TIP3   OH2 9458   6.574   4.654   0.919 -0.4218  0.5197 -0.0927
 3165TIP3    H1 9459   6.570   4.664   1.014  1.8187  0.6303  0.0258
 3165TIP3    H2 9460   6.644   4.591   0.904 -2.2276 -1.2995 -1.6327
 3166TIP3   OH2 9461   0.344   0.625   0.623  0.1865 -0.5157  0.6053
 3166TIP3    H1 9462   0.326   0.531   0.623 -1.9117 -0.1634 -0.0010
 3166TIP3    H2 9463   0.361   0.647   0.532 -1.2363 -0.0074  0.4443
 3167TIP3   OH2 9464   6.787   5.068   1.229 -0.0628  0.0083  0.1749
 3167TIP3    H1 9465   6.737   5.138   1.187  0.2131  0.5600  0.7585
 3167TIP3    H2 9466   6.830   5.023   1.157  0.1603  0.7567 -0.1659
 3168TIP3   OH2 9467   2.174   5.531   4.878 -0.1396  0.0799 -0.0508
 3168TIP3    H1 9468   2.085   5.516   4.910  0.2557  2.8249  2.9672
 3168TIP3    H2 9469   2.226   5.463   4.921 -0.4427  0.0685  0.3095
 3169TIP3   OH2 9470   1.958   3.428   0.036  0.3469  0.0480  0.2977
 3169TIP3    H1 9471   1.958   3.419   0.132 -1.2739  0.1822  0.3312
 3169TIP3    H2 9472   1.904   3.355   0.005  1.6725 -0.5812 -0.6045
 3170TIP3   OH2 9473   5.461   1.654   1.456  0.7026  0.7933 -0.2266
 3170TIP3    H1 9474   5.393   1.589   1.438  0.6504  1.0708 -1.0801
 3170TIP3    H2 9475   5.473   1.700   1.373  0.3769  2.2186  0.4799
 3171TIP3   OH2 9476   5.852   3.728   3.355  0.1945  0.0872 -0.0525
 3171TIP3    H1 9477   5.887   3.743   3.267  0.9303  0.6586  0.3182
 3171TIP3    H2 9478   5.837   3.816   3.390 -2.1039 -0.1295 -0.3510
 3172TIP3   OH2 9479   0.786   2.709   3.430 -0.6704  0.7726 -0.1101
 3172TIP3    H1 9480   0.717   2.666   3.481 -0.6407  1.9909  1.0116
 3172TIP3    H2 9481   0.860   2.649   3.435 -1.2682 -0.0151 -0.3651
 3173TIP3   OH2 9482   5.855   5.311   0.801  0.2674  0.2385  0.4045
 3173TIP3    H1 9483   5.811   5.307   0.716  1.1908 -0.2041 -0.0667
 3173TIP3    H2 9484   5.792   5.272   0.862 -0.0761 -0.2079 -0.2158
 3174TIP3   OH2 9485   3.727   6.699   4.011 -0.0363 -0.0285  0.3794
 3174TIP3    H1 9486   3.773   6.623   4.047 -0.7336 -0.0219  1.3402
 3174TIP3    H2 9487   3.759   6.773   4.064  0.6714  0.3723 -0.5767
 3175TIP3   OH2 9488   3.911   6.505   4.100  0.2451  0.1317 -0.5165
 3175TIP3    H1 9489   3.950   6.423   4.130  0.8377  0.9284  1.0187
 3175TIP3    H2 9490   3.986   6.561   4.080 -0.1529  0.2478 -1.7467
 3176TIP3   OH2 9491   1.017   6.735   2.575 -0.2475 -0.1843 -0.0138
 3176TIP3    H1 9492   1.034   6.646   2.606 -1.9115 -0.1286  1.1944
 3176TIP3    H2 9493   1.100   6.781   2.587  0.1157 -1.0892  1.1284
 3177TIP3   OH2 9494   3.849   4.352   2.386  0.5174  0.0854 -0.3987
 3177TIP3    H1 9495   3.905   4.304   2.325 -0.3312 -0.5257 -0.7218
 3177TIP3    H2 9496   3.901   4.359   2.466  1.6011  0.8004 -1.1392
 3178TIP3   OH2 9497   4.606   1.857   1.793 -0.2167 -0.6051  0.3694
 3178TIP3    H1 9498   4.594   1.951   1.800  0.9106 -0.2184 -1.9883
 3178TIP3    H2 9499   4.676   1.838   1.856 -0.3220  0.1436  0.7261
 3179TIP3   OH2 9500   3.499   5.990   3.158  0.1702 -0.0510 -0.1071
 3179TIP3    H1 9501   3.495   6.056   3.089  1.3520  1.3877  1.1302
 3179TIP3    H2 9502   3.449   6.028   3.231  1.1645 -0.3231  0.7489
 3180TIP3   OH2 9503   3.559   3.864   5.317  0.3092 -0.2104 -0.4740
 3180TIP3    H1 9504   3.626   3.904   5.262  1.1246  1.4720  1.5888
 3180TIP3    H2 9505   3.477   3.876   5.268  1.0220  0.9490 -1.4449
 3181TIP3   OH2 9506   0.436   3.196   1.838 -0.3252  0.0070 -0.2831
 3181TIP3    H1 9507   0.351   3.165   1.805  0.3655 -1.9628 -0.3390
 3181TIP3    H2 9508   0.496   3.185   1.764  0.3978 -0.5984  0.3770
 3182TIP3   OH2 9509   0.422   3.479   3.818 -0.2448  0.6892 -0.1932
 3182TIP3    H1 9510   0.461   3.401   3.779  0.1343  0.0265  1.4358
 3182TIP3    H2 9511   0.471   3.493   3.898 -2.0503  0.9988  0.9307
 3183TIP3   OH2 9512   0.466   1.095   0.465  0.2856 -0.6854 -0.0455
 3183TIP3    H1 9513   0.560   1.082   0.473  0.3672 -1.5067 -1.8527
 3183TIP3    H2 9514   0.456   1.185   0.436  0.4933 -0.5160  0.4052
 3184TIP3   OH2 9515   6.696   5.162   1.563 -0.0296 -0.1720  0.1251
 3184TIP3    H1 9516   6.785   5.128   1.550 -0.4978 -0.7767 -1.6691
 3184TIP3    H2 9517   6.685   5.229   1.496 -1.5070 -1.2871 -0.8094
 3185TIP3   OH2 9518   6.250   1.148   3.636  0.0057  0.0565  0.4003
 3185TIP3    H1 9519   6.265   1.159   3.542 -1.1319 -1.9843 -0.0850
 3185TIP3    H2 9520   6.305   1.073   3.660 -0.5776 -0.1642  1.0915
 3186TIP3   OH2 9521   2.236   0.625   0.100  0.2865  0.5271 -0.1855
 3186TIP3    H1 9522   2.312   0.621   0.159 -0.4989  2.5737  1.0707
 3186TIP3    H2 9523   2.271   0.663   0.019  0.6940  1.0564  0.2309
 3187TIP3   OH2 9524   0.443   2.528   4.828  0.3459 -0.5522  0.3108
 3187TIP3    H1 9525   0.418   2.465   4.760 -3.1821 -0.8430  1.6854
 3187TIP3    H2 9526   0.377   2.597   4.823  1.1993  0.4671  2.0821
 3188TIP3   OH2 9527   0.783   3.793  -0.014 -0.1547 -0.1646  0.0939
 3188TIP3    H1 9528   0.873   3.772   0.011 -0.0891 -0.2275 -0.1924
 3188TIP3    H2 9529   0.756   3.860   0.049 -0.1939 -0.7339  0.7015
 3189TIP3   OH2 9530  -0.019   4.970   0.735 -0.3427 -0.4603 -0.2045
 3189TIP3    H1 9531   0.052   5.033   0.726  0.5144 -1.5554 -1.4878
 3189TIP3    H2 9532  -0.006   4.932   0.822  0.9506 -0.9891 -0.6121
 3190TIP3   OH2 9533   3.517   2.548   4.124 -0.3797 -0.5272 -0.0062
 3190TIP3    H1 9534   3.608   2.547   4.154 -0.8271 -0.8373  1.4434
 3190TIP3    H2 9535   3.483   2.631   4.155 -1.2540 -1.4658  1.7311
 3191TIP3   OH2 9536   6.692   2.844   2.344 -0.4688 -0.5193 -0.2643
 3191TIP3    H1 9537   6.761   2.797   2.391 -0.5409  0.9462  1.4529
 3191TIP3    H2 9538   6.739   2.899   2.281 -0.1120 -0.1851  0.2834
 3192TIP3   OH2 9539   6.183   1.295   4.452  0.0291  0.0998 -0.1407
 3192TIP3    H1 9540   6.206   1.310   4.360  2.4467  0.2585  0.4246
 3192TIP3    H2 9541   6.193   1.381   4.493  0.0532 -0.2052  0.4878
 3193TIP3   OH2 9542   4.852   0.604   5.645  0.3993  0.0895  0.4468
 3193TIP3    H1 9543   4.816   0.526   5.688 -0.7296  0.2601 -0.1623
 3193TIP3    H2 9544   4.842   0.674   5.710 -1.6918  0.4402 -0.1849
 3194TIP3   OH2 9545   6.424   2.439   1.052 -0.3574  0.7202  0.6429
 3194TIP3    H1 9546   6.403   2.367   1.111  0.7797  0.0272  0.2453
 3194TIP3    H2 9547   6.344   2.453   1.002 -0.7663  0.1053  1.1126
 3195TIP3   OH2 9548   6.011   1.201   1.021 -0.4401 -0.7158 -0.1242
 3195TIP3    H1 9549   5.943   1.245   1.073  0.9580 -0.7529  1.8663
 3195TIP3    H2 9550   5.992   1.108   1.031 -0.0663 -0.7320  0.5428
 3196TIP3   OH2 9551   3.891   0.251   4.069 -0.0485 -0.0426 -0.2931
 3196TIP3    H1 9552   3.940   0.308   4.009  1.4257 -0.7373  0.2172
 3196TIP3    H2 9553   3.825   0.211   4.013  0.2582  0.5456 -1.1142
 3197TIP3   OH2 9554   4.198   2.842   1.920  0.6028 -0.4766  0.5551
 3197TIP3    H1 9555   4.290   2.830   1.943  0.1216 -2.4139  1.7162
 3197TIP3    H2 9556   4.153   2.844   2.005 -0.4906 -0.2105 -0.0160
 3198TIP3   OH2 9557   2.658   0.181   5.056  0.2942 -0.5496  0.1215
 3198TIP3    H1 9558   2.583   0.241   5.058  0.8946  0.3044 -1.2173
 3198TIP3    H2 9559   2.705   0.198   5.138 -0.7927 -0.8863  0.8382
 3199TIP3   OH2 9560   2.709   5.467   1.796 -0.4824  0.1814  0.0560
 3199TIP3    H1 9561   2.759   5.401   1.748 -0.7892 -1.4118  1.7640
 3199TIP3    H2 9562   2.707   5.543   1.739  1.1896 -0.7795 -1.3826
 3200TIP3   OH2 9563   4.222   6.531   0.322  0.1541 -0.3686  0.3300
 3200TIP3    H1 9564   4.158   6.461   0.336  0.4015 -0.3399  1.7080
 3200TIP3    H2 9565   4.292   6.512   0.384  1.3910 -0.2543 -0.9839
 3201TIP3   OH2 9566   4.532   4.209   5.149  0.1513 -0.0012  0.3087
 3201TIP3    H1 9567   4.505   4.267   5.221  0.2479  1.0468 -0.4651
 3201TIP3    H2 9568   4.625   4.192   5.166  0.2493  0.4817  0.2825
 3202TIP3   OH2 9569   5.094   1.092   1.723  0.1558  0.1728  0.7344
 3202TIP3    H1 9570   5.016   1.059   1.677  1.1259 -0.0793 -0.7809
 3202TIP3    H2 9571   5.080   1.067   1.814 -0.7827 -1.3163  0.2133
 3203TIP3   OH2 9572   3.791   5.869   4.071 -0.2584 -0.4449  0.4308
 3203TIP3    H1 9573   3.725   5.869   4.002  0.3998  1.3599 -0.2542
 3203TIP3    H2 9574   3.837   5.952   4.061  1.9077 -1.4769  1.1166
 3204TIP3   OH2 9575   0.878   3.969   1.560 -0.2460  0.0009  0.3784
 3204TIP3    H1 9576   0.972   3.958   1.550  0.1432  2.7023  0.3849
 3204TIP3    H2 9577   0.842   3.952   1.473  0.3773 -0.0288  0.1253
 3205TIP3   OH2 9578   3.483   4.634   3.738  0.6701  0.0222  0.2751
 3205TIP3    H1 9579   3.411   4.696   3.740  0.6664  0.0062  0.9681
 3205TIP3    H2 9580   3.553   4.679   3.691  1.1042  1.0407  1.8537
 3206TIP3   OH2 9581   4.388   5.545   4.146  0.1352 -0.3652  0.3738
 3206TIP3    H1 9582   4.474   5.529   4.185  0.0721 -1.6973  0.0235
 3206TIP3    H2 9583   4.381   5.479   4.077 -0.4494  0.8575 -0.7883
 3207TIP3   OH2 9584   5.180   4.572   1.500 -0.2000  0.1124 -0.0315
 3207TIP3    H1 9585   5.087   4.550   1.496 -0.3684  0.9382 -0.8352
 3207TIP3    H2 9586   5.207   4.543   1.587 -1.2307 -0.0461  0.2530
 3208TIP3   OH2 9587   4.003   2.665   1.163  0.1432  0.1879  0.4872
 3208TIP3    H1 9588   4.092   2.700   1.155  1.2770 -2.2569  1.3839
 3208TIP3    H2 9589   3.997   2.636   1.254 -1.4631 -0.0036  0.3456
 3209TIP3   OH2 9590   2.263   0.997   2.222  0.2606 -0.4091 -0.0810
 3209TIP3    H1 9591   2.342   0.971   2.269  0.8043  0.7337 -0.3336
 3209TIP3    H2 9592   2.230   0.915   2.183  1.9370 -0.7392 -0.8897
 3210TIP3   OH2 9593   2.024   3.533   1.366  0.1518  0.0714 -0.0776
 3210TIP3    H1 9594   2.101   3.482   1.341  1.6764  1.3545  1.7560
 3210TIP3    H2 9595   2.021   3.604   1.302 -0.2603 -0.6510 -0.8806
 3211TIP3   OH2 9596   6.798   0.938   0.028 -0.7165 -0.1970 -0.1148
 3211TIP3    H1 9597   6.761   0.879   0.093  0.3443 -0.3589  0.3547
 3211TIP3    H2 9598   6.893   0.929   0.037 -0.5170 -0.9892 -2.3855
 3212TIP3   OH2 9599   3.965   1.190   1.794 -0.1480  0.5181  0.0420
 3212TIP3    H1 9600   4.049   1.159   1.761 -1.2610 -2.3195 -0.3746
 3212TIP3    H2 9601   3.971   1.179   1.889 -0.3355 -0.5899 -0.0597
 3213TIP3   OH2 9602   6.593   2.899   1.566  0.1763  0.3012  1.0029
 3213TIP3    H1 9603   6.607   2.896   1.471 -1.1882  0.6189  0.7688
 3213TIP3    H2 9604   6.551   2.815   1.586 -2.0692  1.3358  0.8502
 3214TIP3   OH2 9605   3.199   4.283   5.077 -0.5469  0.3827 -0.3197
 3214TIP3    H1 9606   3.167   4.209   5.025 -1.3035  0.6760 -0.2860
 3214TIP3    H2 9607   3.151   4.358   5.043 -2.4614  0.3250  1.9818
 3215TIP3   OH2 9608   7.122   3.957   3.781  0.2375  0.2038  0.0585
 3215TIP3    H1 9609   7.216   3.942   3.769  0.3053 -0.3665  1.2150
 3215TIP3    H2 9610   7.087   3.958   3.692  1.2349 -0.2981 -0.3588
 3216TIP3   OH2 9611   3.683   1.997   5.607  0.0713 -0.5481 -0.2133
 3216TIP3    H1 9612   3.731   2.060   5.554  0.2806 -1.2882 -0.9199
 3216TIP3    H2 9613   3.666   2.043   5.690 -0.1232  0.5587 -0.8490
 3217TIP3   OH2 9614   5.008   6.556   1.140 -0.9177  0.8782 -0.0142
 3217TIP3    H1 9615   5.057   6.502   1.078 -1.1441 -0.8612  1.2476
 3217TIP3    H2 9616   5.075   6.599   1.193 -0.6842 -1.2846  1.5334
 3218TIP3   OH2 9617   3.133   1.943   4.385  0.1621  0.1131  0.3887
 3218TIP3    H1 9618   3.132   1.890   4.465  1.1459  0.0627  0.3875
 3218TIP3    H2 9619   3.160   2.030   4.415 -0.0195  0.2395  0.1852
 3219TIP3   OH2 9620   3.300   3.327   1.638  0.4846 -0.3954  0.1202
 3219TIP3    H1 9621   3.395   3.328   1.639  0.4925 -0.3807  1.3923
 3219TIP3    H2 9622   3.275   3.294   1.725 -0.6751  2.3434  0.9471
 3220TIP3   OH2 9623   5.389   5.886   5.142  0.2437 -0.2246 -0.5422
 3220TIP3    H1 9624   5.382   5.979   5.123 -0.3961 -0.4364 -1.4082
 3220TIP3    H2 9625   5.308   5.864   5.187  1.5621  0.1772  2.2099
 3221TIP3   OH2 9626   7.083   2.224   4.241 -0.0280 -0.7137 -0.2750
 3221TIP3    H1 9627   7.045   2.248   4.157 -0.5591 -2.8286 -0.7171
 3221TIP3    H2 9628   7.171   2.260   4.239 -0.1947 -0.3363 -1.5573
 3222TIP3   OH2 9629   4.949   5.020   2.220  0.1343  0.0196  0.5067
 3222TIP3    H1 9630   4.862   4.997   2.189  0.5312 -0.7743 -0.0240
 3222TIP3    H2 9631   4.941   5.021   2.316 -0.2771 -0.7515  0.4817
 3223TIP3   OH2 9632   1.565   0.124   5.342  0.0340  0.1405  0.5895
 3223TIP3    H1 9633   1.527   0.150   5.258  0.9342  1.7552  0.6483
 3223TIP3    H2 9634   1.508   0.052   5.373 -0.3047 -0.4815 -1.3684
 3224TIP3   OH2 9635   4.851   6.482   3.762  0.0339 -0.1651 -0.4270
 3224TIP3    H1 9636   4.940   6.454   3.741 -0.3166 -0.6455 -1.3253
 3224TIP3    H2 9637   4.796   6.432   3.702 -1.2110 -2.9767  2.7590
 3225TIP3   OH2 9638   5.854   4.475   3.265 -0.0797  0.5224  0.0810
 3225TIP3    H1 9639   5.785   4.420   3.301  1.2147 -1.4363 -0.3070
 3225TIP3    H2 9640   5.930   4.460   3.321 -0.0128  3.0431  0.8233
 3226TIP3   OH2 9641   5.748   3.024   0.979 -0.4196  0.2085 -0.2157
 3226TIP3    H1 9642   5.798   2.943   0.988  1.0260  1.0549 -0.2837
 3226TIP3    H2 9643   5.672   3.012   1.035 -0.4882 -1.3704 -0.5952
 3227TIP3   OH2 9644   1.413   0.165   0.295  0.8039  0.1627  0.5897
 3227TIP3    H1 9645   1.445   0.203   0.213 -1.4949  0.1189 -0.4107
 3227TIP3    H2 9646   1.383   0.240   0.346 -2.5322 -0.0593 -0.8433
 3228TIP3   OH2 9647   2.350   5.731   1.445 -0.1134 -0.1742  0.3096
 3228TIP3    H1 9648   2.284   5.782   1.491 -0.9941  0.5614 -1.6302
 3228TIP3    H2 9649   2.404   5.692   1.514 -1.5148  0.6036  1.9089
 3229TIP3   OH2 9650   1.882   3.373   0.287 -0.2341  0.1808 -0.3006
 3229TIP3    H1 9651   1.823   3.431   0.336  0.9851  0.7532  0.5175
 3229TIP3    H2 9652   1.884   3.292   0.338  0.3023  0.4460  0.1078
 3230TIP3   OH2 9653   6.885   1.621   1.353  0.3952  0.2306  0.2319
 3230TIP3    H1 9654   6.931   1.698   1.318  1.1436  0.8258  2.3727
 3230TIP3    H2 9655   6.863   1.646   1.443  0.4219 -1.9694  0.8874
 3231TIP3   OH2 9656   4.838   5.579   0.347 -0.1594  0.6293  0.5681
 3231TIP3    H1 9657   4.908   5.560   0.285 -1.3665  1.7507 -1.2385
 3231TIP3    H2 9658   4.820   5.495   0.388  0.0492 -0.4103 -1.3284
 3232TIP3   OH2 9659   2.635   3.478   1.346 -0.4335 -0.1355 -0.5941
 3232TIP3    H1 9660   2.581   3.548   1.309 -1.2388 -0.5904 -0.2940
 3232TIP3    H2 9661   2.587   3.448   1.423 -0.6735 -1.7679 -1.3379
 3233TIP3   OH2 9662   1.974   5.850   4.816  0.1235 -0.4669  0.3377
 3233TIP3    H1 9663   1.909   5.904   4.860  1.6588  1.1810  0.7269
 3233TIP3    H2 9664   2.020   5.805   4.887  2.3133  1.8581  0.5418
 3234TIP3   OH2 9665   5.790   1.322   4.656  0.4173 -0.7850 -0.0743
 3234TIP3    H1 9666   5.705   1.304   4.616 -0.5259  0.0865  1.4696
 3234TIP3    H2 9667   5.812   1.243   4.705  0.2104 -0.7912  0.0061
 3235TIP3   OH2 9668   5.683   2.165   4.823 -0.3642  0.2765  0.2494
 3235TIP3    H1 9669   5.652   2.155   4.913  1.9262  2.6652  1.4538
 3235TIP3    H2 9670   5.736   2.087   4.807 -0.3684  0.0662  1.2014
 3236TIP3   OH2 9671   5.129   6.285   3.339 -0.1418  0.0738  0.1215
 3236TIP3    H1 9672   5.198   6.272   3.404 -0.8922  0.1369  0.9529
 3236TIP3    H2 9673   5.112   6.197   3.304 -0.8814 -0.2403  1.2257
 3237TIP3   OH2 9674   3.180   2.876   2.662  0.3707  0.1359 -0.1622
 3237TIP3    H1 9675   3.142   2.837   2.583  0.7697 -0.4401 -0.0718
 3237TIP3    H2 9676   3.194   2.803   2.721  2.4905  0.1695 -0.5414
 3238TIP3   OH2 9677   4.509   1.852   3.574  0.0667 -0.7558  0.0950
 3238TIP3    H1 9678   4.516   1.944   3.546 -0.2444 -0.5709  0.6194
 3238TIP3    H2 9679   4.538   1.802   3.498 -1.0769 -0.2725 -0.6828
 3239TIP3   OH2 9680   1.298   5.843   3.025 -0.1126  0.7409  0.1604
 3239TIP3    H1 9681   1.332   5.918   2.976 -0.0052  0.8588  0.4139
 3239TIP3    H2 9682   1.277   5.779   2.958  0.6641  0.6440 -0.0018
 3240TIP3   OH2 9683   3.292   4.677   4.415 -0.0958 -0.5255 -0.1953
 3240TIP3    H1 9684   3.307   4.667   4.321 -1.5284  0.1096 -0.5163
 3240TIP3    H2 9685   3.257   4.592   4.443 -1.2386 -0.2117 -0.5947
 3241TIP3   OH2 9686   4.157   3.143   5.741 -0.5065 -0.1415  0.1595
 3241TIP3    H1 9687   4.221   3.166   5.673 -0.5819 -4.2662 -1.5892
 3241TIP3    H2 9688   4.210   3.104   5.810 -0.8745 -1.1415 -0.1118
 3242TIP3   OH2 9689   4.685   3.162   0.943  0.9924  0.1476 -0.1928
 3242TIP3    H1 9690   4.639   3.111   1.010  3.0575 -1.4091  0.1448
 3242TIP3    H2 9691   4.744   3.219   0.993  0.7986  0.7581 -0.6498
 3243TIP3   OH2 9692   0.683   6.059   0.934 -0.0721 -0.0928 -0.3350
 3243TIP3    H1 9693   0.731   5.999   0.876 -0.9035 -1.2522  0.1548
 3243TIP3    H2 9694   0.745   6.130   0.950  0.1084  0.4409 -2.8548
 3244TIP3   OH2 9695   2.438   4.382   1.907  0.4894  0.5108 -0.3650
 3244TIP3    H1 9696   2.385   4.321   1.958 -0.3301  1.1501 -0.4188
 3244TIP3    H2 9697   2.398   4.383   1.820  1.1249  0.3580 -0.6685
 3245TIP3   OH2 9698   1.580   3.112   3.106  0.2933 -0.0488 -0.0087
 3245TIP3    H1 9699   1.629   3.084   3.184 -0.1726  1.2874  0.7939
 3245TIP3    H2 9700   1.636   3.089   3.033  1.1210 -0.5672  0.7634
 3246TIP3   OH2 9701   4.294   5.090   3.422  0.1936  0.2857 -0.1909
 3246TIP3    H1 9702   4.309   5.004   3.462  1.2456  1.5613  2.3693
 3246TIP3    H2 9703   4.372   5.106   3.369  0.0727 -0.2516 -0.5398
 3247TIP3   OH2 9704   5.758   1.402   0.311 -0.4364  0.0857 -0.1254
 3247TIP3    H1 9705   5.694   1.413   0.240 -1.0547  1.8045  0.6449
 3247TIP3    H2 9706   5.761   1.487   0.354  1.1569 -0.4431  0.9121
 3248TIP3   OH2 9707   2.627   6.123   5.326  0.5140 -0.4482  0.0084
 3248TIP3    H1 9708   2.706   6.070   5.331 -0.2752 -1.6548 -0.0385
 3248TIP3    H2 9709   2.601   6.119   5.234  0.6335  0.3285 -0.0702
 3249TIP3   OH2 9710   4.286   2.549   0.563  0.2928 -0.2788  0.1342
 3249TIP3    H1 9711   4.252   2.476   0.511 -1.6394  0.2521  0.5473
 3249TIP3    H2 9712   4.278   2.518   0.654  0.9150 -0.1303  0.2389
 3250TIP3   OH2 9713   5.738   2.307   5.670 -0.1403 -0.2694  0.2148
 3250TIP3    H1 9714   5.741   2.313   5.574 -0.8708  0.7062  0.2430
 3250TIP3    H2 9715   5.678   2.376   5.697 -0.5270 -1.0091  1.3408
 3251TIP3   OH2 9716   6.675   5.136   0.357  0.8684  0.0361  0.2033
 3251TIP3    H1 9717   6.722   5.196   0.416 -1.4037  0.8101  1.3842
 3251TIP3    H2 9718   6.723   5.054   0.362  1.2438  0.3325  2.5261
 3252TIP3   OH2 9719   5.167   3.364   0.737 -0.3855  0.1995  0.3005
 3252TIP3    H1 9720   5.257   3.387   0.761 -1.1907  1.8046  2.0670
 3252TIP3    H2 9721   5.166   3.367   0.641  1.4664 -0.0084  0.2511
 3253TIP3   OH2 9722   5.153   6.332   1.413  0.5672 -0.3463  0.2776
 3253TIP3    H1 9723   5.148   6.317   1.507  0.1188 -1.3620  0.1143
 3253TIP3    H2 9724   5.222   6.272   1.383  0.1290 -0.6509 -0.1426
 3254TIP3   OH2 9725   5.979   3.952   5.803  0.1622 -0.1673  0.1774
 3254TIP3    H1 9726   6.046   3.889   5.777  0.3248  0.0056  0.1789
 3254TIP3    H2 9727   5.988   3.959   5.898 -1.3101 -1.8210  0.5140
 3255TIP3   OH2 9728   6.711   2.339   5.077  0.2522  0.6818  0.0445
 3255TIP3    H1 9729   6.748   2.284   5.009 -1.7852 -1.6362  0.6748
 3255TIP3    H2 9730   6.738   2.298   5.159 -0.9143  0.8585  0.5438
 3256TIP3   OH2 9731   5.460   6.687   0.745  0.7151  0.1542 -0.0108
 3256TIP3    H1 9732   5.492   6.746   0.677 -0.7777  2.9371  1.4952
 3256TIP3    H2 9733   5.463   6.740   0.825 -1.2939 -1.6229  1.3506
 3257TIP3   OH2 9734   6.484   2.112   3.588  0.0887 -0.0480 -0.4353
 3257TIP3    H1 9735   6.445   2.127   3.674  1.1664  0.5166 -0.0223
 3257TIP3    H2 9736   6.474   2.018   3.573 -1.5783  0.1009 -0.4383
 3258TIP3   OH2 9737   2.255   0.373   1.336 -0.1149 -0.0574 -0.4834
 3258TIP3    H1 9738   2.163   0.397   1.352 -0.5495 -2.1606  0.4835
 3258TIP3    H2 9739   2.283   0.333   1.418  0.4847 -2.8555 -1.9463
 3259TIP3   OH2 9740   3.527   1.615   4.575  0.3466 -0.5585  0.3455
 3259TIP3    H1 9741   3.569   1.572   4.649  0.7641 -0.7010  0.0263
 3259TIP3    H2 9742   3.578   1.694   4.561  0.2353 -0.5052  0.2377
 3260TIP3   OH2 9743   6.336   6.632   3.064 -0.2062  0.1739  0.2240
 3260TIP3    H1 9744   6.413   6.651   3.117  0.7672  0.4315 -1.2139
 3260TIP3    H2 9745   6.309   6.544   3.091 -1.0655  1.0946  2.6165
 3261TIP3   OH2 9746   5.356   4.649   2.222  0.4159  0.1081 -0.2113
 3261TIP3    H1 9747   5.278   4.701   2.206  0.7507  0.5112 -0.5574
 3261TIP3    H2 9748   5.371   4.656   2.316  0.4676  0.6548 -0.2591
 3262TIP3   OH2 9749   6.384   3.775   2.202  0.5644  0.6006 -0.1268
 3262TIP3    H1 9750   6.467   3.800   2.162  0.3622 -0.6464 -1.4173
 3262TIP3    H2 9751   6.331   3.743   2.129 -0.3569 -0.4510  0.9582
 3263TIP3   OH2 9752   4.475   5.421   5.442 -0.0036 -0.4929  0.2723
 3263TIP3    H1 9753   4.380   5.417   5.429  0.2183 -1.3042 -1.3971
 3263TIP3    H2 9754   4.486   5.475   5.520 -1.7821  1.0614 -0.4690
 3264TIP3   OH2 9755   5.045   0.550   1.388  0.1049  0.1057 -0.3811
 3264TIP3    H1 9756   5.112   0.484   1.406  2.0036  1.3761 -2.4022
 3264TIP3    H2 9757   5.084   0.633   1.415 -0.9516  0.7912 -0.8965
 3265TIP3   OH2 9758   4.126   0.096   3.032  0.1347  0.2371 -0.2217
 3265TIP3    H1 9759   4.050   0.088   2.974 -0.3414 -0.8202  0.5219
 3265TIP3    H2 9760   4.096   0.149   3.105  0.0067 -0.4740  0.2428
 3266TIP3   OH2 9761   1.052   3.004   3.986  0.0095  0.1971  0.9235
 3266TIP3    H1 9762   1.011   2.963   3.910 -0.1603 -1.6002  1.9471
 3266TIP3    H2 9763   1.134   3.040   3.952 -0.8478  0.9519 -0.4522
 3267TIP3   OH2 9764   5.857   0.016   3.549  0.0933 -0.0760  0.8137
 3267TIP3    H1 9765   5.827   0.105   3.566  0.0233  0.3804 -1.4244
 3267TIP3    H2 9766   5.923  -0.001   3.617  2.6387  2.9833 -0.6425
 3268TIP3   OH2 9767   6.517   2.748   1.868 -0.3227  0.3926  0.2432
 3268TIP3    H1 9768   6.477   2.699   1.796 -0.4127 -0.3928  0.8089
 3268TIP3    H2 9769   6.610   2.727   1.863  0.1634  2.5701 -1.3443
 3269TIP3   OH2 9770   1.080   6.528   4.952  0.2473 -0.3844 -0.7735
 3269TIP3    H1 9771   0.997   6.571   4.970  0.0777 -1.1306  0.3036
 3269TIP3    H2 9772   1.109   6.566   4.869 -0.4050  1.0119 -0.3911
 3270TIP3   OH2 9773   4.208   5.831   5.838 -0.4448  0.0540 -0.2186
 3270TIP3    H1 9774   4.252   5.760   5.886 -3.6607 -0.9146  1.5975
 3270TIP3    H2 9775   4.156   5.786   5.771 -2.2132  0.6725  0.6888
 3271TIP3   OH2 9776   2.616   4.492   5.580 -0.0088  0.2389 -0.1890
 3271TIP3    H1 9777   2.525   4.483   5.610 -0.0060 -0.2015 -0.3193
 3271TIP3    H2 9778   2.609   4.508   5.486  0.0647 -0.0686 -0.2453
 3272TIP3   OH2 9779   5.807   4.338   3.751 -0.2148 -0.0359  0.2769
 3272TIP3    H1 9780   5.773   4.279   3.817 -1.7468 -0.0216 -0.4606
 3272TIP3    H2 9781   5.902   4.324   3.752 -0.5275 -2.5086  0.1109
 3273TIP3   OH2 9782   3.255   2.050   1.828 -0.4690 -0.1114  0.0874
 3273TIP3    H1 9783   3.339   2.026   1.865 -0.6296  0.8806  1.1193
 3273TIP3    H2 9784   3.207   1.967   1.821 -0.7943 -0.2649  3.0257
 3274TIP3   OH2 9785   3.368   5.586   5.711  0.0210 -0.1204 -0.2702
 3274TIP3    H1 9786   3.380   5.493   5.730 -0.0343  0.0868  0.7895
 3274TIP3    H2 9787   3.288   5.610   5.758  0.6658  0.7328  0.4103
 3275TIP3   OH2 9788   2.382   0.340   5.555  0.2919 -0.1328 -0.0493
 3275TIP3    H1 9789   2.420   0.426   5.538 -0.0767  0.2674  1.0781
 3275TIP3    H2 9790   2.305   0.337   5.499 -1.1939  1.3786  1.7670
 3276TIP3   OH2 9791   4.361   4.320   1.094 -0.1959 -0.3855  0.2581
 3276TIP3    H1 9792   4.354   4.349   1.003  1.5117  0.3153  0.3036
 3276TIP3    H2 9793   4.291   4.256   1.104 -3.0124  2.3354 -0.4029
 3277TIP3   OH2 9794   2.876   5.345   1.248 -0.1347  0.3133  0.2849
 3277TIP3    H1 9795   2.892   5.254   1.274 -0.9890  0.2995  0.7671
 3277TIP3    H2 9796   2.951   5.366   1.191  1.1242 -0.0481  1.7269
 3278TIP3   OH2 9797   2.000   3.346   3.227  0.3156 -0.2347 -0.1977
 3278TIP3    H1 9798   1.979   3.297   3.306 -2.1726 -0.8323 -1.1626
 3278TIP3    H2 9799   2.059   3.416   3.258 -0.2128 -0.7133  2.0770
 3279TIP3   OH2 9800   1.083   3.368   3.410  0.4625  0.4620  0.1525
 3279TIP3    H1 9801   1.068   3.447   3.461 -0.0317  1.0753 -0.9077
 3279TIP3    H2 9802   1.172   3.378   3.375 -0.4888  1.8612 -2.1239
 3280TIP3   OH2 9803   6.969   1.578   2.164  0.2332  0.5741  0.0471
 3280TIP3    H1 9804   6.894   1.521   2.180  1.7303 -1.1608  1.3090
 3280TIP3    H2 9805   7.013   1.539   2.088 -0.4764  1.9987 -1.1427
 3281TIP3   OH2 9806   5.881   3.945   3.576  0.2650  0.6348 -0.3738
 3281TIP3    H1 9807   5.968   3.962   3.540  0.4044  2.1315  0.6045
 3281TIP3    H2 9808   5.897   3.924   3.668 -0.4417  1.4144 -0.0670
 3282TIP3   OH2 9809   2.162   1.784   4.288 -0.0418  0.4271  0.2862
 3282TIP3    H1 9810   2.211   1.706   4.313  1.0592  1.4059  1.2507
 3282TIP3    H2 9811   2.083   1.781   4.342  0.9397  0.9954  1.7939
 3283TIP3   OH2 9812   0.583   3.788   5.296 -0.0148 -0.6863 -0.2438
 3283TIP3    H1 9813   0.576   3.882   5.308  0.4886 -0.7561  0.6431
 3283TIP3    H2 9814   0.530   3.749   5.365 -0.3347 -1.0558 -0.6878
 3284TIP3   OH2 9815   2.431   2.839   4.207  0.3769 -0.0682  0.1787
 3284TIP3    H1 9816   2.465   2.759   4.167 -1.7660 -2.1268  2.1832
 3284TIP3    H2 9817   2.338   2.841   4.182  0.1215  1.1673  1.1214
 3285TIP3   OH2 9818   7.006   2.133   4.951 -0.4425  0.4322 -0.0572
 3285TIP3    H1 9819   7.003   2.193   4.876  0.1599 -0.3351 -0.7052
 3285TIP3    H2 9820   7.099   2.123   4.970 -0.5393 -0.3056  0.0467
 3286TIP3   OH2 9821   7.099   5.508   4.631 -0.4240 -0.5910 -0.4024
 3286TIP3    H1 9822   7.173   5.513   4.570 -0.3454 -0.2999 -0.2827
 3286TIP3    H2 9823   7.048   5.432   4.600 -1.0788  0.3007 -1.6165
 3287TIP3   OH2 9824   4.376   2.763   4.429 -0.3469 -0.4987  0.2553
 3287TIP3    H1 9825   4.353   2.760   4.336 -0.4594 -1.0877  0.2987
 3287TIP3    H2 9826   4.471   2.753   4.430 -0.1331  1.1746  0.1202
 3288TIP3   OH2 9827   5.059   5.209   5.088  0.6812 -0.2365  0.3041
 3288TIP3    H1 9828   5.012   5.291   5.102  2.7914  1.0037  0.5595
 3288TIP3    H2 9829   5.111   5.197   5.167  1.8183 -0.8029 -0.4902
 3289TIP3   OH2 9830   3.483   0.937   4.298  0.3459  0.4765 -0.6795
 3289TIP3    H1 9831   3.539   1.014   4.305  1.3759 -0.2378 -0.6638
 3289TIP3    H2 9832   3.517   0.890   4.221  1.7905 -1.4891  1.0239
 3290TIP3   OH2 9833   4.808   2.092   0.316  0.4420  0.6708 -0.4504
 3290TIP3    H1 9834   4.732   2.083   0.259  0.5087  1.7566 -0.7279
 3290TIP3    H2 9835   4.882   2.103   0.257  0.7131  0.4050 -0.1674
 3291TIP3   OH2 9836   1.344   4.679   2.902  0.0931  0.1794  0.4029
 3291TIP3    H1 9837   1.329   4.761   2.855 -0.1018 -0.7300 -1.1594
 3291TIP3    H2 9838   1.438   4.677   2.919  0.3071  0.1136 -0.7421
 3292TIP3   OH2 9839   1.889   3.869   4.124 -0.2412 -0.1143  0.3039
 3292TIP3    H1 9840   1.893   3.774   4.113 -0.3459  0.0460 -1.2698
 3292TIP3    H2 9841   1.806   3.895   4.084  0.6421  0.8338 -1.0038
 3293TIP3   OH2 9842   5.454   6.499   4.819 -0.5667 -0.6231  0.4842
 3293TIP3    H1 9843   5.373   6.479   4.866 -0.3474  1.8270  2.0550
 3293TIP3    H2 9844   5.433   6.575   4.765  0.1320 -1.3514 -0.8862
 3294TIP3   OH2 9845   5.872   0.418   1.042  0.3939 -0.2146 -0.1543
 3294TIP3    H1 9846   5.818   0.343   1.069  0.3078  0.2687  1.0431
 3294TIP3    H2 9847   5.958   0.380   1.023  0.5094 -0.5500  0.9861
 3295TIP3   OH2 9848   2.623   0.142   5.632 -0.2274 -0.0595 -0.0369
 3295TIP3    H1 9849   2.704   0.116   5.590 -0.0468 -0.0068  0.2778
 3295TIP3    H2 9850   2.584   0.207   5.572 -0.0236 -0.0594 -0.1684
 3296TIP3   OH2 9851   3.847   5.929   1.858 -0.7148  0.2467  0.0426
 3296TIP3    H1 9852   3.922   5.885   1.897 -0.9325 -0.4853 -0.3586
 3296TIP3    H2 9853   3.868   6.023   1.865  0.3742  0.0448 -0.3675
 3297TIP3   OH2 9854   2.968   1.368   5.383  0.3107  0.2966  0.0940
 3297TIP3    H1 9855   2.978   1.427   5.457 -0.1115 -0.4776  0.7935
 3297TIP3    H2 9856   3.037   1.393   5.322  1.4713  0.1515  1.2988
 3298TIP3   OH2 9857   1.626   5.885   0.686 -0.1544  0.8105  0.1478
 3298TIP3    H1 9858   1.702   5.832   0.664  1.3288  2.6172  0.7157
 3298TIP3    H2 9859   1.551   5.827   0.671  1.3704 -1.4520  0.8375
 3299TIP3   OH2 9860   3.981   1.461   1.670  0.4486 -0.2977 -0.6021
 3299TIP3    H1 9861   3.989   1.366   1.661  0.0979 -0.1407 -3.5691
 3299TIP3    H2 9862   4.062   1.496   1.632 -0.0665  0.6189 -0.8901
 3300TIP3   OH2 9863   4.810   0.001   4.815  0.7321 -0.8968 -0.2736
 3300TIP3    H1 9864   4.762  -0.012   4.734  0.5464  1.9861 -0.7600
 3300TIP3    H2 9865   4.850   0.088   4.805  0.4424 -0.2782  2.8022
 3301TIP3   OH2 9866   4.479   6.387   0.842 -0.1691 -0.5393 -0.1335
 3301TIP3    H1 9867   4.413   6.439   0.888 -1.2394  0.3697 -2.5564
 3301TIP3    H2 9868   4.535   6.452   0.799  0.3004 -1.3626 -0.7851
 3302TIP3   OH2 9869   4.644   3.580   4.125  0.0226 -0.0093 -0.5060
 3302TIP3    H1 9870   4.553   3.571   4.099 -0.1484 -2.4804  0.6796
 3302TIP3    H2 9871   4.690   3.605   4.044 -1.6518  1.2888 -1.1080
 3303TIP3   OH2 9872   4.725   0.170   5.632 -0.0439 -0.1122  0.0820
 3303TIP3    H1 9873   4.686   0.199   5.550  1.6321 -0.1963 -0.8012
 3303TIP3    H2 9874   4.654   0.128   5.680 -1.8417  2.6409  0.0801
 3304TIP3   OH2 9875   5.753   3.003   1.588  0.2538 -0.0176  0.2429
 3304TIP3    H1 9876   5.829   3.038   1.634  0.4157 -0.2729  0.1745
 3304TIP3    H2 9877   5.759   2.908   1.602  1.6996 -0.3921 -2.3565
 3305TIP3   OH2 9878   4.910   0.460   3.213  0.3195 -0.3008 -0.0454
 3305TIP3    H1 9879   4.924   0.436   3.121  0.8083 -0.5038  0.0821
 3305TIP3    H2 9880   4.973   0.407   3.262 -1.0944 -1.4550  0.5694
 3306TIP3   OH2 9881   5.680   3.842   5.570  0.3391  0.0920  0.0181
 3306TIP3    H1 9882   5.749   3.812   5.512  0.8473  1.4217 -0.0829
 3306TIP3    H2 9883   5.602   3.849   5.514  0.0324 -1.5939  0.1736
 3307TIP3   OH2 9884   3.413   5.615   0.169 -0.2275  0.4835 -0.4941
 3307TIP3    H1 9885   3.444   5.606   0.078 -0.4979 -1.2167 -0.4480
 3307TIP3    H2 9886   3.355   5.691   0.167  1.0340  1.4765 -1.3811
 3308TIP3   OH2 9887   7.171   0.331   5.617  0.3554  0.4525 -0.8102
 3308TIP3    H1 9888   7.088   0.380   5.611  0.1328  0.1016 -0.6183
 3308TIP3    H2 9889   7.236   0.389   5.577  0.3066  1.3742  0.4014
 3309TIP3   OH2 9890   3.260   3.671   0.189 -0.0067 -0.5896  0.3163
 3309TIP3    H1 9891   3.189   3.622   0.231 -1.9389  1.3688 -0.4219
 3309TIP3    H2 9892   3.272   3.628   0.105 -0.9224 -0.4758  0.1134
 3310TIP3   OH2 9893   1.774   4.770   2.137 -0.2115  0.0531 -0.4146
 3310TIP3    H1 9894   1.768   4.718   2.217  0.3924  0.3686 -0.1580
 3310TIP3    H2 9895   1.867   4.793   2.130 -0.3806  0.6355 -0.8118
 3311TIP3   OH2 9896   7.070   5.293   3.643  0.0788  0.3751 -0.1926
 3311TIP3    H1 9897   7.093   5.254   3.559 -0.7106  0.2731 -0.3757
 3311TIP3    H2 9898   7.113   5.238   3.708  2.3514  1.6010 -0.5521
 3312TIP3   OH2 9899   6.301   3.591   3.424  0.2496  0.2104 -0.2195
 3312TIP3    H1 9900   6.386   3.576   3.465  0.2587  0.7193 -0.0502
 3312TIP3    H2 9901   6.309   3.676   3.382 -0.6831  1.0247  1.1460
 3313TIP3   OH2 9902   3.693   0.720   4.988  0.0140 -0.3832 -0.1324
 3313TIP3    H1 9903   3.766   0.658   4.984  1.4163  1.2655 -1.1042
 3313TIP3    H2 9904   3.675   0.730   5.081  1.3534 -0.4753  0.1554
 3314TIP3   OH2 9905   0.996   4.723   0.810 -0.4384  0.1399 -0.3211
 3314TIP3    H1 9906   1.083   4.706   0.776 -0.5346  0.2853 -0.6416
 3314TIP3    H2 9907   1.006   4.803   0.862 -0.8559  1.5766 -2.3325
 3315TIP3   OH2 9908   6.746   5.452   1.799 -0.0085  0.0659 -0.5261
 3315TIP3    H1 9909   6.679   5.519   1.783  1.0017  1.4438  0.7149
 3315TIP3    H2 9910   6.696   5.373   1.818 -1.4779  1.5722  2.7338
 3316TIP3   OH2 9911   6.730   3.449   2.316 -0.3516 -0.0073 -0.3597
 3316TIP3    H1 9912   6.821   3.469   2.297 -0.0452 -0.6755  0.3314
 3316TIP3    H2 9913   6.728   3.432   2.410 -1.5702  1.9320  0.0297
 3317TIP3   OH2 9914   2.292   2.332   5.548  0.3697 -0.7378 -0.0857
 3317TIP3    H1 9915   2.237   2.284   5.486 -0.2935 -0.5797  0.3741
 3317TIP3    H2 9916   2.235   2.400   5.582  1.3583  0.5193 -0.8735
 3318TIP3   OH2 9917   5.928   0.091   2.719  0.4016  0.0902  0.0277
 3318TIP3    H1 9918   6.001   0.032   2.700  0.9951  1.1214 -1.0250
 3318TIP3    H2 9919   5.970   0.175   2.739 -0.5066  1.0125 -1.7338
 3319TIP3   OH2 9920   2.564   6.321   2.620  0.1629  0.2982 -0.4996
 3319TIP3    H1 9921   2.531   6.231   2.614  0.9562 -0.2239  1.8087
 3319TIP3    H2 9922   2.494   6.369   2.664  0.6852  0.2168  0.4435
 3320TIP3   OH2 9923   7.240   5.293   4.025  0.4069 -0.0654  0.5555
 3320TIP3    H1 9924   7.166   5.352   4.037  1.9075  1.6411  2.0330
 3320TIP3    H2 9925   7.213   5.234   3.955 -1.5326  1.8057 -0.3825
 3321TIP3   OH2 9926   2.636   5.252   1.582  0.6495  0.3256 -0.0401
 3321TIP3    H1 9927   2.728   5.271   1.601  0.2160  0.6946  1.9268
 3321TIP3    H2 9928   2.613   5.184   1.645 -0.3641  0.0407 -0.6963
 3322TIP3   OH2 9929   3.913   1.249   4.287  0.0804 -0.0637  0.2506
 3322TIP3    H1 9930   4.004   1.263   4.258  0.2140  0.5974  0.9732
 3322TIP3    H2 9931   3.921   1.215   4.376 -0.3861  0.6913  0.5928
 3323TIP3   OH2 9932   2.804   5.917   1.300 -0.2568 -0.2323  0.2487
 3323TIP3    H1 9933   2.870   5.987   1.306  1.1749 -1.6588  2.9713
 3323TIP3    H2 9934   2.723   5.958   1.328 -0.4362  1.2909 -2.1583
 3324TIP3   OH2 9935   2.059   2.788   5.657 -0.1793  0.0657  0.1898
 3324TIP3    H1 9936   2.026   2.771   5.568 -1.5331 -0.3348  0.7497
 3324TIP3    H2 9937   2.112   2.867   5.648 -0.6130  0.2496 -0.9089
 3325TIP3   OH2 9938   5.156   3.766   4.466 -0.1068  0.2232 -0.1609
 3325TIP3    H1 9939   5.164   3.675   4.436  0.5899  0.2452 -0.0462
 3325TIP3    H2 9940   5.137   3.759   4.559 -1.7894  0.1660 -0.4760
 3326TIP3   OH2 9941   3.422   6.090   3.408 -0.4119  0.0584  0.6840
 3326TIP3    H1 9942   3.372   6.164   3.441 -0.7788  0.1001  0.0419
 3326TIP3    H2 9943   3.510   6.102   3.444 -0.8846 -0.0975  1.9443
 3327TIP3   OH2 9944   3.373   2.818   0.912  0.1692  0.0195 -0.4353
 3327TIP3    H1 9945   3.327   2.837   0.831  0.8906 -1.3116 -1.1922
 3327TIP3    H2 9946   3.440   2.755   0.887  1.1802  0.4779  0.9828
 3328TIP3   OH2 9947   3.080   1.806   2.672  0.3708 -0.0052  0.3620
 3328TIP3    H1 9948   3.008   1.771   2.724  0.8046 -0.4920  0.6443
 3328TIP3    H2 9949   3.096   1.739   2.605 -0.0861  0.5497 -0.3263
 3329TIP3   OH2 9950   7.002   1.587   3.089  0.0308  0.5351 -0.5732
 3329TIP3    H1 9951   7.096   1.570   3.082  0.4356  1.7493  1.1530
 3329TIP3    H2 9952   6.978   1.619   3.002  1.0297 -0.5651 -1.2842
 3330TIP3   OH2 9953   5.915   0.091   4.315  0.3670  0.0926 -0.6110
 3330TIP3    H1 9954   5.891   0.094   4.222  0.2628  1.1152 -0.5602
 3330TIP3    H2 9955   5.839   0.128   4.360  0.4286 -0.3759 -0.1130
 3331TIP3   OH2 9956   3.741   0.436   3.839  0.3988 -0.0926 -0.1116
 3331TIP3    H1 9957   3.832   0.413   3.857  0.7102  0.4858 -0.9107
 3331TIP3    H2 9958   3.745   0.521   3.797 -0.4343 -0.4921 -1.0517
 3332TIP3   OH2 9959   1.713   2.782   3.332 -0.5980 -1.0528  0.0362
 3332TIP3    H1 9960   1.797   2.810   3.297 -0.6409 -0.8653  0.0782
 3332TIP3    H2 9961   1.735   2.729   3.409 -0.5342 -0.0886  0.7062
 3333TIP3   OH2 9962   4.733   5.969   3.394  0.4026  0.2659  0.1114
 3333TIP3    H1 9963   4.752   6.003   3.306  1.1179 -3.1010 -1.1722
 3333TIP3    H2 9964   4.638   5.965   3.398  0.2630  2.5102  0.4479
 3334TIP3   OH2 9965   2.240   2.987   1.849 -0.5554  0.0624  0.3153
 3334TIP3    H1 9966   2.220   3.015   1.938 -1.1497 -2.9138  1.2262
 3334TIP3    H2 9967   2.161   2.940   1.820 -0.2182  0.5921 -1.6481
 3335TIP3   OH2 9968   1.325   6.632   5.631 -0.4350  0.1252 -0.1437
 3335TIP3    H1 9969   1.248   6.686   5.644  0.1447  1.1175 -0.6878
 3335TIP3    H2 9970   1.323   6.569   5.704 -0.8095  1.2577  0.8591
 3336TIP3   OH2 9971   5.940   2.831   1.735 -0.5259  0.3305 -0.2442
 3336TIP3    H1 9972   5.925   2.740   1.758  1.6011 -0.0961 -0.3363
 3336TIP3    H2 9973   5.998   2.864   1.804 -0.7109  1.4342 -0.5909
 3337TIP3   OH2 9974   0.185   6.626   4.039  0.7161  0.2083  0.1596
 3337TIP3    H1 9975   0.215   6.715   4.059 -2.5661  1.6942 -0.7748
 3337TIP3    H2 9976   0.153   6.592   4.123 -0.1668  0.8902  0.1178
 3338TIP3   OH2 9977   1.908   3.396   2.130  0.2882 -0.3189 -0.4100
 3338TIP3    H1 9978   2.002   3.410   2.135  0.7152 -2.7360 -0.4617
 3338TIP3    H2 9979   1.888   3.401   2.036  0.6971 -1.4911 -0.5736
 3339TIP3   OH2 9980   6.759   1.445   2.259 -0.2507 -0.0396 -0.2118
 3339TIP3    H1 9981   6.725   1.391   2.187 -0.1127  1.3459 -1.3538
 3339TIP3    H2 9982   6.682   1.484   2.298 -0.2022  0.7360 -0.8721
 3340TIP3   OH2 9983   5.585   4.903   3.865  0.5722  0.3257  0.1676
 3340TIP3    H1 9984   5.603   4.834   3.929 -1.2526  0.3060  0.7126
 3340TIP3    H2 9985   5.627   4.871   3.784  0.0418 -1.2800  0.4869
 3341TIP3   OH2 9986   1.263   3.377   4.860  0.2378 -0.5173 -0.1252
 3341TIP3    H1 9987   1.268   3.386   4.955 -0.1586 -2.9194  0.1890
 3341TIP3    H2 9988   1.347   3.411   4.828  1.0125 -1.1064  1.2222
 3342TIP3   OH2 9989   1.605   4.022   2.595  0.1104  0.1078  0.2742
 3342TIP3    H1 9990   1.607   3.929   2.573  0.2899  0.1891 -0.0570
 3342TIP3    H2 9991   1.679   4.059   2.547 -0.5669  0.6040 -0.4108
 3343TIP3   OH2 9992   4.471   1.646   0.147 -0.3838 -0.3783  0.1634
 3343TIP3    H1 9993   4.550   1.652   0.093  0.2960 -3.9508  0.4850
 3343TIP3    H2 9994   4.413   1.714   0.113  2.2055  1.3204 -1.1422
 3344TIP3   OH2 9995   5.857   3.135   2.876 -0.0683 -0.3769 -0.0642
 3344TIP3    H1 9996   5.869   3.191   2.953 -0.7412 -0.0614 -0.1788
 3344TIP3    H2 9997   5.943   3.097   2.860  0.2570  0.1532  0.3884
 3345TIP3   OH2 9998   3.251   1.813   4.119 -0.1351 -0.4796 -0.3413
 3345TIP3    H1 9999   3.311   1.869   4.070  1.1937 -1.1373  0.4928
 3345TIP3    H210000   3.213   1.871   4.186 -0.8015  0.0416 -1.1437
 3346TIP3   OH210001   4.144   3.963   4.061  0.2152 -0.2191  0.2727
 3346TIP3    H110002   4.233   3.987   4.086  0.6568  1.8019 -2.6716
 3346TIP3    H210003   4.155   3.918   3.977 -1.5169 -0.5514  0.1928
 3347TIP3   OH210004   4.122   3.667   1.500 -0.9249  0.0708 -0.5224
 3347TIP3    H110005   4.189   3.704   1.557 -2.2109  1.9246 -0.1184
 3347TIP3    H210006   4.167   3.650   1.417 -0.3706  3.4241 -1.0226
 3348TIP3   OH210007   4.106   5.703   4.299 -0.0300  0.3032  1.1556
 3348TIP3    H110008   4.159   5.773   4.260  0.7446 -0.9834 -0.1764
 3348TIP3    H210009   4.153   5.680   4.379  3.6139 -3.1332 -1.5858
 3349TIP3   OH210010   4.861   2.449   2.511 -0.2787  0.3133 -0.1474
 3349TIP3    H110011   4.808   2.462   2.432 -0.2339  0.6105 -0.1312
 3349TIP3    H210012   4.945   2.418   2.478 -0.3938  0.0369 -0.1873
 3350TIP3   OH210013   3.618   6.694   2.148  0.0919 -0.2661  0.2924
 3350TIP3    H110014   3.696   6.640   2.136  0.8025  0.9481 -0.8524
 3350TIP3    H210015   3.577   6.695   2.062  0.7543  1.9448 -0.0640
 3351TIP3   OH210016   1.601   5.791   4.924  0.0249  0.2567  0.0566
 3351TIP3    H110017   1.663   5.861   4.907  0.4959  0.4964  2.3810
 3351TIP3    H210018   1.564   5.769   4.839  2.2173  1.1174 -1.1752
 3352TIP3   OH210019   3.842   5.369   3.098  0.7618  0.4745  0.5589
 3352TIP3    H110020   3.825   5.276   3.083  1.7058  0.5580 -1.4507
 3352TIP3    H210021   3.897   5.372   3.176  0.3296 -0.6049  0.9121
 3353TIP3   OH210022   2.242   2.713   2.201 -0.1560 -0.1437  0.3831
 3353TIP3    H110023   2.277   2.801   2.184  0.8486 -0.4362  0.9115
 3353TIP3    H210024   2.310   2.669   2.252 -0.8513 -1.0788  0.5258
 3354TIP3   OH210025   3.701   2.377   1.509 -0.1802 -0.4119 -0.0958
 3354TIP3    H110026   3.664   2.309   1.452  0.0994 -1.4344  0.9042
 3354TIP3    H210027   3.795   2.375   1.491  0.4552 -3.0525  2.6143
 3355TIP3   OH210028   2.182   2.862   0.730 -1.2060 -0.0962 -0.1755
 3355TIP3    H110029   2.225   2.896   0.809  0.0491  1.1045 -1.3076
 3355TIP3    H210030   2.229   2.781   0.710 -1.5566 -0.4268  0.3184
 3356TIP3   OH210031   1.973   5.171   0.517  0.1325  0.4489 -0.1980
 3356TIP3    H110032   1.994   5.102   0.454 -0.4515 -1.7185  1.8584
 3356TIP3    H210033   1.910   5.227   0.471  0.8209 -0.1938 -2.0130
 3357TIP3   OH210034   4.664   1.694   4.245  0.1907 -0.3670 -0.1183
 3357TIP3    H110035   4.757   1.690   4.269  0.1525  0.3710  0.1648
 3357TIP3    H210036   4.641   1.786   4.254 -0.1540 -0.2642 -1.7616
 3358TIP3   OH210037   3.441   0.477   5.736  0.3056 -0.0584 -0.1389
 3358TIP3    H110038   3.517   0.464   5.792 -0.3520  1.3999  1.1873
 3358TIP3    H210039   3.382   0.406   5.758 -0.1290  0.7403  1.4032
 3359TIP3   OH210040   0.834   5.939   2.834  0.3381 -0.0246  0.2517
 3359TIP3    H110041   0.926   5.962   2.843  0.7592 -0.6642 -1.8106
 3359TIP3    H210042   0.800   5.939   2.924  2.1985  0.7261  1.0089
 3360TIP3   OH210043   3.369   4.866   4.741  0.1900  0.1192 -0.0509
 3360TIP3    H110044   3.359   4.901   4.653  0.0938 -0.5946 -0.3288
 3360TIP3    H210045   3.463   4.862   4.755  0.2069  0.1188 -0.1656
 3361TIP3   OH210046   3.026   4.710   3.212 -0.2044  0.3456 -0.5521
 3361TIP3    H110047   2.976   4.771   3.158  2.2562 -0.0870 -3.6620
 3361TIP3    H210048   3.083   4.765   3.265 -0.2441  0.7756 -0.9543
 3362TIP3   OH210049   1.327   5.194   3.318  0.5647 -0.1736  0.2336
 3362TIP3    H110050   1.241   5.152   3.313  0.0190  0.8896  0.5452
 3362TIP3    H210051   1.386   5.133   3.273 -0.4503 -0.6283 -0.5168
 3363TIP3   OH210052   2.787   2.221   3.212 -0.1550 -0.6906 -0.4846
 3363TIP3    H110053   2.791   2.150   3.147 -0.3601 -0.3438 -0.8826
 3363TIP3    H210054   2.699   2.212   3.250 -0.1627 -0.6835 -0.5001
 3364TIP3   OH210055   3.161   5.150   0.989 -0.0715 -0.2572 -0.3254
 3364TIP3    H110056   3.139   5.243   0.983 -0.4445 -0.3244 -0.0929
 3364TIP3    H210057   3.206   5.130   0.907 -1.2740 -0.2113 -1.0129
 3365TIP3   OH210058   1.490   4.758   5.725 -0.5147 -0.0151 -0.2850
 3365TIP3    H110059   1.438   4.836   5.708  0.2199  0.5338 -0.0366
 3365TIP3    H210060   1.488   4.749   5.821  0.8184  0.6901 -0.1793
 3366TIP3   OH210061   7.082   5.591   4.319 -0.3161  0.3076 -0.8372
 3366TIP3    H110062   6.990   5.596   4.346  0.0975  0.7117  0.5833
 3366TIP3    H210063   7.080   5.548   4.234 -1.6828 -1.4093  0.0017
 3367TIP3   OH210064   6.692   5.486   4.627  0.1615 -0.1267 -0.4920
 3367TIP3    H110065   6.639   5.558   4.660 -1.2250 -1.4291  0.2351
 3367TIP3    H210066   6.677   5.487   4.532  0.2056  0.5472 -0.5012
 3368TIP3   OH210067   1.421   5.375   1.476  0.5144 -0.1436  0.0672
 3368TIP3    H110068   1.437   5.289   1.514 -1.6310 -0.2121  0.9757
 3368TIP3    H210069   1.326   5.376   1.460  0.3091  2.4122  1.0399
 3369TIP3   OH210070   1.538   5.142   4.152  0.3290  0.3301 -0.3443
 3369TIP3    H110071   1.578   5.116   4.234  0.0899 -0.8979 -0.5877
 3369TIP3    H210072   1.584   5.091   4.085 -0.0320  0.6930 -0.8851
 3370TIP3   OH210073   2.678   0.481   4.361 -0.4930 -0.5514  0.2764
 3370TIP3    H110074   2.636   0.556   4.320  0.2843 -0.1933  0.1037
 3370TIP3    H210075   2.769   0.508   4.372 -0.2673 -1.3607  0.4847
 3371TIP3   OH210076   0.067   5.217   5.422  0.5307  0.6543  0.2065
 3371TIP3    H110077   0.040   5.309   5.417  2.5625  1.3170  0.7688
 3371TIP3    H210078   0.002   5.171   5.369 -2.4330  1.9362  2.4367
 3372TIP3   OH210079   4.014   3.311   2.063 -0.4906  0.5674  0.4202
 3372TIP3    H110080   4.017   3.321   1.968 -1.6347 -0.4213  0.2422
 3372TIP3    H210081   4.002   3.217   2.076 -0.5013  0.7120  1.5374
 3373TIP3   OH210082   7.143   6.033   5.867  0.3712 -0.0404 -0.6166
 3373TIP3    H110083   7.237   6.049   5.878  0.1518  1.7757 -1.0484
 3373TIP3    H210084   7.129   6.035   5.773 -0.1681  0.0639 -0.5388
 3374TIP3   OH210085   1.136   4.429   1.990 -0.2657 -0.4555  0.7551
 3374TIP3    H110086   1.177   4.372   2.055  2.1420  1.0334  0.6782
 3374TIP3    H210087   1.165   4.395   1.906  0.4491  0.2765  0.6822
 3375TIP3   OH210088   2.602   3.021   3.163 -0.2356 -0.0297 -0.2997
 3375TIP3    H110089   2.685   3.066   3.180  0.8673 -1.5271 -1.4997
 3375TIP3    H210090   2.623   2.928   3.166 -1.9013 -0.4493 -0.5588
 3376TIP3   OH210091   6.515   0.760   1.396 -0.3597  0.0515  0.1211
 3376TIP3    H110092   6.559   0.811   1.327 -0.4025  0.1583  0.1721
 3376TIP3    H210093   6.527   0.813   1.475  0.9054 -0.7241  0.4821
 3377TIP3   OH210094   0.304   4.547   3.817  0.1987  0.2144 -0.2692
 3377TIP3    H110095   0.297   4.638   3.787 -1.3779  0.2562  0.1498
 3377TIP3    H210096   0.215   4.513   3.809  0.5472 -0.9455  0.6860
 3378TIP3   OH210097   5.329   1.457   2.808 -0.0736  0.3437 -0.3758
 3378TIP3    H110098   5.288   1.486   2.727  1.1929  1.2750 -0.7174
 3378TIP3    H210099   5.354   1.366   2.792  1.8253  1.0495 -1.7578
 3379TIP3   OH210100   2.353   6.668   2.459 -0.5549  0.5897  0.1060
 3379TIP3    H110101   2.339   6.757   2.492 -0.6061  0.9334 -0.8224
 3379TIP3    H210102   2.296   6.613   2.514  0.6746  0.8834  1.7658
 3380TIP3   OH210103   6.419   3.164   4.740  0.9890 -0.0432 -0.3378
 3380TIP3    H110104   6.447   3.106   4.811  0.3219  0.8031  0.6551
 3380TIP3    H210105   6.500   3.198   4.703  1.3527  0.2534  0.6837
 3381TIP3   OH210106   3.431   6.268   1.573  0.5312  0.0298  0.1963
 3381TIP3    H110107   3.362   6.256   1.638  0.7687 -0.5853  0.3370
 3381TIP3    H210108   3.477   6.185   1.570 -0.4612 -0.5274 -1.9291
 3382TIP3   OH210109   2.171   4.467   2.238  0.1488 -0.1471  0.1113
 3382TIP3    H110110   2.203   4.506   2.156  0.5401 -0.7366 -0.0243
 3382TIP3    H210111   2.076   4.459   2.225  0.0727  0.6667  0.1106
 3383TIP3   OH210112   2.689   1.783   2.129  0.6456 -0.1395 -0.0575
 3383TIP3    H110113   2.613   1.742   2.086  1.8664 -0.6470 -1.8294
 3383TIP3    H210114   2.686   1.874   2.100  0.2558  0.0387  0.5383
 3384TIP3   OH210115   4.933   4.256   3.248 -0.9129  0.1461  0.0517
 3384TIP3    H110116   5.006   4.224   3.195  0.5446  2.0401  0.7780
 3384TIP3    H210117   4.913   4.184   3.307 -0.9047 -1.0781 -1.3913
 3385TIP3   OH210118   1.007   1.339   0.333 -0.0950  0.1483  0.1527
 3385TIP3    H110119   1.062   1.303   0.264  0.1158  1.8028 -0.5873
 3385TIP3    H210120   1.030   1.289   0.411  0.0215 -1.4110 -0.8482
 3386TIP3   OH210121   2.639   3.316   2.485 -0.2663 -0.2022  0.4804
 3386TIP3    H110122   2.597   3.352   2.563 -1.6523 -1.2543  0.2672
 3386TIP3    H210123   2.646   3.391   2.425 -1.2922  0.1435  0.7641
 3387TIP3   OH210124   0.065   0.273   1.998  0.2344  0.0930 -0.1314
 3387TIP3    H110125   0.132   0.253   2.064  0.6184 -0.9753 -0.8277
 3387TIP3    H210126   0.075   0.367   1.983 -0.4425  0.5661  1.9487
 3388TIP3   OH210127   5.846   4.308   5.734  0.3021  0.0950  0.0930
 3388TIP3    H110128   5.832   4.251   5.658  1.0661 -1.4715  1.0499
 3388TIP3    H210129   5.941   4.303   5.749 -0.0723 -1.3736  2.3866
 3389TIP3   OH210130   3.531   0.199   2.988 -0.4884  0.1952  0.0791
 3389TIP3    H110131   3.498   0.234   3.071 -0.5256 -0.8714  0.5400
 3389TIP3    H210132   3.487   0.114   2.980  0.0286 -0.0033 -0.7052
 3390TIP3   OH210133   6.137   0.828   3.367  0.3906  0.3126 -0.0173
 3390TIP3    H110134   6.097   0.816   3.454 -0.1721 -0.1548 -0.3249
 3390TIP3    H210135   6.099   0.909   3.334 -0.1700 -0.0158 -0.2167
 3391TIP3   OH210136   6.226   4.728   0.733 -0.2578  0.1425  0.2373
 3391TIP3    H110137   6.292   4.783   0.690  0.7303 -0.7113  0.6045
 3391TIP3    H210138   6.198   4.779   0.809  0.7950  0.0839  0.6851
 3392TIP3   OH210139   4.612   3.673   5.502  0.1171  0.0317  1.1413
 3392TIP3    H110140   4.614   3.730   5.425  1.8732 -1.8597 -0.3351
 3392TIP3    H210141   4.521   3.643   5.506 -0.1587  0.6565  0.1935
 3393TIP3   OH210142   2.531   2.929   2.642 -0.0173 -0.0083  0.4386
 3393TIP3    H110143   2.525   2.883   2.558  2.9731 -0.6597  0.4752
 3393TIP3    H210144   2.484   2.874   2.704 -0.6624 -0.4727 -0.4444
 3394TIP3   OH210145   5.502   5.651   5.045  0.8490 -0.3333 -0.0138
 3394TIP3    H110146   5.490   5.666   4.951 -0.1923 -0.1743  0.1408
 3394TIP3    H210147   5.503   5.738   5.083  0.6922 -0.4224  0.1928
 3395TIP3   OH210148   1.364   4.418   5.242  0.1488  0.2724 -0.3883
 3395TIP3    H110149   1.412   4.403   5.323  0.1764 -0.0764 -0.4688
 3395TIP3    H210150   1.428   4.460   5.184  0.4122 -0.3412 -0.5518
 3396TIP3   OH210151   1.472   5.286   5.066  0.4365 -0.3664 -0.4227
 3396TIP3    H110152   1.418   5.359   5.096  1.5350  0.2058  0.2473
 3396TIP3    H210153   1.449   5.214   5.124  0.7563  0.0233  0.2010
 3397TIP3   OH210154   5.772   3.813   4.622  0.1697 -0.4146  0.2668
 3397TIP3    H110155   5.749   3.745   4.559  0.7412 -1.9308  1.6187
 3397TIP3    H210156   5.830   3.872   4.574 -0.7494 -0.5660 -1.0943
 3398TIP3   OH210157   7.049   1.048   2.169 -0.0597 -0.2538 -0.1436
 3398TIP3    H110158   7.023   1.048   2.077  2.3970 -0.1372 -0.8998
 3398TIP3    H210159   7.071   1.139   2.188  0.4578 -0.4559  0.2438
 3399TIP3   OH210160   6.626   5.643   1.638 -0.4632  0.4618 -0.2273
 3399TIP3    H110161   6.661   5.727   1.665  1.3452  0.4319 -2.1634
 3399TIP3    H210162   6.577   5.662   1.558  0.8144 -0.4008 -1.2597
 3400TIP3   OH210163   0.163   4.599   5.273  0.5949  0.4173 -0.4459
 3400TIP3    H110164   0.127   4.687   5.282 -0.3200 -0.0773  1.0581
 3400TIP3    H210165   0.252   4.613   5.239  0.6631  1.9513  0.2626
 3401TIP3   OH210166   6.671   6.188   4.518  0.3162 -0.3046  0.1590
 3401TIP3    H110167   6.640   6.232   4.439  0.1357 -0.8681 -0.0908
 3401TIP3    H210168   6.762   6.167   4.500  0.9232  1.4793  0.9485
 3402TIP3   OH210169   0.217   3.903   5.249  0.3559 -0.3576 -0.2591
 3402TIP3    H110170   0.266   3.876   5.327 -0.3656 -0.4452  0.1706
 3402TIP3    H210171   0.235   3.834   5.185 -2.2474 -2.5130  1.1335
 3403TIP3   OH210172   4.197   4.533   3.594 -0.9076 -0.8822  0.1827
 3403TIP3    H110173   4.154   4.536   3.508 -1.4441 -1.9249  0.3889
 3403TIP3    H210174   4.188   4.441   3.621  1.7116 -1.2387  0.1130
 3404TIP3   OH210175   2.599   1.700   5.700  0.6130  0.2493  0.0583
 3404TIP3    H110176   2.666   1.767   5.686  1.3328 -0.7452 -1.4674
 3404TIP3    H210177   2.633   1.648   5.774  0.2084  1.3267  1.0289
 3405TIP3   OH210178   6.825   5.572   2.879 -0.7871 -0.4423  0.5725
 3405TIP3    H110179   6.836   5.632   2.805  1.2744  0.9479  1.8922
 3405TIP3    H210180   6.781   5.625   2.946 -0.9536 -1.0988  0.9895
 3406TIP3   OH210181   5.434   6.133   3.984 -0.0567 -0.3975  0.1550
 3406TIP3    H110182   5.418   6.165   4.073 -0.8356 -2.0853  0.6665
 3406TIP3    H210183   5.347   6.117   3.948  0.2336  0.8179 -1.1545
 3407TIP3   OH210184   3.050   5.903   1.024  0.4617  0.1407 -0.2643
 3407TIP3    H110185   3.003   5.983   0.999  0.6954  0.1610 -0.6338
 3407TIP3    H210186   3.123   5.898   0.963  0.7882 -0.0394  0.1394
 3408TIP3   OH210187   2.480   5.260   4.619  0.4705  0.6850 -0.4346
 3408TIP3    H110188   2.440   5.347   4.617  0.8044  0.9944  2.2491
 3408TIP3    H210189   2.408   5.200   4.637  0.3560  0.4858 -1.5214
 3409TIP3   OH210190   3.557   6.073   0.846  0.3580  0.3796  0.2189
 3409TIP3    H110191   3.651   6.083   0.857  0.8940  0.2293 -3.2306
 3409TIP3    H210192   3.525   6.161   0.824  0.6048 -0.2657 -3.2937
 3410TIP3   OH210193   7.118   2.361   2.298  0.0558  0.3185  0.5186
 3410TIP3    H110194   7.131   2.273   2.261 -0.7696  0.4647 -0.1619
 3410TIP3    H210195   7.107   2.346   2.392 -2.8828 -0.6841  0.1219
 3411TIP3   OH210196   6.776   1.879   3.805 -0.8545  0.3788  0.2451
 3411TIP3    H110197   6.794   1.786   3.789  1.9696  0.7258  0.8911
 3411TIP3    H210198   6.824   1.925   3.737  1.2282  1.4166  2.2464
 3412TIP3   OH210199   1.783   5.970   4.163 -0.0223  0.2494  0.0474
 3412TIP3    H110200   1.759   6.011   4.080 -0.0847 -0.1445 -0.1320
 3412TIP3    H210201   1.804   6.044   4.221 -2.6486  0.7190  0.5399
 3413TIP3   OH210202   5.960   4.794   1.807 -0.6026  0.7177  0.6675
 3413TIP3    H110203   5.872   4.804   1.771 -0.4920 -0.5466 -0.0303
 3413TIP3    H210204   5.946   4.751   1.892 -0.5892 -2.2287 -0.6796
 3414TIP3   OH210205   0.375   6.352   4.758 -0.2649  0.3292  0.5233
 3414TIP3    H110206   0.453   6.392   4.718 -0.6333  1.3806  0.8182
 3414TIP3    H210207   0.357   6.275   4.703  0.5949  0.4398  0.0627
 3415TIP3   OH210208   1.180   4.377   3.658  0.3165  0.0789 -0.1017
 3415TIP3    H110209   1.174   4.299   3.713 -0.9343  0.0829 -0.2136
 3415TIP3    H210210   1.239   4.351   3.586  1.1447 -0.2466  0.6708
 3416TIP3   OH210211   2.013   5.600   5.207  0.2086  0.1458  0.5048
 3416TIP3    H110212   1.924   5.623   5.183 -0.0267 -0.9119  0.3033
 3416TIP3    H210213   2.019   5.622   5.300  0.0128  0.9892  0.3271
 3417TIP3   OH210214   2.281   0.095   0.215 -0.2052  0.3115  0.6644
 3417TIP3    H110215   2.309   0.103   0.124  0.8445  0.8126  1.0214
 3417TIP3    H210216   2.187   0.114   0.213  0.3843  3.7088  0.1413
 3418TIP3   OH210217   5.079   2.290   0.751  0.2670 -0.1031 -0.7204
 3418TIP3    H110218   5.080   2.262   0.659  1.1059  0.8585 -1.0319
 3418TIP3    H210219   4.996   2.336   0.761  0.4732  0.3926 -1.2080
 3419TIP3   OH210220   0.909   6.079   0.602 -0.2191  0.0961  0.0102
 3419TIP3    H110221   1.002   6.077   0.579 -0.1678 -3.1190  0.0700
 3419TIP3    H210222   0.905   6.139   0.677  2.1467 -0.9606  1.1009
 3420TIP3   OH210223   5.095   5.097   2.578  0.3368 -0.1909 -0.2490
 3420TIP3    H110224   5.010   5.087   2.534  0.6086  0.3305 -0.9122
 3420TIP3    H210225   5.078   5.072   2.669 -0.7676  0.8352 -0.1384
 3421TIP3   OH210226   2.985   6.179   1.568 -0.1424 -0.0135  0.4260
 3421TIP3    H110227   2.897   6.213   1.587 -0.1988  0.7895 -1.1155
 3421TIP3    H210228   2.974   6.131   1.485  0.5561 -1.3494  1.0658
 3422TIP3   OH210229   2.921   6.609   2.135 -0.4054  0.0286 -0.3507
 3422TIP3    H110230   2.956   6.529   2.173 -0.6641  0.3603  0.6127
 3422TIP3    H210231   2.998   6.659   2.107 -0.2344 -0.4308 -0.7002
 3423TIP3   OH210232   1.534   5.985   1.672 -0.2977 -0.2491 -0.0890
 3423TIP3    H110233   1.574   5.907   1.712  0.4670 -0.0841 -0.5252
 3423TIP3    H210234   1.540   6.052   1.740 -0.0409 -0.2881 -0.0718
 3424TIP3   OH210235   5.632   5.203   3.788 -0.2477  0.1762 -0.3705
 3424TIP3    H110236   5.646   5.249   3.871 -0.5302  1.3422 -0.9526
 3424TIP3    H210237   5.672   5.117   3.802 -2.6295 -0.6891  1.9160
 3425TIP3   OH210238   1.218   0.014   3.257  0.2099 -0.1095 -0.0659
 3425TIP3    H110239   1.277   0.066   3.202  0.5293 -0.0167  0.3592
 3425TIP3    H210240   1.137   0.008   3.206  0.6725 -0.4731 -0.7803
 3426TIP3   OH210241   6.056   2.939   5.023 -0.3500  0.1305 -0.3471
 3426TIP3    H110242   6.095   3.026   5.030 -1.8630  0.9193 -1.1141
 3426TIP3    H210243   6.007   2.928   5.104  0.6253 -0.4389  0.1789
 3427TIP3   OH210244   6.442   0.046   3.628  0.3390  0.1713  0.4615
 3427TIP3    H110245   6.516   0.091   3.669 -0.1024  0.8264  0.5695
 3427TIP3    H210246   6.365   0.095   3.658 -0.0895 -0.1038 -0.1563
 3428TIP3   OH210247   4.690   0.740   0.959  0.3241  0.1919  0.1759
 3428TIP3    H110248   4.735   0.702   0.884  0.7272  0.7796  0.1143
 3428TIP3    H210249   4.728   0.694   1.035 -0.1327 -0.4472  0.0257
 3429TIP3   OH210250   7.211   6.718   3.608  0.3898  0.0928 -0.4866
 3429TIP3    H110251   7.225   6.719   3.703  0.7941  1.7326 -0.5339
 3429TIP3    H210252   7.151   6.645   3.593  2.0218 -1.5888  0.7709
 3430TIP3   OH210253   5.431   2.601   2.286 -0.2076  0.0908 -0.2099
 3430TIP3    H110254   5.396   2.667   2.226 -0.7143 -0.9368 -1.0609
 3430TIP3    H210255   5.494   2.552   2.234 -2.0566 -2.0890 -0.5629
 3431TIP3   OH210256   6.546   4.493   0.323 -0.6810 -0.1701  0.1311
 3431TIP3    H110257   6.518   4.439   0.397 -0.3114 -3.5179 -2.0038
 3431TIP3    H210258   6.640   4.477   0.315 -0.9372 -0.9279 -1.8120
 3432TIP3   OH210259   5.212   3.743   1.580 -0.2490 -0.2552  0.1707
 3432TIP3    H110260   5.265   3.667   1.558  0.8906  0.2483  1.0606
 3432TIP3    H210261   5.213   3.797   1.501 -0.6562 -0.9247 -0.2988
 3433TIP3   OH210262   4.403   3.754   0.154 -0.0813  0.1988  0.0339
 3433TIP3    H110263   4.351   3.732   0.232 -1.7606 -0.9903 -1.3596
 3433TIP3    H210264   4.482   3.702   0.162 -1.6857 -2.5260 -0.5966
 3434TIP3   OH210265   4.580   3.537   0.113  0.2486  0.8034  0.3004
 3434TIP3    H110266   4.493   3.499   0.099  0.6159  0.0904 -0.1149
 3434TIP3    H210267   4.598   3.585   0.032  1.2342 -1.0516 -0.6186
 3435TIP3   OH210268   3.191   0.571   2.175  0.0558 -0.4184 -0.3991
 3435TIP3    H110269   3.116   0.570   2.234 -0.1298 -1.7195 -0.6353
 3435TIP3    H210270   3.213   0.479   2.161  0.6410 -0.1154 -1.6808
 3436TIP3   OH210271   4.856   1.070   0.153 -0.1526 -0.1758  0.4483
 3436TIP3    H110272   4.801   0.994   0.174 -0.5222  0.0779  0.4141
 3436TIP3    H210273   4.919   1.037   0.089 -0.1102 -0.5325  0.6709
 3437TIP3   OH210274   3.758   5.208   1.499 -0.3619 -1.0592  0.2763
 3437TIP3    H110275   3.701   5.282   1.520  1.4668 -0.3812  3.5197
 3437TIP3    H210276   3.813   5.240   1.427 -0.2142  0.4573  1.0135
 3438TIP3   OH210277   4.789   3.700   2.308 -0.0029  0.0321  0.3156
 3438TIP3    H110278   4.733   3.733   2.238  0.4248 -0.6579 -0.3634
 3438TIP3    H210279   4.828   3.620   2.273  1.2303  0.3613  0.8664
 3439TIP3   OH210280   0.708   0.098   0.287 -0.4639  0.3055 -0.7736
 3439TIP3    H110281   0.700   0.092   0.192  1.5612  1.5229 -1.0952
 3439TIP3    H210282   0.664   0.180   0.310  0.2113  0.7023 -0.8669
 3440TIP3   OH210283   2.976   5.713   5.526  0.0654 -0.6921 -0.6586
 3440TIP3    H110284   2.886   5.683   5.510 -0.8911  1.1641  0.8598
 3440TIP3    H210285   2.986   5.707   5.621  0.9831  0.6343 -0.6584
 3441TIP3   OH210286   6.057   5.053   1.852 -0.2826  0.5462 -0.0447
 3441TIP3    H110287   6.006   5.062   1.932  1.5403  0.2479  1.2044
 3441TIP3    H210288   6.057   4.959   1.834 -0.1338  0.5347  0.0088
 3442TIP3   OH210289   5.614   0.592   2.839 -0.0551  0.5150 -0.3049
 3442TIP3    H110290   5.642   0.682   2.819 -1.2162  1.1147  0.6466
 3442TIP3    H210291   5.614   0.587   2.935  1.8765 -1.1495 -0.3230
 3443TIP3   OH210292   2.550   6.315   1.469 -0.0556  0.1955 -0.0040
 3443TIP3    H110293   2.603   6.389   1.498  2.0208 -1.0227 -0.5223
 3443TIP3    H210294   2.503   6.349   1.393  0.4004  1.1564  0.1217
 3444TIP3   OH210295   0.541   6.395   0.480 -0.0879 -0.3155  0.0642
 3444TIP3    H110296   0.615   6.443   0.441 -0.4552  0.3512  0.1695
 3444TIP3    H210297   0.507   6.454   0.547 -0.8620 -0.5109 -0.1431
 3445TIP3   OH210298   3.767   2.496   0.687  0.1988 -0.1644 -0.7601
 3445TIP3    H110299   3.835   2.506   0.753  0.0550 -0.8871 -0.4921
 3445TIP3    H210300   3.795   2.420   0.636 -1.0190 -1.2488  0.1269
 3446TIP3   OH210301   2.905   2.712   0.677 -0.2634  0.2512 -0.3147
 3446TIP3    H110302   2.818   2.716   0.717 -1.6407 -0.3384 -3.0179
 3446TIP3    H210303   2.890   2.679   0.589  2.6036  1.1501 -1.2759
 3447TIP3   OH210304   0.815   1.391   2.163  0.4032  0.2313 -0.5633
 3447TIP3    H110305   0.870   1.458   2.122  0.9172  0.4411  0.4369
 3447TIP3    H210306   0.876   1.320   2.184  0.1539  0.1271 -0.1828
 3448TIP3   OH210307   6.428   0.916   5.125 -0.0313  0.2751  0.6936
 3448TIP3    H110308   6.459   0.828   5.147 -1.4792 -0.6580 -0.6919
 3448TIP3    H210309   6.377   0.903   5.045  0.7312  2.6012 -0.2455
 3449TIP3   OH210310   5.238   2.829   0.705 -0.8244  0.2609 -0.0492
 3449TIP3    H110311   5.158   2.779   0.723  0.3547 -2.0363 -0.8177
 3449TIP3    H210312   5.231   2.855   0.613 -1.0195  0.7677  0.1019
 3450TIP3   OH210313   1.483   2.998   1.148  0.4672 -0.1544 -0.3162
 3450TIP3    H110314   1.549   3.052   1.104 -0.5358  1.1222 -0.2975
 3450TIP3    H210315   1.447   2.943   1.078 -1.0693  1.8116 -1.1751
 3451TIP3   OH210316   2.300   1.290   0.885 -0.0816 -0.0588 -0.9959
 3451TIP3    H110317   2.387   1.295   0.846  0.8695 -0.2431  1.0264
 3451TIP3    H210318   2.274   1.381   0.899  2.0158  0.1410  2.9786
 3452TIP3   OH210319   5.946   4.134   2.592  0.6682  0.6479  0.6333
 3452TIP3    H110320   6.020   4.144   2.532  0.3600 -0.9854 -0.0703
 3452TIP3    H210321   5.876   4.186   2.552  0.6872  0.1570 -0.0593
 3453TIP3   OH210322   6.161   4.930   4.147  0.6357 -0.3919 -0.1803
 3453TIP3    H110323   6.068   4.945   4.134  0.7715 -0.6070 -1.5809
 3453TIP3    H210324   6.167   4.889   4.233 -0.5815 -0.5808 -0.1640
 3454TIP3   OH210325   5.357   3.531   5.752  0.2054  0.1569  0.2524
 3454TIP3    H110326   5.351   3.435   5.748 -1.1311  0.0576  2.8905
 3454TIP3    H210327   5.276   3.562   5.712 -0.2082  0.0984  1.0264
 3455TIP3   OH210328   5.773   1.759   4.033  0.6775  0.1236  0.0530
 3455TIP3    H110329   5.864   1.774   4.061  0.5489 -1.0965  1.2485
 3455TIP3    H210330   5.723   1.756   4.115  0.0546 -2.2457 -0.3436
 3456TIP3   OH210331   6.064   6.522   1.825  0.3656  0.1269  0.2762
 3456TIP3    H110332   6.115   6.583   1.878  1.5933 -0.0148 -0.7203
 3456TIP3    H210333   6.097   6.436   1.850  1.9070  0.1081 -1.6160
 3457TIP3   OH210334   6.646   3.939   5.885 -0.4366 -0.0377 -0.2820
 3457TIP3    H110335   6.706   3.926   5.811  1.1371 -0.3841  0.9914
 3457TIP3    H210336   6.564   3.967   5.845  0.7059  0.9501 -2.0884
 3458TIP3   OH210337   4.184   2.519   4.480 -0.3347 -0.0717 -0.2159
 3458TIP3    H110338   4.207   2.602   4.522  1.8457 -1.3525  1.3617
 3458TIP3    H210339   4.109   2.487   4.531 -1.3846  1.0189 -1.0246
 3459TIP3   OH210340   0.561   3.386   3.337  0.2171  0.2305 -0.2716
 3459TIP3    H110341   0.598   3.303   3.366  1.9336  1.0023 -0.1228
 3459TIP3    H210342   0.637   3.441   3.318 -0.8719  1.7565 -0.4241
 3460TIP3   OH210343   3.988   5.296   3.308  0.6824 -0.1724 -0.4571
 3460TIP3    H110344   3.902   5.277   3.346  0.1406  0.2297 -1.4361
 3460TIP3    H210345   4.026   5.210   3.292 -0.7845 -0.4942 -2.7183
 3461TIP3   OH210346   4.080   0.535   3.530 -0.0555 -0.1907  0.0492
 3461TIP3    H110347   4.110   0.595   3.597 -0.8715 -0.0517  0.3025
 3461TIP3    H210348   4.131   0.455   3.544  3.5113  1.3813 -2.3286
 3462TIP3   OH210349   6.742   3.233   3.567  0.4885  0.2017 -0.0590
 3462TIP3    H110350   6.674   3.210   3.503 -1.2089  0.5816  1.5116
 3462TIP3    H210351   6.694   3.245   3.649  2.3820  1.2726  0.9561
 3463TIP3   OH210352   1.242   2.203   0.575 -0.4499 -0.5067 -0.0178
 3463TIP3    H110353   1.186   2.136   0.536  1.2423 -2.0666  0.0735
 3463TIP3    H210354   1.209   2.213   0.664 -1.9234  0.2304 -0.6217
 3464TIP3   OH210355   2.520   0.676   4.253  0.4479  0.5413  0.0689
 3464TIP3    H110356   2.528   0.664   4.159  0.8186  1.0769  0.0255
 3464TIP3    H210357   2.492   0.767   4.263 -0.8939  0.1029  0.4242
 3465TIP3   OH210358   1.898   5.202   4.489  0.5801  0.0136 -0.4768
 3465TIP3    H110359   1.898   5.240   4.401 -0.0120 -1.1601 -1.0189
 3465TIP3    H210360   1.962   5.131   4.484 -0.9303 -1.4025 -0.6216
 3466TIP3   OH210361   5.029   1.307   3.127  0.1387  0.0828  0.5081
 3466TIP3    H110362   4.966   1.242   3.156 -0.0050  0.0200  0.0646
 3466TIP3    H210363   4.976   1.378   3.091  0.3185  0.0112  0.0986
 3467TIP3   OH210364   3.592   5.412   2.684  0.0451  0.1313  0.2929
 3467TIP3    H110365   3.575   5.467   2.608  1.6415  2.3600  1.4387
 3467TIP3    H210366   3.585   5.471   2.759 -0.3306 -1.7406  1.8122
 3468TIP3   OH210367   1.180   1.355   3.865  0.4598 -0.1965  0.4634
 3468TIP3    H110368   1.123   1.421   3.905 -0.8000  0.0577 -1.6282
 3468TIP3    H210369   1.126   1.315   3.797  1.4167 -2.9341  1.1780
 3469TIP3   OH210370   0.796   5.189   5.805  0.2639  0.1541 -0.2336
 3469TIP3    H110371   0.816   5.188   5.899  0.5522  0.6439 -0.2847
 3469TIP3    H210372   0.803   5.281   5.780 -0.6864  0.1430 -0.5602
 3470TIP3   OH210373   1.002   3.020   1.190  0.4421 -0.3294  0.5336
 3470TIP3    H110374   1.004   3.052   1.099 -1.6517 -0.7860  0.2571
 3470TIP3    H210375   0.956   2.936   1.184  0.4083 -0.4337  1.9914
 3471TIP3   OH210376   0.554   0.879   3.561 -0.0224 -0.1493  0.3076
 3471TIP3    H110377   0.512   0.798   3.591  0.0895 -0.2310  0.2447
 3471TIP3    H210378   0.640   0.879   3.604  0.3110 -0.4818 -0.3418
 3472TIP3   OH210379   2.387   1.425   1.546 -0.3621 -0.0083  0.7187
 3472TIP3    H110380   2.429   1.411   1.631 -1.8303 -0.3017  1.4187
 3472TIP3    H210381   2.320   1.358   1.541 -0.8983  0.5837 -0.2706
 3473TIP3   OH210382   0.174   1.591   1.029  0.0554  0.5430 -0.7016
 3473TIP3    H110383   0.088   1.588   1.071 -0.8128 -3.1885 -2.3067
 3473TIP3    H210384   0.230   1.537   1.085  1.2719  2.4667  0.0154
 3474TIP3   OH210385   5.961   6.629   5.296 -0.4400 -0.3183 -0.0107
 3474TIP3    H110386   5.887   6.569   5.305  0.9563 -2.7223 -2.7447
 3474TIP3    H210387   5.932   6.692   5.229 -0.8378  0.2497  0.6839
 3475TIP3   OH210388   6.166   0.874   4.657  0.4122 -0.3429 -0.3336
 3475TIP3    H110389   6.137   0.818   4.585 -1.4338 -0.1604  0.2210
 3475TIP3    H210390   6.085   0.911   4.693  1.4966  2.4930 -0.5123
 3476TIP3   OH210391   4.816   2.107   0.616  0.0785 -0.1320  0.3976
 3476TIP3    H110392   4.793   2.194   0.649  1.7305  0.4861  0.0273
 3476TIP3    H210393   4.804   2.113   0.521 -2.0545 -1.0697  0.5586
 3477TIP3   OH210394   5.337   2.555   0.881  0.3118  0.1082  0.4170
 3477TIP3    H110395   5.327   2.477   0.827 -0.1661  0.9142 -0.7066
 3477TIP3    H210396   5.295   2.533   0.964  0.8662 -1.0840  0.3948
 3478TIP3   OH210397   3.651   4.434   1.930 -0.1701 -0.4558  0.1336
 3478TIP3    H110398   3.662   4.460   2.021  0.9512 -0.3644 -0.0157
 3478TIP3    H210399   3.733   4.389   1.908  0.0565  0.5404 -1.1723
 3479TIP3   OH210400   4.205   4.901   4.589  0.4550  0.6539  0.3944
 3479TIP3    H110401   4.212   4.977   4.531  0.8429 -0.7764 -1.5015
 3479TIP3    H210402   4.147   4.931   4.660 -0.6456  2.2267 -1.0816
 3480TIP3   OH210403   0.261   5.838   1.055  0.1202  0.3523 -0.3582
 3480TIP3    H110404   0.280   5.844   0.961  0.0022 -0.3813 -0.4318
 3480TIP3    H210405   0.345   5.859   1.097  0.2502  0.3924 -0.6332
 3481TIP3   OH210406   1.016   3.680   0.062  0.3887 -0.3084 -1.0281
 3481TIP3    H110407   1.100   3.657   0.102 -0.0602 -0.2736 -0.0347
 3481TIP3    H210408   1.018   3.638  -0.024  1.3966 -0.3517 -0.9987
 3482TIP3   OH210409   2.051   0.343   2.747  0.1874 -0.0296 -0.2078
 3482TIP3    H110410   2.040   0.374   2.837 -0.9965  0.4675 -0.5147
 3482TIP3    H210411   1.964   0.349   2.708  0.3056 -1.9611 -0.8595
 3483TIP3   OH210412   4.435   4.638   4.285 -0.2320 -0.0376  0.5205
 3483TIP3    H110413   4.523   4.644   4.322 -0.2054  1.5902  0.2527
 3483TIP3    H210414   4.378   4.624   4.361 -0.0903  2.4016  1.1479
 3484TIP3   OH210415   0.401   2.934   4.579 -0.3314  0.6369  0.3266
 3484TIP3    H110416   0.345   2.976   4.514  0.9166  0.1468 -1.1185
 3484TIP3    H210417   0.488   2.930   4.538 -0.0339 -1.9357  0.9857
 3485TIP3   OH210418   3.217   0.044   1.375 -0.0554  0.1878  0.4101
 3485TIP3    H110419   3.170  -0.029   1.417  0.1165 -0.4826 -0.5223
 3485TIP3    H210420   3.155   0.079   1.311  0.6930 -0.7519 -0.8844
 3486TIP3   OH210421   5.770   5.820   1.331 -0.0062 -0.3285  0.3029
 3486TIP3    H110422   5.822   5.767   1.392  0.4673  0.5943  0.7102
 3486TIP3    H210423   5.829   5.838   1.258 -0.8043 -2.1062 -0.8853
 3487TIP3   OH210424   4.612   2.093   5.913 -0.3980  0.3933 -0.2661
 3487TIP3    H110425   4.581   2.132   5.831  1.3463  1.2321 -0.5587
 3487TIP3    H210426   4.690   2.044   5.889 -0.0174  0.4217  0.8591
 3488TIP3   OH210427   4.101   5.625   1.191  0.2122  0.3816 -0.4762
 3488TIP3    H110428   4.138   5.628   1.279 -0.4596 -0.4489 -0.1400
 3488TIP3    H210429   4.132   5.542   1.155 -1.7031 -0.6163  0.0267
 3489TIP3   OH210430   4.113   1.386   0.045 -0.3640  0.6584  0.1715
 3489TIP3    H110431   4.207   1.367   0.044 -0.3300  0.8621 -0.6203
 3489TIP3    H210432   4.095   1.424  -0.040 -1.7990 -2.4673 -1.0627
 3490TIP3   OH210433   1.184   6.448   2.257  0.0066  0.5722  0.6489
 3490TIP3    H110434   1.243   6.373   2.245 -2.1251 -1.3358  1.2926
 3490TIP3    H210435   1.131   6.449   2.178  0.9711  2.4240 -0.0342
 3491TIP3   OH210436   1.395   6.771   0.231 -0.3855 -0.0389 -0.0594
 3491TIP3    H110437   1.447   6.695   0.203 -2.1230 -0.7008 -1.7709
 3491TIP3    H210438   1.363   6.809   0.149 -2.4541  0.3951  0.8871
 3492TIP3   OH210439   1.864   4.078   1.246 -0.0165  0.2671 -0.3693
 3492TIP3    H110440   1.872   4.145   1.314 -0.4876  0.8394 -0.8655
 3492TIP3    H210441   1.773   4.048   1.252 -0.4905  1.3557 -1.6812
 3493TIP3   OH210442   2.763   6.347   1.101 -0.2602 -0.5079 -0.3332
 3493TIP3    H110443   2.688   6.290   1.119 -0.9047  0.5771  0.5016
 3493TIP3    H210444   2.751   6.422   1.159  2.0561 -0.7923  0.6435
 3494TIP3   OH210445   3.306   0.644   2.839  0.1863 -0.7146 -0.2473
 3494TIP3    H110446   3.232   0.658   2.780  0.9311 -0.6580 -1.1826
 3494TIP3    H210447   3.266   0.606   2.918 -0.7954 -1.0155 -0.8680
 3495TIP3   OH210448   1.465   6.661   4.739  0.0992  0.3385 -0.2380
 3495TIP3    H110449   1.520   6.663   4.660  0.2545  1.4225 -0.1236
 3495TIP3    H210450   1.522   6.695   4.808  0.1649 -1.1942  0.4988
 3496TIP3   OH210451   4.600   3.234   3.251 -0.4574  0.0123  0.2305
 3496TIP3    H110452   4.633   3.148   3.223  1.9882  0.7311  0.7322
 3496TIP3    H210453   4.524   3.213   3.305  0.8436 -1.9651  1.4223
 3497TIP3   OH210454   7.152   3.705   1.499  0.0701  0.0959  0.2055
 3497TIP3    H110455   7.158   3.757   1.579  0.3343  1.0947 -0.4440
 3497TIP3    H210456   7.243   3.679   1.481  0.0573  0.1684  0.0368
 3498TIP3   OH210457   6.285   4.771   1.409  0.5691  0.0931  0.4803
 3498TIP3    H110458   6.256   4.856   1.375 -0.4947 -0.5031 -0.1199
 3498TIP3    H210459   6.236   4.760   1.491  0.8367  0.1316  0.6471
 3499TIP3   OH210460   1.009   2.307   2.399 -0.3481  0.0172 -0.3479
 3499TIP3    H110461   1.064   2.240   2.359 -0.6637 -2.3024  2.7150
 3499TIP3    H210462   1.071   2.372   2.432  0.2908 -0.6083 -0.2824
 3500TIP3   OH210463   0.573   5.095   3.417  0.5576 -0.4224 -0.6227
 3500TIP3    H110464   0.527   5.097   3.501  0.7704 -2.6599 -0.3923
 3500TIP3    H210465   0.514   5.138   3.356 -0.2045  0.0301  0.4043
 3501TIP3   OH210466   5.911   4.601   4.982 -0.2446 -0.2005 -0.6228
 3501TIP3    H110467   5.923   4.531   5.046 -0.3521 -0.6275 -1.0735
 3501TIP3    H210468   5.995   4.607   4.936 -0.0217  0.3982 -0.1601
 3502TIP3   OH210469   4.498   1.184   4.230 -0.1536 -0.5284 -0.0467
 3502TIP3    H110470   4.432   1.238   4.188  1.0751  1.6612  0.6887
 3502TIP3    H210471   4.458   1.097   4.236 -1.6499 -0.1187 -2.6109
 3503TIP3   OH210472   3.360   4.615   4.169  0.1084  0.4290  0.5264
 3503TIP3    H110473   3.302   4.669   4.115 -0.3314  1.2444  1.7592
 3503TIP3    H210474   3.380   4.539   4.114 -2.2851  0.0217  0.1001
 3504TIP3   OH210475   2.323   2.511   3.980 -0.5897  0.3042 -0.6191
 3504TIP3    H110476   2.267   2.443   3.942 -1.4854  1.0111 -0.6067
 3504TIP3    H210477   2.362   2.470   4.057 -1.2275 -0.1538 -0.5316
 3505TIP3   OH210478   3.734   1.381   4.661 -0.1339 -0.2967  0.3321
 3505TIP3    H110479   3.765   1.301   4.620 -0.1492 -0.0115 -0.2485
 3505TIP3    H210480   3.809   1.441   4.658  0.0119 -0.4290  1.1524
 3506TIP3   OH210481   0.457   2.664   2.889 -0.1106  0.5398  0.5543
 3506TIP3    H110482   0.547   2.692   2.907  0.3809  1.3492 -2.6230
 3506TIP3    H210483   0.441   2.688   2.798 -3.3778 -0.1333  0.7990
 3507TIP3   OH210484   6.140   5.023   4.764  0.1601  0.3404 -0.8648
 3507TIP3    H110485   6.224   5.063   4.742 -0.2112  0.3515 -2.4036
 3507TIP3    H210486   6.087   5.036   4.686 -1.4050  0.6432  0.1960
 3508TIP3   OH210487   0.784   2.571   2.703  0.2942  0.1769  0.1417
 3508TIP3    H110488   0.724   2.497   2.705  0.7250 -0.2229 -0.8173
 3508TIP3    H210489   0.755   2.628   2.773 -1.2706  0.0489 -0.3781
 3509TIP3   OH210490   1.272   1.774   2.361  0.7408 -0.1190  0.0248
 3509TIP3    H110491   1.229   1.690   2.378  1.4342 -0.5122 -0.1154
 3509TIP3    H210492   1.337   1.754   2.294  0.7554  0.5848 -0.1775
 3510TIP3   OH210493   3.696   2.632   3.862 -0.2856 -0.2162 -0.0880
 3510TIP3    H110494   3.602   2.645   3.865 -0.0882  1.2027  0.5255
 3510TIP3    H210495   3.709   2.570   3.790 -1.7175 -0.9041  0.2137
 3511TIP3   OH210496   4.048   6.244   5.612  0.2737  0.5030 -0.5534
 3511TIP3    H110497   4.023   6.197   5.533  2.3401  2.6749 -2.6445
 3511TIP3    H210498   4.068   6.175   5.676  2.1168 -1.5037 -3.1032
 3512TIP3   OH210499   0.554   4.536   2.357 -0.2193  0.7429 -0.3139
 3512TIP3    H110500   0.602   4.532   2.440  1.9335 -0.3116 -1.5306
 3512TIP3    H210501   0.620   4.518   2.290 -1.9457  1.2778 -2.2608
 3513TIP3   OH210502   7.170   4.317  -0.003  0.1108 -0.1936  0.3151
 3513TIP3    H110503   7.185   4.230   0.033 -1.4468 -0.1984  1.0413
 3513TIP3    H210504   7.248   4.367   0.019  0.2415 -0.9035  1.5084
 3514TIP3   OH210505   3.484   4.321   5.072 -0.4642  0.6194 -0.1696
 3514TIP3    H110506   3.470   4.407   5.030 -2.7576  0.0690 -0.6580
 3514TIP3    H210507   3.396   4.286   5.084  0.4578 -2.2984 -1.2743
 3515TIP3   OH210508   1.629   0.831   4.700  0.0694  0.3325 -0.0435
 3515TIP3    H110509   1.563   0.789   4.645 -0.2088  0.2786  0.3353
 3515TIP3    H210510   1.689   0.761   4.723  0.6687  0.5142 -0.9735
 3516TIP3   OH210511   6.268   5.854   5.062 -0.1009 -0.1870  0.6341
 3516TIP3    H110512   6.314   5.840   5.145  1.1230  0.9690  0.1777
 3516TIP3    H210513   6.182   5.887   5.088 -0.2786 -1.2342  1.4708
 3517TIP3   OH210514   0.077   5.520   5.504  0.1657 -0.2402  0.2829
 3517TIP3    H110515   0.128   5.554   5.430 -0.2362  1.8196  0.8766
 3517TIP3    H210516   0.141   5.506   5.573  0.1816  0.7288  0.4828
 3518TIP3   OH210517   5.899   3.451   0.178 -0.7698  0.3134  0.1833
 3518TIP3    H110518   5.812   3.482   0.204 -1.4833 -1.6894  0.3227
 3518TIP3    H210519   5.959   3.495   0.238 -1.9699 -0.6502  2.1669
 3519TIP3   OH210520   5.104   6.077   2.381 -0.7691  0.1016 -0.3336
 3519TIP3    H110521   5.148   6.091   2.297 -1.5059  1.3518 -0.5308
 3519TIP3    H210522   5.170   6.097   2.447 -1.4377  3.8167 -0.6022
 3520TIP3   OH210523   3.938   0.061   4.252 -0.2131  0.1194  0.2677
 3520TIP3    H110524   3.900   0.123   4.189  1.7659  0.9374 -0.2026
 3520TIP3    H210525   3.957   0.114   4.329 -1.1028 -0.5311  0.9488
 3521TIP3   OH210526   0.632   2.393   4.074  0.0929 -0.0892 -0.0839
 3521TIP3    H110527   0.638   2.307   4.033 -1.0966 -0.3575  0.2429
 3521TIP3    H210528   0.700   2.392   4.142  2.6051  0.6476 -2.4331
 3522TIP3   OH210529   7.116   3.365   3.287 -0.6053  0.2151  0.3360
 3522TIP3    H110530   7.152   3.396   3.204  0.3908  0.0322  0.6834
 3522TIP3    H210531   7.165   3.285   3.305 -2.7892 -1.3849 -0.3214
 3523TIP3   OH210532   1.331   2.912   3.471 -0.1280 -0.5741  0.2889
 3523TIP3    H110533   1.292   2.931   3.386 -0.3701 -0.1097  0.4992
 3523TIP3    H210534   1.294   2.828   3.496 -0.0656 -0.7078 -0.0550
 3524TIP3   OH210535   5.167   1.715   5.197  0.3076  0.5187  0.5872
 3524TIP3    H110536   5.072   1.714   5.201 -0.0250  4.8522 -0.8522
 3524TIP3    H210537   5.195   1.757   5.278  0.7875  1.1694  0.1046
 3525TIP3   OH210538   4.667   0.986   1.145  0.3340  0.3954  0.1873
 3525TIP3    H110539   4.653   0.912   1.087 -0.7597  1.7087 -1.2880
 3525TIP3    H210540   4.610   0.969   1.220 -1.6958  0.8225 -1.1929
 3526TIP3   OH210541   2.618   6.609   3.006  0.3088 -0.1478 -0.1673
 3526TIP3    H110542   2.527   6.639   2.998 -0.1846 -1.0975  1.3953
 3526TIP3    H210543   2.664   6.684   3.043  0.3123  0.5269 -1.4684
 3527TIP3   OH210544   3.819   5.302   4.398  0.2504 -0.4358  0.2082
 3527TIP3    H110545   3.894   5.346   4.438 -0.8068  0.7496  0.9276
 3527TIP3    H210546   3.743   5.351   4.428 -0.8639 -1.8525 -0.1987
 3528TIP3   OH210547   0.580   6.198   3.417  0.0876  0.1453 -0.3494
 3528TIP3    H110548   0.585   6.211   3.322  2.9240  0.5824 -0.2226
 3528TIP3    H210549   0.643   6.128   3.435  1.5560  1.8169  1.4353
 3529TIP3   OH210550   5.631   6.474   0.171 -0.3014  0.4456  0.2105
 3529TIP3    H110551   5.536   6.468   0.180 -0.1454  0.0487  1.9110
 3529TIP3    H210552   5.663   6.492   0.260  1.2107  0.5462 -0.3212
 3530TIP3   OH210553   4.173   0.865   3.336  0.5270  0.0165 -0.6658
 3530TIP3    H110554   4.103   0.847   3.274 -0.3424 -3.8297  1.1444
 3530TIP3    H210555   4.132   0.917   3.405 -0.0695 -0.6537 -0.5131
 3531TIP3   OH210556   0.404   2.998   3.433 -1.1966  0.8342  0.0421
 3531TIP3    H110557   0.364   3.078   3.399 -2.1686  0.5009  0.3643
 3531TIP3    H210558   0.373   2.992   3.524  1.1372  1.5793  0.9793
 3532TIP3   OH210559   7.043   4.164   5.382  0.1310 -0.2462  0.3055
 3532TIP3    H110560   7.023   4.173   5.289 -0.4925 -2.0048  0.2307
 3532TIP3    H210561   7.129   4.205   5.392 -0.9733  2.4763 -0.4650
 3533TIP3   OH210562   4.197   6.770   4.938  0.0903  0.0826  0.3665
 3533TIP3    H110563   4.283   6.729   4.944  0.5767  1.1472  0.8956
 3533TIP3    H210564   4.138   6.708   4.980  0.6249 -0.5934  0.1260
 3534TIP3   OH210565   4.195   3.160   5.234  0.2912 -0.2337 -0.1331
 3534TIP3    H110566   4.121   3.186   5.289 -0.1887 -1.8539  0.0435
 3534TIP3    H210567   4.231   3.242   5.202 -1.4051  0.6084  0.0139
 3535TIP3   OH210568   5.064   4.899   5.288 -0.0663  0.5150  0.0408
 3535TIP3    H110569   5.137   4.937   5.337  0.5520 -0.7108  0.0956
 3535TIP3    H210570   4.987   4.942   5.324  0.5855  1.4982  0.3009
 3536TIP3   OH210571   6.534   4.795   4.018 -0.0137  0.1218  0.1932
 3536TIP3    H110572   6.574   4.824   4.100 -0.0587  0.4817  0.0887
 3536TIP3    H210573   6.488   4.713   4.041  0.3357 -0.0094  0.4283
 3537TIP3   OH210574   5.312   2.652   1.635 -0.6720  0.2182  0.5515
 3537TIP3    H110575   5.230   2.603   1.642  0.0667 -1.3130 -0.7067
 3537TIP3    H210576   5.378   2.584   1.623  0.3708  1.5458 -1.7373
 3538TIP3   OH210577   5.140   3.558   5.452 -0.0523 -0.2139  0.2954
 3538TIP3    H110578   5.114   3.470   5.425 -1.5119 -0.2148  1.5943
 3538TIP3    H210579   5.087   3.577   5.529 -0.3629  2.1433 -0.4158
 3539TIP3   OH210580   1.196   6.527   2.527  0.4556  0.1113  0.1879
 3539TIP3    H110581   1.162   6.473   2.456  1.2886  0.7486 -0.7266
 3539TIP3    H210582   1.289   6.504   2.532  0.7988  1.3420 -0.1404
 3540TIP3   OH210583   5.746   5.934   2.159 -0.0175 -0.0393  0.5412
 3540TIP3    H110584   5.785   5.950   2.073 -0.2511  0.7190  0.5700
 3540TIP3    H210585   5.789   5.854   2.190  2.2700  1.2997  1.0200
 3541TIP3   OH210586   4.522   1.503   5.530  0.6949 -0.5950 -0.2642
 3541TIP3    H110587   4.429   1.477   5.525  0.1849  1.2846 -1.8008
 3541TIP3    H210588   4.570   1.421   5.520 -0.8052 -1.5878  0.3261
 3542TIP3   OH210589   5.704   4.770   0.665 -0.0375  0.3876  0.0474
 3542TIP3    H110590   5.769   4.735   0.726  0.1063 -0.9042 -0.8281
 3542TIP3    H210591   5.674   4.851   0.707  0.2512 -0.3225  1.7027
 3543TIP3   OH210592   0.926   3.772   3.708 -0.1803 -0.1464 -0.0910
 3543TIP3    H110593   0.926   3.739   3.797  0.1675 -0.2673 -0.1343
 3543TIP3    H210594   0.937   3.867   3.717 -1.3349 -0.0096  0.0399
 3544TIP3   OH210595   0.087   1.727   3.129 -0.1914 -0.3775 -0.1105
 3544TIP3    H110596   0.051   1.812   3.103 -1.9295 -0.6213  1.2658
 3544TIP3    H210597   0.062   1.667   3.058  2.9560  0.5802 -2.1987
 3545TIP3   OH210598   1.097   5.711   3.390  0.1273 -0.1674 -0.2466
 3545TIP3    H110599   1.004   5.701   3.409  0.1442 -1.7090 -0.7879
 3545TIP3    H210600   1.109   5.664   3.308  1.2932  0.4429 -0.4320
 3546TIP3   OH210601   1.932   2.800   2.874 -0.4424  0.1386 -0.0023
 3546TIP3    H110602   1.869   2.732   2.849 -0.8913  0.0375  1.3203
 3546TIP3    H210603   1.887   2.882   2.853  0.3228  0.0607 -2.1234
 3547TIP3   OH210604   5.283   0.956   4.900  0.1141  0.6829  0.0795
 3547TIP3    H110605   5.370   0.975   4.935  0.1360  1.0265 -0.1479
 3547TIP3    H210606   5.229   0.936   4.977  1.0275 -2.2626  0.0414
 3548TIP3   OH210607   5.833   3.937   5.117 -0.6713 -0.2072 -0.4264
 3548TIP3    H110608   5.812   3.851   5.079 -0.0790 -0.5417 -0.0258
 3548TIP3    H210609   5.870   3.987   5.045 -1.5552 -0.0790 -0.8040
 3549TIP3   OH210610   2.098   5.831   2.684 -0.6478 -0.2143 -0.4311
 3549TIP3    H110611   2.044   5.752   2.692 -1.8028  0.6016  0.0400
 3549TIP3    H210612   2.067   5.889   2.753  0.2388  0.6360 -0.7215
 3550TIP3   OH210613   2.301   0.318   0.871 -0.2483  0.0054  0.0425
 3550TIP3    H110614   2.324   0.287   0.959  0.3130 -1.2386 -0.5226
 3550TIP3    H210615   2.384   0.348   0.834 -0.7539  2.1238  0.5161
 3551TIP3   OH210616   0.978   0.594   4.244  0.0534 -0.2730  0.4504
 3551TIP3    H110617   0.891   0.632   4.230 -0.6768 -2.4088 -1.1827
 3551TIP3    H210618   0.989   0.595   4.339 -1.5303  0.4931  0.6540
 3552TIP3   OH210619   4.648   5.049   2.650  0.2895  0.5562 -0.3326
 3552TIP3    H110620   4.570   5.103   2.640  0.3543  0.6532 -0.3149
 3552TIP3    H210621   4.625   4.966   2.607  0.5492  0.9538 -1.2498
 3553TIP3   OH210622   5.369   2.607   0.289 -0.1775  0.8385  0.3808
 3553TIP3    H110623   5.438   2.655   0.335 -0.3776  2.1139 -0.5775
 3553TIP3    H210624   5.392   2.515   0.298  1.3013  1.2175  0.6064
 3554TIP3   OH210625   1.500   6.104   5.719 -0.0302 -0.0093 -0.0344
 3554TIP3    H110626   1.593   6.120   5.734 -0.0768 -0.0455  0.3005
 3554TIP3    H210627   1.474   6.042   5.788 -0.0608 -0.8363 -0.7709
 3555TIP3   OH210628   3.721   6.596   4.761 -0.0758 -0.0477 -0.2053
 3555TIP3    H110629   3.729   6.545   4.681  0.2784  1.7306 -1.3674
 3555TIP3    H210630   3.640   6.645   4.751  0.3638  0.7789  0.1453
 3556TIP3   OH210631   5.201   4.251   2.391 -0.4967  0.2207  0.2876
 3556TIP3    H110632   5.232   4.289   2.309 -0.7970  0.7119  0.4037
 3556TIP3    H210633   5.106   4.252   2.384 -0.5167 -0.1779  0.4460
 3557TIP3   OH210634   5.511   0.386   4.332  0.1168 -0.6007  0.4898
 3557TIP3    H110635   5.543   0.446   4.400  1.0788 -1.3170  0.6948
 3557TIP3    H210636   5.416   0.400   4.331  0.2628  0.5475  0.8807
 3558TIP3   OH210637   2.986   3.062   2.762 -0.5127  0.5323  0.1676
 3558TIP3    H110638   3.062   3.020   2.720  0.1971  0.3412  1.5953
 3558TIP3    H210639   2.957   2.999   2.827 -0.5777  1.4890  1.0873
 3559TIP3   OH210640   5.702   4.482   0.787 -0.7053 -0.3020 -0.0989
 3559TIP3    H110641   5.677   4.411   0.845 -0.6790  0.8942  1.4583
 3559TIP3    H210642   5.627   4.542   0.790  0.1857  0.8199  0.4646
 3560TIP3   OH210643   1.560   3.465   4.254 -0.5360 -0.4127 -0.5816
 3560TIP3    H110644   1.612   3.397   4.296 -1.2341 -0.7045 -0.1665
 3560TIP3    H210645   1.476   3.462   4.300 -0.3743  1.1343 -0.1529
 3561TIP3   OH210646   0.558   1.139   1.139  0.3204 -0.1298  0.4192
 3561TIP3    H110647   0.477   1.091   1.118 -0.0881  0.6125  0.2722
 3561TIP3    H210648   0.626   1.072   1.137 -0.2230 -0.6872  0.0922
 3562TIP3   OH210649   0.682   2.763   5.172 -0.1519  0.3017 -0.3180
 3562TIP3    H110650   0.692   2.698   5.242  0.0264  1.0830  0.3984
 3562TIP3    H210651   0.591   2.752   5.143 -0.1843 -0.1276 -0.0731
 3563TIP3   OH210652   2.281   4.015   3.440  0.0156 -0.2539 -0.1409
 3563TIP3    H110653   2.290   3.930   3.483 -0.1953 -0.5329 -0.6494
 3563TIP3    H210654   2.194   4.013   3.402 -0.2223  0.4259  0.3475
 3564TIP3   OH210655   5.531   1.027   4.016  0.2058  0.0117 -0.0181
 3564TIP3    H110656   5.458   0.994   3.962  0.4943 -0.2782 -0.2361
 3564TIP3    H210657   5.489   1.061   4.095 -0.1231 -0.7216  0.1361
 3565TIP3   OH210658   3.373   3.815   4.292 -0.2988 -0.1642  0.5221
 3565TIP3    H110659   3.296   3.858   4.327 -1.0420 -0.5503 -0.5960
 3565TIP3    H210660   3.342   3.730   4.262  0.4379 -0.1197 -0.4356
 3566TIP3   OH210661   5.505   4.041   0.544 -0.5811  0.2576 -0.5564
 3566TIP3    H110662   5.579   4.095   0.515 -0.0522 -0.0649  0.1417
 3566TIP3    H210663   5.537   4.000   0.625 -1.9233  0.9674  0.3616
 3567TIP3   OH210664   7.121   0.067   4.996 -0.5503 -0.2248 -0.2951
 3567TIP3    H110665   7.203   0.023   5.018 -1.3440 -0.5981  2.3410
 3567TIP3    H210666   7.132   0.155   5.032 -0.6313  0.3538 -1.6327
 3568TIP3   OH210667   6.216   3.765   2.426  0.4599  0.1086  0.0294
 3568TIP3    H110668   6.172   3.682   2.410  1.1944 -0.1933 -0.4733
 3568TIP3    H210669   6.287   3.768   2.362  0.6757  0.9521  0.2891
 3569TIP3   OH210670   6.919   2.108   2.876 -0.4156  0.4666  0.5025
 3569TIP3    H110671   6.904   2.172   2.945 -1.0748  0.6284  0.2131
 3569TIP3    H210672   7.004   2.132   2.839  0.2153  0.0456  1.6050
 3570TIP3   OH210673   1.315   0.674   4.292  0.2297 -0.0376 -0.6719
 3570TIP3    H110674   1.225   0.653   4.317  0.0357  1.4797  0.0277
 3570TIP3    H210675   1.309   0.704   4.202 -0.2804  1.6609 -0.1224
 3571TIP3   OH210676   0.033   6.557   2.867  0.0880  0.2954 -0.7225
 3571TIP3    H110677   0.074   6.470   2.864  1.1868  0.7628 -0.0934
 3571TIP3    H210678   0.026   6.583   2.776 -2.3812 -1.3734 -1.0905
 3572TIP3   OH210679   1.500   4.986   3.230 -0.0385 -0.0070 -0.3096
 3572TIP3    H110680   1.554   4.980   3.151 -2.6416 -2.1018 -2.0981
 3572TIP3    H210681   1.541   4.925   3.291  1.4696  0.9300 -0.3361
 3573TIP3   OH210682   5.659   1.749   4.286  0.1020 -0.7996  0.3477
 3573TIP3    H110683   5.683   1.685   4.353  0.5819  0.6441  1.6175
 3573TIP3    H210684   5.645   1.830   4.335  0.0021  0.1842 -1.2577
 3574TIP3   OH210685   3.163   0.269   3.267  0.1724 -0.3518 -0.2431
 3574TIP3    H110686   3.136   0.208   3.336 -0.8092 -0.2688 -0.5498
 3574TIP3    H210687   3.107   0.248   3.192  2.2334 -1.4602 -1.5688
 3575TIP3   OH210688   0.061   0.805   1.805  0.2561 -0.1313 -0.2690
 3575TIP3    H110689  -0.033   0.814   1.821  0.5158  1.0792  0.6344
 3575TIP3    H210690   0.103   0.865   1.866  1.4569  2.5250 -3.4225
 3576TIP3   OH210691   5.597   1.929   4.484 -0.0903 -0.5838  0.2136
 3576TIP3    H110692   5.578   1.913   4.576  0.3097 -0.2918  0.3472
 3576TIP3    H210693   5.511   1.938   4.443 -0.3196  2.7647  1.1607
 3577TIP3   OH210694   6.038   1.909   1.840  0.4356 -0.5593  0.3048
 3577TIP3    H110695   6.058   1.975   1.774  0.2803  2.4262  2.9927
 3577TIP3    H210696   6.103   1.923   1.909 -0.9523 -1.7365  1.9502
 3578TIP3   OH210697   5.312   1.700   0.303  0.6807  0.4450 -0.2231
 3578TIP3    H110698   5.263   1.619   0.287  1.9797 -0.4020 -0.0527
 3578TIP3    H210699   5.264   1.767   0.253  0.4030 -0.7086 -1.5777
 3579TIP3   OH210700   3.316   3.259   4.980 -0.5282 -0.1903  0.2982
 3579TIP3    H110701   3.273   3.339   4.950  1.6459  1.1502  0.5332
 3579TIP3    H210702   3.301   3.196   4.909  0.0745  1.3008 -1.2248
 3580TIP3   OH210703   3.958   4.754   5.528 -0.0480 -0.0970 -0.4926
 3580TIP3    H110704   3.894   4.716   5.469 -1.8471  0.2818  1.1058
 3580TIP3    H210705   3.912   4.763   5.612  2.0325  0.3936  0.6905
 3581TIP3   OH210706   3.001   5.552   2.604 -0.0361 -0.0916 -0.1495
 3581TIP3    H110707   3.059   5.480   2.579 -0.5615 -0.7016  0.3611
 3581TIP3    H210708   3.058   5.629   2.607  0.6467 -0.5946 -0.1287
 3582TIP3   OH210709   6.015   3.311   2.121 -0.0771 -0.6541  0.3307
 3582TIP3    H110710   6.021   3.351   2.034 -0.7763 -0.5225  0.3417
 3582TIP3    H210711   6.003   3.384   2.181  0.3762 -0.7474  0.5457
 3583TIP3   OH210712   3.337   3.737   0.469 -0.3334 -0.6379  0.4674
 3583TIP3    H110713   3.321   3.828   0.446  0.3957 -0.4743  0.5793
 3583TIP3    H210714   3.325   3.689   0.386  1.9237 -0.0927 -0.2500
 3584TIP3   OH210715   6.217   5.509   4.150  0.2005  0.2322 -0.1380
 3584TIP3    H110716   6.154   5.549   4.209 -0.3853  1.5776 -1.6035
 3584TIP3    H210717   6.210   5.415   4.166  0.0585  0.5530  1.8764
 3585TIP3   OH210718   5.364   3.483   3.560 -0.0643 -0.3769  0.0070
 3585TIP3    H110719   5.381   3.488   3.466 -1.0319  3.6931 -0.1422
 3585TIP3    H210720   5.269   3.466   3.566  0.0160 -0.7529  0.2953
 3586TIP3   OH210721   6.273   3.357   1.688 -0.3566 -0.1094  0.2227
 3586TIP3    H110722   6.361   3.354   1.651 -0.3271 -0.2080  0.3006
 3586TIP3    H210723   6.286   3.368   1.782 -0.4335  0.3292  0.1859
 3587TIP3   OH210724   6.471   2.401   3.317 -0.3009  0.4902  0.2971
 3587TIP3    H110725   6.551   2.388   3.368 -0.5150  1.5176  0.9184
 3587TIP3    H210726   6.427   2.316   3.319  0.7914 -0.0995 -0.0941
 3588TIP3   OH210727   5.463   4.383   0.202  0.0451  0.0578  0.6432
 3588TIP3    H110728   5.545   4.408   0.244  1.5971 -3.6015  0.1701
 3588TIP3    H210729   5.416   4.334   0.268  1.1385 -3.1176 -0.7433
 3589TIP3   OH210730   3.320   3.480   3.194  0.1198 -0.2160  0.3614
 3589TIP3    H110731   3.266   3.551   3.230  2.3132  1.3360  0.7590
 3589TIP3    H210732   3.334   3.420   3.268 -0.9643 -0.6162  0.2634
 3590TIP3   OH210733   6.982   0.740   1.934 -0.0462  0.3912  0.1005
 3590TIP3    H110734   6.977   0.662   1.878  1.5790 -0.3547  0.9485
 3590TIP3    H210735   6.919   0.801   1.895 -1.5260 -1.4045 -0.4535
 3591TIP3   OH210736   6.294   0.658   3.045  0.1179  0.2012 -0.4656
 3591TIP3    H110737   6.206   0.641   3.080 -0.3377  1.8962 -0.6803
 3591TIP3    H210738   6.314   0.747   3.074  2.1619 -0.4742  0.3076
 3592TIP3   OH210739   1.084   3.673   3.488 -0.3141  0.1798 -0.0764
 3592TIP3    H110740   1.022   3.701   3.555 -1.8134 -0.4949 -1.1210
 3592TIP3    H210741   1.155   3.630   3.536 -0.5813  1.0584  1.1531
 3593TIP3   OH210742   0.830   4.691   5.354 -0.4529 -0.1502  0.0158
 3593TIP3    H110743   0.741   4.710   5.385 -0.3748 -0.2998  0.3279
 3593TIP3    H210744   0.821   4.685   5.259 -1.0874 -1.7873  0.1471
 3594TIP3   OH210745   0.788   6.418   0.334 -0.1399  0.1742 -0.0205
 3594TIP3    H110746   0.775   6.324   0.322 -0.2869  0.4128 -1.9953
 3594TIP3    H210747   0.879   6.426   0.364  0.1673 -0.5519 -0.7266
 3595TIP3   OH210748   1.995   0.228   4.668  0.0197  0.1367 -0.0798
 3595TIP3    H110749   1.936   0.201   4.598 -0.3512 -1.3816  0.7759
 3595TIP3    H210750   2.075   0.254   4.623 -0.4600 -0.1137 -1.1066
 3596TIP3   OH210751   4.454   4.823   3.834 -0.2288  0.0445  0.0082
 3596TIP3    H110752   4.473   4.778   3.751 -1.7960  1.8592 -1.4279
 3596TIP3    H210753   4.421   4.754   3.891  1.9806 -1.4673 -0.4376
 3597TIP3   OH210754   0.081   1.244   4.401  0.0285  0.4158  0.3636
 3597TIP3    H110755   0.054   1.170   4.456  0.5654  0.1583  0.2904
 3597TIP3    H210756   0.065   1.321   4.455  0.5635  0.1653  0.8929
 3598TIP3   OH210757   4.607   5.720   5.257 -0.7450 -0.3147 -0.1495
 3598TIP3    H110758   4.528   5.679   5.223 -1.1333 -0.3755  0.7890
 3598TIP3    H210759   4.608   5.697   5.350  0.0325  0.2287 -0.0093
 3599TIP3   OH210760   2.464   0.932   4.215 -0.1430 -0.1567 -0.3792
 3599TIP3    H110761   2.542   0.985   4.230 -0.0387 -0.4319  0.0652
 3599TIP3    H210762   2.452   0.932   4.120 -0.5045  1.1883 -0.3618
 3600TIP3   OH210763   0.862   6.792   0.704  0.6025 -0.3058  0.2211
 3600TIP3    H110764   0.859   6.823   0.614  1.7657  0.4237  0.4127
 3600TIP3    H210765   0.947   6.748   0.712  1.5475  1.6249  1.5570
 3601TIP3   OH210766   0.138   1.972   4.101 -0.2110  0.3021  0.0430
 3601TIP3    H110767   0.146   1.948   4.009  0.1552  3.3831 -0.8390
 3601TIP3    H210768   0.121   1.889   4.146 -0.5273 -1.2917 -2.7772
 3602TIP3   OH210769   3.678   1.213   3.491  0.2076  0.2437  0.6102
 3602TIP3    H110770   3.660   1.135   3.543  1.4722 -0.0173  0.6797
 3602TIP3    H210771   3.708   1.278   3.554  3.5999 -0.6496  0.1139
 3603TIP3   OH210772   0.125   5.142   0.126 -0.3153 -0.6896  0.7934
 3603TIP3    H110773   0.062   5.070   0.129 -0.9976 -0.0792  1.9313
 3603TIP3    H210774   0.166   5.142   0.213  0.9061 -0.7551  0.2358
 3604TIP3   OH210775   2.293   0.551   1.035 -0.3836 -0.1349 -0.6713
 3604TIP3    H110776   2.318   0.610   0.964 -0.3711 -0.9250 -1.3502
 3604TIP3    H210777   2.264   0.471   0.990 -2.1437 -0.0138  0.1585
 3605TIP3   OH210778   5.496   1.831   2.627  0.6886  0.0065 -0.3934
 3605TIP3    H110779   5.458   1.792   2.549  0.9657  0.7416 -0.9120
 3605TIP3    H210780   5.562   1.768   2.656 -0.4450 -0.9716  0.1393
 3606TIP3   OH210781   2.206   3.032   2.368  0.0830 -0.1543  0.2881
 3606TIP3    H110782   2.265   3.080   2.427 -2.0118  1.2748  1.3111
 3606TIP3    H210783   2.223   2.940   2.388  2.8544  0.1249 -0.3788
 3607TIP3   OH210784   1.963   0.208   3.249 -0.3752 -0.1313 -0.3799
 3607TIP3    H110785   1.998   0.151   3.318 -2.2778  0.0711  0.8449
 3607TIP3    H210786   1.923   0.281   3.297 -0.7790  0.5970 -1.7812
 3608TIP3   OH210787   6.404   3.348   5.600 -0.1771 -0.0492 -0.0467
 3608TIP3    H110788   6.491   3.330   5.634 -0.6753 -0.3038  1.1441
 3608TIP3    H210789   6.416   3.358   5.505  1.4181  1.6781  0.2789
 3609TIP3   OH210790   6.946   5.957   0.930 -0.3128  0.1682  0.0660
 3609TIP3    H110791   6.957   6.041   0.975 -0.0447 -0.7433  1.7604
 3609TIP3    H210792   7.022   5.951   0.871  0.1906  0.6698  0.6516
 3610TIP3   OH210793   0.152   3.688   2.230  0.1356 -0.3768  0.5635
 3610TIP3    H110794   0.171   3.619   2.292 -1.0619 -0.0624  1.3021
 3610TIP3    H210795   0.145   3.768   2.283  0.6030  0.1589 -0.1560
 3611TIP3   OH210796   0.764   6.132   2.582  0.3204  0.1299 -0.1430
 3611TIP3    H110797   0.696   6.166   2.524  0.3650 -0.3864 -0.5118
 3611TIP3    H210798   0.788   6.206   2.638  0.0074  0.5305 -0.5334
 3612TIP3   OH210799   4.809   1.806   1.971 -0.4241  0.2072  0.5334
 3612TIP3    H110800   4.872   1.756   1.919 -0.3103  0.2805  0.6003
 3612TIP3    H210801   4.861   1.845   2.041 -0.6836 -0.4550  1.1078
 3613TIP3   OH210802   6.948   4.833   0.139  0.2362 -0.0129 -0.1338
 3613TIP3    H110803   6.928   4.748   0.099 -0.1630  0.4252 -0.8753
 3613TIP3    H210804   6.893   4.835   0.218  1.2926 -1.0314  0.6575
 3614TIP3   OH210805   2.345   5.979   3.731  0.5068  0.0411  0.1272
 3614TIP3    H110806   2.336   5.887   3.705  2.0982  0.1259 -0.8529
 3614TIP3    H210807   2.281   6.026   3.679  0.1569 -0.4279  0.1290
 3615TIP3   OH210808   4.692   2.314   0.448  0.0659 -0.0303 -0.1236
 3615TIP3    H110809   4.756   2.384   0.439  0.9666 -0.9174 -0.9258
 3615TIP3    H210810   4.709   2.257   0.372 -0.8206 -0.9618  0.3571
 3616TIP3   OH210811   4.976   1.130   3.959  0.3595  0.3074  0.1802
 3616TIP3    H110812   5.030   1.203   3.928 -0.5404  2.3503  2.9833
 3616TIP3    H210813   4.886   1.161   3.948 -0.0290 -0.1162  1.8804
 3617TIP3   OH210814   5.975   4.487   0.811  0.0567  0.3181 -0.2271
 3617TIP3    H110815   6.011   4.452   0.893  0.5402 -3.2460 -1.7422
 3617TIP3    H210816   5.884   4.508   0.831 -0.0730 -1.2809  1.0939
 3618TIP3   OH210817   0.710   0.330   1.134 -0.7743 -0.3189  0.0844
 3618TIP3    H110818   0.795   0.305   1.170 -0.6059  0.2085  0.0548
 3618TIP3    H210819   0.685   0.409   1.183 -0.9564 -0.1119 -0.3358
 3619TIP3   OH210820   6.369   5.982   2.684 -0.2345 -0.0171  0.7437
 3619TIP3    H110821   6.423   5.904   2.696 -1.0292 -1.0108 -1.5155
 3619TIP3    H210822   6.409   6.048   2.741  1.5234 -1.5469  1.3939
 3620TIP3   OH210823   5.820   0.274   3.598  0.1930  0.3942  0.2160
 3620TIP3    H110824   5.808   0.290   3.691 -1.4792 -0.6411  0.2246
 3620TIP3    H210825   5.744   0.316   3.557  0.3094 -0.1496 -0.5660
 3621TIP3   OH210826   1.833   5.679   2.710 -0.6698  0.4023 -0.1368
 3621TIP3    H110827   1.792   5.765   2.704 -1.4793  0.0145 -0.4037
 3621TIP3    H210828   1.823   5.641   2.622 -0.9804 -0.2421  0.1637
 3622TIP3   OH210829   5.030   3.764   5.841  0.1722 -0.8758 -0.1110
 3622TIP3    H110830   5.090   3.836   5.824 -0.4016  0.0301  1.5537
 3622TIP3    H210831   4.950   3.788   5.795  0.3183 -0.9721 -0.4200
 3623TIP3   OH210832   1.990   2.218   1.407  0.1635 -0.1112  0.6077
 3623TIP3    H110833   1.973   2.309   1.433 -1.8731 -0.3632  0.3308
 3623TIP3    H210834   2.032   2.225   1.321 -2.0713  0.5776 -0.4945
 3624TIP3   OH210835   1.204   5.049   0.778  0.2099  0.1139  0.1056
 3624TIP3    H110836   1.187   4.958   0.804  0.0983  0.1869  0.2910
 3624TIP3    H210837   1.130   5.072   0.723  0.6056 -0.1444 -0.5472
 3625TIP3   OH210838   5.882   2.692   5.853 -0.1724 -0.3418  0.0055
 3625TIP3    H110839   5.948   2.694   5.923  0.3697  0.6119 -0.5095
 3625TIP3    H210840   5.842   2.605   5.860  1.3744 -1.0815  0.1181
 3626TIP3   OH210841   3.174   0.020   5.378 -0.3568  0.0412 -0.5732
 3626TIP3    H110842   3.092   0.005   5.331 -2.3586  0.9908  2.3095
 3626TIP3    H210843   3.184   0.115   5.378 -0.4978  0.0805  0.9219
 3627TIP3   OH210844   5.401   1.654   5.073 -0.1492 -0.0187  0.1531
 3627TIP3    H110845   5.310   1.665   5.101 -0.0036 -0.6952  0.9254
 3627TIP3    H210846   5.453   1.702   5.137  0.1258 -0.8686  0.5915
 3628TIP3   OH210847   3.855   1.819   2.637  0.0281 -0.7670  0.3353
 3628TIP3    H110848   3.908   1.779   2.568 -1.3945  0.1544 -1.3854
 3628TIP3    H210849   3.765   1.806   2.608 -0.6074 -0.2995  2.0216
 3629TIP3   OH210850   0.363   3.937   1.273 -0.1642  0.1046 -0.5682
 3629TIP3    H110851   0.366   4.031   1.291  1.7996 -0.3146  1.8762
 3629TIP3    H210852   0.270   3.918   1.258 -0.6370  2.3500 -0.7641
 3630TIP3   OH210853   1.709   6.323   3.415 -0.4048  0.1729 -0.2791
 3630TIP3    H110854   1.625   6.340   3.456 -0.5658 -0.4451 -0.3455
 3630TIP3    H210855   1.752   6.260   3.473 -0.8182 -1.0619 -1.2550
 3631TIP3   OH210856   5.059   5.755   3.424  0.3133 -0.3363  0.7259
 3631TIP3    H110857   4.989   5.741   3.360  1.0126 -1.3607  0.1453
 3631TIP3    H210858   5.066   5.672   3.471  0.4464  0.0972  1.4780
 3632TIP3   OH210859   1.819   6.345   3.871 -0.4197  0.2177 -0.8566
 3632TIP3    H110860   1.734   6.301   3.863 -0.3429  0.1527 -1.3239
 3632TIP3    H210861   1.809   6.426   3.821 -0.1985  0.2017 -0.9272
 3633TIP3   OH210862   1.170   0.991   0.689  0.3524  0.0302  0.5569
 3633TIP3    H110863   1.265   0.982   0.694  0.3243  0.3386  1.9507
 3633TIP3    H210864   1.137   0.935   0.760 -0.5645 -0.8845 -0.5545
 3634TIP3   OH210865   1.890   0.625   0.279  0.4402 -0.3514  0.6527
 3634TIP3    H110866   1.931   0.541   0.256  1.4081 -0.0434  1.1912
 3634TIP3    H210867   1.879   0.620   0.374  1.1538  0.4132  0.7788
 3635TIP3   OH210868   3.516   6.585   5.605  0.0589  0.3470  0.1474
 3635TIP3    H110869   3.569   6.540   5.539  0.3814  1.6281 -0.4990
 3635TIP3    H210870   3.580   6.632   5.659 -0.3537  1.4328 -0.2756
 3636TIP3   OH210871   1.074   0.183   5.709 -0.0231 -0.2647  0.0425
 3636TIP3    H110872   0.988   0.212   5.737 -0.8046 -2.6563  0.3088
 3636TIP3    H210873   1.067   0.175   5.614  0.2677  0.6041 -0.0577
 3637TIP3   OH210874   1.222   6.006   0.591  0.7474  0.0702  0.0674
 3637TIP3    H110875   1.231   5.939   0.524 -1.1669  0.1876 -0.3716
 3637TIP3    H210876   1.275   5.975   0.664  0.4312 -1.5773 -0.3821
 3638TIP3   OH210877   3.848   1.803   5.203 -0.8773 -0.3083  0.3920
 3638TIP3    H110878   3.894   1.866   5.258  0.3144  1.8667 -2.7886
 3638TIP3    H210879   3.756   1.812   5.228 -0.6060  1.9686  0.7787
 3639TIP3   OH210880   1.007   6.746   0.960  0.2825 -0.5922 -0.3420
 3639TIP3    H110881   1.030   6.655   0.941 -0.2465 -0.8012 -0.0112
 3639TIP3    H210882   0.932   6.764   0.903 -0.3107 -0.7224  0.3717
 3640TIP3   OH210883   0.488   0.351   4.352  0.1197 -0.0578  0.4587
 3640TIP3    H110884   0.517   0.262   4.331  0.8171  0.4820 -0.9544
 3640TIP3    H210885   0.548   0.380   4.421  1.6747  0.2902 -0.9839
 3641TIP3   OH210886   7.027   3.060   4.251 -0.0869  0.4505  0.0388
 3641TIP3    H110887   7.007   3.086   4.161  3.6724  1.0346 -0.7812
 3641TIP3    H210888   7.094   2.993   4.243 -0.0376  0.1128  2.4334
 3642TIP3   OH210889   4.241   0.512   5.017  0.3439  0.4269  0.0576
 3642TIP3    H110890   4.245   0.493   5.110  0.1833  0.1898  0.0187
 3642TIP3    H210891   4.294   0.591   5.005 -0.8103  1.3010  0.5679
 3643TIP3   OH210892   1.168   3.490   0.783 -0.6566  0.0817  0.4053
 3643TIP3    H110893   1.132   3.524   0.865  1.0743  0.6338  0.9912
 3643TIP3    H210894   1.130   3.546   0.715 -1.9059 -0.2102  0.8436
 3644TIP3   OH210895   0.025   3.910   4.821 -0.9017 -0.0476  1.2213
 3644TIP3    H110896   0.080   3.837   4.794  1.5118  1.1721  2.5254
 3644TIP3    H210897   0.013   3.962   4.742 -3.2445 -2.0558  0.0954
 3645TIP3   OH210898   6.831   6.136   1.738  0.2218 -0.0505 -0.0090
 3645TIP3    H110899   6.846   6.127   1.833  1.4041  2.3444  0.0942
 3645TIP3    H210900   6.918   6.148   1.701 -0.3368  0.2566 -1.2621
 3646TIP3   OH210901   1.091   2.385   2.097 -0.4183  0.2839 -0.1747
 3646TIP3    H110902   1.113   2.383   2.004 -0.1074 -0.8955 -0.0871
 3646TIP3    H210903   1.039   2.307   2.111 -1.2372  0.9289  0.4683
 3647TIP3   OH210904   6.607   0.832   0.527  0.1183  0.4964  0.0480
 3647TIP3    H110905   6.641   0.788   0.449 -1.5997  0.8845 -0.9475
 3647TIP3    H210906   6.521   0.794   0.542  0.0129  1.1166  1.1900
 3648TIP3   OH210907   5.776   6.242   2.699  0.1246  0.1619  0.1811
 3648TIP3    H110908   5.810   6.263   2.612 -1.3217 -1.2556 -0.7823
 3648TIP3    H210909   5.822   6.161   2.723 -1.7392 -1.2188 -0.7036
 3649TIP3   OH210910   4.467   6.050   5.787 -0.0130 -0.5944  0.8124
 3649TIP3    H110911   4.553   6.085   5.765  1.2351 -2.5894  2.1847
 3649TIP3    H210912   4.439   6.004   5.708 -0.1451  0.6092  0.1405
 3650TIP3   OH210913   0.158   5.638   1.646  0.0882  0.3985 -0.4922
 3650TIP3    H110914   0.114   5.668   1.567 -1.3820 -0.4950 -0.0631
 3650TIP3    H210915   0.086   5.621   1.708  1.1908  1.3004  1.1288
 3651TIP3   OH210916   3.030   4.271   2.408  0.0177  0.0643 -0.2380
 3651TIP3    H110917   3.010   4.343   2.348  0.6504 -0.5546 -1.2165
 3651TIP3    H210918   2.952   4.216   2.405 -0.2552  0.4209  0.1067
 3652TIP3   OH210919   3.127   4.366   1.415  0.8907 -0.0072  0.7735
 3652TIP3    H110920   3.127   4.290   1.473 -0.9801 -0.9715 -0.3763
 3652TIP3    H210921   3.034   4.381   1.397  1.3531  1.1772 -0.7747
 3653TIP3   OH210922   2.768   4.827   5.561  0.6350 -0.4566  0.4054
 3653TIP3    H110923   2.826   4.883   5.508  1.6006 -1.4590  0.3527
 3653TIP3    H210924   2.693   4.809   5.504  1.2300 -0.7718 -0.2991
 3654TIP3   OH210925   3.486   0.440   2.085  0.2811 -0.2291  0.3970
 3654TIP3    H110926   3.402   0.402   2.111 -0.8133  1.1721 -0.9293
 3654TIP3    H210927   3.551   0.373   2.106 -1.3612 -2.0572 -0.1567
 3655TIP3   OH210928   0.726   2.741   2.904 -0.8373 -0.5424 -0.1949
 3655TIP3    H110929   0.710   2.745   2.998  0.6545  0.3524  0.0421
 3655TIP3    H210930   0.777   2.820   2.885  0.1791 -1.4830 -1.4902
 3656TIP3   OH210931   5.681   2.891   5.849  0.4231 -0.1379  0.5794
 3656TIP3    H110932   5.747   2.822   5.854 -0.3866 -0.9262  0.5966
 3656TIP3    H210933   5.599   2.847   5.872 -0.2353  0.6495 -0.2136
 3657TIP3   OH210934   6.518   1.685   0.207 -0.1069 -1.0065  0.0342
 3657TIP3    H110935   6.556   1.617   0.151 -0.1587 -0.1509 -1.0943
 3657TIP3    H210936   6.485   1.750   0.145 -0.1127  0.0196  1.0845
 3658TIP3   OH210937   6.789   3.299   1.505  0.1752 -0.4336  0.3973
 3658TIP3    H110938   6.711   3.314   1.451  0.7821  0.3428 -0.2853
 3658TIP3    H210939   6.756   3.254   1.583 -1.1717  1.0527  0.7416
 3659TIP3   OH210940   2.500   4.155   3.576  0.0052  0.2691  0.1562
 3659TIP3    H110941   2.416   4.119   3.548  0.6992 -0.9930 -0.4178
 3659TIP3    H210942   2.519   4.111   3.659  0.4966 -0.1311 -0.1579
 3660TIP3   OH210943   3.839   4.348   3.226  0.7306 -0.1598  0.3056
 3660TIP3    H110944   3.918   4.308   3.190  1.3842  0.0819  1.3920
 3660TIP3    H210945   3.869   4.388   3.309  0.2534  2.9434 -0.8710
 3661TIP3   OH210946   6.493   3.475   0.575  0.2843  0.0440  0.9951
 3661TIP3    H110947   6.427   3.498   0.641  1.4633 -1.1847  2.6579
 3661TIP3    H210948   6.449   3.411   0.519  0.7473 -2.7975  3.6432
 3662TIP3   OH210949   5.807   3.538   5.649  0.0227 -0.1504 -0.2068
 3662TIP3    H110950   5.732   3.482   5.671  0.7224 -0.7370  0.7985
 3662TIP3    H210951   5.808   3.604   5.719  1.2219 -0.9600  0.5729
 3663TIP3   OH210952   0.992   3.817   4.644  0.3776  0.0540  0.2943
 3663TIP3    H110953   0.908   3.772   4.635 -0.1253  1.2947 -1.8867
 3663TIP3    H210954   1.003   3.828   4.739 -1.5392 -0.8260  0.6657
 3664TIP3   OH210955   7.128   1.929   0.451  0.0107  0.1319  0.7151
 3664TIP3    H110956   7.033   1.918   0.455  0.2387 -2.5204  1.0012
 3664TIP3    H210957   7.141   2.018   0.420 -2.5961  0.2034 -0.4548
 3665TIP3   OH210958   4.619   4.287   1.522  0.7427  0.0768  0.2720
 3665TIP3    H110959   4.610   4.382   1.516 -0.6680  0.0076  0.9952
 3665TIP3    H210960   4.707   4.275   1.559 -0.1313  1.2439  3.0091
 3666TIP3   OH210961   6.951   3.220   4.676 -0.9239  0.2041 -0.2826
 3666TIP3    H110962   6.871   3.216   4.728 -1.6797 -1.1724 -1.4525
 3666TIP3    H210963   6.936   3.292   4.615 -1.9746 -0.9912 -1.5008
 3667TIP3   OH210964   2.304   3.893   1.826 -0.1640  0.1627 -0.1247
 3667TIP3    H110965   2.257   3.812   1.844  1.1172 -0.3349  1.3089
 3667TIP3    H210966   2.237   3.956   1.800 -1.5854 -0.5824  1.5445
 3668TIP3   OH210967   3.668   5.253   0.325  0.4237  0.3378  0.1148
 3668TIP3    H110968   3.679   5.344   0.353  0.4882  0.4641 -0.3147
 3668TIP3    H210969   3.574   5.242   0.312  0.5471  0.7873 -1.2891
 3669TIP3   OH210970   3.589   1.835   1.132  0.1491  0.6200  0.1008
 3669TIP3    H110971   3.624   1.784   1.059  0.2664  1.1210 -0.1957
 3669TIP3    H210972   3.595   1.926   1.103  0.3582  0.8361  0.8012
 3670TIP3   OH210973   2.512   5.290   0.399  0.4177 -0.2684 -0.4895
 3670TIP3    H110974   2.573   5.303   0.327  0.8435 -1.7718 -0.4167
 3670TIP3    H210975   2.547   5.344   0.471  0.5385  0.4436 -1.0714
 3671TIP3   OH210976   6.958   2.986   0.919  0.3293  0.5212  0.1239
 3671TIP3    H110977   6.940   2.994   1.013 -0.2011  1.9729 -0.0878
 3671TIP3    H210978   6.873   2.998   0.878  0.6170  0.2058 -0.5678
 3672TIP3   OH210979   0.444   0.686   2.969  0.1616  0.1376  0.0656
 3672TIP3    H110980   0.491   0.701   2.887 -1.2494 -0.5187 -0.9135
 3672TIP3    H210981   0.491   0.738   3.033  0.9837  1.1171 -1.2688
 3673TIP3   OH210982   6.517   6.080   5.853 -0.1210  0.2002  0.0415
 3673TIP3    H110983   6.547   5.995   5.821  0.8768 -0.0013  1.3909
 3673TIP3    H210984   6.432   6.061   5.893 -2.1040  0.7157 -3.5154
 3674TIP3   OH210985   4.234   6.571   2.033 -0.3266  0.3278 -1.0249
 3674TIP3    H110986   4.211   6.602   2.120  0.2384 -0.0366 -0.7424
 3674TIP3    H210987   4.324   6.600   2.020 -0.7760  1.3871 -1.9561
 3675TIP3   OH210988   5.015   5.451   1.931  0.3013  0.1050 -0.0006
 3675TIP3    H110989   5.089   5.460   1.872 -0.7368 -0.4847 -1.4714
 3675TIP3    H210990   5.043   5.386   1.995  1.3283  0.4797 -0.0536
 3676TIP3   OH210991   4.234   4.640   2.795 -0.0894 -0.1033 -0.2544
 3676TIP3    H110992   4.277   4.565   2.754 -0.2885  0.1282 -0.9032
 3676TIP3    H210993   4.148   4.607   2.822  0.0041 -0.2294 -0.1070
 3677TIP3   OH210994   5.934   5.887   1.071 -0.1273 -0.4672 -0.5512
 3677TIP3    H110995   5.925   5.865   0.978 -0.0448 -0.5571 -0.5387
 3677TIP3    H210996   6.023   5.922   1.078 -0.1803 -0.3371 -0.5303
 3678TIP3   OH210997   5.797   2.778   2.055 -0.6191 -0.0858  0.5602
 3678TIP3    H110998   5.855   2.853   2.067  0.5626 -0.8403 -0.2784
 3678TIP3    H210999   5.711   2.817   2.035 -0.0055  1.0373  0.0464
 3679TIP3   OH211000   3.251   4.145   0.203 -0.4457 -0.1387  0.2554
 3679TIP3    H111001   3.297   4.063   0.182  0.6326  0.3560  0.6227
 3679TIP3    H211002   3.214   4.174   0.120 -1.1648 -1.1891  0.1911
 3680TIP3   OH211003   0.803   5.588   0.237  0.3737 -0.0322  0.2672
 3680TIP3    H111004   0.709   5.591   0.252  0.3091 -0.4621 -0.0267
 3680TIP3    H211005   0.842   5.609   0.322  0.0100 -1.0516  0.7057
 3681TIP3   OH211006   5.785   2.930   3.276 -0.4847 -1.2865  0.0787
 3681TIP3    H111007   5.767   2.905   3.185 -1.9466 -1.9266  0.5117
 3681TIP3    H211008   5.790   3.026   3.274  0.0228 -1.3224 -0.7537
 3682TIP3   OH211009   5.960   6.237   1.712  0.2274 -0.2314 -0.0821
 3682TIP3    H111010   5.960   6.308   1.647 -2.0603  0.3757  0.4911
 3682TIP3    H211011   6.052   6.227   1.736  0.7689  1.6783 -1.1014
 3683TIP3   OH211012   5.188   4.277   2.664 -0.0767  0.3675 -0.5439
 3683TIP3    H111013   5.104   4.233   2.681 -0.7851  1.5221 -0.9209
 3683TIP3    H211014   5.212   4.247   2.576  0.7593 -1.2454  0.2042
 3684TIP3   OH211015   6.881   2.496   2.138  0.0818  0.1635  0.2690
 3684TIP3    H111016   6.939   2.425   2.168 -1.6253 -1.4957 -0.1449
 3684TIP3    H211017   6.870   2.479   2.044 -0.3985  0.9685  0.1730
 3685TIP3   OH211018   0.107   4.872   0.981 -0.3038 -0.5726  0.8848
 3685TIP3    H111019   0.125   4.778   0.982 -1.3247 -0.7724  1.7486
 3685TIP3    H211020   0.179   4.910   1.033 -0.0700 -0.9064  0.8128
 3686TIP3   OH211021   4.683   4.562   1.049 -0.0305  0.3924  0.2293
 3686TIP3    H111022   4.670   4.616   1.127 -0.8840 -1.2514  1.2951
 3686TIP3    H211023   4.752   4.606   1.001  1.3448  0.8909  2.4839
 3687TIP3   OH211024   5.638   6.629   3.481 -0.5726 -0.0075 -0.3634
 3687TIP3    H111025   5.569   6.583   3.432  0.1020  1.2711 -2.6485
 3687TIP3    H211026   5.697   6.559   3.511 -1.8372 -0.9565  0.0198
 3688TIP3   OH211027   2.637   5.515   1.293 -0.2911  0.4648  0.1070
 3688TIP3    H111028   2.718   5.465   1.297 -0.4140  0.1386 -1.0282
 3688TIP3    H211029   2.569   5.449   1.276 -0.4213  0.9870 -1.6752
 3689TIP3   OH211030   3.358   5.717   1.598 -0.1091  0.3471  0.3873
 3689TIP3    H111031   3.281   5.661   1.586 -0.1996  0.2936  1.1592
 3689TIP3    H211032   3.375   5.715   1.692  0.9474  0.2191  0.2138
 3690TIP3   OH211033   3.150   0.261   4.601  0.1304  0.7349 -0.7395
 3690TIP3    H111034   3.214   0.331   4.585 -0.9909  1.8224 -0.6455
 3690TIP3    H211035   3.112   0.243   4.515  0.6882 -0.0355 -0.8258
 3691TIP3   OH211036   0.302   1.757   4.740 -0.4110  0.3677  0.0494
 3691TIP3    H111037   0.296   1.677   4.790 -1.3676  0.9261  0.8561
 3691TIP3    H211038   0.224   1.757   4.684 -0.0287  0.3837 -0.4980
 3692TIP3   OH211039   5.194   3.964   4.237  0.6143 -0.4509 -0.5116
 3692TIP3    H111040   5.150   3.897   4.289 -1.6495 -0.6119 -2.4700
 3692TIP3    H211041   5.212   4.035   4.299 -1.7546 -0.7201  0.5851
 3693TIP3   OH211042   4.962   1.086   3.436  0.4258  0.0102 -0.1942
 3693TIP3    H111043   4.935   1.073   3.345  0.8941  1.0029 -0.4931
 3693TIP3    H211044   4.908   1.025   3.486  0.1817 -0.5740 -1.1391
 3694TIP3   OH211045   0.406   5.916   3.663  0.1655 -0.1477  0.0014
 3694TIP3    H111046   0.482   5.944   3.714  1.5895 -0.1258 -1.9841
 3694TIP3    H211047   0.374   5.996   3.621  1.1432 -0.5985 -1.7319
 3695TIP3   OH211048   4.846   0.061   5.117  0.2504 -0.0639  0.0501
 3695TIP3    H111049   4.851   0.156   5.106  2.2063 -0.2072 -0.6026
 3695TIP3    H211050   4.860   0.047   5.211 -1.1133  0.3151  0.3349
 3696TIP3   OH211051   7.157   4.883   0.467  0.4442 -0.0766 -0.1691
 3696TIP3    H111052   7.163   4.906   0.560  0.4201  0.0659 -0.2021
 3696TIP3    H211053   7.126   4.963   0.425  0.0185 -0.2783 -0.2384
 3697TIP3   OH211054   4.308   3.530   1.831  0.7992  0.1265  0.3629
 3697TIP3    H111055   4.318   3.609   1.777  1.0012  0.4637  0.8790
 3697TIP3    H211056   4.398   3.505   1.851  0.7711  1.9343  3.2760
 3698TIP3   OH211057   6.721   2.562   5.783  0.3774 -0.0380 -0.3405
 3698TIP3    H111058   6.645   2.575   5.840  0.9006 -0.6169  0.5060
 3698TIP3    H211059   6.784   2.628   5.811  0.5726 -0.2125 -0.3656
 3699TIP3   OH211060   6.543   0.209   1.894 -0.0602  0.2300  0.2574
 3699TIP3    H111061   6.524   0.187   1.802 -0.2735 -0.7411  0.5185
 3699TIP3    H211062   6.478   0.275   1.917 -1.0991 -0.7403  0.1965
 3700TIP3   OH211063   1.962   0.849   4.610 -0.3179  0.0968  0.1077
 3700TIP3    H111064   1.910   0.917   4.653  1.1461  1.5273 -0.2788
 3700TIP3    H211065   1.988   0.790   4.681 -0.6223  0.6017  0.6432
 3701TIP3   OH211066   0.021   6.680   2.060 -0.5315  0.5268  0.5751
 3701TIP3    H111067   0.049   6.658   1.972  0.3989  0.8237  0.7824
 3701TIP3    H211068  -0.021   6.766   2.052  1.6970  1.7256  0.7424
 3702TIP3   OH211069   0.682   2.080   1.149 -0.2420 -0.5686  0.4107
 3702TIP3    H111070   0.671   2.079   1.244 -1.5330  0.5224  0.2966
 3702TIP3    H211071   0.655   2.168   1.122 -6.5129 -2.5754 -1.6373
 3703TIP3   OH211072   4.641   3.786   4.969  0.1404  0.0810 -0.0263
 3703TIP3    H111073   4.706   3.727   4.931  0.3296  1.4808 -2.0592
 3703TIP3    H211074   4.559   3.762   4.925  0.4009  1.8696 -1.6100
 3704TIP3   OH211075   1.099   2.633   5.302  0.2959  0.2443 -0.3446
 3704TIP3    H111076   1.051   2.687   5.240 -1.7810  0.1797  1.0986
 3704TIP3    H211077   1.134   2.694   5.366  0.5945  0.1307 -0.3965
 3705TIP3   OH211078   7.052   3.614   4.161  0.4344  0.4518 -0.5208
 3705TIP3    H111079   6.980   3.652   4.110  1.2498  1.8655 -0.6733
 3705TIP3    H211080   7.076   3.683   4.223  1.6708  0.0171 -0.5036
 3706TIP3   OH211081   0.454   3.204   4.030  0.5319  0.2299  0.0049
 3706TIP3    H111082   0.544   3.209   4.060  0.3478  0.1348  0.5896
 3706TIP3    H211083   0.432   3.110   4.034  0.9755 -0.0083 -1.8912
 3707TIP3   OH211084   0.514   3.799   2.773  0.0425  0.4095  0.4025
 3707TIP3    H111085   0.554   3.849   2.845  0.7202 -1.4932  1.4232
 3707TIP3    H211086   0.589   3.773   2.719 -0.3246  0.6506 -0.2269
 3708TIP3   OH211087   4.903   6.214   2.950 -0.2091 -0.2455 -0.2764
 3708TIP3    H111088   4.921   6.221   2.857 -0.0071  0.3869 -0.1933
 3708TIP3    H211089   4.984   6.244   2.993 -0.2440 -0.6763  0.1007
 3709TIP3   OH211090   0.841   1.545   2.411  0.0635 -0.1052  0.5752
 3709TIP3    H111091   0.838   1.514   2.320 -0.5684 -1.2889  0.9724
 3709TIP3    H211092   0.793   1.628   2.409  1.2100  0.5616 -0.4049
 3710TIP3   OH211093   5.860   3.186   0.560 -0.6230  0.1017  0.0661
 3710TIP3    H111094   5.822   3.268   0.528 -1.4376  0.0494  0.8746
 3710TIP3    H211095   5.942   3.213   0.601 -1.3569  0.6713  1.2224
 3711TIP3   OH211096   0.240   3.236   5.684  0.2307 -0.2687 -0.3386
 3711TIP3    H111097   0.157   3.197   5.656 -1.1208  2.2266 -0.1166
 3711TIP3    H211098   0.307   3.174   5.655 -1.7381 -3.0652  0.6827
 3712TIP3   OH211099   1.990   1.264   4.622  0.5752 -0.1154 -0.1944
 3712TIP3    H111100   1.945   1.326   4.679  2.4866 -0.2630  1.6332
 3712TIP3    H211101   1.924   1.199   4.598 -1.4162  2.3806 -1.9430
 3713TIP3   OH211102   6.844   3.743   2.161 -0.5279  0.0657  0.0154
 3713TIP3    H111103   6.914   3.681   2.140 -0.9388 -0.2699 -0.3714
 3713TIP3    H211104   6.829   3.731   2.255 -0.5766 -0.3885 -0.0493
 3714TIP3   OH211105   3.406   2.095   2.996 -0.1352  0.1094  0.7939
 3714TIP3    H111106   3.405   2.011   2.950  1.2001 -0.0746  1.0661
 3714TIP3    H211107   3.490   2.134   2.973 -0.6877  1.3450  0.7508
 3715TIP3   OH211108   4.635   5.448   2.912  0.2615 -0.0438  0.2371
 3715TIP3    H111109   4.559   5.417   2.961 -0.4724 -1.0253 -1.4228
 3715TIP3    H211110   4.709   5.432   2.970 -0.3910 -2.6251  0.4969
 3716TIP3   OH211111   0.168   2.658   3.775 -0.0644  0.2752 -0.6572
 3716TIP3    H111112   0.092   2.665   3.833  0.2503 -0.1960 -0.1792
 3716TIP3    H211113   0.149   2.718   3.703 -1.5458 -0.8750 -1.2739
 3717TIP3   OH211114   3.283   3.705   3.933  0.6454 -0.5396  0.2170
 3717TIP3    H111115   3.222   3.672   3.999  1.0484 -0.2492  0.7468
 3717TIP3    H211116   3.359   3.646   3.939  0.1321 -1.3541 -0.9517
 3718TIP3   OH211117   1.848   1.518   3.543  0.4276 -0.2225 -0.3632
 3718TIP3    H111118   1.919   1.558   3.492 -0.5472 -0.4237 -1.9286
 3718TIP3    H211119   1.771   1.526   3.488 -1.3052  1.8743  2.1615
 3719TIP3   OH211120   0.134   3.067   5.381 -0.0615  0.0594  1.0258
 3719TIP3    H111121   0.182   3.126   5.322 -1.5022 -0.0989 -0.3550
 3719TIP3    H211122   0.101   2.998   5.324  0.0419 -1.0946  2.3390
 3720TIP3   OH211123   1.067   6.472   1.029  0.0139 -0.9465 -0.1170
 3720TIP3    H111124   1.161   6.487   1.038  0.0522 -1.2019 -0.0941
 3720TIP3    H211125   1.060   6.384   0.992 -0.2509 -1.6189  1.4609
 3721TIP3   OH211126   6.229   4.828   3.218  0.4305  0.0122  0.3255
 3721TIP3    H111127   6.211   4.771   3.294 -1.0218  0.5708  0.4282
 3721TIP3    H211128   6.249   4.913   3.257 -0.7062  0.4035  0.1104
 3722TIP3   OH211129   0.980   3.681   3.964 -0.1325  0.1584  0.8049
 3722TIP3    H111130   1.024   3.766   3.969 -0.6829  0.4168  1.5076
 3722TIP3    H211131   0.891   3.699   3.996 -1.2403 -0.0166 -1.9238
 3723TIP3   OH211132   3.754   5.773   0.555 -0.1062 -0.2957 -0.4870
 3723TIP3    H111133   3.714   5.842   0.503 -0.9217 -0.2032  0.2546
 3723TIP3    H211134   3.700   5.767   0.634  1.3292 -0.1662  0.5421
 3724TIP3   OH211135   6.458   0.962   1.121 -0.2830 -0.4538  0.2408
 3724TIP3    H111136   6.549   0.934   1.111 -0.3666 -0.9610  0.8190
 3724TIP3    H211137   6.461   1.028   1.190 -0.4037 -0.7844  0.5681
 3725TIP3   OH211138   1.174   4.385   4.030  0.3130 -0.0755 -0.1350
 3725TIP3    H111139   1.119   4.463   4.032  1.0127  0.4283 -0.2885
 3725TIP3    H211140   1.211   4.379   4.118  0.0967 -0.3520 -0.0630
 3726TIP3   OH211141   3.341   4.373   1.240  0.1246 -0.1298  0.3857
 3726TIP3    H111142   3.414   4.399   1.297  0.6546 -1.9224  0.5924
 3726TIP3    H211143   3.266   4.364   1.298 -0.2212  1.4519  0.2159
 3727TIP3   OH211144   4.604   6.571   4.421 -0.2864 -0.1686 -0.1966
 3727TIP3    H111145   4.619   6.590   4.514 -0.9113 -1.4633  0.1866
 3727TIP3    H211146   4.691   6.576   4.381 -0.0184  0.4381  0.4402
 3728TIP3   OH211147   0.617   2.148   4.841  0.0412  0.1445 -0.7076
 3728TIP3    H111148   0.544   2.142   4.902 -0.4070 -0.7980 -1.3190
 3728TIP3    H211149   0.598   2.083   4.774  1.3325  0.0435 -0.9995
 3729TIP3   OH211150   6.014   5.548   3.289  0.6120  0.9541  0.1809
 3729TIP3    H111151   6.019   5.635   3.250 -2.1523  1.4288  0.6628
 3729TIP3    H211152   6.094   5.504   3.261  1.6204  3.3065 -0.8857
 3730TIP3   OH211153   6.391   2.425   2.880  0.0634 -0.0755 -0.7924
 3730TIP3    H111154   6.323   2.363   2.904  1.1346 -0.9726  0.0239
 3730TIP3    H211155   6.373   2.502   2.934 -0.2451 -0.3530 -0.4919
 3731TIP3   OH211156   4.194   6.690   5.264  0.0962  0.0468 -0.7721
 3731TIP3    H111157   4.247   6.611   5.269 -1.3589 -0.9292 -0.2335
 3731TIP3    H211158   4.121   6.667   5.206 -0.9448  0.6155  0.2807
 3732TIP3   OH211159   6.957   6.233   0.974  0.0286  0.3120  0.3805
 3732TIP3    H111160   7.009   6.303   0.934 -0.1821 -0.2688 -0.9622
 3732TIP3    H211161   6.894   6.279   1.030  1.5999  1.0532  1.6097
 3733TIP3   OH211162   0.181   5.059   2.306  0.0705  0.2117  0.3606
 3733TIP3    H111163   0.098   5.085   2.265 -0.3739 -1.3324  0.1951
 3733TIP3    H211164   0.215   4.990   2.248  1.5717  0.9215  0.3385
 3734TIP3   OH211165   6.943   3.457   0.712 -0.3683  0.1011 -0.2163
 3734TIP3    H111166   6.875   3.393   0.691 -0.2741  0.2315 -0.9700
 3734TIP3    H211167   6.960   3.445   0.805 -0.2044 -1.1086 -0.3876
 3735TIP3   OH211168   3.338   2.698   0.488  0.4875 -0.0532 -0.8494
 3735TIP3    H111169   3.312   2.762   0.553 -0.0693 -0.2839 -0.8300
 3735TIP3    H211170   3.332   2.614   0.533  1.4890 -0.1007 -0.7905
 3736TIP3   OH211171   4.515   4.976   0.103 -0.1644  0.6353 -0.3370
 3736TIP3    H111172   4.555   5.044   0.048 -1.9757  2.2636  0.2351
 3736TIP3    H211173   4.502   4.902   0.045 -0.4017  1.6889 -1.6699
 3737TIP3   OH211174   4.212   2.100   0.510 -0.0780 -0.2542  0.2002
 3737TIP3    H111175   4.125   2.064   0.491  0.1073 -1.1582  0.9627
 3737TIP3    H211176   4.256   2.029   0.558  1.0153  0.2635 -0.0384
 3738TIP3   OH211177   5.574   2.584   4.199 -0.0007  0.0972  0.0586
 3738TIP3    H111178   5.656   2.564   4.244  0.1901 -0.2459 -0.4222
 3738TIP3    H211179   5.528   2.644   4.257  0.3802 -0.0834  0.5534
 3739TIP3   OH211180   7.207   4.808   5.260 -0.0269  0.1984  0.5609
 3739TIP3    H111181   7.203   4.857   5.178 -0.8166  0.1940  0.5847
 3739TIP3    H211182   7.188   4.873   5.327 -1.5461 -0.2063  0.5552
 3740TIP3   OH211183   0.083   5.050   1.883  0.1051 -0.4424 -0.0391
 3740TIP3    H111184   0.159   5.105   1.866 -0.5577  1.4259  2.4896
 3740TIP3    H211185   0.116   4.978   1.937  0.4487 -1.0521 -1.0123
 3741TIP3   OH211186   0.146   1.070   0.592 -0.0464  0.2142 -0.8030
 3741TIP3    H111187   0.232   1.111   0.584 -1.2197  3.0783 -0.0490
 3741TIP3    H211188   0.118   1.089   0.682 -0.7256 -2.3153 -0.4076
 3742TIP3   OH211189   1.516   1.477   3.246 -0.2337 -0.1534 -0.1798
 3742TIP3    H111190   1.430   1.472   3.288  0.3154  3.0032  1.6455
 3742TIP3    H211191   1.521   1.567   3.213  3.4954  0.8668  2.5779
 3743TIP3   OH211192   0.039   1.036   4.588 -0.2973  0.4350 -0.0793
 3743TIP3    H111193  -0.049   1.026   4.626  0.1673 -0.4357  0.8082
 3743TIP3    H211194   0.088   1.083   4.656  0.1056  0.3261 -0.2979
 3744TIP3   OH211195   3.170   0.449   4.880  0.0781  0.1563 -0.2653
 3744TIP3    H111196   3.261   0.452   4.849  0.5758  1.3485  1.1981
 3744TIP3    H211197   3.136   0.537   4.862 -0.5928 -0.0947 -0.2353
 3745TIP3   OH211198   0.725   4.776   3.386  0.0460 -0.7817  0.2410
 3745TIP3    H111199   0.665   4.827   3.332 -0.0054 -1.4254 -0.3226
 3745TIP3    H211200   0.674   4.700   3.414  0.5419 -1.2578 -0.1200
 3746TIP3   OH211201   4.875   5.743   4.122 -0.0230 -0.2724 -0.1220
 3746TIP3    H111202   4.965   5.713   4.130 -0.7720 -2.6158  0.2594
 3746TIP3    H211203   4.850   5.769   4.211  0.3157  0.6014 -0.2701
 3747TIP3   OH211204   3.221   1.909   3.557 -0.0743 -0.3222  0.4110
 3747TIP3    H111205   3.263   1.894   3.473  0.4859 -1.1615  0.8192
 3747TIP3    H211206   3.280   1.969   3.603 -0.5797  0.4479  0.0624
 3748TIP3   OH211207   3.782   1.580   4.345  0.1564  0.0570 -0.7651
 3748TIP3    H111208   3.858   1.523   4.358 -0.9018 -1.5674 -1.2873
 3748TIP3    H211209   3.709   1.529   4.381 -0.7839  1.2920 -0.8771
 3749TIP3   OH211210   3.076   5.427   0.895 -0.2250  0.2138 -0.0198
 3749TIP3    H111211   3.124   5.509   0.891 -1.7864  1.3222  1.9487
 3749TIP3    H211212   2.987   5.452   0.919 -1.7187 -1.7892 -2.8947
 3750TIP3   OH211213   0.932   6.276   4.913  0.3453  0.3428  0.1516
 3750TIP3    H111214   1.000   6.319   4.963  1.5632 -0.4060 -0.7962
 3750TIP3    H211215   0.871   6.346   4.890  2.4370  1.7337 -1.6435
 3751TIP3   OH211216   3.904   0.247   0.160 -0.6539  0.2743 -0.1765
 3751TIP3    H111217   3.949   0.162   0.155 -0.8908  0.0042  1.6289
 3751TIP3    H211218   3.908   0.281   0.071  0.8127 -0.9293 -0.6211
 3752TIP3   OH211219   4.357   1.486   3.175 -0.2115  0.2381 -0.1630
 3752TIP3    H111220   4.268   1.518   3.158 -1.3031 -0.7423  3.0497
 3752TIP3    H211221   4.413   1.562   3.162 -1.7922  1.4736 -0.0297
 3753TIP3   OH211222   4.095   2.794   0.798 -0.1838  0.0893  0.9789
 3753TIP3    H111223   4.190   2.785   0.802 -0.1205  0.7726  1.1846
 3753TIP3    H211224   4.080   2.888   0.807 -0.8870 -0.0345  1.1173
 3754TIP3   OH211225   6.279   1.761   5.176 -0.0273 -0.7808 -0.1671
 3754TIP3    H111226   6.274   1.852   5.205  0.9873 -1.0910  1.0685
 3754TIP3    H211227   6.352   1.759   5.115  1.7439 -1.2160  1.8363
 3755TIP3   OH211228   2.879   5.057   4.995  0.9195 -0.7732 -0.0901
 3755TIP3    H111229   2.936   5.082   5.068 -0.0136  2.3172 -0.2754
 3755TIP3    H211230   2.803   5.015   5.036  0.8506  0.0542  0.6447
 3756TIP3   OH211231   2.288   1.490   4.988  0.0734  0.6899 -0.3351
 3756TIP3    H111232   2.362   1.468   4.931  0.6588 -0.2996  0.7586
 3756TIP3    H211233   2.234   1.411   4.989  0.3883  0.4758  0.9428
 3757TIP3   OH211234   4.517   5.517   1.024  0.2496  0.0620 -0.0737
 3757TIP3    H111235   4.530   5.574   1.100  2.2345  1.0293 -1.0686
 3757TIP3    H211236   4.595   5.530   0.970 -0.5598 -1.4756 -1.7345
 3758TIP3   OH211237   0.437   3.698   3.238 -0.0426 -0.2837  0.1700
 3758TIP3    H111238   0.519   3.649   3.240 -0.4665 -1.0411 -0.3323
 3758TIP3    H211239   0.377   3.647   3.293 -0.7290 -0.8103 -1.0175
 3759TIP3   OH211240   4.038   5.365   1.564 -0.5482 -0.3519  0.5564
 3759TIP3    H111241   4.004   5.454   1.564  0.0290 -0.1238 -0.0507
 3759TIP3    H211242   4.066   5.350   1.474 -1.2235 -1.3753  0.5017
 3760TIP3   OH211243   2.030   0.158   3.531 -0.3518  0.9409 -0.1341
 3760TIP3    H111244   2.095   0.121   3.472 -0.3952 -0.5442  0.7021
 3760TIP3    H211245   2.080   0.208   3.596 -0.0761  0.2032  0.2250
 3761TIP3   OH211246   5.580   6.707   5.317 -0.5716  0.6343 -0.2864
 3761TIP3    H111247   5.605   6.790   5.275  0.9015 -0.2411 -1.2177
 3761TIP3    H211248   5.564   6.647   5.244 -1.0178 -0.0874  0.3887
 3762TIP3   OH211249   0.007   4.119   4.619 -0.0895 -0.3417 -0.1018
 3762TIP3    H111250   0.098   4.145   4.625 -0.4789  0.9012  0.9918
 3762TIP3    H211251  -0.018   4.136   4.528  0.4192  0.5912 -0.0783
 3763TIP3   OH211252   1.782   3.029   4.342 -0.0418  0.0756 -0.1831
 3763TIP3    H111253   1.846   2.966   4.376  0.5148  1.3231  1.1872
 3763TIP3    H211254   1.701   3.009   4.388  0.0223  0.0894 -0.0651
 3764TIP3   OH211255   3.453   1.096   4.589 -0.5946  0.5562  0.0151
 3764TIP3    H111256   3.385   1.159   4.566  0.1146  1.3142 -0.0692
 3764TIP3    H211257   3.438   1.023   4.529  0.9599  2.3172 -2.8048
 3765TIP3   OH211258   0.154   0.235   0.415  0.2748 -0.5371  0.3471
 3765TIP3    H111259   0.216   0.228   0.343  0.7508 -0.0127  0.6923
 3765TIP3    H211260   0.090   0.301   0.386  0.1593 -0.7178  0.1903
 3766TIP3   OH211261   2.195   4.815   1.433  0.1325  0.2732 -0.4492
 3766TIP3    H111262   2.153   4.840   1.515 -0.8012  1.7640 -1.3210
 3766TIP3    H211263   2.270   4.875   1.425 -0.2330  0.6693 -1.0279
 3767TIP3   OH211264   2.920   4.609   0.732  0.4516 -0.2197 -0.7483
 3767TIP3    H111265   2.990   4.569   0.679 -0.4158 -0.3476 -1.8280
 3767TIP3    H211266   2.839   4.583   0.689 -0.4159 -1.7496  1.6035
 3768TIP3   OH211267   6.038   2.195   5.603 -0.5498 -0.1692  0.3009
 3768TIP3    H111268   6.038   2.104   5.635  0.6376  0.3647  1.9696
 3768TIP3    H211269   5.966   2.237   5.651 -0.7987 -0.0955 -0.1266
 3769TIP3   OH211270   4.936   5.470   5.475  0.7282 -0.4704 -0.0940
 3769TIP3    H111271   4.891   5.449   5.394 -0.4754 -0.4411  0.5445
 3769TIP3    H211272   4.876   5.443   5.544  2.2256 -1.6503  0.8326
 3770TIP3   OH211273   5.199   1.778   5.451  0.1708  0.5214 -0.1208
 3770TIP3    H111274   5.227   1.821   5.531  1.4381 -0.3943 -0.0459
 3770TIP3    H211275   5.131   1.717   5.478 -0.0037  0.8281  0.1274
 3771TIP3   OH211276   2.214   2.489   0.781  0.3476  0.1945 -0.5007
 3771TIP3    H111277   2.274   2.557   0.751  0.1876  1.2456  1.4099
 3771TIP3    H211278   2.254   2.455   0.861 -0.5284 -0.6224 -0.3893
 3772TIP3   OH211279   6.637   1.882   4.796  0.7684 -0.2850  0.3914
 3772TIP3    H111280   6.575   1.855   4.863  1.8307 -0.9425  1.1484
 3772TIP3    H211281   6.665   1.970   4.823  0.6353 -0.2430  0.3938
 3773TIP3   OH211282   3.941   5.390   0.086  0.0750 -0.1859  0.0171
 3773TIP3    H111283   3.913   5.299   0.088  0.3086 -0.2956 -1.1317
 3773TIP3    H211284   3.995   5.401   0.165 -1.0971 -0.6451  0.9062
 3774TIP3   OH211285   0.160   0.336   4.870  0.0731  0.1573  0.6532
 3774TIP3    H111286   0.103   0.410   4.890  0.2784  0.5124 -0.0541
 3774TIP3    H211287   0.126   0.301   4.787  0.2757 -0.2381  0.7343
 3775TIP3   OH211288   5.009   3.423   0.167 -0.2004  0.0225 -0.2143
 3775TIP3    H111289   5.009   3.335   0.204 -0.7577  0.7428  1.6794
 3775TIP3    H211290   4.925   3.460   0.194  0.1709  1.2545 -0.6510
 3776TIP3   OH211291   1.650   3.233   1.097 -0.0002  0.4149 -0.0632
 3776TIP3    H111292   1.583   3.298   1.077 -0.9891  0.1937  2.2353
 3776TIP3    H211293   1.732   3.282   1.098 -0.7205  1.6382  1.5318
 3777TIP3   OH211294   3.504   2.485   0.639 -0.1809  0.1845  0.0839
 3777TIP3    H111295   3.470   2.474   0.728 -0.7383  2.3450  0.1797
 3777TIP3    H211296   3.593   2.516   0.651  0.1674 -0.6964 -0.1434
 3778TIP3   OH211297   6.824   4.253   3.853 -0.6201 -0.5069  0.3811
 3778TIP3    H111298   6.852   4.270   3.763  0.8233  0.3663  0.9688
 3778TIP3    H211299   6.735   4.217   3.844 -0.9135  0.5484 -1.3207
 3779TIP3   OH211300   2.923   1.349   2.575  0.1071  0.2212  0.1624
 3779TIP3    H111301   2.882   1.422   2.620  0.2405  0.1114  0.4625
 3779TIP3    H211302   2.863   1.329   2.502 -0.6132 -0.2287  0.8600
 3780TIP3   OH211303   3.535   3.020   4.085  0.2490  0.0466  0.2958
 3780TIP3    H111304   3.556   3.040   3.994 -0.2090  0.2992  0.2425
 3780TIP3    H211305   3.517   3.105   4.125 -0.9561 -0.1661  0.2577
 3781TIP3   OH211306   0.560   0.026   2.472  0.0269  0.4027 -0.0485
 3781TIP3    H111307   0.510  -0.002   2.549 -0.3626  0.4626 -0.2735
 3781TIP3    H211308   0.533   0.117   2.459  0.1447  0.4144 -0.2106
 3782TIP3   OH211309   3.893   3.190   5.802 -0.8501 -0.7519 -0.0556
 3782TIP3    H111310   3.987   3.192   5.785 -0.8237  1.8458 -0.0632
 3782TIP3    H211311   3.886   3.177   5.897 -0.4283 -0.1530  0.0652
 3783TIP3   OH211312   6.286   0.138   5.123 -0.0265  0.1477  0.0328
 3783TIP3    H111313   6.327   0.080   5.058  1.0719  0.3038  0.5703
 3783TIP3    H211314   6.332   0.221   5.114 -1.7810  1.0904 -0.9292
 3784TIP3   OH211315   0.630   6.088   2.141 -0.2251 -0.1888  0.0365
 3784TIP3    H111316   0.589   6.164   2.181  0.3898 -0.3123  0.9354
 3784TIP3    H211317   0.676   6.123   2.065 -0.3992  0.2443  0.1261
 3785TIP3   OH211318   4.563   6.407   1.475  0.0696  0.1424 -0.2078
 3785TIP3    H111319   4.659   6.407   1.478  0.1178  0.8039 -1.2465
 3785TIP3    H211320   4.536   6.458   1.551  0.5098 -0.4838  0.3886
 3786TIP3   OH211321   2.330   1.257   5.640  0.3356  0.0122 -0.1242
 3786TIP3    H111322   2.253   1.239   5.587  1.4338  1.1485 -2.2414
 3786TIP3    H211323   2.399   1.201   5.603  0.9109  0.0972  0.7660
 3787TIP3   OH211324   5.281   4.645   5.480  0.7040  0.5301  0.4075
 3787TIP3    H111325   5.236   4.661   5.562  0.8839  0.9202  0.4328
 3787TIP3    H211326   5.321   4.729   5.458 -1.6643  1.2731 -1.5203
 3788TIP3   OH211327   2.808   1.798   2.993 -0.3214  0.2055 -0.1526
 3788TIP3    H111328   2.785   1.890   3.007 -4.8332 -0.6542 -0.2102
 3788TIP3    H211329   2.766   1.776   2.910  0.4923 -1.9502 -0.0411
 3789TIP3   OH211330   3.815   0.594   1.774 -0.1743 -0.1303 -0.4511
 3789TIP3    H111331   3.730   0.572   1.811 -0.7920 -0.9797 -2.2454
 3789TIP3    H211332   3.797   0.662   1.709  0.3909 -0.7477 -1.2886
 3790TIP3   OH211333   6.758   5.318   2.743  0.0826  0.0071 -0.1899
 3790TIP3    H111334   6.850   5.313   2.716  0.4770 -1.4630  1.2344
 3790TIP3    H211335   6.742   5.411   2.758  1.8241  0.1621  0.9809
 3791TIP3   OH211336   3.391   6.463   4.049 -0.1282 -0.2754 -0.7398
 3791TIP3    H111337   3.374   6.416   3.968  1.4666 -0.0388 -1.2538
 3791TIP3    H211338   3.397   6.555   4.024 -1.1511 -0.0073 -0.0799
 3792TIP3   OH211339   4.639   1.232   5.491 -0.0153 -0.1463  0.0688
 3792TIP3    H111340   4.584   1.221   5.413 -0.0731 -2.0288  0.3365
 3792TIP3    H211341   4.627   1.152   5.541  0.1535  0.9520  1.9696
 3793TIP3   OH211342   4.460   0.229   3.487  0.2223  0.1925 -0.4810
 3793TIP3    H111343   4.499   0.298   3.540 -0.4838  0.0778  0.2002
 3793TIP3    H211344   4.395   0.274   3.432  0.5566  0.2271 -0.8563
 3794TIP3   OH211345   1.144   5.715   4.152 -0.0312  0.8058  0.1519
 3794TIP3    H111346   1.171   5.783   4.091  2.7139 -0.8788 -0.6915
 3794TIP3    H211347   1.193   5.734   4.232  0.8904 -0.1981 -0.1461
 3795TIP3   OH211348   0.809   3.169   0.275 -0.1455  0.1940  0.7123
 3795TIP3    H111349   0.800   3.079   0.309 -1.4175  0.9427  2.5146
 3795TIP3    H211350   0.768   3.166   0.189  1.9942 -1.4681 -0.3648
 3796TIP3   OH211351   2.519   1.148   3.623  0.0696 -0.1586  0.0008
 3796TIP3    H111352   2.504   1.059   3.590 -0.1099 -0.5576  1.1273
 3796TIP3    H211353   2.443   1.167   3.677 -0.0382  0.8137 -0.4724
 3797TIP3   OH211354   4.187   2.597   2.136 -0.3877 -0.5313  0.2962
 3797TIP3    H111355   4.137   2.673   2.165 -0.5371 -0.7604  0.6404
 3797TIP3    H211356   4.273   2.633   2.114  0.0669 -0.5033  2.0184
 3798TIP3   OH211357   0.896   1.912   4.945 -0.2867  0.3652  0.2252
 3798TIP3    H111358   0.975   1.885   4.991 -0.0038  1.0354  0.1398
 3798TIP3    H211359   0.825   1.892   5.007 -0.2931 -2.0606 -0.4300
 3799TIP3   OH211360   1.880   2.161   4.575 -0.1243  0.2792  0.3760
 3799TIP3    H111361   1.940   2.219   4.622  1.9149 -0.6481 -0.8911
 3799TIP3    H211362   1.934   2.085   4.553 -1.8705 -0.7251 -0.6609
 3800TIP3   OH211363   0.708   3.040   5.211  0.2647  0.0543 -0.1815
 3800TIP3    H111364   0.697   2.945   5.206  0.3237 -0.0487  1.2221
 3800TIP3    H211365   0.784   3.059   5.156 -0.1043 -0.6197 -0.9497
 3801TIP3   OH211366   0.720   6.428   5.652 -0.1039 -0.0917  0.3257
 3801TIP3    H111367   0.656   6.387   5.592  0.0057 -1.4822  1.1301
 3801TIP3    H211368   0.676   6.429   5.737 -0.2421  1.8421  0.2835
 3802TIP3   OH211369   0.972   2.921   2.941 -0.0571  0.2291  0.9693
 3802TIP3    H111370   1.027   2.997   2.961  0.4287 -0.2053  1.3056
 3802TIP3    H211371   1.001   2.854   3.003  0.7977 -0.8455 -0.5324
 3803TIP3   OH211372   3.169   5.822   2.455 -0.3935  0.2579 -0.4224
 3803TIP3    H111373   3.093   5.777   2.419  0.6741 -0.7309 -1.5225
 3803TIP3    H211374   3.205   5.871   2.381 -0.3970  1.3449  0.2796
 3804TIP3   OH211375   2.881   0.136   4.565 -0.4478 -0.1999  0.1654
 3804TIP3    H111376   2.935   0.199   4.613 -0.1431  0.8660 -1.5235
 3804TIP3    H211377   2.803   0.125   4.619 -0.1883  1.0850  0.8362
 3805TIP3   OH211378   3.777   3.509   1.971 -0.1941  0.1866 -0.0488
 3805TIP3    H111379   3.810   3.580   1.915  0.6083  1.7832  2.2726
 3805TIP3    H211380   3.839   3.438   1.959 -0.3489  0.2738 -1.5673
 3806TIP3   OH211381   5.625   0.796   1.972 -0.6394 -0.4214  0.7157
 3806TIP3    H111382   5.598   0.876   1.928 -3.3855 -0.4824  2.0235
 3806TIP3    H211383   5.630   0.730   1.903 -0.5154  0.4009 -0.0715
 3807TIP3   OH211384   1.047   3.992   3.007  0.4940 -0.0172 -0.8278
 3807TIP3    H111385   1.104   3.936   3.060  1.4755  0.9063 -0.8794
 3807TIP3    H211386   0.959   3.955   3.019  0.9049 -0.6705  0.3056
 3808TIP3   OH211387   0.420   0.303   5.070 -0.5162  0.0000 -0.1864
 3808TIP3    H111388   0.341   0.312   5.017  0.6621  1.5399 -1.7994
 3808TIP3    H211389   0.469   0.231   5.030  0.0925  0.7708 -0.8670
 3809TIP3   OH211390   6.871   3.710   1.670 -0.1276 -0.1172  0.2411
 3809TIP3    H111391   6.916   3.710   1.754 -1.1650  1.5308  0.8485
 3809TIP3    H211392   6.932   3.752   1.609  0.4701 -0.9664  0.2402
 3810TIP3   OH211393   5.633   4.377   3.523 -0.1861 -0.0047  0.1660
 3810TIP3    H111394   5.690   4.363   3.598  1.0539 -0.1149 -0.7700
 3810TIP3    H211395   5.661   4.311   3.459 -0.1189  1.1307 -1.0122
 3811TIP3   OH211396   1.777   6.809   4.717 -0.3966  0.1270 -1.0611
 3811TIP3    H111397   1.861   6.765   4.730 -1.4398 -1.5248  0.4623
 3811TIP3    H211398   1.736   6.809   4.804 -2.1445  0.5614 -1.8475
 3812TIP3   OH211399   1.160   2.543   1.186 -0.5266 -0.0725 -0.0416
 3812TIP3    H111400   1.246   2.580   1.203 -1.7214  2.2907  1.2534
 3812TIP3    H211401   1.161   2.523   1.092  0.4436  2.7563 -0.7376
 3813TIP3   OH211402   4.115   0.893   4.542 -0.1231 -0.0259 -0.1473
 3813TIP3    H111403   4.131   0.983   4.571  0.6761 -0.9607  2.5861
 3813TIP3    H211404   4.047   0.860   4.600 -0.4702 -1.2077 -1.1621
 3814TIP3   OH211405   4.357   2.792   0.850 -0.4086  0.1596  0.1772
 3814TIP3    H111406   4.323   2.865   0.902 -1.1854 -0.5466  0.6875
 3814TIP3    H211407   4.405   2.834   0.779 -0.7525  1.1675  0.5133
 3815TIP3   OH211408   3.795   1.334   4.059  0.0256 -0.1872  0.1526
 3815TIP3    H111409   3.825   1.310   4.147 -2.4156  0.0900  1.1255
 3815TIP3    H211410   3.757   1.253   4.024  0.3064 -0.1008 -0.3629
 3816TIP3   OH211411   6.478   2.755   0.805  0.0441 -0.3352  0.0680
 3816TIP3    H111412   6.477   2.753   0.709  0.0818 -2.4404  0.0632
 3816TIP3    H211413   6.415   2.689   0.831  1.5750 -1.3390  1.4596
 3817TIP3   OH211414   0.539   3.499   4.303 -0.4594  0.0490 -0.1963
 3817TIP3    H111415   0.450   3.516   4.333 -0.4064  0.8721 -0.4932
 3817TIP3    H211416   0.593   3.508   4.382 -0.5836 -0.0169 -0.1037
 3818TIP3   OH211417   1.116   4.567   4.899  0.1239  0.0146  0.4061
 3818TIP3    H111418   1.177   4.529   4.837 -0.9775  0.3352 -0.9286
 3818TIP3    H211419   1.052   4.614   4.845 -0.8977  0.2822  1.7707
 3819TIP3   OH211420   4.344   6.253   2.358 -0.4862  0.1982 -0.0978
 3819TIP3    H111421   4.353   6.264   2.263  1.1075 -1.3255 -0.1830
 3819TIP3    H211422   4.434   6.261   2.391 -0.9828  0.3952  1.2627
 3820TIP3   OH211423   3.548   0.716   1.766 -0.0459 -0.3088  0.4822
 3820TIP3    H111424   3.506   0.755   1.843 -0.3673 -0.2097  0.2620
 3820TIP3    H211425   3.608   0.784   1.735 -0.0504 -0.2782  0.5397
 3821TIP3   OH211426   2.572   0.383   3.662 -0.2596  0.2582 -0.3499
 3821TIP3    H111427   2.496   0.426   3.701 -1.3994 -1.8005 -0.1380
 3821TIP3    H211428   2.558   0.391   3.567  0.4434  1.8025 -0.3427
 3822TIP3   OH211429   1.916   5.163   2.259  0.0399  0.1131  0.0539
 3822TIP3    H111430   1.984   5.144   2.194  1.3569  1.7093  0.9078
 3822TIP3    H211431   1.948   5.239   2.307 -0.1653 -1.7469  3.5329
 3823TIP3   OH211432   5.570   6.584   4.412 -0.0989 -0.1742 -0.5398
 3823TIP3    H111433   5.613   6.585   4.497 -0.2438 -0.3268 -0.4651
 3823TIP3    H211434   5.642   6.575   4.349 -0.0414 -0.7005 -0.4011
 3824TIP3   OH211435   4.823   5.467   3.698 -0.0927  0.1987  0.6597
 3824TIP3    H111436   4.903   5.449   3.647 -0.8119  1.5857 -1.0708
 3824TIP3    H211437   4.847   5.541   3.754  0.4771 -0.8367  1.8087
 3825TIP3   OH211438   6.004   3.080   4.535  0.8230 -0.1214  0.4439
 3825TIP3    H111439   6.017   3.058   4.627  1.1339  2.0067  0.9446
 3825TIP3    H211440   6.034   3.170   4.526 -1.8669  0.7715 -1.0859
 3826TIP3   OH211441   6.747   4.204   4.842 -1.2416 -0.3239 -0.1298
 3826TIP3    H111442   6.726   4.129   4.898 -1.4341 -0.5739 -0.5327
 3826TIP3    H211443   6.688   4.195   4.767  0.5096 -1.2636 -1.4745
 3827TIP3   OH211444   5.268   4.911   2.493  0.1585 -0.6569 -0.1290
 3827TIP3    H111445   5.204   4.858   2.446 -0.3183  0.2947 -0.6032
 3827TIP3    H211446   5.214   4.965   2.552  0.6460 -0.8651  0.5190
 3828TIP3   OH211447   2.637   5.387   4.334 -0.5970 -0.3516 -0.1356
 3828TIP3    H111448   2.680   5.353   4.413  1.0511  1.5221 -0.1680
 3828TIP3    H211449   2.569   5.445   4.367 -0.9288 -0.7450 -0.1120
 3829TIP3   OH211450   4.139   5.426   3.765 -0.6633  0.1274  0.1093
 3829TIP3    H111451   4.225   5.407   3.726  0.4605  0.7383  2.1590
 3829TIP3    H211452   4.142   5.385   3.851 -2.5752 -0.0829  0.1197
 3830TIP3   OH211453   5.476   5.374   5.039 -0.4581  0.3547  0.5162
 3830TIP3    H111454   5.547   5.327   5.083 -2.4336  0.1094  3.8164
 3830TIP3    H211455   5.511   5.461   5.022  1.8204 -0.8870 -1.6089
 3831TIP3   OH211456   6.082   1.983   4.286 -0.1534 -0.5767  0.7779
 3831TIP3    H111457   6.036   2.027   4.357 -0.4994 -0.4145  0.4557
 3831TIP3    H211458   6.102   2.052   4.223  0.7116 -0.6150  1.0073
 3832TIP3   OH211459   4.040   6.359   0.453 -0.5375  0.3808  0.1731
 3832TIP3    H111460   3.948   6.361   0.479 -1.5405 -2.8926 -2.3601
 3832TIP3    H211461   4.062   6.265   0.450  1.2715  0.7111 -4.0735
 3833TIP3   OH211462   1.816   2.005   4.072  0.0871  0.5407  0.2344
 3833TIP3    H111463   1.788   2.001   4.164 -0.9722  0.3001 -0.0806
 3833TIP3    H211464   1.836   1.914   4.049  3.0342  0.9098  0.9797
 3834TIP3   OH211465   3.116   5.553   1.540  0.4477 -0.1912  0.3691
 3834TIP3    H111466   3.081   5.468   1.514  2.1439  0.0876 -3.3820
 3834TIP3    H211467   3.045   5.615   1.520 -0.0222 -0.4489  1.1563
 3835TIP3   OH211468   4.202   5.911   1.223 -0.3212  0.2097  0.4987
 3835TIP3    H111469   4.273   5.852   1.197 -1.2617 -0.6083 -0.2883
 3835TIP3    H211470   4.123   5.857   1.219 -1.0309  1.1658  1.1192
 3836TIP3   OH211471   6.913   6.666   5.165 -0.5503  0.3721 -0.1387
 3836TIP3    H111472   7.006   6.682   5.148 -0.0224  0.8270  2.6913
 3836TIP3    H211473   6.871   6.752   5.152 -0.1073  0.7906  1.0655
 3837TIP3   OH211474   2.640   0.439   4.696 -0.1115 -0.0244 -0.0967
 3837TIP3    H111475   2.712   0.387   4.732 -1.5980 -1.4229  1.0083
 3837TIP3    H211476   2.651   0.525   4.735 -0.3045 -0.8553  1.9219
 3838TIP3   OH211477   3.189   5.173   4.295 -0.5732  0.6354 -0.1909
 3838TIP3    H111478   3.125   5.228   4.340  0.3909  2.0871 -0.5188
 3838TIP3    H211479   3.161   5.172   4.204 -2.4854 -2.2472  0.2952
 3839TIP3   OH211480   0.203   0.436   4.358  0.6404 -0.4612 -0.0077
 3839TIP3    H111481   0.279   0.439   4.301  1.5828  1.2099  1.2443
 3839TIP3    H211482   0.238   0.449   4.446 -0.9856 -0.6978  0.7196
 3840TIP3   OH211483   6.859   0.310   0.881 -0.0721  0.2466 -0.6446
 3840TIP3    H111484   6.886   0.392   0.839  0.1411  0.4802 -0.0710
 3840TIP3    H211485   6.876   0.243   0.816  0.3634  0.5855 -0.8886
 3841TIP3   OH211486   4.837   1.825   0.549 -0.1295  0.2022  0.4059
 3841TIP3    H111487   4.872   1.914   0.548 -0.9155  0.5156  0.8692
 3841TIP3    H211488   4.877   1.784   0.626 -0.1893  0.3168  0.4967
 3842TIP3   OH211489   3.400   0.713   2.090  0.0107 -0.0967  0.2334
 3842TIP3    H111490   3.457   0.637   2.097  0.7373  0.4411  0.3164
 3842TIP3    H211491   3.312   0.679   2.109  0.2304 -1.0210 -0.3442
 3843TIP3   OH211492   4.689   3.381   0.433 -0.2196 -0.5991  0.0807
 3843TIP3    H111493   4.758   3.426   0.384 -0.9337  1.6501  1.0499
 3843TIP3    H211494   4.733   3.350   0.512  0.0724 -0.7968 -0.1567
 3844TIP3   OH211495   6.411   4.315   0.527  0.6254  0.3007  0.7916
 3844TIP3    H111496   6.357   4.393   0.527  2.7878  1.9051  1.5457
 3844TIP3    H211497   6.406   4.281   0.616  0.2371 -0.0072  0.6518
 3845TIP3   OH211498   6.402   5.083   3.295 -0.2347  0.4194 -0.2921
 3845TIP3    H111499   6.465   5.030   3.344  0.3476 -0.4576 -1.9248
 3845TIP3    H211500   6.378   5.153   3.356  0.7767 -0.3722  1.0811
 3846TIP3   OH211501   5.995   3.207   5.357  0.0357 -0.5203  0.0695
 3846TIP3    H111502   5.990   3.265   5.281 -3.3057 -0.3610  0.2742
 3846TIP3    H211503   5.951   3.127   5.329  0.2097 -1.0848  1.3360
 3847TIP3   OH211504   6.967   0.110   3.162 -0.6286  0.2099  0.2140
 3847TIP3    H111505   6.895   0.060   3.200 -0.8561 -0.1086 -0.6219
 3847TIP3    H211506   6.925   0.171   3.101 -0.0976 -1.4164 -1.8976
 3848TIP3   OH211507   2.546   1.325   0.737 -0.2849 -0.0976  0.4723
 3848TIP3    H111508   2.554   1.369   0.652  1.2686  0.1001  0.6872
 3848TIP3    H211509   2.623   1.269   0.742  0.0982  0.5370  2.1033
 3849TIP3   OH211510   1.581   1.786   0.602  0.1334  0.4903 -0.5562
 3849TIP3    H111511   1.643   1.835   0.656 -1.8589  1.5979  0.8656
 3849TIP3    H211512   1.574   1.701   0.644  1.0995  0.1302 -1.0862
 3850TIP3   OH211513   4.304   2.168   5.309 -0.2766 -0.2198  0.1235
 3850TIP3    H111514   4.276   2.130   5.392  1.2281  0.0951  0.7935
 3850TIP3    H211515   4.399   2.160   5.309 -0.2654 -0.6307 -1.7863
 3851TIP3   OH211516   6.480   2.482   2.620 -0.3328 -0.7544 -0.4553
 3851TIP3    H111517   6.452   2.473   2.711 -0.2037 -1.4581 -0.4843
 3851TIP3    H211518   6.450   2.403   2.577 -1.2298 -0.0043 -1.2527
 3852TIP3   OH211519   1.505   5.239   3.634  0.1490 -0.0242 -0.7299
 3852TIP3    H111520   1.599   5.254   3.632 -0.1216  1.8127 -1.4225
 3852TIP3    H211521   1.475   5.259   3.546 -0.8836 -0.8234 -0.5864
 3853TIP3   OH211522   0.667   4.692   3.083  0.0045  0.1317 -0.3952
 3853TIP3    H111523   0.751   4.660   3.115 -0.2991 -0.0427  0.2323
 3853TIP3    H211524   0.606   4.620   3.099 -0.2171  0.1635 -1.0747
 3854TIP3   OH211525   6.824   0.369   3.099 -0.7487  0.1824 -0.2901
 3854TIP3    H111526   6.866   0.441   3.147 -1.3332  0.0959  0.3753
 3854TIP3    H211527   6.764   0.330   3.163 -0.5673 -0.7847 -0.6997
 3855TIP3   OH211528   4.114   0.053   1.511 -0.0759  0.3644 -0.6354
 3855TIP3    H111529   4.032   0.003   1.502 -0.3807  0.3872  1.6320
 3855TIP3    H211530   4.159   0.014   1.585  0.7495  2.0236 -0.2105
 3856TIP3   OH211531   6.976   1.032   1.889  0.1199  0.3162  0.4878
 3856TIP3    H111532   7.052   1.088   1.871  1.0884 -0.0581  2.9037
 3856TIP3    H211533   6.912   1.090   1.928 -0.4700  0.4452 -0.6473
 3857TIP3   OH211534   4.804   2.919   1.207  0.2698  0.6241  0.4095
 3857TIP3    H111535   4.890   2.907   1.165 -0.2678  0.2239 -0.6002
 3857TIP3    H211536   4.760   2.835   1.196  0.1403  0.4850  1.8701
 3858TIP3   OH211537   1.096   2.016   1.636  0.1515  0.3951 -0.0222
 3858TIP3    H111538   1.030   2.039   1.701 -0.0654  1.0924 -0.4757
 3858TIP3    H211539   1.115   1.923   1.652  0.2991  0.6245  1.2002
 3859TIP3   OH211540   2.256   5.824   4.492 -0.3116  0.0620  0.1287
 3859TIP3    H111541   2.183   5.880   4.518 -0.2452  0.2377 -0.0558
 3859TIP3    H211542   2.300   5.802   4.574 -0.2246  0.4385  0.1851
 3860TIP3   OH211543   3.441   0.709   0.488 -0.2144  0.3228  0.4515
 3860TIP3    H111544   3.464   0.772   0.419 -2.4454  1.4423  0.6553
 3860TIP3    H211545   3.479   0.626   0.458 -1.3795  0.6830 -2.3195
 3861TIP3   OH211546   5.168   0.847   0.962  0.3719 -0.3367 -0.5795
 3861TIP3    H111547   5.088   0.900   0.957  2.0902  2.4810 -0.5601
 3861TIP3    H211548   5.165   0.791   0.884 -2.0506 -1.0628 -0.0406
 3862TIP3   OH211549   1.692   1.133   5.722 -0.1992  0.0535 -0.8100
 3862TIP3    H111550   1.764   1.182   5.681  0.5121 -0.5449 -0.2966
 3862TIP3    H211551   1.624   1.198   5.736  0.3961  0.7162 -0.9430
 3863TIP3   OH211552   0.747   5.037   4.631  0.3386 -0.1522  0.3478
 3863TIP3    H111553   0.736   5.127   4.601 -0.3711  0.2542  1.7501
 3863TIP3    H211554   0.752   4.985   4.550 -1.5610  0.8760 -0.4831
 3864TIP3   OH211555   6.100   4.898   3.545 -0.2888  0.0528  0.1164
 3864TIP3    H111556   6.151   4.850   3.610 -0.2631 -1.1026 -0.7215
 3864TIP3    H211557   6.073   4.831   3.482  0.8076  1.3097 -1.7942
 3865TIP3   OH211558   3.766   4.188   2.896 -0.5883  0.3603  0.3696
 3865TIP3    H111559   3.801   4.173   2.984 -1.1049  1.9241  0.8835
 3865TIP3    H211560   3.826   4.142   2.838  0.8058  0.8071  1.4086
 3866TIP3   OH211561   3.702   2.658   1.079  0.6561 -0.8697  0.2769
 3866TIP3    H111562   3.713   2.722   1.008  0.3907 -0.5929  0.4847
 3866TIP3    H211563   3.791   2.635   1.104  0.7535 -0.5218  0.2547
 3867TIP3   OH211564   5.253   2.191   4.599  0.2073 -0.1991  0.1257
 3867TIP3    H111565   5.271   2.249   4.525 -0.0859  1.1969  1.1086
 3867TIP3    H211566   5.327   2.205   4.658  0.1416 -0.8569  0.3694
 3868TIP3   OH211567   5.081   3.833   0.854  0.4067 -0.2907 -0.1935
 3868TIP3    H111568   5.017   3.901   0.876  1.1909 -0.0893  1.6409
 3868TIP3    H211569   5.064   3.764   0.918  1.9480 -0.2812  0.2532
 3869TIP3   OH211570   1.318   4.962   5.445 -0.1502  0.0693 -0.0462
 3869TIP3    H111571   1.348   4.871   5.443 -0.6601 -0.1327  0.7554
 3869TIP3    H211572   1.227   4.956   5.475 -0.2713  0.8270 -0.2413
 3870TIP3   OH211573   2.294   5.483   2.326  0.0844 -0.1172  0.0534
 3870TIP3    H111574   2.302   5.548   2.396  1.4520  0.8754 -0.9581
 3870TIP3    H211575   2.380   5.484   2.284  0.3811 -3.0818  0.3854
 3871TIP3   OH211576   4.828   2.943   5.126 -0.2497  0.0188  0.1240
 3871TIP3    H111577   4.842   3.008   5.056 -1.1199  0.9465  0.7883
 3871TIP3    H211578   4.773   2.988   5.190  1.4227 -0.4384  1.9634
 3872TIP3   OH211579   1.131   0.373   0.279  0.4211 -0.4436  0.3362
 3872TIP3    H111580   1.202   0.392   0.340 -0.0816 -0.0621  0.8003
 3872TIP3    H211581   1.072   0.315   0.327  0.6616 -1.1723 -0.2180
 3873TIP3   OH211582   5.142   2.552   2.371  0.0174  0.1304 -0.0048
 3873TIP3    H111583   5.231   2.574   2.398  0.1893 -0.7141  0.1624
 3873TIP3    H211584   5.093   2.542   2.452  0.3587 -1.6958  0.0253
 3874TIP3   OH211585   2.771   1.443   1.244 -0.0523 -0.5012  0.6411
 3874TIP3    H111586   2.744   1.355   1.269  1.4503 -1.1487  0.0847
 3874TIP3    H211587   2.790   1.437   1.151  2.2740 -0.2059  1.0341
 3875TIP3   OH211588   3.166   3.011   1.515  0.3421 -0.1312 -0.0464
 3875TIP3    H111589   3.255   3.019   1.479  0.0861 -0.5131 -0.8020
 3875TIP3    H211590   3.124   3.094   1.494  0.5019  0.0244  0.2517
 3876TIP3   OH211591   5.101   2.146   1.521  0.0941  0.4925 -0.0214
 3876TIP3    H111592   5.170   2.199   1.483  0.2414  0.6695  0.4852
 3876TIP3    H211593   5.111   2.060   1.480 -1.7674  1.4642 -2.8555
 3877TIP3   OH211594   0.261   4.874   2.041  0.2363  0.2120  0.1816
 3877TIP3    H111595   0.263   4.805   2.107  0.4749  0.0405 -0.0030
 3877TIP3    H211596   0.346   4.868   1.998  0.1893  0.5082  0.0487
 3878TIP3   OH211597   6.876   5.841   1.516 -0.0978 -0.0389  0.1241
 3878TIP3    H111598   6.966   5.856   1.544  0.2803  0.4093 -1.2362
 3878TIP3    H211599   6.833   5.803   1.592  0.4932  2.3872  1.7528
 3879TIP3   OH211600   2.148   4.325   3.941 -0.6770  0.3483 -0.0827
 3879TIP3    H111601   2.195   4.241   3.934  0.8668  1.1630 -0.0011
 3879TIP3    H211602   2.208   4.381   3.990 -1.5939  1.5716 -0.3271
 3880TIP3   OH211603   5.486   6.169   0.127  0.1341 -0.5315 -0.3380
 3880TIP3    H111604   5.475   6.089   0.178 -0.2800 -0.1811  0.1303
 3880TIP3    H211605   5.397   6.196   0.106  0.2198  0.3206  0.3222
 3881TIP3   OH211606   6.689   3.677   5.531 -0.5450 -0.1574  0.7196
 3881TIP3    H111607   6.604   3.669   5.575 -0.0232 -0.6308  1.6716
 3881TIP3    H211608   6.724   3.588   5.530  0.7256  0.2938  1.9651
 3882TIP3   OH211609   1.970   5.351   2.443 -0.2208  0.0617 -0.3210
 3882TIP3    H111610   1.979   5.354   2.538 -0.1557 -2.5156 -0.1662
 3882TIP3    H211611   1.938   5.437   2.419  0.6556  1.0978  1.9204
 3883TIP3   OH211612   6.356   2.092   4.555 -0.6165  0.2335  0.2916
 3883TIP3    H111613   6.385   2.129   4.471 -0.2718  2.9184  1.4955
 3883TIP3    H211614   6.421   2.023   4.574  0.7527  1.2455 -0.4939
 3884TIP3   OH211615   1.789   6.609   5.840  0.4393 -0.2197  0.1444
 3884TIP3    H111616   1.823   6.591   5.927  1.1223  1.0830  0.1790
 3884TIP3    H211617   1.779   6.704   5.837 -4.0156 -0.4772  0.3791
 3885TIP3   OH211618   5.829   2.816   0.027  0.1095 -0.2328 -0.0419
 3885TIP3    H111619   5.907   2.871   0.027 -0.7538  1.0481 -0.0381
 3885TIP3    H211620   5.818   2.789   0.118  0.2515  0.0319  0.0545
 3886TIP3   OH211621   5.734   0.344   3.282 -0.0077 -0.1020 -0.2180
 3886TIP3    H111622   5.710   0.251   3.287 -1.0537  0.2141  2.1179
 3886TIP3    H211623   5.700   0.382   3.363  0.6779  2.2807 -0.9574
 3887TIP3   OH211624   5.503   1.215   3.783  0.5443 -1.0656 -0.3012
 3887TIP3    H111625   5.489   1.148   3.850 -0.9797 -0.6760 -0.1849
 3887TIP3    H211626   5.477   1.172   3.701 -0.3474 -0.6752 -0.2386
 3888TIP3   OH211627   4.250   4.733   2.145 -0.2133 -0.4465  0.0312
 3888TIP3    H111628   4.193   4.809   2.137  1.0908  0.5216 -0.2443
 3888TIP3    H211629   4.250   4.693   2.059 -3.1606 -2.4992  0.8206
 3889TIP3   OH211630   1.594   5.505   3.018  0.2275 -0.0108  0.4762
 3889TIP3    H111631   1.513   5.454   3.015 -0.8234  1.5844  0.6050
 3889TIP3    H211632   1.664   5.440   3.007 -0.9759 -1.6522  1.9557
 3890TIP3   OH211633   0.879   4.530   0.039 -0.1696  0.2075  0.0879
 3890TIP3    H111634   0.955   4.569  -0.004 -0.4771 -0.0491 -0.7102
 3890TIP3    H211635   0.829   4.492  -0.032 -0.5824 -0.4267  0.7081
 3891TIP3   OH211636   6.715   1.054   5.222  0.4119 -0.0480 -0.4311
 3891TIP3    H111637   6.717   1.019   5.133  0.3501 -1.1461 -0.0161
 3891TIP3    H211638   6.663   1.134   5.216 -0.1530 -0.4697 -1.2573
 3892TIP3   OH211639   2.956   1.155   4.075 -0.2371 -0.4620 -0.1725
 3892TIP3    H111640   2.887   1.106   4.031 -3.4844  0.8651  2.9445
 3892TIP3    H211641   2.980   1.101   4.150 -1.2516  1.0066  1.2766
 3893TIP3   OH211642   1.982   0.324   3.837 -0.1875 -0.3716 -0.0228
 3893TIP3    H111643   1.984   0.397   3.899 -0.3576 -1.1214  0.8799
 3893TIP3    H211644   1.909   0.269   3.867  1.1333 -1.9182  0.4764
 3894TIP3   OH211645   7.000   3.517   0.380  0.0962 -0.0301 -0.0941
 3894TIP3    H111646   6.929   3.569   0.418 -0.9330 -1.8455  0.6122
 3894TIP3    H211647   7.031   3.569   0.306 -0.6224  1.7265  0.7704
 3895TIP3   OH211648   2.009   6.560   4.055  0.1891  0.3140  0.2970
 3895TIP3    H111649   2.052   6.631   4.103 -0.2775  0.6572  0.2224
 3895TIP3    H211650   1.989   6.494   4.122  0.5356  0.2984  0.3844
 3896TIP3   OH211651   5.765   6.394   4.987  0.2772  0.0248  0.0579
 3896TIP3    H111652   5.850   6.367   4.954  0.1782  0.8278 -0.9134
 3896TIP3    H211653   5.760   6.488   4.967  0.0469  0.4857  2.0519
 3897TIP3   OH211654   0.060   2.623   5.181 -0.5073  0.3480  0.1841
 3897TIP3    H111655  -0.033   2.641   5.170 -0.3847  1.1672  0.4144
 3897TIP3    H211656   0.063   2.538   5.226 -1.2063  1.3198  2.1898
 3898TIP3   OH211657   5.769   3.742   4.920  0.1017  0.8365 -0.0029
 3898TIP3    H111658   5.690   3.691   4.940 -0.2864  1.5550  0.3484
 3898TIP3    H211659   5.759   3.766   4.828  0.0598  0.6656 -0.0434
 3899TIP3   OH211660   0.927   4.405   3.842  0.1279  0.0774  0.2576
 3899TIP3    H111661   1.015   4.441   3.834  0.7823 -1.2001  1.2769
 3899TIP3    H211662   0.913   4.358   3.760 -0.9476  2.9513 -1.3179
 3900TIP3   OH211663   1.892   3.098   2.656  0.1111  0.4246 -0.3381
 3900TIP3    H111664   1.889   3.084   2.562  0.5317  2.1353 -0.6335
 3900TIP3    H211665   1.976   3.141   2.672  0.0913  0.0817  0.8390
 3901TIP3   OH211666   3.801   0.148   3.668  0.1134  0.3721 -1.0102
 3901TIP3    H111667   3.796   0.232   3.622 -1.0703  1.3026  0.6949
 3901TIP3    H211668   3.752   0.087   3.613 -0.6696  1.2696 -1.3308
 3902TIP3   OH211669   3.657   0.633   4.735  0.0278 -0.2207 -0.0445
 3902TIP3    H111670   3.670   0.652   4.827  1.2291  2.5804 -0.7006
 3902TIP3    H211671   3.746   0.624   4.699 -0.3791 -0.0892 -1.1265
 3903TIP3   OH211672   2.045   6.143   4.368 -0.1817  0.0192  0.0529
 3903TIP3    H111673   2.097   6.081   4.317 -1.1254  0.2756 -1.2430
 3903TIP3    H211674   2.061   6.117   4.459  2.2488  0.1227 -0.2653
 3904TIP3   OH211675   3.186   3.591   3.466 -0.5201  0.3204 -0.0449
 3904TIP3    H111676   3.159   3.678   3.436  0.5075 -0.1329 -2.5469
 3904TIP3    H211677   3.114   3.533   3.439 -0.2426  0.0964 -0.2992
 3905TIP3   OH211678   0.205   6.560   4.680 -0.1273 -0.5080  0.2333
 3905TIP3    H111679   0.282   6.506   4.694  0.5376  0.7173  1.5955
 3905TIP3    H211680   0.182   6.547   4.588  1.7145 -0.8891 -0.2020
 3906TIP3   OH211681   6.472   5.570   3.197 -0.0617  0.2427  0.1603
 3906TIP3    H111682   6.449   5.630   3.268 -0.8533 -0.7470  0.7860
 3906TIP3    H211683   6.437   5.485   3.226 -0.0795 -0.2602 -1.2564
 3907TIP3   OH211684   3.095   5.294   0.642  0.2618 -0.2836  0.1822
 3907TIP3    H111685   3.089   5.198   0.637 -2.1089 -0.2016  0.2060
 3907TIP3    H211686   3.072   5.314   0.733 -0.4596  0.3393 -0.1272
 3908TIP3   OH211687   0.628   4.817   3.683  0.0252 -0.2392  0.3353
 3908TIP3    H111688   0.708   4.800   3.634 -0.6065 -0.5568 -0.6002
 3908TIP3    H211689   0.628   4.749   3.751 -0.3217 -1.3550 -0.7421
 3909TIP3   OH211690   4.860   6.567   2.083 -0.7181  0.7529  0.2663
 3909TIP3    H111691   4.828   6.539   2.169 -0.4621  1.0726  0.4685
 3909TIP3    H211692   4.803   6.523   2.020  0.1231 -0.8330  0.5533
 3910TIP3   OH211693   1.860   3.398   0.996  0.4909 -0.4341 -0.3146
 3910TIP3    H111694   1.804   3.475   1.000 -1.0356 -1.4528 -1.0497
 3910TIP3    H211695   1.935   3.425   0.944  1.4692  1.3788  1.8496
 3911TIP3   OH211696   2.586   0.055   2.226 -0.1047 -0.5136 -0.1209
 3911TIP3    H111697   2.603   0.038   2.134  1.9904  0.3270  0.0530
 3911TIP3    H211698   2.650   0.001   2.273 -1.2302 -1.0425  0.8792
 3912TIP3   OH211699   2.901   0.827   3.777 -0.6411  0.2139  0.0869
 3912TIP3    H111700   2.829   0.839   3.715 -0.3808 -0.5783 -0.3758
 3912TIP3    H211701   2.943   0.745   3.751  0.5669  0.7636  0.2143
 3913TIP3   OH211702   6.215   5.825   3.866  0.0512  0.7382 -0.0653
 3913TIP3    H111703   6.207   5.843   3.773 -0.6728 -0.3767 -0.2409
 3913TIP3    H211704   6.139   5.770   3.886  0.7287  0.1467  0.9676
 3914TIP3   OH211705   4.385   1.800   1.984 -0.0001 -0.3737 -0.0111
 3914TIP3    H111706   4.456   1.842   1.936 -2.1087  3.0171 -0.4708
 3914TIP3    H211707   4.355   1.730   1.926  1.3404 -0.2645 -0.8827
 3915TIP3   OH211708   6.160   6.097   2.222  0.4280  0.3427  0.2195
 3915TIP3    H111709   6.228   6.053   2.171  0.9125  0.8062  0.4531
 3915TIP3    H211710   6.161   6.052   2.306 -0.7195 -0.7580 -0.3239
 3916TIP3   OH211711   6.836   3.366   3.265 -0.3095  0.2158  0.0116
 3916TIP3    H111712   6.795   3.376   3.179 -0.3166 -0.8716 -0.1251
 3916TIP3    H211713   6.930   3.378   3.248 -0.3089 -0.0215 -0.1510
 3917TIP3   OH211714   7.088   6.461   5.400 -0.3318 -0.1104  0.1395
 3917TIP3    H111715   7.073   6.423   5.487 -1.1642  0.5346  0.2911
 3917TIP3    H211716   7.019   6.424   5.345  1.5354 -2.3225 -0.8667
 3918TIP3   OH211717   5.959   2.582   5.452  0.1907 -0.0247 -0.4595
 3918TIP3    H111718   5.881   2.637   5.446 -0.2594 -0.7060 -0.9536
 3918TIP3    H211719   6.013   2.609   5.377 -0.8676 -1.5083 -1.8195
 3919TIP3   OH211720   6.429   0.933   3.666 -0.0362  0.1022 -0.1419
 3919TIP3    H111721   6.404   0.857   3.614  0.0272 -0.3260  0.4450
 3919TIP3    H211722   6.482   0.898   3.737  1.6068  0.9072 -0.9151
 3920TIP3   OH211723   2.487   6.010   0.274  0.0840  0.2124  0.0344
 3920TIP3    H111724   2.413   6.072   0.277  0.3059  0.4584  0.7269
 3920TIP3    H211725   2.472   5.952   0.349 -0.7720 -1.3552 -1.2906
 3921TIP3   OH211726   2.058   2.118   2.003 -0.1759 -0.4224 -0.6855
 3921TIP3    H111727   1.987   2.084   1.948 -0.4082 -1.6371  0.3122
 3921TIP3    H211728   2.130   2.134   1.943 -0.3791 -1.8300 -1.3524
 3922TIP3   OH211729   6.961   3.808   1.335 -0.2710  0.1692  0.4895
 3922TIP3    H111730   6.972   3.903   1.338  2.0792 -0.0151 -0.3456
 3922TIP3    H211731   7.016   3.776   1.407 -0.0327 -0.6163 -0.0342
 3923TIP3   OH211732   1.448   2.958   0.561 -0.5414  0.2240  0.5742
 3923TIP3    H111733   1.412   3.002   0.638  2.1671  2.2109  0.8661
 3923TIP3    H211734   1.531   2.922   0.592  1.0933  1.9341 -1.5617
 3924TIP3   OH211735   0.552   6.302   0.004 -0.1109 -0.2124 -0.5089
 3924TIP3    H111736   0.506   6.385  -0.010  0.2081  0.0333 -0.1393
 3924TIP3    H211737   0.533   6.280   0.095  0.3163 -0.2219 -0.4217
 3925TIP3   OH211738   6.622   2.082   2.209 -0.0533 -0.0326  0.1308
 3925TIP3    H111739   6.612   2.012   2.273  0.6156 -0.0364  0.2407
 3925TIP3    H211740   6.626   2.163   2.261  0.1236 -0.0015  0.0687
 3926TIP3   OH211741   0.987   5.299   1.610 -0.0386 -0.0878 -0.0508
 3926TIP3    H111742   0.905   5.330   1.649  0.8347  0.8752  1.1148
 3926TIP3    H211743   1.049   5.297   1.683  1.1519 -0.1801 -1.0281
 3927TIP3   OH211744   6.115   5.982   2.769 -0.0097 -0.3975  0.0814
 3927TIP3    H111745   6.091   6.065   2.809 -0.6576 -1.1183  1.2689
 3927TIP3    H211746   6.204   5.995   2.736 -0.3298  0.9387 -0.2968
 3928TIP3   OH211747   7.091   5.828   3.892 -0.2449 -0.0134 -0.4310
 3928TIP3    H111748   7.047   5.892   3.949  1.3292  1.0353 -0.3233
 3928TIP3    H211749   7.165   5.798   3.944 -0.4440 -1.2471 -0.8490
 3929TIP3   OH211750   5.770   2.539   0.274  0.1547 -0.0920 -0.1872
 3929TIP3    H111751   5.864   2.531   0.256  0.2362  1.1170 -0.4193
 3929TIP3    H211752   5.758   2.632   0.293 -0.9142 -0.3307  0.3717
 3930TIP3   OH211753   5.935   1.560   1.951  0.0366  0.0834 -0.0147
 3930TIP3    H111754   5.859   1.610   1.980 -0.1643 -0.3734  0.2555
 3930TIP3    H211755   5.957   1.597   1.865  0.4699  1.2565  0.5864
 3931TIP3   OH211756   3.587   6.696   3.773 -0.1668 -0.0399  0.3671
 3931TIP3    H111757   3.677   6.676   3.799  0.0452  0.9638  0.4737
 3931TIP3    H211758   3.540   6.708   3.856 -0.1868  0.3039  0.3074
 3932TIP3   OH211759   6.012   1.491   4.249 -0.5813  0.0850  0.3568
 3932TIP3    H111760   6.037   1.575   4.212 -0.4018 -0.3403 -0.5145
 3932TIP3    H211761   6.090   1.436   4.240 -1.0781 -0.5454 -0.2214
 3933TIP3   OH211762   2.132   5.340   5.255 -0.2347  0.2371  0.1668
 3933TIP3    H111763   2.050   5.290   5.260 -1.0251  1.4665 -0.1197
 3933TIP3    H211764   2.105   5.431   5.266  1.0695  0.6903 -0.2283
 3934TIP3   OH211765   2.109   3.846   4.733  0.1744 -0.5015  0.1279
 3934TIP3    H111766   2.096   3.845   4.828  0.3040 -0.7016  0.1437
 3934TIP3    H211767   2.164   3.770   4.715 -1.8703 -1.9415 -0.3986
 3935TIP3   OH211768   1.588   1.037   3.249  0.4046 -0.3330  0.7557
 3935TIP3    H111769   1.501   1.068   3.273  0.6920 -0.1411  1.5586
 3935TIP3    H211770   1.578   0.942   3.239 -0.1908 -0.1653 -0.4870
 3936TIP3   OH211771   2.961   4.014   2.961 -0.2873  0.4461 -0.5122
 3936TIP3    H111772   2.874   3.992   2.994 -0.1640 -0.3381 -0.6854
 3936TIP3    H211773   2.993   3.933   2.922  0.2435  0.9145 -1.0690
 3937TIP3   OH211774   7.110   6.285   3.822 -0.2661 -0.1186  0.2769
 3937TIP3    H111775   7.124   6.206   3.770  2.3373  1.0242 -0.9262
 3937TIP3    H211776   7.196   6.309   3.854 -1.4252  0.6603  3.1219
 3938TIP3   OH211777   5.268   3.873   4.893  0.2340 -0.3390  0.2492
 3938TIP3    H111778   5.244   3.798   4.838 -0.7543 -0.2825  0.5782
 3938TIP3    H211779   5.351   3.903   4.857 -0.8870  0.3641 -1.9546
 3939TIP3   OH211780   2.739   0.661   4.810 -0.7474  0.0589  0.0677
 3939TIP3    H111781   2.830   0.637   4.790 -0.3867  1.4462 -0.0710
 3939TIP3    H211782   2.742   0.691   4.901 -1.0005  0.4375 -0.0485
 3940TIP3   OH211783   1.663   4.382   3.274 -0.8112  0.1143 -0.2653
 3940TIP3    H111784   1.632   4.375   3.184  1.8873  1.0937 -1.3815
 3940TIP3    H211785   1.660   4.476   3.293 -0.5387 -0.0001  0.3569
 3941TIP3   OH211786   6.336   6.265   1.073 -0.0320 -0.8576 -0.5537
 3941TIP3    H111787   6.401   6.256   1.142 -0.4987 -0.2709 -0.0249
 3941TIP3    H211788   6.385   6.249   0.992  0.8409 -0.1320 -0.1891
 3942TIP3   OH211789   4.692   6.410   4.833  0.2598 -0.0009  0.0364
 3942TIP3    H111790   4.631   6.423   4.906  0.9998 -1.4598  0.9571
 3942TIP3    H211791   4.644   6.442   4.757 -0.1627  2.4764  1.2463
 3943TIP3   OH211792   6.079   4.788   3.846 -0.0760  0.4219 -1.1258
 3943TIP3    H111793   6.096   4.761   3.937 -0.9497  1.6153 -0.5883
 3943TIP3    H211794   5.992   4.828   3.849 -0.1382  0.4299 -2.5155
 3944TIP3   OH211795   4.489   2.444   5.852 -0.0240 -0.5484 -0.2370
 3944TIP3    H111796   4.513   2.357   5.822 -0.4274 -0.4128 -0.9692
 3944TIP3    H211797   4.478   2.496   5.772 -0.6811 -0.0713  0.1442
 3945TIP3   OH211798   2.729   4.466   1.643 -0.4239 -0.0208 -0.1649
 3945TIP3    H111799   2.767   4.385   1.674 -0.4338 -0.0674 -0.2720
 3945TIP3    H211800   2.757   4.472   1.551 -2.1566 -0.9591 -0.7934
 3946TIP3   OH211801   3.558   4.701   2.744 -0.0299  0.3134 -0.6204
 3946TIP3    H111802   3.597   4.709   2.831 -0.4854  2.1301 -0.5525
 3946TIP3    H211803   3.595   4.620   2.709  2.0926  0.8107  0.3007
 3947TIP3   OH211804   1.016   1.470   0.773  0.1266 -0.4684  0.0637
 3947TIP3    H111805   1.068   1.529   0.718  0.2333  1.2221  1.8758
 3947TIP3    H211806   0.948   1.525   0.810  0.2130 -1.4717  1.8340
 3948TIP3   OH211807   1.997   1.286   3.671  0.2489 -0.1915  0.4505
 3948TIP3    H111808   1.942   1.359   3.643  0.4496 -0.6048 -1.1676
 3948TIP3    H211809   2.040   1.317   3.750 -1.2121  0.6701  0.9558
 3949TIP3   OH211810   6.225   6.296   1.883  0.1166  0.2932 -0.1707
 3949TIP3    H111811   6.254   6.210   1.853 -1.7498 -0.9073  1.2511
 3949TIP3    H211812   6.292   6.323   1.946 -1.1387 -1.9555  2.2973
 3950TIP3   OH211813   2.774   2.849   5.191 -0.2336  1.2014 -0.0176
 3950TIP3    H111814   2.705   2.785   5.205 -0.1884  0.5075 -2.5115
 3950TIP3    H211815   2.740   2.931   5.227 -1.6992  0.5260  0.1730
 3951TIP3   OH211816   2.678   1.110  -0.005  0.1127 -0.1190 -0.0044
 3951TIP3    H111817   2.644   1.022   0.015  0.4714 -0.5421 -1.2157
 3951TIP3    H211818   2.602   1.167   0.004 -0.5199 -0.7965 -0.8516
 3952TIP3   OH211819   5.953   6.137   3.473 -0.4826  0.2713  0.0725
 3952TIP3    H111820   6.047   6.151   3.488 -0.5800  0.7777  0.2277
 3952TIP3    H211821   5.915   6.135   3.561 -0.7535  1.0599 -0.0234
 3953TIP3   OH211822   6.225   2.652   0.830  0.3605 -0.0861  0.2219
 3953TIP3    H111823   6.161   2.673   0.762  1.1795 -2.4413 -1.3958
 3953TIP3    H211824   6.185   2.580   0.879 -0.1894  1.5312  2.3050
 3954TIP3   OH211825   3.142   2.467   4.219  0.6046 -0.0204  0.3394
 3954TIP3    H111826   3.095   2.385   4.208 -2.2523  1.7124 -1.7425
 3954TIP3    H211827   3.172   2.489   4.130  1.6062  1.0325  0.9125
 3955TIP3   OH211828   5.390   3.142   0.306  0.3476  0.0822  0.0649
 3955TIP3    H111829   5.449   3.193   0.362 -0.3128 -0.9129  1.7239
 3955TIP3    H211830   5.350   3.207   0.249  0.1212  1.3400  1.5804
 3956TIP3   OH211831   7.048   6.371   4.341  0.2974  0.3249 -0.0382
 3956TIP3    H111832   7.109   6.360   4.414 -0.8761 -1.0652  0.7698
 3956TIP3    H211833   6.968   6.406   4.381  0.1654  1.0689 -0.9133
 3957TIP3   OH211834   4.590   6.143   2.173 -0.2730 -0.6105 -0.4908
 3957TIP3    H111835   4.568   6.121   2.264  0.9210  1.2462  0.3013
 3957TIP3    H211836   4.523   6.205   2.146  1.3977  1.7683  0.4851
 3958TIP3   OH211837   2.469   4.324   0.199 -0.2444  0.1125 -0.0236
 3958TIP3    H111838   2.520   4.278   0.265  1.7101  0.7030 -1.0424
 3958TIP3    H211839   2.527   4.330   0.123 -2.3380 -0.3930 -1.7683
 3959TIP3   OH211840   0.511   4.096   0.671 -0.5050  0.7023  0.2328
 3959TIP3    H111841   0.453   4.042   0.618  1.4159 -1.1795 -0.0882
 3959TIP3    H211842   0.503   4.184   0.633 -2.9960  0.5090  0.1554
 3960TIP3   OH211843   6.764   0.541   2.221 -0.3101 -0.2488 -0.3725
 3960TIP3    H111844   6.781   0.456   2.180 -0.8477 -0.3350 -0.4176
 3960TIP3    H211845   6.704   0.585   2.161 -1.8110 -0.7226  0.7386
 3961TIP3   OH211846   4.983   2.970   1.719 -0.0736  0.4616 -0.2129
 3961TIP3    H111847   4.888   2.977   1.730  0.0619 -0.0244  1.5388
 3961TIP3    H211848   5.016   3.057   1.742 -0.0835  0.6295 -0.8186
 3962TIP3   OH211849   3.601   0.751   2.611  0.3323 -0.4196  0.6143
 3962TIP3    H111850   3.532   0.701   2.566  1.8959 -1.1920 -1.0324
 3962TIP3    H211851   3.666   0.685   2.635  1.9158  0.6310 -0.5904
 3963TIP3   OH211852   0.316   0.997   1.066  0.2372  0.4195 -0.1519
 3963TIP3    H111853   0.251   1.066   1.057  1.1879  1.4866  0.7991
 3963TIP3    H211854   0.304   0.963   1.155 -0.7647 -1.2595 -0.8800
 3964TIP3   OH211855   7.002   3.862   0.419  0.0650 -0.1996 -0.0061
 3964TIP3    H111856   6.970   3.815   0.496  0.5582 -0.6661 -0.0807
 3964TIP3    H211857   7.090   3.890   0.443 -0.6863  1.8241  0.5204
 3965TIP3   OH211858   4.425   4.501   5.748 -0.1567  0.2434  0.4782
 3965TIP3    H111859   4.394   4.583   5.711 -0.7729 -0.0018  0.4380
 3965TIP3    H211860   4.358   4.437   5.725  0.6690 -0.4359 -0.1270
 3966TIP3   OH211861   2.540   0.483   2.923 -0.2824 -0.1746 -0.5781
 3966TIP3    H111862   2.558   0.421   2.993  0.0483  0.2447 -0.2876
 3966TIP3    H211863   2.502   0.559   2.967  1.1665  0.6354 -0.6745
 3967TIP3   OH211864   2.598   0.038   2.498  0.5297 -0.2944 -0.3407
 3967TIP3    H111865   2.637   0.117   2.536  1.8446 -0.2171 -1.7830
 3967TIP3    H211866   2.589   0.058   2.405 -1.4596 -0.9464 -0.3225
 3968TIP3   OH211867   3.203   6.616   5.264  0.2517 -0.1589  0.1902
 3968TIP3    H111868   3.278   6.666   5.297  0.7466 -1.2965  0.8542
 3968TIP3    H211869   3.145   6.608   5.339  1.1355 -2.3094  0.7072
 3969TIP3   OH211870   5.739   0.960   4.905 -0.0516  0.3206  0.0643
 3969TIP3    H111871   5.770   1.034   4.853 -0.2177  0.0525 -0.4274
 3969TIP3    H211872   5.788   0.885   4.871 -1.2117 -0.1075 -0.7169
 3970TIP3   OH211873   3.122   2.616   0.095 -0.2002 -0.1127  0.0567
 3970TIP3    H111874   3.193   2.680   0.090  0.0103 -0.4060 -0.9460
 3970TIP3    H211875   3.164   2.535   0.124 -0.5249  0.2635  1.6638
 3971TIP3   OH211876   6.449   0.806   5.399 -0.3127 -0.2191  0.4256
 3971TIP3    H111877   6.445   0.762   5.314  0.3566 -0.3875  0.4756
 3971TIP3    H211878   6.412   0.893   5.383 -4.1960 -1.5743  0.8959
 3972TIP3   OH211879   4.188   3.672   1.229  0.1293  0.1483  0.1215
 3972TIP3    H111880   4.099   3.657   1.262  0.5316  1.6484  2.0880
 3972TIP3    H211881   4.180   3.744   1.168 -0.4630 -1.9844 -2.5089
 3973TIP3   OH211882   2.980   3.372   5.692  0.1163 -0.0718 -0.0734
 3973TIP3    H111883   2.932   3.436   5.640  0.4246 -0.0344 -0.3148
 3973TIP3    H211884   3.055   3.347   5.637  0.2123 -0.3464  0.1775
 3974TIP3   OH211885   3.388   6.568   5.854  0.3884  0.2333  0.2143
 3974TIP3    H111886   3.434   6.577   5.771  1.4276  1.5933  0.8849
 3974TIP3    H211887   3.455   6.536   5.915  0.4496  2.0427  1.1654
 3975TIP3   OH211888   5.053   3.684   4.055  0.4200  0.6610  0.0732
 3975TIP3    H111889   5.095   3.602   4.081  1.0538  0.8426 -0.3637
 3975TIP3    H211890   5.125   3.745   4.041 -0.0586  1.3730  0.6488
 3976TIP3   OH211891   2.459   0.198   4.800 -0.9490  0.4637 -0.1150
 3976TIP3    H111892   2.547   0.163   4.814 -0.4270  1.4500 -0.8233
 3976TIP3    H211893   2.410   0.124   4.764 -0.3986 -0.0849  0.2438
 3977TIP3   OH211894   6.210   4.914   4.439  0.3407  0.6581  0.7012
 3977TIP3    H111895   6.277   4.980   4.458 -0.4814  1.4305  0.9542
 3977TIP3    H211896   6.260   4.836   4.414  1.4221  0.4928  3.1322
 3978TIP3   OH211897   2.877   5.611   0.016 -0.2423  0.3287 -0.0315
 3978TIP3    H111898   2.953   5.601  -0.042 -1.4154  1.1677 -1.8032
 3978TIP3    H211899   2.901   5.563   0.095  1.5635 -0.6043 -1.0693
 3979TIP3   OH211900   2.487   5.275   1.246  0.4096 -0.0153  0.1764
 3979TIP3    H111901   2.441   5.264   1.163 -0.2396  1.7637  0.2442
 3979TIP3    H211902   2.578   5.255   1.226  0.5316  1.7775 -1.3805
 3980TIP3   OH211903   2.529   5.984   4.617  0.2023  0.3603  0.0738
 3980TIP3    H111904   2.616   6.008   4.651 -0.4465  1.4956  1.0007
 3980TIP3    H211905   2.543   5.900   4.573  2.0730  1.1757 -1.0439
 3981TIP3   OH211906   3.768   6.540   5.863  0.1861 -0.5601  0.1543
 3981TIP3    H111907   3.779   6.625   5.820 -1.5231 -0.6132 -0.4709
 3981TIP3    H211908   3.773   6.559   5.956  0.2558  0.1579  0.0103
 3982TIP3   OH211909   0.385   4.937   4.974  0.0553  0.0856 -0.0883
 3982TIP3    H111910   0.421   4.990   4.903 -3.3255  0.0175 -2.0118
 3982TIP3    H211911   0.374   4.850   4.936 -0.0945 -0.4648  1.1585
 3983TIP3   OH211912   4.033   2.678   2.874  0.4544  0.0047  0.2132
 3983TIP3    H111913   4.102   2.699   2.938  1.6696 -1.3803 -0.6037
 3983TIP3    H211914   4.080   2.658   2.793 -0.8654 -1.4982 -0.2292
 3984TIP3   OH211915   3.192   3.290   1.386 -0.2524 -0.2690  0.2954
 3984TIP3    H111916   3.257   3.243   1.333 -1.1595 -2.1448  0.7721
 3984TIP3    H211917   3.232   3.297   1.472 -0.8778 -1.9673  0.7549
 3985TIP3   OH211918   2.706   0.620   0.391 -0.1354  0.2798 -0.4913
 3985TIP3    H111919   2.790   0.588   0.357  0.3345  0.9872 -0.0201
 3985TIP3    H211920   2.729   0.693   0.447 -0.8155 -1.2590  1.9656
 3986TIP3   OH211921   1.242   5.396   1.817  0.4670  0.0146 -0.9059
 3986TIP3    H111922   1.209   5.483   1.839  1.2119 -0.1374  1.0000
 3986TIP3    H211923   1.332   5.396   1.848  1.1278 -0.7985 -2.6884
 3987TIP3   OH211924   3.606   1.315   5.431 -0.3649 -0.0286  0.0079
 3987TIP3    H111925   3.554   1.391   5.456  0.8852  0.2070  2.1611
 3987TIP3    H211926   3.649   1.341   5.350  2.5983  3.0281  2.2868
 3988TIP3   OH211927   5.468   5.135   4.438  0.1045  0.3682 -0.0042
 3988TIP3    H111928   5.541   5.074   4.448  2.2348  2.2102 -2.9307
 3988TIP3    H211929   5.497   5.215   4.481 -0.6699  0.8100 -0.2762
 3989TIP3   OH211930   3.065   6.263   3.434  0.6916 -0.3863  0.2602
 3989TIP3    H111931   3.047   6.171   3.449  0.2761 -0.4041 -0.3296
 3989TIP3    H211932   2.980   6.306   3.438  1.0014  0.1463  1.6607
 3990TIP3   OH211933   5.984   1.820   3.602  0.4262  0.0527  0.1040
 3990TIP3    H111934   6.026   1.762   3.667  1.4057  0.7163  0.0856
 3990TIP3    H211935   5.982   1.768   3.522 -0.3773 -0.6110  0.5354
 3991TIP3   OH211936   2.307   0.412   4.158 -0.2976  0.1505  0.6934
 3991TIP3    H111937   2.318   0.480   4.224  2.4772  0.0107  0.5105
 3991TIP3    H211938   2.341   0.450   4.077 -1.8290 -0.3491 -0.2348
 3992TIP3   OH211939   2.470   0.970   5.057  0.0721  0.2155  0.2442
 3992TIP3    H111940   2.499   0.881   5.037 -1.4629 -0.0071 -1.1849
 3992TIP3    H211941   2.436   0.964   5.147 -1.6941 -1.1322 -0.4491
 3993TIP3   OH211942   2.451   5.214   3.796  0.1120  0.3844  0.3727
 3993TIP3    H111943   2.407   5.251   3.873 -1.8896 -0.4270 -0.3146
 3993TIP3    H211944   2.444   5.119   3.808  1.3218  0.2436  0.0147
 3994TIP3   OH211945   4.999   2.522   3.566  0.0407  0.6302 -0.2480
 3994TIP3    H111946   5.061   2.477   3.623 -0.0012  0.3647 -0.4137
 3994TIP3    H211947   4.986   2.607   3.609  2.5470  1.7976 -1.5570
 3995TIP3   OH211948   2.053   6.737   4.746 -0.1750 -0.6091  0.3852
 3995TIP3    H111949   2.066   6.791   4.667 -0.2528  0.5355  1.1304
 3995TIP3    H211950   2.090   6.652   4.723 -0.6260 -0.4546 -1.0569
 3996TIP3   OH211951   1.780   4.095   3.773 -0.2512  0.2080 -0.0030
 3996TIP3    H111952   1.771   4.126   3.863 -0.5781  1.8380 -0.5563
 3996TIP3    H211953   1.875   4.088   3.759 -0.1674  0.8791  0.1901
 3997TIP3   OH211954   5.529   0.316   0.338  0.1412  0.3309  0.0899
 3997TIP3    H111955   5.563   0.244   0.392  0.2487  0.5258  0.2815
 3997TIP3    H211956   5.562   0.297   0.250 -1.6260 -1.0548 -0.3404
 3998TIP3   OH211957   1.863   0.404   3.423  0.2399  0.2172 -0.0710
 3998TIP3    H111958   1.883   0.468   3.491  1.0896 -0.8666  0.7293
 3998TIP3    H211959   1.804   0.342   3.467 -1.0901  0.7598 -1.0205
 3999TIP3   OH211960   4.832   1.562   0.742 -0.0013 -0.2417 -0.1737
 3999TIP3    H111961   4.910   1.546   0.688  0.0153 -1.5330  0.2099
 3999TIP3    H211962   4.859   1.540   0.831 -0.6685 -0.2648  0.0283
 4000TIP3   OH211963   0.771   1.469   2.747  0.2554 -0.4103  0.3512
 4000TIP3    H111964   0.820   1.460   2.665  2.9878  0.6570  1.7318
 4000TIP3    H211965   0.792   1.391   2.797 -0.5398 -0.5523  0.4830
 4001TIP3   OH211966   4.003   2.861   0.543 -0.2903  0.1562 -0.1632
 4001TIP3    H111967   4.025   2.824   0.628 -0.9771 -1.7852 -0.7990
 4001TIP3    H211968   3.978   2.952   0.563  3.3226  1.0332  1.1931
 4002TIP3   OH211969   1.522   5.404   1.877  0.4216  0.4238  0.7030
 4002TIP3    H111970   1.576   5.328   1.900 -0.3278 -0.4286 -0.2245
 4002TIP3    H211971   1.569   5.446   1.805 -1.5027 -2.0954 -2.2742
 4003TIP3   OH211972   2.185   6.782   5.794  0.0605  0.0593 -0.4899
 4003TIP3    H111973   2.119   6.831   5.842 -0.0032 -0.6315  0.1454
 4003TIP3    H211974   2.206   6.708   5.851  0.5431 -0.3541 -1.1906
 4004TIP3   OH211975   0.915   2.373   4.733  0.1513  0.3861 -0.2649
 4004TIP3    H111976   0.969   2.447   4.705 -0.3927  0.3240 -1.5359
 4004TIP3    H211977   0.845   2.368   4.668 -1.6176  0.6693  1.4880
 4005TIP3   OH211978   2.029   1.504   2.277  0.2551  0.0555  0.2936
 4005TIP3    H111979   2.080   1.433   2.317  1.2422  0.0771 -0.8769
 4005TIP3    H211980   2.052   1.581   2.329  0.5190 -0.1531  0.4976
 4006TIP3   OH211981   4.318   3.672   5.076 -0.0782 -0.7272  0.2082
 4006TIP3    H111982   4.323   3.684   4.982 -1.9537 -1.5763 -0.0488
 4006TIP3    H211983   4.322   3.761   5.111  0.7606 -0.4144 -0.6443
 4007TIP3   OH211984   4.051   6.748   4.025 -0.4041  0.0987  0.0662
 4007TIP3    H111985   4.009   6.834   4.030 -0.5492  0.1808 -1.7426
 4007TIP3    H211986   4.060   6.732   3.931 -1.3161 -2.3332  0.3310
 4008TIP3   OH211987   1.768   4.300   0.891  0.0076 -0.0909  0.2129
 4008TIP3    H111988   1.707   4.370   0.868  0.6588  0.2811 -0.4373
 4008TIP3    H211989   1.844   4.344   0.928  0.0084 -0.5329  0.7656
 4009TIP3   OH211990   4.212   6.739   2.732  0.0724  0.6191  0.5210
 4009TIP3    H111991   4.268   6.756   2.657 -1.1415 -0.6315 -0.7200
 4009TIP3    H211992   4.146   6.677   2.700 -0.4406 -0.0219  2.6294
 4010TIP3   OH211993   1.296   3.922   4.772 -0.3470 -0.3969 -0.0124
 4010TIP3    H111994   1.258   4.009   4.764 -0.2595 -0.3679 -0.1068
 4010TIP3    H211995   1.385   3.937   4.802 -0.6903 -0.5056  1.1064
 4011TIP3   OH211996   5.500   5.887   1.241  0.2089 -0.2505 -0.2186
 4011TIP3    H111997   5.587   5.886   1.282  0.9766  0.7549 -1.7210
 4011TIP3    H211998   5.518   5.906   1.149 -1.5973 -0.4017 -0.6270
 4012TIP3   OH211999   4.905   2.316   5.504 -0.2825 -0.3189 -0.1167
 4012TIP3    H112000   4.980   2.375   5.495 -1.2292  1.0656  0.5804
 4012TIP3    H212001   4.928   2.258   5.577  0.6245 -0.7740 -0.7487
 4013TIP3   OH212002   7.190   6.701   2.624  0.2260  0.2650 -0.1036
 4013TIP3    H112003   7.132   6.773   2.600 -0.2237 -0.4591 -1.2956
 4013TIP3    H212004   7.275   6.725   2.586 -0.3597 -0.6328 -2.1420
 4014TIP3   OH212005   2.075   1.091   2.407  0.1815  0.1616 -0.6086
 4014TIP3    H112006   2.143   1.060   2.347  1.4267  1.4511  0.0705
 4014TIP3    H212007   2.119   1.157   2.461 -1.2004 -0.1214  0.9451
 4015TIP3   OH212008   0.433   6.454   5.005 -0.8060 -0.3019  0.2445
 4015TIP3    H112009   0.367   6.480   5.070 -0.8809  2.3383 -0.7551
 4015TIP3    H212010   0.384   6.405   4.939 -1.6787  0.9832 -0.1112
 4016TIP3   OH212011   3.327   5.843   3.313  0.3995 -0.2452 -0.4191
 4016TIP3    H112012   3.368   5.920   3.354  1.4607  0.1377 -2.0908
 4016TIP3    H212013   3.337   5.858   3.219  0.4362 -2.3317 -0.8008
 4017TIP3   OH212014   4.193   5.431   5.652  0.4329  0.2641  0.0247
 4017TIP3    H112015   4.133   5.494   5.692  0.7260  0.0319  0.8661
 4017TIP3    H212016   4.194   5.454   5.560 -2.0022 -0.5473 -0.2888
 4018TIP3   OH212017   6.074   2.437   0.953 -0.5358  0.1393  0.1105
 4018TIP3    H112018   5.979   2.434   0.963 -0.5805 -0.0692 -0.3241
 4018TIP3    H212019   6.106   2.362   1.003 -0.6758 -0.3263 -0.4858
 4019TIP3   OH212020   1.641   0.066   0.097  0.0148  0.0814 -0.1738
 4019TIP3    H112021   1.680  -0.011   0.138 -1.1957 -0.1567  0.5717
 4019TIP3    H212022   1.568   0.033   0.045 -0.6316  0.7315  0.2976
 4020TIP3   OH212023   1.418   0.850   0.651 -0.2592 -0.3349 -0.0204
 4020TIP3    H112024   1.473   0.798   0.709 -1.0648 -1.0447  0.1349
 4020TIP3    H212025   1.351   0.789   0.621  0.1150  0.0291 -1.6812
 4021TIP3   OH212026   5.564   3.353   3.721 -0.0803  0.1905 -0.2439
 4021TIP3    H112027   5.495   3.385   3.663  1.0863 -1.4342 -2.6895
 4021TIP3    H212028   5.546   3.260   3.732  0.4784  0.2007  0.9570
 4022TIP3   OH212029   6.214   4.094   4.114 -0.1247 -0.3773 -0.1648
 4022TIP3    H112030   6.147   4.161   4.123  0.4506  0.1412  0.3908
 4022TIP3    H212031   6.274   4.111   4.187  1.5046  0.2130 -1.5863
 4023TIP3   OH212032   3.033   4.393   4.250 -0.3841 -0.4366 -0.2414
 4023TIP3    H112033   3.111   4.390   4.307 -0.6376  1.1286  0.2461
 4023TIP3    H212034   3.047   4.323   4.187  1.8756  0.3440 -0.7151
 4024TIP3   OH212035   5.816   6.543   0.735 -0.4441  0.3418 -0.3740
 4024TIP3    H112036   5.831   6.620   0.790 -0.1424 -0.6060  0.9064
 4024TIP3    H212037   5.736   6.504   0.770 -1.0529  0.5120 -1.5445
 4025TIP3   OH212038   0.395   1.570   4.462  0.4831 -0.1921  0.1562
 4025TIP3    H112039   0.300   1.566   4.475  0.3643  0.9281 -0.2738
 4025TIP3    H212040   0.416   1.488   4.417  0.0318 -1.3965  2.0281
 4026TIP3   OH212041   3.849   3.689   2.929  0.1289 -0.2499 -0.4095
 4026TIP3    H112042   3.833   3.768   2.981 -0.3926 -0.5380 -0.1151
 4026TIP3    H212043   3.784   3.694   2.858 -0.9670 -1.1665  0.4880
 4027TIP3   OH212044   4.085   2.596   1.808 -0.3136  0.2887  0.0154
 4027TIP3    H112045   4.022   2.549   1.861 -1.0394  0.3137 -0.8003
 4027TIP3    H212046   4.099   2.679   1.854 -0.5088  0.0808  0.4478
 4028TIP3   OH212047   3.226   0.348   0.870 -0.0076  0.4086 -0.5541
 4028TIP3    H112048   3.248   0.372   0.780 -0.2425  0.0711 -0.7011
 4028TIP3    H212049   3.288   0.399   0.923 -0.1329  0.9214 -0.8844
 4029TIP3   OH212050   0.106   1.284   2.145 -0.6479  0.2205 -0.3549
 4029TIP3    H112051   0.095   1.241   2.060 -0.6375 -0.8375  0.1687
 4029TIP3    H212052   0.017   1.293   2.179 -0.6480  0.5998 -0.4546
 4030TIP3   OH212053   1.815   0.854   4.121  0.0742 -0.0629 -0.0218
 4030TIP3    H112054   1.799   0.946   4.140  1.2026  0.0069  0.6879
 4030TIP3    H212055   1.728   0.813   4.124 -0.2429  0.6673  1.3942
 4031TIP3   OH212056   3.651   1.164   4.303 -0.2259 -0.0282 -0.4855
 4031TIP3    H112057   3.746   1.177   4.297  0.2489 -1.1555  2.8889
 4031TIP3    H212058   3.618   1.248   4.335 -0.1369 -0.1899  0.0279
 4032TIP3   OH212059   1.680   3.448   4.678 -0.1602 -0.1907  0.0302
 4032TIP3    H112060   1.692   3.460   4.584 -2.2981 -0.9118 -0.3769
 4032TIP3    H212061   1.768   3.459   4.715  0.5019  1.4943 -1.8708
 4033TIP3   OH212062   2.975   5.050   1.383  0.4450  0.2370 -0.8511
 4033TIP3    H112063   2.993   4.993   1.457  1.1590  0.8162 -0.5740
 4033TIP3    H212064   2.893   5.016   1.346  0.8660 -0.9656 -0.7003
 4034TIP3   OH212065   3.224   2.491   2.930  0.2029  0.4461  0.1269
 4034TIP3    H112066   3.278   2.495   2.851  1.5657  1.3864  1.0653
 4034TIP3    H212067   3.168   2.568   2.925 -2.1145 -1.1812 -1.4863
 4035TIP3   OH212068   7.043   5.136   0.428  0.2867 -0.0803 -0.0629
 4035TIP3    H112069   6.997   5.209   0.388 -0.0411 -0.4322 -0.3238
 4035TIP3    H212070   7.039   5.155   0.522 -1.5978 -0.7932  0.0438
 4036TIP3   OH212071   0.795   5.445   5.697  0.1141 -0.4063 -0.1856
 4036TIP3    H112072   0.760   5.532   5.720 -0.4645 -0.8992  0.8498
 4036TIP3    H212073   0.826   5.456   5.607 -0.4040  0.7460 -0.2509
 4037TIP3   OH212074   1.257   5.937   5.596 -0.1388  0.2662  0.2052
 4037TIP3    H112075   1.176   5.959   5.641 -1.4126 -0.2064 -1.7273
 4037TIP3    H212076   1.319   6.004   5.625 -2.1998  2.8579 -0.8678
 4038TIP3   OH212077   3.459   4.577   4.905 -0.4015 -0.0001  0.0969
 4038TIP3    H112078   3.365   4.594   4.899 -0.2356  0.6576 -0.9789
 4038TIP3    H212079   3.496   4.615   4.825  0.5336 -1.9982 -0.4893
 4039TIP3   OH212080   2.139   5.798   5.063  0.0502  0.1196 -0.4625
 4039TIP3    H112081   2.113   5.706   5.075  0.3265  0.1700  0.6398
 4039TIP3    H212082   2.087   5.846   5.127  0.8913  0.5478 -0.0857
 4040TIP3   OH212083   1.139   6.297   4.670 -0.4692  0.0778 -0.5427
 4040TIP3    H112084   1.056   6.302   4.719 -0.4395  0.9035 -0.5589
 4040TIP3    H212085   1.113   6.265   4.584 -1.1643  2.5012 -1.3280
 4041TIP3   OH212086   0.805   3.162   1.758  0.5586  0.3438 -0.3418
 4041TIP3    H112087   0.757   3.212   1.824  1.1391  2.0265 -1.1164
 4041TIP3    H212088   0.738   3.126   1.701  0.0571 -0.9805  1.0206
 4042TIP3   OH212089   4.950   1.470   4.059 -0.5856 -0.5219  0.0081
 4042TIP3    H112090   4.862   1.438   4.081 -0.5523  0.3120  1.4542
 4042TIP3    H212091   4.997   1.469   4.142  0.5781 -0.3090 -0.6320
 4043TIP3   OH212092   4.177   5.685   1.458 -0.2967 -0.7935 -0.4916
 4043TIP3    H112093   4.261   5.701   1.499 -0.3670  0.9095 -0.9531
 4043TIP3    H212094   4.112   5.703   1.526 -0.3295 -0.7735 -0.5278
 4044TIP3   OH212095   6.605   0.206   3.174 -0.3358 -0.1012  0.0092
 4044TIP3    H112096   6.538   0.265   3.140  1.2862  1.7641 -0.1656
 4044TIP3    H212097   6.641   0.163   3.097 -0.4563 -0.1231 -0.0348
 4045TIP3   OH212098   6.355   1.811   4.910 -0.5566  0.1984 -0.3237
 4045TIP3    H112099   6.354   1.902   4.941 -3.7472  0.3339 -0.4993
 4045TIP3    H212100   6.372   1.819   4.816 -1.1398  0.6684 -0.3985
 4046TIP3   OH212101   0.036   0.530   0.654 -0.3201  0.1755 -0.1693
 4046TIP3    H112102   0.099   0.520   0.583 -2.5854  1.8963 -2.6406
 4046TIP3    H212103   0.046   0.621   0.683  0.6436 -0.5376  1.8604
 4047TIP3   OH212104   6.723   1.306   4.502  0.4184 -0.5909  0.3127
 4047TIP3    H112105   6.653   1.361   4.466  0.8287  0.5756  1.2623
 4047TIP3    H212106   6.800   1.326   4.448 -0.0333 -2.2349 -1.0524
 4048TIP3   OH212107   2.002   2.489   3.355  0.2573 -0.1196  0.0729
 4048TIP3    H112108   1.907   2.501   3.351  0.2731  0.1925  0.6602
 4048TIP3    H212109   2.031   2.500   3.264 -0.5258 -2.4756 -0.5313
 4049TIP3   OH212110   0.481   4.795   2.820  0.0011 -0.3794  0.1597
 4049TIP3    H112111   0.471   4.706   2.853  2.0824 -0.3513  1.0240
 4049TIP3    H212112   0.467   4.851   2.896  0.1599 -0.0498 -0.0501
 4050TIP3   OH212113   4.353   3.244   5.563 -0.2219 -0.3134 -0.3853
 4050TIP3    H112114   4.373   3.314   5.626 -2.5246 -0.6538  0.8457
 4050TIP3    H212115   4.275   3.275   5.517  0.7822 -0.5686 -2.3836
 4051TIP3   OH212116   3.374   6.475   2.097  0.8121  1.3152 -0.4327
 4051TIP3    H112117   3.465   6.447   2.085  1.0633  1.7452  0.3924
 4051TIP3    H212118   3.374   6.519   2.182 -0.4025  0.3114  0.1153
 4052TIP3   OH212119   4.754   5.203   3.177  0.0543 -0.3143 -0.1063
 4052TIP3    H112120   4.770   5.186   3.084  0.7449 -1.3534  0.1827
 4052TIP3    H212121   4.842   5.212   3.214 -0.2270  0.3809  0.3984
 4053TIP3   OH212122   0.416   0.198   0.838  0.2693  0.2240 -0.1208
 4053TIP3    H112123   0.372   0.200   0.923 -0.2336 -1.0823 -0.3156
 4053TIP3    H212124   0.372   0.265   0.786  0.6643  1.1209  0.6819
 4054TIP3   OH212125   4.161   3.343   4.490  0.1931 -0.0677  0.2063
 4054TIP3    H112126   4.180   3.254   4.460 -2.9890 -0.4436 -1.0722
 4054TIP3    H212127   4.117   3.331   4.574 -0.2331  0.2944  0.0401
 4055TIP3   OH212128   1.534   2.303   2.646  0.8423  0.5931 -1.0556
 4055TIP3    H112129   1.516   2.209   2.645  0.1200  0.7196 -1.9200
 4055TIP3    H212130   1.566   2.321   2.734 -1.8087  0.0319  0.1236
 4056TIP3   OH212131   0.731   0.727   1.763  0.2620 -0.4745 -0.1607
 4056TIP3    H112132   0.663   0.744   1.828  1.5760  0.8580  0.9318
 4056TIP3    H212133   0.772   0.646   1.792 -0.1131 -0.6698 -0.1738
 4057TIP3   OH212134   1.798   4.027   0.802  0.1807  0.6621  0.4640
 4057TIP3    H112135   1.890   4.004   0.786  0.0874  0.8399 -0.3358
 4057TIP3    H212136   1.800   4.122   0.816  0.4205  0.3959  2.7479
 4058TIP3   OH212137   0.218   3.010   4.355  0.0909  0.3297 -1.1788
 4058TIP3    H112138   0.304   2.978   4.328  0.6980  1.1114 -0.2054
 4058TIP3    H212139   0.159   2.937   4.336  1.0552 -0.4371 -1.3170
 4059TIP3   OH212140   6.903   6.377   5.167  0.2129  0.3241  0.0787
 4059TIP3    H112141   6.946   6.366   5.082 -1.1984 -0.1952 -0.6023
 4059TIP3    H212142   6.881   6.470   5.171  0.4128  0.3781 -0.0589
 4060TIP3   OH212143   2.266   0.917   1.035  0.0971  0.1570 -0.4499
 4060TIP3    H112144   2.283   0.997   0.986  0.9100 -0.5476 -1.3508
 4060TIP3    H212145   2.307   0.848   0.984 -1.0851 -0.9287  0.0061
 4061TIP3   OH212146   0.696   3.582   2.186  0.5859  0.2437 -0.3391
 4061TIP3    H112147   0.643   3.647   2.139 -0.9436 -1.1007 -0.5742
 4061TIP3    H212148   0.661   3.498   2.157 -0.7222 -0.6848  3.3859
 4062TIP3   OH212149   5.886   3.443   4.095 -0.2972 -0.2621 -0.1120
 4062TIP3    H112150   5.806   3.463   4.144  1.4325  0.8306  2.5547
 4062TIP3    H212151   5.900   3.350   4.109 -1.0093 -0.4291 -0.4754
 4063TIP3   OH212152   3.952   3.921   2.343  0.7183 -0.0198  0.2355
 4063TIP3    H112153   3.951   3.861   2.418 -0.9839 -0.1281  0.1699
 4063TIP3    H212154   3.860   3.942   2.329  1.2010  1.9549 -0.2820
 4064TIP3   OH212155   3.538   3.387   5.144 -0.1917 -0.6367 -0.3674
 4064TIP3    H112156   3.618   3.402   5.195 -1.3571 -2.1933  2.0824
 4064TIP3    H212157   3.480   3.459   5.170 -0.3252 -0.6839 -0.5349
 4065TIP3   OH212158   6.141   0.933   0.794  0.1487 -0.5662 -0.2274
 4065TIP3    H112159   6.111   0.908   0.881 -0.1367  0.6910  0.0465
 4065TIP3    H212160   6.187   1.015   0.807  1.4119 -1.1240 -1.0526
 4066TIP3   OH212161   6.195   5.854   1.781  0.4240 -0.0278 -0.1091
 4066TIP3    H112162   6.138   5.789   1.824 -0.1960  0.1630 -0.6276
 4066TIP3    H212163   6.195   5.929   1.840 -2.6231  1.3176 -1.6141
 4067TIP3   OH212164   6.043   5.762   5.775  0.1054 -0.4090  0.4605
 4067TIP3    H112165   6.021   5.845   5.817  0.6215  0.0856 -0.2396
 4067TIP3    H212166   5.963   5.738   5.727  0.6485  0.7884 -1.1081
 4068TIP3   OH212167   0.668   5.017   0.245  0.0816 -0.8194 -0.6337
 4068TIP3    H112168   0.704   5.038   0.159 -0.6138 -1.6184 -1.1434
 4068TIP3    H212169   0.633   5.100   0.278  1.5277 -0.2260 -0.5146
 4069TIP3   OH212170   5.600   1.520   2.905 -0.1609 -0.5769 -0.6211
 4069TIP3    H112171   5.522   1.465   2.895 -0.6930  0.2279 -0.9625
 4069TIP3    H212172   5.611   1.563   2.820 -0.2393  0.4847 -0.1054
 4070TIP3   OH212173   2.466   2.010   5.237 -0.0916  0.2871 -0.0490
 4070TIP3    H112174   2.417   1.968   5.166 -0.0373 -0.4368  0.3283
 4070TIP3    H212175   2.435   2.100   5.238 -1.1944 -0.0740 -0.0297
 4071TIP3   OH212176   1.920   6.342   5.769  0.3174 -0.6646 -0.1801
 4071TIP3    H112177   1.872   6.425   5.764 -0.8941 -1.4180 -2.1413
 4071TIP3    H212178   1.951   6.327   5.680  0.6916 -2.2216  0.1925
 4072TIP3   OH212179   1.604   3.936   1.857  0.6301  0.1044  0.1361
 4072TIP3    H112180   1.540   3.975   1.917  0.7171  0.3998  0.0391
 4072TIP3    H212181   1.679   3.916   1.913  0.5988  0.1091  0.1804
 4073TIP3   OH212182   6.861   0.092   3.948 -0.1584  0.3862  0.1403
 4073TIP3    H112183   6.947   0.071   3.984 -0.5616 -1.5158  0.1043
 4073TIP3    H212184   6.878   0.120   3.858  0.5540  1.7614  0.6869
 4074TIP3   OH212185   2.706   3.111   1.459 -0.2325 -0.1281 -0.2469
 4074TIP3    H112186   2.750   3.030   1.435 -1.8121 -1.5467  1.3322
 4074TIP3    H212187   2.769   3.180   1.437  1.8982 -1.8814 -0.0247
 4075TIP3   OH212188   3.550   5.967   5.577 -0.4127 -0.4362 -0.4393
 4075TIP3    H112189   3.592   6.037   5.527  1.0577 -1.1273 -0.2430
 4075TIP3    H212190   3.483   5.932   5.517 -1.2368  1.1511 -0.5000
 4076TIP3   OH212191   6.140   3.066   2.698  0.3304 -0.2979  0.2932
 4076TIP3    H112192   6.205   3.101   2.636  0.7877  0.6893  1.2818
 4076TIP3    H212193   6.119   2.979   2.665  1.5077 -0.2855 -0.5530
 4077TIP3   OH212194   1.312   2.705   2.565  0.2545 -0.0302 -0.3744
 4077TIP3    H112195   1.336   2.660   2.484  1.8683 -1.3143  0.7444
 4077TIP3    H212196   1.395   2.734   2.602 -0.2675 -0.7694  1.5198
 4078TIP3   OH212197   1.571   3.927   0.176  0.8521  0.2319  0.2625
 4078TIP3    H112198   1.537   4.017   0.171  2.2814  0.7694 -0.4901
 4078TIP3    H212199   1.592   3.914   0.268 -0.5866  0.1691  0.6050
 4079TIP3   OH212200   6.303   3.346   4.916  0.0622  0.0222  0.3515
 4079TIP3    H112201   6.232   3.289   4.946 -0.5638  0.3905 -0.3799
 4079TIP3    H212202   6.326   3.311   4.830 -1.5321  1.8728 -0.9058
 4080TIP3   OH212203   1.725   5.982   0.069  0.4751 -0.0050 -0.1453
 4080TIP3    H112204   1.682   6.067   0.057  0.4337  0.0911  0.6067
 4080TIP3    H212205   1.663   5.931   0.121  0.7029 -0.3366 -0.1930
 4081TIP3   OH212206   4.214   1.131   1.685 -0.6086  0.1855 -0.4258
 4081TIP3    H112207   4.301   1.163   1.710 -1.0445  0.1559  1.2007
 4081TIP3    H212208   4.232   1.054   1.631  0.4105 -1.0769  1.5896
 4082TIP3   OH212209   3.459   3.379   0.039  0.5098 -0.3699  0.3986
 4082TIP3    H112210   3.499   3.312  -0.016  1.8196  0.3767  0.4017
 4082TIP3    H212211   3.455   3.457  -0.017  0.2832 -0.0748  0.8197
 4083TIP3   OH212212   5.556   2.351   1.013 -0.2231  0.2325 -0.0201
 4083TIP3    H112213   5.503   2.413   1.062 -1.4473 -0.7544 -0.0543
 4083TIP3    H212214   5.503   2.328   0.937  0.4549 -0.4199 -0.3179
 4084TIP3   OH212215   5.508   1.319   4.674  0.8130  0.1083 -0.5902
 4084TIP3    H112216   5.500   1.310   4.579  0.6810 -3.0795 -0.4106
 4084TIP3    H212217   5.423   1.291   4.707  2.2759 -3.7854  0.4782
 4085TIP3   OH212218   4.603   1.681   0.769 -0.3973  0.4440 -0.2189
 4085TIP3    H112219   4.588   1.671   0.674  2.4992  2.0176 -0.9480
 4085TIP3    H212220   4.687   1.638   0.785 -0.5002  0.8269  1.5108
 4086TIP3   OH212221   0.170   6.001   2.600  0.0382 -0.1180  0.1165
 4086TIP3    H112222   0.191   5.909   2.585 -1.9867 -0.6204  0.0020
 4086TIP3    H212223   0.104   6.021   2.533 -0.2076  1.1572  0.7156
 4087TIP3   OH212224   5.707   3.259   1.906  0.4178 -0.4201  0.0498
 4087TIP3    H112225   5.654   3.326   1.950  2.0526  0.1059  1.3070
 4087TIP3    H212226   5.706   3.284   1.814 -0.6330  0.1853  0.2111
 4088TIP3   OH212227   4.023   0.953   4.964 -0.2953  0.5874 -0.0020
 4088TIP3    H112228   4.064   1.001   5.036  0.1831  0.5125 -0.2189
 4088TIP3    H212229   4.050   1.000   4.885 -0.2755  0.2843 -0.1770
 4089TIP3   OH212230   6.187   4.667   1.677 -0.8453  0.3415 -0.2836
 4089TIP3    H112231   6.164   4.691   1.767 -1.2757  0.2129 -0.3567
 4089TIP3    H212232   6.126   4.597   1.654  1.1361 -1.6915  0.3217
 4090TIP3   OH212233   0.359   2.486   3.828  0.3925 -0.0902  0.1446
 4090TIP3    H112234   0.307   2.566   3.827  0.8696  0.5449  4.3950
 4090TIP3    H212235   0.447   2.515   3.851  0.7287 -1.7323  1.1270
 4091TIP3   OH212236   7.152   2.190   0.386 -0.0400 -0.5282 -0.4695
 4091TIP3    H112237   7.125   2.247   0.458  0.3770  0.5561 -1.1493
 4091TIP3    H212238   7.097   2.216   0.312  0.4756 -0.6811 -0.9175
 4092TIP3   OH212239   2.467   2.837   4.522  0.2014  0.2622  0.4271
 4092TIP3    H112240   2.496   2.838   4.431  0.0188 -0.8037  0.3350
 4092TIP3    H212241   2.377   2.870   4.520  0.9158  2.2995  0.5314
 4093TIP3   OH212242   5.964   3.872   1.899 -0.8628  0.0116 -0.4390
 4093TIP3    H112243   5.999   3.874   1.989 -1.7048  0.8674 -0.1119
 4093TIP3    H212244   6.037   3.841   1.846 -0.6580 -1.5842  0.6755
 4094TIP3   OH212245   6.988   1.514   2.818  0.1217 -0.2139  0.4323
 4094TIP3    H112246   7.076   1.543   2.841  0.2680 -0.2136 -0.1136
 4094TIP3    H212247   6.993   1.419   2.816 -0.4229 -0.3173  2.4750
 4095TIP3   OH212248   4.613   1.960   3.864  0.1186 -0.1462  0.1707
 4095TIP3    H112249   4.656   2.043   3.842  1.2792 -0.6696  0.3947
 4095TIP3    H212250   4.528   1.964   3.820  0.3869  0.9253 -0.2648
 4096TIP3   OH212251   7.124   3.783   3.122  0.2941  0.4867 -0.4984
 4096TIP3    H112252   7.096   3.856   3.066 -0.5970 -1.1499 -2.3383
 4096TIP3    H212253   7.092   3.805   3.209 -0.9048  1.7875 -1.2344
 4097TIP3   OH212254   4.167   3.053   1.734 -0.7363 -0.4882 -0.7463
 4097TIP3    H112255   4.111   3.121   1.771 -1.2079 -1.4963  0.4358
 4097TIP3    H212256   4.144   2.973   1.781  0.6513 -1.2394 -1.2683
 4098TIP3   OH212257   2.573   6.189   5.606 -0.3847 -0.1603 -0.1169
 4098TIP3    H112258   2.542   6.278   5.591  0.5202  0.1565 -0.1412
 4098TIP3    H212259   2.586   6.153   5.518  0.1721  0.0174 -0.1120
 4099TIP3   OH212260   2.588   3.671   4.927  0.2783  0.3472 -0.0985
 4099TIP3    H112261   2.539   3.663   4.845 -1.3170 -2.3803  1.0068
 4099TIP3    H212262   2.656   3.604   4.920  0.1127  0.0806  0.8440
 4100TIP3   OH212263   5.253   2.431   3.685  0.0645 -0.1905 -0.0820
 4100TIP3    H112264   5.335   2.385   3.702  0.5575  0.9783  0.7875
 4100TIP3    H212265   5.234   2.478   3.766 -1.0272  0.2298 -0.5626
 4101TIP3   OH212266   2.034   0.384   3.039  0.2626  0.4106 -0.0171
 4101TIP3    H112267   2.005   0.308   3.089 -0.5936  0.0191 -1.0662
 4101TIP3    H212268   2.119   0.407   3.078 -0.0352 -0.3096  1.1214
 4102TIP3   OH212269   2.966   3.409   3.583  0.1116 -0.6909 -0.0769
 4102TIP3    H112270   2.943   3.316   3.591 -0.2089 -0.6695 -0.6970
 4102TIP3    H212271   2.980   3.422   3.489  0.3317 -0.1514  0.0286
 4103TIP3   OH212272   4.169   4.046   2.423  0.6788 -0.1145  0.4106
 4103TIP3    H112273   4.082   4.013   2.399 -0.7655  1.3147  3.2359
 4103TIP3    H212274   4.200   3.985   2.490  2.1451 -0.8681 -0.8844
 4104TIP3   OH212275   5.337   2.666   5.784  0.3294 -0.6224  0.0322
 4104TIP3    H112276   5.266   2.623   5.832 -0.0299 -0.0548  0.0204
 4104TIP3    H212277   5.332   2.758   5.811  0.3677 -0.3676 -0.7886
 4105TIP3   OH212278   4.657   5.841   2.067 -0.0946 -0.2183 -0.2174
 4105TIP3    H112279   4.598   5.825   1.994 -0.2717 -0.4767 -0.0205
 4105TIP3    H212280   4.610   5.807   2.144 -0.0930  0.4286  0.0808
 4106TIP3   OH212281   1.313   1.708   3.717 -0.1817  0.4406  0.0867
 4106TIP3    H112282   1.347   1.726   3.630  0.1630  0.4831  0.2266
 4106TIP3    H212283   1.356   1.627   3.744  0.3765  0.8891  0.5612
 4107TIP3   OH212284   5.701   3.600   2.966 -0.4630  0.1039 -0.1696
 4107TIP3    H112285   5.791   3.570   2.960 -0.7125 -0.5009 -1.0702
 4107TIP3    H212286   5.708   3.696   2.972  0.3756 -0.0416  3.7940
 4108TIP3   OH212287   1.326   3.486   4.482 -0.1089 -0.4624 -0.4971
 4108TIP3    H112288   1.249   3.453   4.437 -0.4105 -2.7429  1.4587
 4108TIP3    H212289   1.302   3.575   4.510 -1.4810 -0.6256 -1.1140
 4109TIP3   OH212290   5.296   6.114   2.557  0.1914 -0.1769  0.2573
 4109TIP3    H112291   5.312   6.158   2.641  2.9918  0.7911 -0.6901
 4109TIP3    H212292   5.327   6.025   2.570  0.5225 -0.0585  0.2738
 4110TIP3   OH212293   4.022   1.310   3.629  0.2462 -0.3541  0.6200
 4110TIP3    H112294   4.113   1.285   3.611  0.5857  0.2553  1.4211
 4110TIP3    H212295   4.015   1.399   3.595 -0.9055 -1.3597 -2.0614
 4111TIP3   OH212296   5.561   5.028   2.757 -0.2008  0.0848  0.5468
 4111TIP3    H112297   5.641   5.073   2.728  0.2810 -0.5980  0.7799
 4111TIP3    H212298   5.521   5.088   2.820 -0.5755  1.0082 -0.5488
 4112TIP3   OH212299   0.085   0.155   2.995  0.4758 -0.3278  0.3777
 4112TIP3    H112300   0.097   0.069   3.034 -0.2464 -0.2348  0.8228
 4112TIP3    H212301  -0.001   0.151   2.953  0.5854  0.0658  0.1051
 4113TIP3   OH212302   1.835   4.523   0.352 -0.2143  0.1321 -0.2502
 4113TIP3    H112303   1.741   4.540   0.361 -0.1052  0.3038  0.6203
 4113TIP3    H212304   1.863   4.584   0.284 -0.3166  1.7134  1.0740
 4114TIP3   OH212305   7.055   5.764   2.027 -0.5227 -0.0520  0.0770
 4114TIP3    H112306   7.149   5.774   2.042 -0.6042 -0.4420  0.9389
 4114TIP3    H212307   7.019   5.852   2.040 -0.2669  0.1128 -0.3283
 4115TIP3   OH212308   3.331   4.215   3.367 -0.5139  0.2142  0.4135
 4115TIP3    H112309   3.261   4.197   3.430  0.5206 -2.1627  1.0027
 4115TIP3    H212310   3.356   4.129   3.333  3.3761  0.6157  1.6746
 4116TIP3   OH212311   0.202   5.467   3.258 -0.4757  0.0236  0.3956
 4116TIP3    H112312   0.200   5.460   3.354 -1.3584  0.4496  0.4182
 4116TIP3    H212313   0.165   5.553   3.240  0.9729  0.5357 -0.2849
 4117TIP3   OH212314   3.688   3.098   0.206 -0.3429 -0.3416 -0.2450
 4117TIP3    H112315   3.700   3.147   0.288 -0.6674 -0.2567 -0.2482
 4117TIP3    H212316   3.612   3.138   0.165  1.1535  1.1486 -1.7125
 4118TIP3   OH212317   6.716   2.430   4.737 -0.6212  0.0793  0.1420
 4118TIP3    H112318   6.648   2.443   4.671 -0.5890  0.5700  0.2043
 4118TIP3    H212319   6.758   2.516   4.746 -0.9326  0.1403  1.1370
 4119TIP3   OH212320   6.630   4.968   3.609  0.3522 -0.2434  0.1701
 4119TIP3    H112321   6.682   4.948   3.686  0.3640 -3.1787 -0.5016
 4119TIP3    H212322   6.541   4.939   3.632  0.6771 -2.7344 -1.4099
 4120TIP3   OH212323   4.558   2.557   4.580 -0.4711  0.0514 -0.4271
 4120TIP3    H112324   4.649   2.536   4.559 -0.6003 -0.3598 -0.6020
 4120TIP3    H212325   4.507   2.496   4.526 -0.8310 -0.3572  0.3542
 4121TIP3   OH212326   0.185   0.259   2.742 -0.1976  0.0609 -0.0761
 4121TIP3    H112327   0.144   0.229   2.823  0.2390  0.5249  0.3243
 4121TIP3    H212328   0.255   0.317   2.771  0.5643 -0.5066 -0.7609
 4122TIP3   OH212329   1.752   2.099   3.607  0.5958 -0.7703 -0.1545
 4122TIP3    H112330   1.836   2.145   3.606  0.8325 -1.1930 -1.7662
 4122TIP3    H212331   1.771   2.015   3.647  0.7050 -0.4749  0.4340
 4123TIP3   OH212332   6.078   6.461   3.023  0.0165  0.4204 -0.7094
 4123TIP3    H112333   6.059   6.485   3.114 -0.2328 -0.9933 -0.3618
 4123TIP3    H212334   6.050   6.537   2.971  2.6484  2.4211  0.5640
 4124TIP3   OH212335   6.718   4.490   2.329 -0.7846  0.3846  0.3687
 4124TIP3    H112336   6.750   4.407   2.365 -0.5342  0.9707  1.5290
 4124TIP3    H212337   6.764   4.557   2.379  0.3511  1.2647 -1.6994
 4125TIP3   OH212338   7.097   2.621   0.305  0.2073 -0.1337  0.2577
 4125TIP3    H112339   7.005   2.648   0.314 -0.1997 -1.2947 -0.2011
 4125TIP3    H212340   7.122   2.593   0.393  0.6575  1.6750  0.7635
 4126TIP3   OH212341   3.707   0.667   1.294 -0.3905 -0.3179 -0.2896
 4126TIP3    H112342   3.740   0.588   1.249 -1.0099 -0.2070 -0.9485
 4126TIP3    H212343   3.635   0.635   1.348  0.2776 -0.4308  0.5719
 4127TIP3   OH212344   0.159   1.649   2.598 -0.2599 -0.9022 -0.5355
 4127TIP3    H112345   0.172   1.564   2.555 -0.3514 -1.1156 -0.1460
 4127TIP3    H212346   0.245   1.689   2.599  0.2747 -1.9679  1.3133
 4128TIP3   OH212347   2.475   5.981   2.906  0.6286 -0.2716  0.2112
 4128TIP3    H112348   2.466   6.074   2.926  1.5399 -0.1479  0.0677
 4128TIP3    H212349   2.455   5.937   2.988 -0.8441 -0.0168  0.0252
 4129TIP3   OH212350   2.023   4.772   5.757 -0.7869  0.0833 -0.5541
 4129TIP3    H112351   2.071   4.710   5.701  0.3091  0.8801 -0.5289
 4129TIP3    H212352   2.003   4.845   5.699  0.2076  0.8391  0.0130
 4130TIP3   OH212353   1.605   6.278   3.682 -0.2547  0.7295 -0.2201
 4130TIP3    H112354   1.515   6.272   3.714 -0.5004  1.4986 -0.7489
 4130TIP3    H212355   1.621   6.372   3.671  0.7298  0.6213  0.1813
 4131TIP3   OH212356   3.933   1.155   4.556  0.4553  0.0500 -0.1552
 4131TIP3    H112357   3.858   1.108   4.592 -0.7767  1.8269 -0.2753
 4131TIP3    H212358   3.979   1.189   4.633  1.1764 -1.0482 -0.0807
 4132TIP3   OH212359   3.110   2.957   1.224  0.4977 -0.6508  0.0835
 4132TIP3    H112360   3.166   3.000   1.159 -1.1606 -0.8080 -1.5471
 4132TIP3    H212361   3.056   3.028   1.260  0.1243 -0.8305 -0.1091
 4133TIP3   OH212362   5.462   1.029   3.527 -0.1855 -0.5567  0.0434
 4133TIP3    H112363   5.497   1.088   3.461  0.6872  0.9222  1.7659
 4133TIP3    H212364   5.532   0.966   3.543  0.5055  0.4927  1.2142
 4134TIP3   OH212365   3.938   2.457   4.611  0.0017 -0.3661  0.2300
 4134TIP3    H112366   3.976   2.436   4.696  0.0607 -4.0126 -0.5412
 4134TIP3    H212367   3.844   2.461   4.627  0.1272  0.8428  0.7535
 4135TIP3   OH212368   3.888   6.455   1.579  0.2680 -0.1123  0.4168
 4135TIP3    H112369   3.942   6.383   1.612 -0.7812 -1.1598 -0.0376
 4135TIP3    H212370   3.839   6.416   1.506 -2.7640  0.0947  2.1816
 4136TIP3   OH212371   1.416   1.490   3.834 -0.6259  0.3753  0.2807
 4136TIP3    H112372   1.471   1.487   3.912 -0.2811 -0.8695  0.0033
 4136TIP3    H212373   1.341   1.434   3.854  0.4827 -1.6930 -1.0036
 4137TIP3   OH212374   0.097   4.423   3.470 -0.6272 -0.2137 -0.7487
 4137TIP3    H112375   0.056   4.431   3.383 -0.2393 -1.3682 -1.0563
 4137TIP3    H212376   0.170   4.363   3.456  1.6927  2.3065 -0.3883
 4138TIP3   OH212377   0.323   1.929   2.493 -0.0235 -0.1532  0.1542
 4138TIP3    H112378   0.342   1.949   2.402 -0.3521 -0.7250 -0.0443
 4138TIP3    H212379   0.407   1.939   2.538 -0.2967  2.4344  0.2415
 4139TIP3   OH212380   4.377   2.167   1.513 -0.4057 -0.6093  0.0961
 4139TIP3    H112381   4.416   2.237   1.565 -1.8215  0.1018  0.2374
 4139TIP3    H212382   4.379   2.090   1.570  2.5639 -1.1776 -0.5817
 4140TIP3   OH212383   3.917   0.981   1.466  0.0883 -0.3677  0.1111
 4140TIP3    H112384   3.938   1.075   1.468 -1.9323  0.1799 -1.2762
 4140TIP3    H212385   3.869   0.969   1.384  0.5887 -2.7199  0.0938
 4141TIP3   OH212386   1.920   1.532   2.949 -0.0863 -0.1848 -0.4326
 4141TIP3    H112387   1.880   1.607   2.994  0.0502  0.7216 -1.7458
 4141TIP3    H212388   1.937   1.468   3.018  0.3138  1.2198  0.8124
 4142TIP3   OH212389   3.580   2.622   4.512 -0.3392  0.3607 -0.7007
 4142TIP3    H112390   3.570   2.647   4.420  1.1490 -2.1060 -1.6210
 4142TIP3    H212391   3.664   2.661   4.538 -0.0857 -0.0913 -0.8314
 4143TIP3   OH212392   4.573   6.121   1.665 -0.1828  0.3474 -0.6502
 4143TIP3    H112393   4.506   6.156   1.605 -0.3761  1.7435  0.3167
 4143TIP3    H212394   4.654   6.128   1.616 -0.3851  1.1906 -0.8973
 4144TIP3   OH212395   6.067   6.234   2.871 -0.3370  0.2662  0.3092
 4144TIP3    H112396   6.114   6.297   2.926  0.9441  2.2744 -2.7784
 4144TIP3    H212397   6.037   6.285   2.796 -2.1355 -2.2278 -0.8156
 4145TIP3   OH212398   0.057   0.518   1.143  0.1533 -0.4930  0.4628
 4145TIP3    H112399   0.149   0.490   1.145  0.1867 -0.6177 -1.1123
 4145TIP3    H212400   0.016   0.471   1.215  0.7546 -2.6424 -0.5283
 4146TIP3   OH212401   2.081   0.507   0.800 -0.4304 -1.1567  0.1107
 4146TIP3    H112402   2.099   0.481   0.710 -0.9615 -0.0661 -0.3349
 4146TIP3    H212403   2.074   0.425   0.848  0.4143 -1.7351 -0.7277
 4147TIP3   OH212404   6.746   6.214   2.878 -0.3312 -0.0256  0.6557
 4147TIP3    H112405   6.816   6.154   2.904 -0.0296 -0.4252 -0.9119
 4147TIP3    H212406   6.753   6.288   2.938  1.7627  0.1634  0.2520
 4148TIP3   OH212407   1.441   1.057   0.467  0.5434  0.0138  0.0518
 4148TIP3    H112408   1.443   0.982   0.526 -1.0573  0.8932  1.3191
 4148TIP3    H212409   1.521   1.106   0.489  0.7630 -0.4830  0.3836
 4149TIP3   OH212410   5.654   0.172   1.788 -0.2910 -0.1498  0.8089
 4149TIP3    H112411   5.588   0.212   1.845 -1.8354 -1.7560  0.2325
 4149TIP3    H212412   5.714   0.244   1.767 -2.0576  1.4858  1.0752
 4150TIP3   OH212413   6.937   0.831   2.548  0.4140 -0.3492 -0.2854
 4150TIP3    H112414   6.983   0.904   2.508  0.8282 -0.1811  0.4734
 4150TIP3    H212415   6.930   0.856   2.641 -0.6271 -0.6631 -0.2684
 4151TIP3   OH212416   6.297   5.559   1.740 -0.0548 -0.1169 -0.1285
 4151TIP3    H112417   6.362   5.589   1.803 -1.1557 -0.5210  1.2680
 4151TIP3    H212418   6.253   5.638   1.710  0.7893  0.1187 -0.7711
 4152TIP3   OH212419   5.767   2.283   0.372 -0.3632 -0.0963  0.2354
 4152TIP3    H112420   5.808   2.274   0.458 -0.0599  0.0211  0.1024
 4152TIP3    H212421   5.797   2.367   0.338 -0.3585 -0.2106 -0.0518
 4153TIP3   OH212422   1.234   3.713   1.650  0.1087 -0.3224 -0.0322
 4153TIP3    H112423   1.201   3.699   1.739  0.4607 -1.3251 -0.0368
 4153TIP3    H212424   1.233   3.625   1.611  1.7920 -0.2287 -0.3618
 4154TIP3   OH212425   6.255   5.061   5.724  0.0346 -0.6322  0.1183
 4154TIP3    H112426   6.338   5.013   5.718 -0.8905 -2.3854  0.6018
 4154TIP3    H212427   6.197   5.016   5.661 -0.7808  0.0659  0.3496
 4155TIP3   OH212428   6.981   3.908   4.958  0.3339  0.2304 -0.0771
 4155TIP3    H112429   6.926   3.878   4.886  1.6607 -0.0878 -0.9894
 4155TIP3    H212430   7.066   3.924   4.918  0.7855  1.1680  1.2119
 4156TIP3   OH212431   6.935   5.155   0.819 -0.1429 -0.0359  0.0442
 4156TIP3    H112432   7.024   5.165   0.787 -0.0866 -1.7217 -0.3875
 4156TIP3    H212433   6.904   5.245   0.831  0.3432  0.6902 -3.2549
 4157TIP3   OH212434   0.725   5.414   0.496 -0.0483 -0.3809 -0.3262
 4157TIP3    H112435   0.691   5.491   0.449  2.8211  0.8270 -0.6046
 4157TIP3    H212436   0.704   5.431   0.588  0.2210  0.5520 -0.4271
 4158TIP3   OH212437   0.129   4.597   5.651 -0.6506 -0.5395 -0.0699
 4158TIP3    H112438   0.041   4.567   5.674 -0.4689 -0.2213  1.0820
 4158TIP3    H212439   0.161   4.531   5.589 -1.4628 -0.9908 -0.0198
 4159TIP3   OH212440   5.237   0.671   1.172 -0.6765 -0.1237  0.8191
 4159TIP3    H112441   5.223   0.745   1.113 -1.2606 -0.2244  0.8284
 4159TIP3    H212442   5.240   0.710   1.259  1.9209  0.2602  0.6429
 4160TIP3   OH212443   0.758   0.975   0.999 -0.0972 -0.6234  0.2317
 4160TIP3    H112444   0.850   1.003   1.007 -0.5958  1.0110  0.5858
 4160TIP3    H212445   0.764   0.883   0.973  1.6439 -0.6775  0.6451
 4161TIP3   OH212446   6.245   6.101   2.487  1.0057  0.1172  0.0113
 4161TIP3    H112447   6.277   6.046   2.558  1.4106 -0.6638 -0.7582
 4161TIP3    H212448   6.255   6.190   2.521  2.5604 -0.1643  0.4130
 4162TIP3   OH212449   2.074   2.458   3.069  0.2905 -0.7429  0.3528
 4162TIP3    H112450   2.020   2.405   3.010  3.1124 -0.4535 -2.7020
 4162TIP3    H212451   2.144   2.399   3.097  0.7412  0.0228  0.8665
 4163TIP3   OH212452   5.567   2.175   5.092  0.3579 -0.0197 -0.8030
 4163TIP3    H112453   5.582   2.268   5.110  0.1547 -0.3699  1.4834
 4163TIP3    H212454   5.471   2.166   5.095  0.3671 -0.2866 -1.2182
 4164TIP3   OH212455   1.240   5.525   0.355 -0.3448 -0.4899 -0.0233
 4164TIP3    H112456   1.199   5.479   0.282 -1.2162  1.0832 -0.5746
 4164TIP3    H212457   1.217   5.474   0.433  0.6888 -2.2498 -0.8273
 4165TIP3   OH212458   3.296   6.525   0.226  0.0639 -0.0279  0.2256
 4165TIP3    H112459   3.286   6.499   0.135  2.2480 -1.0579  0.2261
 4165TIP3    H212460   3.304   6.443   0.275 -2.9694  0.3960  1.7153
 4166TIP3   OH212461   2.384   5.988   2.151 -0.5674 -0.4420 -0.4337
 4166TIP3    H112462   2.430   5.960   2.072 -0.5269  0.3384 -0.6920
 4166TIP3    H212463   2.416   6.077   2.167 -0.1283 -0.7969  0.7980
 4167TIP3   OH212464   1.150   4.573   4.494 -0.2249  0.4610 -0.1453
 4167TIP3    H112465   1.070   4.552   4.541 -0.7535  0.0221 -1.2063
 4167TIP3    H212466   1.219   4.525   4.540 -0.7737 -0.1791  0.0137
 4168TIP3   OH212467   2.871   2.054   1.625 -0.2219  0.0773 -0.1333
 4168TIP3    H112468   2.926   2.043   1.703  1.1758  0.3488 -1.0554
 4168TIP3    H212469   2.819   1.974   1.622 -1.4859  0.7536  1.9602
 4169TIP3   OH212470   1.486   2.019   2.684  0.1888 -0.2906  0.4173
 4169TIP3    H112471   1.579   1.999   2.698  0.4706 -0.4902 -1.4394
 4169TIP3    H212472   1.449   1.937   2.650 -0.5126 -0.0031  0.4668
 4170TIP3   OH212473   6.146   3.947   3.495 -0.0829 -0.5338  0.5667
 4170TIP3    H112474   6.218   3.888   3.521 -0.2904 -0.3964  1.4881
 4170TIP3    H212475   6.162   3.965   3.402  1.0037 -0.6112  0.7261
 4171TIP3   OH212476   1.369   0.974   2.849 -0.4287 -0.0160  0.9904
 4171TIP3    H112477   1.353   1.019   2.932  2.6515  0.9421  1.2006
 4171TIP3    H212478   1.326   1.029   2.783 -2.6640 -0.6347  1.8417
 4172TIP3   OH212479   6.012   0.738   0.660 -0.0425  0.1890 -0.4690
 4172TIP3    H112480   5.989   0.661   0.711 -0.5398  0.6402  0.0069
 4172TIP3    H212481   6.067   0.790   0.718 -0.3585  0.5637 -0.5016
 4173TIP3   OH212482   4.457   1.248   1.716  0.0886 -0.2875 -0.1558
 4173TIP3    H112483   4.528   1.264   1.654 -0.8059  0.5226 -1.0014
 4173TIP3    H212484   4.498   1.255   1.802  1.1206 -0.3135 -0.6362
 4174TIP3   OH212485   0.817   5.208   2.331 -0.6608  0.0331 -0.2649
 4174TIP3    H112486   0.799   5.300   2.315  0.7365  0.4330  0.3116
 4174TIP3    H212487   0.881   5.183   2.265 -0.9104 -0.4868 -0.3194
 4175TIP3   OH212488   2.269   1.339   3.620 -0.0986  0.4431  0.2027
 4175TIP3    H112489   2.176   1.334   3.599  0.0963 -2.0731 -0.3078
 4175TIP3    H212490   2.272   1.359   3.714 -1.2131 -1.6584  0.7272
 4176TIP3   OH212491   6.656   2.961   3.449 -0.0051  0.1796  1.0350
 4176TIP3    H112492   6.741   2.918   3.448  0.0208  0.1994 -0.4068
 4176TIP3    H212493   6.653   3.010   3.366 -0.1704  2.6902  2.4243
 4177TIP3   OH212494   6.521   5.155   5.617 -0.0230 -0.0232  0.4542
 4177TIP3    H112495   6.453   5.200   5.567 -0.6495 -2.3068 -0.9070
 4177TIP3    H212496   6.603   5.179   5.575 -0.1973  0.8838  0.6118
 4178TIP3   OH212497   6.400   6.459   2.102 -0.4419 -0.0372 -0.7452
 4178TIP3    H112498   6.406   6.536   2.046  2.5759  0.0490 -0.4363
 4178TIP3    H212499   6.444   6.484   2.183  1.1055 -2.2148 -0.8369
 4179TIP3   OH212500   3.018   5.899   4.279  0.7246  0.4202  0.3851
 4179TIP3    H112501   2.946   5.907   4.342 -0.2410 -0.9264 -0.5055
 4179TIP3    H212502   2.987   5.945   4.201  0.7828 -0.2401 -0.0352
 4180TIP3   OH212503   3.484   0.182   1.881 -0.3634 -0.1469 -0.1432
 4180TIP3    H112504   3.528   0.195   1.965  1.1127 -1.1002 -0.7290
 4180TIP3    H212505   3.391   0.173   1.904  0.0209 -0.5069  1.3967
 4181TIP3   OH212506   0.750   6.168   5.854 -0.6713  0.3582 -0.1424
 4181TIP3    H112507   0.686   6.235   5.877 -1.0499  0.3769 -1.2041
 4181TIP3    H212508   0.834   6.206   5.878 -1.0696  0.0687  1.9113
 4182TIP3   OH212509   6.165   4.454   3.899 -0.0404  0.2446  0.3553
 4182TIP3    H112510   6.117   4.387   3.947 -0.9207 -0.2480 -1.1613
 4182TIP3    H212511   6.243   4.469   3.952 -0.6246 -0.7745  1.5712
 4183TIP3   OH212512   5.613   3.272   0.187  1.1155 -0.4940 -0.4275
 4183TIP3    H112513   5.622   3.233   0.101 -0.2793  0.0677 -0.8501
 4183TIP3    H212514   5.632   3.365   0.174 -0.4860 -0.1406 -0.4414
 4184TIP3   OH212515   4.129   5.441   0.341 -0.5781  0.0317  0.3483
 4184TIP3    H112516   4.157   5.352   0.362 -2.1789 -0.5661  0.0136
 4184TIP3    H212517   4.062   5.462   0.406  0.5278  1.4505  1.1268
 4185TIP3   OH212518   6.594   5.449   3.447 -0.1203 -0.4055  0.7168
 4185TIP3    H112519   6.606   5.359   3.477 -0.5516 -1.0742 -1.0039
 4185TIP3    H212520   6.649   5.456   3.369  0.1917  0.9524  1.0269
 4186TIP3   OH212521   5.465   6.586   4.101  0.4599  0.2109 -0.5176
 4186TIP3    H112522   5.479   6.555   4.190 -0.6399 -2.0007 -1.0371
 4186TIP3    H212523   5.552   6.586   4.061  0.6460 -1.2868 -0.1598
 4187TIP3   OH212524   4.855   4.936   5.882 -0.1313  0.4586 -0.1216
 4187TIP3    H112525   4.881   4.989   5.806 -1.5427 -0.2983 -1.1811
 4187TIP3    H212526   4.833   5.001   5.949 -0.7567  1.2070 -1.0191
 4188TIP3   OH212527   2.003   0.801   3.260  0.2600 -0.0870 -0.5467
 4188TIP3    H112528   1.919   0.785   3.218 -0.1228 -0.7802  0.4508
 4188TIP3    H212529   2.019   0.894   3.245 -1.8008  0.6293  1.1840
 4189TIP3   OH212530   0.288   4.301   1.414 -0.4133  0.1464  0.3384
 4189TIP3    H112531   0.381   4.280   1.406 -0.5163 -0.2442  0.1639
 4189TIP3    H212532   0.277   4.325   1.507 -0.1875 -0.0374  0.4136
 4190TIP3   OH212533   3.798   0.784   2.951  0.3503  0.7294 -0.1712
 4190TIP3    H112534   3.800   0.697   2.910  0.2403  0.2414  0.8232
 4190TIP3    H212535   3.730   0.831   2.904  1.1033  0.6353 -1.4031
 4191TIP3   OH212536   5.944   6.648   1.006 -0.0127  0.8868 -0.2563
 4191TIP3    H112537   5.901   6.733   1.018 -0.9918  0.2170  1.2374
 4191TIP3    H212538   6.036   6.670   0.994 -0.4379  2.2304 -1.3374
 4192TIP3   OH212539   1.076   6.635   0.718 -0.1223  0.7112  0.4075
 4192TIP3    H112540   1.158   6.683   0.730  1.1411 -1.5159  1.3915
 4192TIP3    H212541   1.091   6.581   0.640 -0.3672 -0.1838  0.9586
 4193TIP3   OH212542   1.613   5.627   5.337 -0.4650 -0.7297  0.1819
 4193TIP3    H112543   1.538   5.681   5.361 -0.8990 -0.3106 -1.9219
 4193TIP3    H212544   1.578   5.538   5.331 -0.6781 -0.6143 -0.2943
 4194TIP3   OH212545   5.601   3.496   2.461  0.5437  0.3227 -0.8066
 4194TIP3    H112546   5.621   3.447   2.540 -1.2642 -1.2601 -1.2509
 4194TIP3    H212547   5.514   3.534   2.477  0.5434  0.7247 -1.6806
 4195TIP3   OH212548   1.563   4.826   3.513 -0.5821 -0.0433 -0.5283
 4195TIP3    H112549   1.467   4.834   3.508 -1.1358 -2.2011  2.7908
 4195TIP3    H212550   1.587   4.880   3.588  0.4587 -1.0149 -0.1257
 4196TIP3   OH212551   2.399   2.858   2.925  0.0739  0.3047 -0.0424
 4196TIP3    H112552   2.318   2.808   2.931  0.6827 -0.5987  0.8885
 4196TIP3    H212553   2.467   2.800   2.960  0.9056  1.5472  0.5065
 4197TIP3   OH212554   6.519   6.171   2.353  0.4857 -0.1536 -0.4901
 4197TIP3    H112555   6.434   6.128   2.358  2.0131 -3.4712 -0.6348
 4197TIP3    H212556   6.557   6.160   2.440  1.1365  0.5195 -0.6737
 4198TIP3   OH212557   6.475   1.597   1.484 -0.0300 -0.2374 -0.2003
 4198TIP3    H112558   6.544   1.663   1.470  1.3213 -1.0708  2.0253
 4198TIP3    H212559   6.447   1.610   1.574 -0.6385 -1.9033 -0.1181
 4199TIP3   OH212560  -0.015   3.187   1.278 -0.3384 -0.3462  0.5897
 4199TIP3    H112561   0.056   3.125   1.295  0.1948 -0.1270 -0.6791
 4199TIP3    H212562   0.028   3.272   1.277 -0.7057 -0.1620  0.3545
 4200TIP3   OH212563   2.322   1.594   5.258 -0.0382  0.4889  0.3075
 4200TIP3    H112564   2.411   1.558   5.263 -0.4890 -0.6949 -0.0434
 4200TIP3    H212565   2.292   1.572   5.170 -1.6376 -1.4674  1.2813
 4201TIP3   OH212566   5.775   0.502   4.342  0.0594 -0.5974  0.0992
 4201TIP3    H112567   5.724   0.565   4.291  0.9894  0.3491  0.2924
 4201TIP3    H212568   5.840   0.469   4.281 -1.3742 -2.5799 -0.4352
 4202TIP3   OH212569   3.357   4.851   2.432  0.0367  0.5981 -0.0042
 4202TIP3    H112570   3.348   4.857   2.527  0.5036  0.9339  0.0197
 4202TIP3    H212571   3.294   4.783   2.407 -1.6098  1.9421  0.3017
 4203TIP3   OH212572   5.228   4.139   4.618  0.0866 -0.3446 -0.1820
 4203TIP3    H112573   5.220   4.167   4.709 -0.4829 -2.6312  0.5404
 4203TIP3    H212574   5.139   4.120   4.590  0.3695 -0.7447 -0.8442
 4204TIP3   OH212575   0.716   1.263   4.761  0.0397  1.1899  0.8480
 4204TIP3    H112576   0.650   1.195   4.766 -0.0186  0.9752 -1.6916
 4204TIP3    H212577   0.666   1.345   4.757  0.0481  1.2582  1.9859
 4205TIP3   OH212578   0.691   3.156   1.151 -0.2239 -0.1751 -0.2961
 4205TIP3    H112579   0.620   3.133   1.092 -0.2123 -1.9438  0.3194
 4205TIP3    H212580   0.762   3.185   1.093 -0.3038 -1.6139 -1.1702
 4206TIP3   OH212581   1.097   6.187   4.442  0.0813 -0.2436 -0.0166
 4206TIP3    H112582   1.022   6.170   4.386 -1.8273 -0.6034  2.4700
 4206TIP3    H212583   1.121   6.101   4.477 -0.5756  0.2717  1.7971
 4207TIP3   OH212584   6.354   5.917   1.228 -0.1804  0.1772 -0.2273
 4207TIP3    H112585   6.271   5.922   1.275 -1.1601  1.5317 -2.0010
 4207TIP3    H212586   6.401   5.996   1.255  1.0279 -1.0529  1.5186
 4208TIP3   OH212587   6.383   6.004   2.084 -0.0941  0.1138  0.1670
 4208TIP3    H112588   6.460   5.962   2.123  0.5843  1.7498  0.7058
 4208TIP3    H212589   6.419   6.076   2.032 -1.1996 -0.0152 -0.8147
 4209TIP3   OH212590   2.204   3.106   0.329 -0.0384 -0.1963  0.0427
 4209TIP3    H112591   2.141   3.042   0.362 -1.3062  0.3309 -1.2537
 4209TIP3    H212592   2.214   3.085   0.237  1.8423 -0.3476  0.2445
 4210TIP3   OH212593   2.474   0.458   5.846 -0.3829 -0.5132 -0.0662
 4210TIP3    H112594   2.539   0.388   5.852 -2.3605 -2.3798  0.7578
 4210TIP3    H212595   2.496   0.504   5.765  3.8573  1.0569  1.7312
 4211TIP3   OH212596   0.827   0.094   5.081  0.0926 -0.4143  0.2227
 4211TIP3    H112597   0.868   0.021   5.035  1.6049  0.3710  0.2431
 4211TIP3    H212598   0.745   0.109   5.035 -0.1195 -1.9374  0.0624
 4212TIP3   OH212599   6.274   3.541   0.759 -0.3739  0.4929 -0.0703
 4212TIP3    H112600   6.282   3.625   0.804 -0.0729  0.9321 -0.9125
 4212TIP3    H212601   6.282   3.476   0.828 -1.9522  1.1585  0.7937
 4213TIP3   OH212602   6.389   3.024   3.727 -0.3435  0.2317 -0.0409
 4213TIP3    H112603   6.348   3.042   3.812  2.8023 -0.2731  1.7587
 4213TIP3    H212604   6.406   3.111   3.691 -1.0969  0.4713  0.1575
 4214TIP3   OH212605   3.447   6.762   5.397  0.1992 -0.3335 -0.1268
 4214TIP3    H112606   3.537   6.781   5.372  0.2416  0.4118  0.5548
 4214TIP3    H212607   3.454   6.700   5.469  0.2323  0.7303  0.8146
 4215TIP3   OH212608   6.619   5.560   0.658 -0.1363 -0.1126 -0.4358
 4215TIP3    H112609   6.610   5.536   0.566 -0.3879  0.4372 -0.5594
 4215TIP3    H212610   6.532   5.546   0.695  0.0294 -0.5815 -0.2188
 4216TIP3   OH212611   3.290   1.175   2.029 -0.0192  0.2513 -0.0223
 4216TIP3    H112612   3.289   1.135   2.116 -1.7783  0.8787  0.2865
 4216TIP3    H212613   3.322   1.106   1.971 -2.5471 -1.5551  0.5688
 4217TIP3   OH212614   4.875   4.149   4.774 -0.4672  0.1498  0.2422
 4217TIP3    H112615   4.968   4.131   4.787 -0.2731  0.3450 -0.7670
 4217TIP3    H212616   4.831   4.093   4.838  0.2985 -0.8218 -0.0422
 4218TIP3   OH212617   6.225   2.315   5.824  0.1475  0.0893 -0.4403
 4218TIP3    H112618   6.144   2.277   5.860  0.1959  1.2519  0.9541
 4218TIP3    H212619   6.195   2.364   5.747 -0.8216  1.9950  1.0507
 4219TIP3   OH212620   2.688   3.370   4.647 -0.0226 -0.0601  0.3245
 4219TIP3    H112621   2.630   3.295   4.643 -1.0002  0.6637  0.6892
 4219TIP3    H212622   2.630   3.446   4.653  0.8839  0.8423 -1.4150
 4220TIP3   OH212623   5.978   3.115   1.209  0.1973  0.2981 -0.1574
 4220TIP3    H112624   5.904   3.175   1.203 -1.7326 -1.9939 -0.8968
 4220TIP3    H212625   5.966   3.072   1.294  0.1637 -0.6991 -0.6623
 4221TIP3   OH212626   3.876   4.672   3.366  0.2967 -0.1986  0.1361
 4221TIP3    H112627   3.943   4.614   3.328  0.2614  2.2564 -4.3274
 4221TIP3    H212628   3.926   4.744   3.404  0.2780 -0.0927 -0.0361
 4222TIP3   OH212629   4.950   5.607   1.408  0.2701  0.0025 -0.1969
 4222TIP3    H112630   4.951   5.564   1.322  0.4206  2.3376 -1.4374
 4222TIP3    H212631   4.954   5.700   1.388 -1.6462  0.7245  2.2966
 4223TIP3   OH212632   2.969   0.390   5.141  0.3182 -0.4260  0.4337
 4223TIP3    H112633   2.994   0.314   5.088 -0.8431 -0.3080 -0.3119
 4223TIP3    H212634   2.974   0.464   5.080  0.9444  0.0266  1.0222
 4224TIP3   OH212635   3.715   5.857   3.012 -0.2301  1.0524 -0.0373
 4224TIP3    H112636   3.640   5.899   3.054 -0.4707  2.1262 -1.4756
 4224TIP3    H212637   3.789   5.879   3.069 -1.1557 -1.4636  2.3697
 4225TIP3   OH212638   3.431   2.634   3.780 -0.3552  1.0221  0.7381
 4225TIP3    H112639   3.380   2.715   3.781 -0.6259  0.9024 -0.7198
 4225TIP3    H212640   3.396   2.585   3.705  0.1324 -0.2299  1.3069
 4226TIP3   OH212641   3.466   3.924   3.862  0.3911 -0.5888  0.0988
 4226TIP3    H112642   3.398   3.856   3.861  1.7824 -2.0501 -1.3669
 4226TIP3    H212643   3.472   3.954   3.772  1.5000 -0.2834  0.2556
 4227TIP3   OH212644   1.062   3.872   0.480  0.2315  0.4090 -0.1028
 4227TIP3    H112645   1.020   3.904   0.400 -2.6305 -1.9528  0.2642
 4227TIP3    H212646   1.055   3.945   0.541  0.0276  1.3335 -1.1844
 4228TIP3   OH212647   5.475   3.288   4.040  0.2893 -0.0391  0.4642
 4228TIP3    H112648   5.494   3.269   3.949  1.0700 -0.6294  0.7401
 4228TIP3    H212649   5.404   3.229   4.063  1.4509 -1.3555  0.7920
 4229TIP3   OH212650   4.485   0.529   5.652  0.0721 -0.2879  0.2253
 4229TIP3    H112651   4.537   0.480   5.716 -0.4432 -2.1178 -0.6878
 4229TIP3    H212652   4.394   0.507   5.674 -0.2004  0.6893  0.1081
 4230TIP3   OH212653   4.628   5.320   0.603 -0.2221  0.5894  0.0935
 4230TIP3    H112654   4.679   5.329   0.522  0.3016 -1.5413  0.1357
 4230TIP3    H212655   4.537   5.317   0.573  0.0252 -1.5551 -0.6331
 4231TIP3   OH212656   5.633   5.009   5.472 -0.1826 -0.6069  0.3146
 4231TIP3    H112657   5.694   5.004   5.399 -0.6888 -2.0216 -0.0457
 4231TIP3    H212658   5.658   4.938   5.531 -0.1851  0.1101  1.2175
 4232TIP3   OH212659   5.260   3.006   4.552  0.2296  0.0341  0.0434
 4232TIP3    H112660   5.290   2.932   4.604 -0.7695  0.8710  1.9248
 4232TIP3    H212661   5.192   2.969   4.495  0.2038 -0.6244  0.4885
 4233TIP3   OH212662   7.142   4.082   4.209 -0.9011 -0.1990 -0.4695
 4233TIP3    H112663   7.227   4.064   4.250 -0.0437  2.8607 -0.6251
 4233TIP3    H212664   7.123   4.004   4.157  0.7016 -1.8882  1.3228
 4234TIP3   OH212665   6.839   0.217   1.870 -0.0634 -0.4197  0.2246
 4234TIP3    H112666   6.860   0.197   1.778  0.4115 -1.6711  0.5863
 4234TIP3    H212667   6.752   0.180   1.883 -0.2732  0.0564  0.1964
 4235TIP3   OH212668   1.323   1.076   3.304 -0.2944  0.5080 -0.1280
 4235TIP3    H112669   1.245   1.041   3.348  0.3541 -0.3049  0.3904
 4235TIP3    H212670   1.297   1.083   3.212 -0.6659 -0.7429 -0.1392
 4236TIP3   OH212671   5.784   1.545   5.144 -0.0887 -0.2038  0.4386
 4236TIP3    H112672   5.714   1.604   5.172  0.2107 -0.3223  1.4411
 4236TIP3    H212673   5.863   1.597   5.149  0.2766 -0.8791  1.9975
 4237TIP3   OH212674   2.013   4.039   5.834 -0.1888 -0.2344  0.5792
 4237TIP3    H112675   1.922   4.049   5.862 -0.0593 -0.4368  1.0951
 4237TIP3    H212676   2.020   3.949   5.804 -0.2048 -0.1643  0.3667
 4238TIP3   OH212677   1.645   2.921   0.757  0.2030 -0.2779  0.2888
 4238TIP3    H112678   1.705   2.904   0.829  0.0766 -0.9281  0.2473
 4238TIP3    H212679   1.600   3.003   0.781 -1.2055 -1.4495  1.8583
 4239TIP3   OH212680   7.182   1.229   0.261  0.2045  0.4302  0.3563
 4239TIP3    H112681   7.155   1.145   0.300 -0.3592  0.7973  0.7799
 4239TIP3    H212682   7.161   1.294   0.328  1.1778  0.8566  0.2651
 4240TIP3   OH212683   7.053   4.571   1.054 -0.2489  0.7010  0.2237
 4240TIP3    H112684   7.046   4.564   0.959 -2.3690 -0.3120  0.3979
 4240TIP3    H212685   7.034   4.483   1.086  0.3961  1.0339  1.6066
 4241TIP3   OH212686   0.121   0.270   5.256  0.8713 -0.1165 -0.1074
 4241TIP3    H112687   0.116   0.176   5.276 -0.0005  0.5927  3.6366
 4241TIP3    H212688   0.053   0.283   5.190  0.3825 -1.9690 -0.0403
 4242TIP3   OH212689   3.920   3.838   1.583 -0.2720 -0.0114 -0.7680
 4242TIP3    H112690   3.849   3.822   1.521 -0.5204 -0.8797 -0.2686
 4242TIP3    H212691   3.967   3.755   1.588  0.5396  0.4352 -0.7812
 4243TIP3   OH212692   3.152   6.661   0.475 -0.1134  0.0224 -0.2285
 4243TIP3    H112693   3.180   6.743   0.515  1.0133 -1.7612  2.9532
 4243TIP3    H212694   3.215   6.645   0.405 -0.1890  1.6770 -0.7015
 4244TIP3   OH212695   4.333   1.822   2.266 -0.1663  0.0545  0.1597
 4244TIP3    H112696   4.359   1.806   2.176 -2.7355 -0.4796 -0.5660
 4244TIP3    H212697   4.357   1.741   2.313 -2.7747 -1.5694 -1.0695
 4245TIP3   OH212698   5.808   4.938   1.013  0.5048 -0.5670  0.0112
 4245TIP3    H112699   5.795   5.018   0.963 -2.8838 -0.0888  1.4190
 4245TIP3    H212700   5.860   4.966   1.089  0.6305 -0.0428 -0.2622
 4246TIP3   OH212701   4.677   0.045   1.574  0.7293  0.1174  0.3618
 4246TIP3    H112702   4.701   0.046   1.667  1.1360  0.4660  0.2582
 4246TIP3    H212703   4.590   0.007   1.572  0.5430  0.4957  0.9328
 4247TIP3   OH212704   1.933   1.000   2.638 -0.0028  0.0221 -0.2578
 4247TIP3    H112705   1.866   1.068   2.633 -0.4959 -0.5103 -1.5682
 4247TIP3    H212706   1.979   1.006   2.554  0.4769 -0.7271 -0.0589
 4248TIP3   OH212707   4.760   4.017   4.498 -0.0530  0.4585  0.0445
 4248TIP3    H112708   4.851   4.045   4.484  0.0444 -0.2607 -0.8566
 4248TIP3    H212709   4.713   4.099   4.513  0.3474  1.0908 -1.8537
 4249TIP3   OH212710   6.931   3.849   5.216 -0.0689 -0.3136  0.6679
 4249TIP3    H112711   6.961   3.886   5.133 -0.8872 -0.6218  0.2212
 4249TIP3    H212712   7.006   3.857   5.275  1.4316 -2.4975 -0.8480
 4250TIP3   OH212713   6.150   3.492   0.302 -0.0645  0.0604  0.4813
 4250TIP3    H112714   6.204   3.532   0.234 -0.1065  0.3016  0.5890
 4250TIP3    H212715   6.163   3.548   0.379 -1.4417  0.8631  0.1672
 4251TIP3   OH212716   0.878   4.892   3.969  0.1216 -0.4333  0.4826
 4251TIP3    H112717   0.788   4.861   3.976 -0.5861  1.5257  0.6364
 4251TIP3    H212718   0.897   4.931   4.055  0.8880 -0.2233  0.2311
 4252TIP3   OH212719   1.608   1.229   0.595 -0.1963  0.4735  0.0543
 4252TIP3    H112720   1.572   1.228   0.684  1.4237  2.7025  0.7927
 4252TIP3    H212721   1.610   1.321   0.571  0.9564  0.0359 -1.6552
 4253TIP3   OH212722   0.547   5.449   0.102  0.3235  0.9503  0.3135
 4253TIP3    H112723   0.497   5.530   0.089 -0.5050  0.5227  0.7100
 4253TIP3    H212724   0.600   5.441   0.023 -0.1852  1.4736 -0.0944
 4254TIP3   OH212725   5.183   6.623   1.342 -0.3174  0.1147  0.1165
 4254TIP3    H112726   5.157   6.536   1.373 -0.7013  0.3896  0.5818
 4254TIP3    H212727   5.278   6.626   1.358  0.1546 -1.0972 -2.1016
 4255TIP3   OH212728   0.705   2.315   3.607 -0.0774  0.3543  0.3736
 4255TIP3    H112729   0.742   2.401   3.587 -1.5171  0.8928 -0.1341
 4255TIP3    H212730   0.654   2.329   3.687  0.1256 -0.1634  0.6003
 4256TIP3   OH212731   0.700   4.723  -0.021  0.2329  0.3457 -0.0203
 4256TIP3    H112732   0.645   4.743   0.056  1.2721  1.4562  0.4516
 4256TIP3    H212733   0.769   4.667   0.014  2.5859  3.4337  0.6216
 4257TIP3   OH212734   2.105   5.842   0.431 -0.0786  0.1012  0.3136
 4257TIP3    H112735   2.070   5.754   0.417  1.1643 -0.5935  1.3719
 4257TIP3    H212736   2.106   5.881   0.344  0.2422 -1.2905 -0.3387
 4258TIP3   OH212737   2.557   4.827   5.383 -0.2826 -0.2999 -0.0064
 4258TIP3    H112738   2.572   4.785   5.298 -0.5355 -0.5417  0.0690
 4258TIP3    H212739   2.477   4.786   5.416  0.0961 -0.5696  0.5842
 4259TIP3   OH212740   3.026   2.039   5.496 -0.3576  0.2606  0.1625
 4259TIP3    H112741   3.044   2.030   5.590  1.5515  0.1322 -0.1727
 4259TIP3    H212742   3.109   2.017   5.454 -1.1287  0.5139 -1.5595
 4260TIP3   OH212743   2.235   6.240   5.576 -0.2015  0.7193 -0.4196
 4260TIP3    H112744   2.244   6.276   5.664  1.9330  0.9653 -0.6801
 4260TIP3    H212745   2.156   6.281   5.540 -0.3721  1.5989  0.9097
 4261TIP3   OH212746   6.950   3.421   2.871 -0.4694 -0.5123 -0.2287
 4261TIP3    H112747   6.941   3.352   2.937  0.8994  0.2549  0.7950
 4261TIP3    H212748   6.899   3.494   2.905 -1.8320 -0.9258 -1.2650
 4262TIP3   OH212749   6.245   2.297   2.549  0.0353 -0.3048  0.4101
 4262TIP3    H112750   6.254   2.382   2.505 -0.7621  0.5146  1.7686
 4262TIP3    H212751   6.310   2.241   2.506 -1.6352  0.0031 -2.7615
 4263TIP3   OH212752   6.545   4.736   2.143 -0.1769  0.1893 -0.5433
 4263TIP3    H112753   6.559   4.674   2.070  1.4459  0.5630 -0.5984
 4263TIP3    H212754   6.548   4.822   2.101  1.3880  0.4361  0.0000
 4264TIP3   OH212755   0.565   6.023   1.303  0.4585  0.0054 -0.3615
 4264TIP3    H112756   0.576   5.972   1.223 -0.0650  0.8452 -0.9832
 4264TIP3    H212757   0.643   6.078   1.307  1.4846 -1.4560  0.8032
 4265TIP3   OH212758   0.208   3.657   2.882 -0.3961  0.2748 -0.0503
 4265TIP3    H112759   0.219   3.647   2.788 -0.2803  0.2001 -0.0291
 4265TIP3    H212760   0.288   3.620   2.920 -0.6074 -0.0366  0.0915
 4266TIP3   OH212761   6.040   2.672   4.837  0.4328 -0.0432 -0.0261
 4266TIP3    H112762   6.005   2.596   4.790 -0.9095  0.5320  0.0160
 4266TIP3    H212763   6.045   2.741   4.771 -0.9291  0.6032  0.5164
 4267TIP3   OH212764   5.572   4.984   4.788  0.1459  0.2379 -0.0004
 4267TIP3    H112765   5.599   4.929   4.715 -0.8630  0.4832 -0.5732
 4267TIP3    H212766   5.507   4.931   4.835  1.4081 -0.2620  1.2325
 4268TIP3   OH212767   4.340   2.467   0.244  0.2141  0.1159  0.0932
 4268TIP3    H112768   4.257   2.515   0.242 -0.0504 -0.2622  1.1645
 4268TIP3    H212769   4.380   2.485   0.159 -0.6070  0.9330 -0.1432
 4269TIP3   OH212770   7.153   0.779   5.306 -0.0012  0.0219  0.1121
 4269TIP3    H112771   7.187   0.777   5.395  1.0563  0.4503 -0.2653
 4269TIP3    H212772   7.134   0.871   5.289  1.5517  0.2282 -0.7160
 4270TIP3   OH212773   0.801   6.606   4.775  0.3686 -0.0207  0.6072
 4270TIP3    H112774   0.805   6.701   4.759  1.2330 -0.3171 -1.1529
 4270TIP3    H212775   0.790   6.599   4.870  2.9224  1.8066  1.1517
 4271TIP3   OH212776   1.180   5.635   5.690 -0.0373 -0.4786 -0.5797
 4271TIP3    H112777   1.125   5.603   5.618  0.5904 -0.0278 -1.2714
 4271TIP3    H212778   1.223   5.712   5.654 -0.4158  0.2998  0.5870
 4272TIP3   OH212779   0.467   6.544   1.931 -0.3841  0.1362  0.4507
 4272TIP3    H112780   0.562   6.555   1.935 -0.3953 -0.1378  1.7091
 4272TIP3    H212781   0.438   6.611   1.868  0.6815 -0.1819 -0.4118
 4273TIP3   OH212782   6.304   4.232   4.657  0.3857  0.5017  0.1079
 4273TIP3    H112783   6.284   4.139   4.657  1.2444  0.3040 -0.5133
 4273TIP3    H212784   6.243   4.270   4.594  1.3564  0.0434 -1.1319
 4274TIP3   OH212785   6.615   1.577   1.941 -0.3470  0.1933  0.1598
 4274TIP3    H112786   6.670   1.509   1.980  0.3700  2.2848  3.1737
 4274TIP3    H212787   6.677   1.641   1.906 -0.9002  0.9382  0.5050
 4275TIP3   OH212788   4.505   0.946   2.522  0.0919 -0.6927 -0.0872
 4275TIP3    H112789   4.561   1.022   2.542 -1.3593  0.6274 -0.8211
 4275TIP3    H212790   4.428   0.984   2.480 -0.4403 -2.6543 -0.9724
 4276TIP3   OH212791   6.082   5.282   5.009 -0.0629 -0.0490  0.3594
 4276TIP3    H112792   6.144   5.212   5.029 -0.5066  0.0229  2.1184
 4276TIP3    H212793   5.997   5.238   5.005 -0.1873  0.2002  0.2608
 4277TIP3   OH212794   4.356   5.117   0.635 -0.2376 -0.0042  0.4250
 4277TIP3    H112795   4.320   5.038   0.596  1.3249 -0.4895 -0.1123
 4277TIP3    H212796   4.357   5.180   0.563  0.0994 -0.0299  0.4081
 4278TIP3   OH212797   1.813   6.669   0.565 -0.3754  0.0827  0.1473
 4278TIP3    H112798   1.862   6.750   0.582  2.1729 -1.5134  0.8699
 4278TIP3    H212799   1.815   6.659   0.470 -1.2826  1.1315 -0.0148
 4279TIP3   OH212800   2.932   6.444   4.157  0.0293  0.4899 -0.1519
 4279TIP3    H112801   2.981   6.527   4.155 -2.0051  1.7986 -2.8034
 4279TIP3    H212802   2.978   6.388   4.095 -1.6278  1.7584 -2.7304
 4280TIP3   OH212803   0.888   4.567   2.448  0.1248  0.0538  0.4104
 4280TIP3    H112804   0.940   4.554   2.369  0.2359  0.1878  0.4610
 4280TIP3    H212805   0.863   4.659   2.446 -1.9296 -0.4529 -0.7280
 4281TIP3   OH212806   1.529   3.950   5.539  0.6522  0.0909 -0.2289
 4281TIP3    H112807   1.530   3.878   5.602  1.5619  0.0949 -0.2253
 4281TIP3    H212808   1.490   3.913   5.460  2.6456 -0.9475 -0.8136
 4282TIP3   OH212809   0.158   0.936   3.461 -0.0279  0.3325  0.1927
 4282TIP3    H112810   0.250   0.957   3.478 -0.0963  1.3269 -0.6207
 4282TIP3    H212811   0.129   1.001   3.398 -0.7596 -1.1372 -1.0527
 4283TIP3   OH212812   5.569   5.901   4.727 -0.5428  0.1459 -0.3749
 4283TIP3    H112813   5.656   5.862   4.730 -0.0151  1.3278  1.4534
 4283TIP3    H212814   5.556   5.926   4.636  0.3521 -1.4482 -0.9774
 4284TIP3   OH212815   0.769   4.968   2.678  0.1913 -0.3144 -0.0242
 4284TIP3    H112816   0.720   5.039   2.720 -0.5956 -2.2344  2.5884
 4284TIP3    H212817   0.763   4.895   2.741  2.7782 -2.0127 -1.5910
 4285TIP3   OH212818   1.925   0.152   2.205  0.0884  0.0736 -0.4364
 4285TIP3    H112819   1.968   0.174   2.288 -0.0640  0.9434 -0.5732
 4285TIP3    H212820   1.836   0.185   2.215 -0.2438 -0.7778 -0.5522
 4286TIP3   OH212821   4.837   5.626   2.070 -0.0489 -0.2850 -0.0282
 4286TIP3    H112822   4.899   5.563   2.033  2.1491  1.5769  0.2662
 4286TIP3    H212823   4.773   5.641   2.001  0.7907 -1.0112 -0.9859
 4287TIP3   OH212824   2.076   5.555   2.160  0.2432  0.0127  0.5770
 4287TIP3    H112825   2.147   5.496   2.186 -1.2786 -2.5930 -0.7540
 4287TIP3    H212826   2.053   5.601   2.240  2.6160  0.0973  1.2987
 4288TIP3   OH212827   3.137   4.763   0.960  0.2858  0.5332  0.2456
 4288TIP3    H112828   3.161   4.730   0.873  0.4020  0.6973  0.2154
 4288TIP3    H212829   3.054   4.808   0.947  0.3613  0.6591  0.1967
 4289TIP3   OH212830   6.237   2.927   2.219 -0.4481 -0.3045  0.4664
 4289TIP3    H112831   6.322   2.921   2.263 -0.2703 -3.5581 -0.0538
 4289TIP3    H212832   6.257   2.958   2.131  0.1082 -0.3601  0.5698
 4290TIP3   OH212833   1.884   5.793   0.703 -0.6593 -0.4010  0.2553
 4290TIP3    H112834   1.864   5.744   0.783  0.8346 -1.1470  0.2092
 4290TIP3    H212835   1.861   5.734   0.632 -2.7569  0.5613  0.0521
 4291TIP3   OH212836   3.611   0.275   4.235  0.3114 -0.6661  0.6318
 4291TIP3    H112837   3.584   0.283   4.143 -4.5398  2.6076  1.9523
 4291TIP3    H212838   3.673   0.346   4.248  0.1888 -0.4618  0.1360
 4292TIP3   OH212839   6.576   2.558   5.006  0.0076  0.2265 -0.4420
 4292TIP3    H112840   6.619   2.475   5.027 -2.9104 -1.2989  0.0654
 4292TIP3    H212841   6.584   2.567   4.911 -0.2292 -0.9829 -0.5806
 4293TIP3   OH212842   1.245   0.850   0.070  0.2438  0.3238  0.5020
 4293TIP3    H112843   1.223   0.936   0.106  0.6270  0.5604  0.1774
 4293TIP3    H212844   1.190   0.789   0.118  2.2106  0.3727  3.0388
 4294TIP3   OH212845   3.912   2.218   4.394  0.2048 -0.2313  0.3663
 4294TIP3    H112846   3.945   2.280   4.459  2.0473 -0.4963 -0.2614
 4294TIP3    H212847   3.956   2.136   4.414  0.7358 -0.3408 -1.1201
 4295TIP3   OH212848   4.568   0.844   0.105  0.1054 -0.1565  0.1149
 4295TIP3    H112849   4.645   0.804   0.146  1.2323  0.9309 -0.8692
 4295TIP3    H212850   4.493   0.803   0.149  1.2397 -1.1191  1.2101
 4296TIP3   OH212851   5.970   1.482   3.902  0.3020 -0.3283  0.2929
 4296TIP3    H112852   5.942   1.512   3.988 -1.1022 -0.8867  0.0578
 4296TIP3    H212853   5.892   1.441   3.864  0.7766  0.2597 -1.4098
 4297TIP3   OH212854   6.965   4.341   2.542 -0.0806  0.0397  0.3935
 4297TIP3    H112855   7.001   4.426   2.570 -0.0409 -0.0773  0.6978
 4297TIP3    H212856   6.870   4.352   2.547 -0.0848  0.2029  0.0211
 4298TIP3   OH212857   2.527   1.524   3.175  0.1623 -0.2040  0.1404
 4298TIP3    H112858   2.448   1.475   3.200  0.2869 -0.4761 -0.0017
 4298TIP3    H212859   2.597   1.459   3.178  0.7024  0.4022  2.0139
 4299TIP3   OH212860   0.163   5.894   2.849 -0.2023 -0.3339  0.5277
 4299TIP3    H112861   0.163   5.806   2.810 -1.7226 -0.9403  1.8100
 4299TIP3    H212862   0.171   5.953   2.774  0.9352 -1.5430 -0.3593
 4300TIP3   OH212863   5.663   0.849   0.824  0.4838  0.1209  0.0590
 4300TIP3    H112864   5.587   0.848   0.765  0.9440 -1.1266 -0.5496
 4300TIP3    H212865   5.625   0.845   0.912 -0.1669 -0.4527 -0.2334
 4301TIP3   OH212866   6.483   0.500   1.573  0.2501 -0.3205 -0.1460
 4301TIP3    H112867   6.477   0.586   1.615 -1.4052 -0.3398 -0.2841
 4301TIP3    H212868   6.531   0.515   1.492  0.6365  0.3257  0.2015
 4302TIP3   OH212869   0.824   1.843   4.699 -0.7733  0.0860  0.0201
 4302TIP3    H112870   0.844   1.882   4.784 -1.3609  0.8875 -0.2018
 4302TIP3    H212871   0.729   1.829   4.701 -1.2224  2.3754 -1.3919
 4303TIP3   OH212872   4.717   6.564   5.315 -0.6574  0.0182  0.3668
 4303TIP3    H112873   4.748   6.527   5.398  0.3238  0.6117  0.2772
 4303TIP3    H212874   4.656   6.634   5.341  0.6608  1.1036  0.6435
 4304TIP3   OH212875   5.752   1.410   3.593 -0.9153  0.3060 -0.2379
 4304TIP3    H112876   5.697   1.487   3.577  1.1021  2.1123  0.9701
 4304TIP3    H212877   5.721   1.377   3.677 -0.9392  0.6059 -0.1250
 4305TIP3   OH212878   2.770   0.972   1.381  0.1658 -0.3872  0.1128
 4305TIP3    H112879   2.826   0.897   1.401  0.2162 -0.4214 -0.1498
 4305TIP3    H212880   2.682   0.945   1.408 -0.1113 -1.1574 -1.4197
 4306TIP3   OH212881   6.788   6.123   5.103  1.0122  0.4679  0.3287
 4306TIP3    H112882   6.853   6.111   5.034  0.4648 -1.3775  0.0608
 4306TIP3    H212883   6.801   6.212   5.134  1.9852  0.9853 -1.4319
 4307TIP3   OH212884   3.923   1.637   0.204 -0.1946 -0.6593  0.0670
 4307TIP3    H112885   3.946   1.670   0.117  0.1979 -2.5665 -0.6158
 4307TIP3    H212886   3.830   1.655   0.213 -0.2428 -0.4515 -0.7702
 4308TIP3   OH212887   5.651   6.618   2.463  0.5930 -0.4252  0.0485
 4308TIP3    H112888   5.656   6.526   2.437 -0.1517 -1.0959  2.1387
 4308TIP3    H212889   5.583   6.621   2.530  2.6951  1.0814  2.2786
 4309TIP3   OH212890   2.989   4.377   4.560  0.3556 -0.8127  0.1851
 4309TIP3    H112891   2.930   4.302   4.550 -1.7107  0.5800  1.2551
 4309TIP3    H212892   3.001   4.410   4.471  0.1351 -1.5783 -0.1350
 4310TIP3   OH212893   2.427   4.350   3.874 -0.4927 -0.3126 -0.6811
 4310TIP3    H112894   2.471   4.309   3.948  0.3656 -0.7686 -1.4317
 4310TIP3    H212895   2.362   4.286   3.846 -0.0115 -0.6440 -1.0571
 4311TIP3   OH212896   1.116   2.500   3.030 -0.0284 -0.2708 -0.2983
 4311TIP3    H112897   1.159   2.540   2.954 -0.9002  1.3509  0.0409
 4311TIP3    H212898   1.026   2.485   3.002 -0.6087  1.1766  0.6595
 4312TIP3   OH212899   1.947   3.588   5.155  0.0215 -0.1735 -0.4269
 4312TIP3    H112900   1.893   3.522   5.198  0.6019 -0.2695  0.1596
 4312TIP3    H212901   2.037   3.559   5.169  0.4196  1.7064  1.4969
 4313TIP3   OH212902   0.238   1.847   3.348  0.0792  0.3888 -0.2594
 4313TIP3    H112903   0.223   1.794   3.426  0.8135 -1.4448 -1.3040
 4313TIP3    H212904   0.171   1.819   3.287 -1.1998  2.6175  0.0321
 4314TIP3   OH212905   1.182   4.189   3.854  0.4031 -0.2493 -0.3503
 4314TIP3    H112906   1.267   4.148   3.865  0.3988 -0.7974 -2.0669
 4314TIP3    H212907   1.168   4.239   3.935  1.6947 -1.2973  0.5555
 4315TIP3   OH212908   0.768   2.466   0.374 -0.0208 -0.0194  0.4715
 4315TIP3    H112909   0.809   2.500   0.294 -0.0864 -1.7109 -0.3338
 4315TIP3    H212910   0.840   2.453   0.435  0.1621  0.3526  0.3376
 4316TIP3   OH212911   5.633   1.921   3.458 -0.0353 -0.3437  0.0803
 4316TIP3    H112912   5.584   1.965   3.527 -0.5264  0.5909 -0.8314
 4316TIP3    H212913   5.721   1.958   3.464  0.0392 -0.5875  0.4844
 4317TIP3   OH212914   5.402   0.466   1.625 -0.3582  0.2135  0.1047
 4317TIP3    H112915   5.473   0.498   1.570  2.1835 -1.3397  2.2320
 4317TIP3    H212916   5.348   0.412   1.567  0.1008  1.4934 -1.5860
 4318TIP3   OH212917   1.013   1.519   5.708  0.2230  0.0469 -0.4858
 4318TIP3    H112918   1.037   1.528   5.616  0.3895  1.4990 -0.3240
 4318TIP3    H212919   0.942   1.582   5.721  0.3523  0.0213  0.4349
 4319TIP3   OH212920   4.699   0.619   3.184  0.2684  0.1025 -0.4091
 4319TIP3    H112921   4.657   0.617   3.098  2.1060  1.8514 -1.4273
 4319TIP3    H212922   4.760   0.545   3.182 -0.9126 -0.9174  0.1079
 4320TIP3   OH212923   3.384   1.872   2.296  0.0274 -0.5587 -0.1879
 4320TIP3    H112924   3.332   1.913   2.366  0.3195 -0.0302 -0.2764
 4320TIP3    H212925   3.362   1.923   2.218 -0.4490 -1.2728 -0.5245
 4321TIP3   OH212926   3.096   1.110   3.196 -0.4466 -0.0038  0.4348
 4321TIP3    H112927   3.146   1.050   3.252 -1.1705  1.0078  2.2566
 4321TIP3    H212928   3.113   1.196   3.234 -0.9497  0.7380 -0.9660
 4322TIP3   OH212929   0.114   4.366   3.127 -0.0056  0.3932  0.1888
 4322TIP3    H112930   0.149   4.315   3.200 -2.1799  0.6958  1.4978
 4322TIP3    H212931   0.166   4.447   3.128  0.4173  0.1277  0.9716
 4323TIP3   OH212932   3.000   5.044   0.580  0.1226 -0.2152 -0.3210
 4323TIP3    H112933   2.908   5.069   0.581 -0.2556 -1.5502 -0.1757
 4323TIP3    H212934   3.008   4.986   0.503  0.8737  0.0092 -0.4206
 4324TIP3   OH212935   4.092   2.815   4.533 -0.2439 -0.1588 -0.6566
 4324TIP3    H112936   4.076   2.772   4.450  0.4805  1.1763 -1.5290
 4324TIP3    H212937   4.185   2.840   4.529 -0.3774  0.5340  0.2455
 4325TIP3   OH212938   0.205   0.200   2.221 -0.0636 -0.2177  0.4732
 4325TIP3    H112939   0.230   0.196   2.314  1.0101  1.8284  0.3457
 4325TIP3    H212940   0.287   0.184   2.174 -0.2175  0.5866 -0.0824
 4326TIP3   OH212941   3.928   1.337   0.266  0.0863  0.0104 -0.1572
 4326TIP3    H112942   3.990   1.319   0.195  1.5471 -1.1295  1.3148
 4326TIP3    H212943   3.929   1.432   0.276  0.4969  0.1164 -1.1064
 4327TIP3   OH212944   3.901   3.483   0.782 -0.4476 -0.6098 -0.3039
 4327TIP3    H112945   3.926   3.572   0.807  1.0280 -1.4411  1.4121
 4327TIP3    H212946   3.925   3.476   0.689  2.5845 -0.2095  0.3481
 4328TIP3   OH212947   1.196   5.726   2.526  0.1211 -0.2212 -0.0151
 4328TIP3    H112948   1.242   5.808   2.546  0.0179  0.2302 -1.5588
 4328TIP3    H212949   1.114   5.733   2.575  0.8743 -0.2183  1.2928
 4329TIP3   OH212950   6.323   0.819   4.878 -0.1147 -0.1923 -0.1792
 4329TIP3    H112951   6.294   0.736   4.916  0.0402 -0.0161  0.3263
 4329TIP3    H212952   6.263   0.834   4.805  1.5595 -2.1928 -2.1131
 4330TIP3   OH212953   3.857   3.978   2.716 -0.2991  0.2407 -0.0023
 4330TIP3    H112954   3.943   3.983   2.758  0.0771  0.1000 -0.7416
 4330TIP3    H212955   3.866   3.909   2.651 -1.1625 -0.2033  0.3367
 4331TIP3   OH212956   2.431   5.561   5.190  0.0425 -0.2605  0.0869
 4331TIP3    H112957   2.422   5.655   5.175 -2.2822 -0.3976  0.2953
 4331TIP3    H212958   2.424   5.550   5.284 -0.7091 -0.7246 -0.0182
 4332TIP3   OH212959   3.232   2.617   1.038 -0.3614  0.3962  0.2503
 4332TIP3    H112960   3.144   2.641   1.008 -0.5641 -0.3691  0.2107
 4332TIP3    H212961   3.290   2.678   0.993 -0.6644 -0.5749 -1.5622
 4333TIP3   OH212962   1.876   1.474   4.753  0.2372  0.3697 -0.1303
 4333TIP3    H112963   1.915   1.503   4.835 -0.0170  0.6738 -0.1136
 4333TIP3    H212964   1.796   1.526   4.745 -0.4176 -0.5725  0.0710
 4334TIP3   OH212965   3.425   6.226   4.637 -0.2254  0.1720  0.1381
 4334TIP3    H112966   3.466   6.188   4.559 -1.4641 -0.3440 -0.2978
 4334TIP3    H212967   3.427   6.321   4.621  1.9524  0.2626  0.7513
 4335TIP3   OH212968   0.533   3.952   4.043 -0.7492 -0.1183 -0.0819
 4335TIP3    H112969   0.442   3.981   4.050 -0.7770 -0.5243  1.6874
 4335TIP3    H212970   0.548   3.900   4.122  1.0555  0.0478 -0.2723
 4336TIP3   OH212971   1.558   1.991   5.243 -0.1157 -0.3005 -0.7295
 4336TIP3    H112972   1.501   1.924   5.279 -1.1710  0.0385 -1.6859
 4336TIP3    H212973   1.498   2.053   5.202  0.8245  1.2062  0.0770
 4337TIP3   OH212974   3.498   0.339   3.716  0.6504  0.6847 -0.3078
 4337TIP3    H112975   3.482   0.248   3.689 -1.1210  0.7772  0.2576
 4337TIP3    H212976   3.575   0.335   3.771  0.5594 -0.4942 -0.2365
 4338TIP3   OH212977   1.069   5.200   1.101  0.6077 -0.1202 -0.2626
 4338TIP3    H112978   1.153   5.231   1.068  1.2680 -0.1137  1.3603
 4338TIP3    H212979   1.085   5.179   1.193 -0.6895 -1.9048 -0.3793
 4339TIP3   OH212980   5.288   5.194   0.551  0.0357 -0.4664 -0.3972
 4339TIP3    H112981   5.238   5.153   0.621  0.1501 -1.8317 -1.0882
 4339TIP3    H212982   5.225   5.253   0.509 -0.1740 -0.0307  0.5151
 4340TIP3   OH212983   2.597   6.661   4.409 -0.2681  0.6690  0.3371
 4340TIP3    H112984   2.667   6.726   4.404 -0.1622  0.8338  2.7675
 4340TIP3    H212985   2.586   6.630   4.319  1.5648  2.0487 -0.4189
 4341TIP3   OH212986   5.399   2.816   2.143  0.3408 -0.1333  0.9159
 4341TIP3    H112987   5.460   2.884   2.114  0.0670  0.2816  1.3007
 4341TIP3    H212988   5.320   2.863   2.167 -0.3653 -0.7323 -0.1913
 4342TIP3   OH212989   3.060   0.192   3.768  0.2885 -0.0620  0.1197
 4342TIP3    H112990   3.128   0.257   3.751  0.1207  0.5976  1.7622
 4342TIP3    H212991   2.988   0.243   3.806  0.1843 -1.1938  1.5084
 4343TIP3   OH212992   5.892   6.737   2.350  0.7194  0.3063 -0.2997
 4343TIP3    H112993   5.953   6.665   2.368  0.4642  0.3083  0.6324
 4343TIP3    H212994   5.805   6.696   2.350  0.5848  0.5876  0.0797
 4344TIP3   OH212995   4.396   5.325   3.988 -0.1395 -0.2442  0.1562
 4344TIP3    H112996   4.364   5.235   3.986  0.3485 -0.4411 -2.3461
 4344TIP3    H212997   4.422   5.343   3.898  1.8754  1.6672  1.0287
 4345TIP3   OH212998   6.713   3.941   2.019 -0.5250 -0.0236  0.5251
 4345TIP3    H112999   6.785   3.889   2.054 -0.0440  0.3475  0.1004
 4345TIP3    H213000   6.741   3.966   1.931 -1.6102 -0.7388 -0.0500
 4346TIP3   OH213001   1.866   2.316   5.397  0.3829 -0.6321 -1.0486
 4346TIP3    H113002   1.831   2.370   5.325  1.4975  1.7390  0.0768
 4346TIP3    H213003   1.791   2.263   5.425 -0.5849 -0.2341 -2.6980
 4347TIP3   OH213004   1.754   5.595   2.454 -0.1696  0.8010  0.2942
 4347TIP3    H113005   1.660   5.576   2.454  0.4602 -3.2464 -1.4034
 4347TIP3    H213006   1.776   5.611   2.363  0.8313  1.7689  0.6828
 4348TIP3   OH213007   5.603   4.341   1.581 -0.4120 -0.5530  0.1170
 4348TIP3    H113008   5.685   4.317   1.537 -0.0364 -0.2110  0.6255
 4348TIP3    H213009   5.630   4.401   1.650 -1.0694 -0.6265  0.4366
 4349TIP3   OH213010   0.826   1.732   5.748 -0.5541  0.0438  0.4007
 4349TIP3    H113011   0.874   1.813   5.767 -0.4770  0.2463 -0.5947
 4349TIP3    H213012   0.735   1.752   5.773 -0.0673 -0.5884  3.0002
 4350TIP3   OH213013   1.865   1.019   3.756 -0.9144  0.1225 -0.1805
 4350TIP3    H113014   1.791   1.042   3.811 -0.5565 -0.5877  0.6148
 4350TIP3    H213015   1.901   1.103   3.726 -1.4200  0.4933  0.2504
 4351TIP3   OH213016   3.425   1.106   5.405 -0.0953  0.4129  0.2603
 4351TIP3    H113017   3.398   1.143   5.321  0.3250  1.5860  0.6114
 4351TIP3    H213018   3.486   1.171   5.441 -0.2620 -0.0705  1.4711
 4352TIP3   OH213019   5.980   2.854   5.616 -0.1679  0.2032  0.5576
 4352TIP3    H113020   5.952   2.804   5.693  0.9400  0.1518  0.9460
 4352TIP3    H213021   5.901   2.862   5.563 -0.8952  0.0273  1.5838
 4353TIP3   OH213022   3.575   6.047   0.510 -0.1613 -0.7569 -0.5046
 4353TIP3    H113023   3.567   6.122   0.568  1.4967  0.3523 -1.6385
 4353TIP3    H213024   3.485   6.018   0.496 -0.6649 -0.6338  2.0048
 4354TIP3   OH213025   4.746   0.894   2.181 -0.2008 -0.1480 -0.2073
 4354TIP3    H113026   4.662   0.907   2.137 -0.1503  0.0245 -0.2540
 4354TIP3    H213027   4.744   0.803   2.210 -0.3644 -0.1719 -0.2917
 4355TIP3   OH213028   6.478   3.976   1.798  0.1617 -0.7689 -0.2542
 4355TIP3    H113029   6.493   3.946   1.888 -0.1240 -0.3834 -0.0768
 4355TIP3    H213030   6.455   4.068   1.807 -0.4368 -0.8725 -0.6723
 4356TIP3   OH213031   6.496   3.499   3.234 -0.3113 -0.4908 -0.1806
 4356TIP3    H113032   6.462   3.527   3.149 -0.5742  0.6616  0.2805
 4356TIP3    H213033   6.473   3.571   3.293  1.3281 -0.5124  0.5315
 4357TIP3   OH213034   4.334   2.080   4.324 -0.0673  0.5459  0.7607
 4357TIP3    H113035   4.332   1.984   4.330  1.1889  0.5386  1.1847
 4357TIP3    H213036   4.295   2.099   4.239  1.3288 -0.4534 -0.1405
 4358TIP3   OH213037   4.172   5.200   2.045 -0.2224 -0.0908  0.4365
 4358TIP3    H113038   4.158   5.141   1.972 -1.5633  1.2753 -0.4607
 4358TIP3    H213039   4.103   5.266   2.037  0.8143  1.2331  1.7646
 4359TIP3   OH213040   0.486   3.027   3.097 -0.1891 -0.0818  0.0812
 4359TIP3    H113041   0.570   3.073   3.096 -0.6257  0.7352 -0.6765
 4359TIP3    H213042   0.458   3.031   3.189  1.1035 -1.3559  0.5636
 4360TIP3   OH213043   6.959   1.964   3.194  0.1237  0.1266  0.1068
 4360TIP3    H113044   6.993   1.941   3.107 -0.0230  1.0027 -0.1849
 4360TIP3    H213045   7.023   2.026   3.229  0.4771 -0.6365  0.8637
 4361TIP3   OH213046   1.287   4.581   5.656 -0.2869  0.5022  0.0916
 4361TIP3    H113047   1.362   4.640   5.663  0.3255 -0.0857 -1.1975
 4361TIP3    H213048   1.220   4.621   5.711  0.7985  1.3079  0.8701
 4362TIP3   OH213049   3.386   1.176   0.118  0.1039  0.4678  0.6984
 4362TIP3    H113050   3.340   1.254   0.149 -1.3059 -0.5845  1.3847
 4362TIP3    H213051   3.325   1.135   0.056  1.5424  0.8017 -1.0105
 4363TIP3   OH213052   4.811   0.446   0.290 -0.5412 -0.4321 -0.0823
 4363TIP3    H113053   4.833   0.432   0.382  0.9443 -0.1901 -0.3745
 4363TIP3    H213054   4.844   0.368   0.246  2.3769  1.1031 -0.9022
 4364TIP3   OH213055   5.365   6.060   4.784 -0.6058  0.0042  0.0258
 4364TIP3    H113056   5.400   6.148   4.797 -0.5727 -0.1491  1.0446
 4364TIP3    H213057   5.439   6.002   4.803 -0.7007 -0.2637 -0.3820
 4365TIP3   OH213058   1.576   1.057   0.859 -0.0934  0.2281  0.4363
 4365TIP3    H113059   1.656   1.080   0.907  0.7578  1.3477 -1.4031
 4365TIP3    H213060   1.526   1.138   0.856 -0.5411 -0.0547  0.1816
 4366TIP3   OH213061   0.766   0.848   3.911 -0.7377  0.4359 -0.1405
 4366TIP3    H113062   0.759   0.942   3.893  0.3787  0.9067  1.6920
 4366TIP3    H213063   0.799   0.810   3.829 -2.3792  1.4141 -1.3178
 4367TIP3   OH213064   4.486   3.266   0.201 -0.3490 -0.6944 -0.9026
 4367TIP3    H113065   4.538   3.212   0.141  1.2304  0.6040 -0.7712
 4367TIP3    H213066   4.543   3.340   0.223 -2.3922  1.0460 -1.0679
 4368TIP3   OH213067   5.567   1.793   0.198 -0.5513 -0.1760 -0.2895
 4368TIP3    H113068   5.502   1.750   0.255 -0.9393  1.8953  0.9389
 4368TIP3    H213069   5.578   1.880   0.236  1.5773  0.1937 -1.5870
 4369TIP3   OH213070   2.790   2.814   2.508  0.1339  0.5926  0.2801
 4369TIP3    H113071   2.701   2.812   2.473 -1.0080  0.6280  2.8926
 4369TIP3    H213072   2.814   2.906   2.506  0.1219  0.5805 -0.4694
 4370TIP3   OH213073   6.137   5.336   4.622 -0.2466 -0.5121 -0.0990
 4370TIP3    H113074   6.060   5.330   4.566 -1.1131  0.6407  0.9143
 4370TIP3    H213075   6.165   5.427   4.614 -1.0814  0.0170  2.1430
 4371TIP3   OH213076   6.677   2.600   2.785  0.2165 -1.2124 -0.0152
 4371TIP3    H113077   6.612   2.616   2.716  0.4898 -2.4243 -0.5741
 4371TIP3    H213078   6.756   2.575   2.738  0.4187 -2.0293  0.7432
 4372TIP3   OH213079   2.394   0.672   3.111  0.3123 -0.1824  0.1483
 4372TIP3    H113080   2.338   0.604   3.150 -0.7788 -0.8135 -2.3172
 4372TIP3    H213081   2.333   0.742   3.089  1.1082  0.7057  0.6983
 4373TIP3   OH213082   5.359   5.654   1.139 -0.6250 -0.0152 -0.1340
 4373TIP3    H113083   5.309   5.728   1.104 -0.8962 -0.8655 -1.6286
 4373TIP3    H213084   5.427   5.695   1.193 -0.1726  1.4103 -1.6866
 4374TIP3   OH213085   3.193   2.199   4.474 -0.3520 -0.0383  0.1675
 4374TIP3    H113086   3.113   2.219   4.523  0.3789 -0.6548  1.6642
 4374TIP3    H213087   3.264   2.223   4.533  0.5883  0.2069 -1.0179
 4375TIP3   OH213088   4.557   4.687   3.609  0.4024  0.0382  0.0833
 4375TIP3    H113089   4.585   4.666   3.520  3.1978  2.5125  0.2160
 4375TIP3    H213090   4.569   4.605   3.657  0.1484 -0.9850 -1.5171
 4376TIP3   OH213091   5.879  -0.026   4.666 -0.5488 -0.3305 -0.5072
 4376TIP3    H113092   5.785  -0.008   4.654 -0.0289  1.8979 -1.8897
 4376TIP3    H213093   5.923   0.044   4.617  1.8577 -0.2207  1.6159
 4377TIP3   OH213094   4.308   3.934   3.611  0.5594  0.8769  0.7798
 4377TIP3    H113095   4.304   3.880   3.689  0.5897 -0.0485  0.1486
 4377TIP3    H213096   4.402   3.944   3.594  0.5437  0.3123  0.3439
 4378TIP3   OH213097   3.131   2.723   2.896  0.0543 -0.1670 -0.2657
 4378TIP3    H113098   3.066   2.788   2.919 -0.7296 -1.2610  0.6982
 4378TIP3    H213099   3.190   2.720   2.972  0.5605 -0.0181 -0.6448
 4379TIP3   OH213100   5.455   1.879   3.263  0.5737 -0.0783  0.1151
 4379TIP3    H113101   5.530   1.903   3.317  0.6285 -0.0796  0.0387
 4379TIP3    H213102   5.492   1.839   3.185  0.5124  0.4664 -0.1910
 4380TIP3   OH213103   5.437   4.443   3.746 -0.1103  0.2754  0.0072
 4380TIP3    H113104   5.396   4.357   3.734 -0.6108  0.4665  0.3312
 4380TIP3    H213105   5.493   4.453   3.669  1.9519 -1.4301  1.1838
 4381TIP3   OH213106   4.388   1.037   2.806 -0.2235  0.3989 -0.1396
 4381TIP3    H113107   4.376   1.090   2.885  0.2860  0.4365 -0.0819
 4381TIP3    H213108   4.420   0.953   2.838 -1.2197 -0.0120 -0.2182
 4382TIP3   OH213109   3.526   2.234   4.305  0.6118  0.5700  0.5042
 4382TIP3    H113110   3.453   2.245   4.243  0.4777  0.6368  0.6742
 4382TIP3    H213111   3.595   2.290   4.270  1.5891 -1.5431 -1.1906
 4383TIP3   OH213112   0.556   1.837   5.847  0.1963  0.5033  0.4254
 4383TIP3    H113113   0.535   1.840   5.940  0.3183  1.6518  0.4311
 4383TIP3    H213114   0.557   1.929   5.820  3.4638  0.4665  0.0415
 4384TIP3   OH213115   5.772   5.918   1.673 -0.0351  0.1191  0.8085
 4384TIP3    H113116   5.799   5.951   1.759 -0.4404  0.5177  0.7927
 4384TIP3    H213117   5.727   5.836   1.692  0.3431 -0.0631  0.9238
 4385TIP3   OH213118   3.065   5.845   3.713 -0.1656  0.1243  0.2959
 4385TIP3    H113119   3.049   5.885   3.628  2.8764 -0.8208 -0.8538
 4385TIP3    H213120   2.981   5.804   3.736 -0.7706 -0.7300 -2.9112
 4386TIP3   OH213121   6.118   0.345   2.483 -0.3349  0.3158  0.2556
 4386TIP3    H113122   6.038   0.391   2.458  0.1643  0.8471 -0.4166
 4386TIP3    H213123   6.093   0.253   2.485 -0.8484  0.4300 -0.4486
 4387TIP3   OH213124   5.205   2.537   4.206 -0.0319  0.6233 -0.6522
 4387TIP3    H113125   5.149   2.557   4.132  0.3776 -0.9127 -1.4170
 4387TIP3    H213126   5.290   2.575   4.184  0.2938 -0.4570 -1.3446
 4388TIP3   OH213127   5.429   0.278   0.727 -0.4083  0.7517 -0.5289
 4388TIP3    H113128   5.380   0.258   0.807  0.7240 -0.9037 -0.2053
 4388TIP3    H213129   5.364   0.316   0.668 -2.1753 -1.5753 -0.2009
 4389TIP3   OH213130   3.635   5.808   3.311 -0.5000 -0.3105 -0.1141
 4389TIP3    H113131   3.704   5.772   3.254 -0.3872 -1.4479  0.7207
 4389TIP3    H213132   3.563   5.827   3.252  0.2988  0.3173 -0.9188
 4390TIP3   OH213133   5.005   4.647   1.080  0.0573  0.3639 -0.2595
 4390TIP3    H113134   5.099   4.650   1.099  0.1688  0.9976 -0.8719
 4390TIP3    H213135   4.992   4.563   1.036  0.3600  0.3344 -0.2989
 4391TIP3   OH213136   4.289   3.771   4.623 -0.2695  0.4540 -0.5352
 4391TIP3    H113137   4.236   3.693   4.638  1.9596 -0.6519  2.6755
 4391TIP3    H213138   4.316   3.765   4.531  0.1449 -2.8187 -0.3099
 4392TIP3   OH213139   1.420   6.149   4.718 -0.4518  0.3212  0.7919
 4392TIP3    H113140   1.409   6.192   4.802  1.5659  0.8868  0.8132
 4392TIP3    H213141   1.345   6.179   4.666 -2.5329 -1.1202  2.7204
 4393TIP3   OH213142   5.234   1.877   2.264  0.3732 -0.2056 -0.5823
 4393TIP3    H113143   5.249   1.962   2.305 -2.2662 -0.0513  0.2068
 4393TIP3    H213144   5.310   1.824   2.290  1.0282  1.2617  0.6468
 4394TIP3   OH213145   4.919   3.292   4.123 -0.2280 -0.1995  0.2518
 4394TIP3    H113146   4.998   3.315   4.074  0.0315  0.6879  1.0647
 4394TIP3    H213147   4.952   3.245   4.200 -0.2405  2.1756  1.8255
 4395TIP3   OH213148   0.841   3.245   3.822 -0.2054  0.3369 -0.3593
 4395TIP3    H113149   0.921   3.252   3.770  0.8417 -2.8706  0.5818
 4395TIP3    H213150   0.858   3.297   3.900  0.0812  1.4039 -1.1216
 4396TIP3   OH213151   3.482   5.394   1.996  0.5305  0.4131 -0.2353
 4396TIP3    H113152   3.493   5.301   1.978  1.3643  0.4796 -0.1305
 4396TIP3    H213153   3.504   5.404   2.089  1.5809  0.8727 -0.5148
 4397TIP3   OH213154   6.268   0.744   0.231 -0.8421  0.3089  0.3384
 4397TIP3    H113155   6.327   0.673   0.257 -0.0249  0.2961 -1.3813
 4397TIP3    H213156   6.215   0.706   0.160 -1.2138  1.0560  0.2053
 4398TIP3   OH213157   0.099   5.029   5.635  0.2444 -0.5118  0.3385
 4398TIP3    H113158   0.060   5.082   5.566 -0.1522 -1.9873 -0.6280
 4398TIP3    H213159   0.138   4.955   5.589 -1.0025 -2.1324  1.7700
 4399TIP3   OH213160   6.665   2.342   2.284 -0.5244 -0.0213 -0.6795
 4399TIP3    H113161   6.635   2.378   2.200 -0.0241  1.0564 -0.4129
 4399TIP3    H213162   6.726   2.408   2.318  0.6026 -1.2423 -0.2699
 4400TIP3   OH213163   0.301   3.240   3.343  0.2858 -0.2003  0.3825
 4400TIP3    H113164   0.340   3.326   3.359 -1.5516  0.7335  0.1121
 4400TIP3    H213165   0.295   3.234   3.247 -0.0121 -0.4347  0.4138
 4401TIP3   OH213166   6.927   2.511   2.682  0.2045 -0.1723 -0.5352
 4401TIP3    H113167   6.955   2.436   2.629 -0.8969  0.3425 -1.8937
 4401TIP3    H213168   6.980   2.584   2.651  0.9925 -0.2674  0.5140
 4402TIP3   OH213169   6.563   1.864   3.012  0.0931  0.2954 -0.3115
 4402TIP3    H113170   6.635   1.845   2.952  0.7327  3.4162 -0.7082
 4402TIP3    H213171   6.492   1.893   2.955 -1.9832 -3.5530 -0.0132
 4403TIP3   OH213172   2.977   5.408   0.193  0.1401  0.3640 -0.1287
 4403TIP3    H113173   3.069   5.428   0.177 -0.0293  0.6515 -0.7801
 4403TIP3    H213174   2.968   5.410   0.288  0.6802  0.9167 -0.0854
 4404TIP3   OH213175   3.749   1.813   4.525 -0.4878 -0.0793 -0.0052
 4404TIP3    H113176   3.807   1.759   4.472  1.9335  3.0390 -0.8867
 4404TIP3    H213177   3.760   1.902   4.490 -3.2506  1.2622  2.0593
 4405TIP3   OH213178   1.370   0.345   2.113 -0.2474  0.5601  0.3774
 4405TIP3    H113179   1.443   0.367   2.171 -1.3028  1.3886  1.4471
 4405TIP3    H213180   1.311   0.292   2.167 -0.4711 -0.0769 -0.4600
 4406TIP3   OH213181   2.970   1.618   2.872  0.7078  0.5198 -0.4326
 4406TIP3    H113182   3.038   1.571   2.920 -0.2558  0.1851  0.6533
 4406TIP3    H213183   2.933   1.679   2.936 -0.7475 -0.0657 -0.6699
 4407TIP3   OH213184   0.042   3.200   4.699 -0.6516 -0.2982 -0.4525
 4407TIP3    H113185   0.050   3.136   4.629 -1.9192 -0.5958 -0.3587
 4407TIP3    H213186  -0.046   3.237   4.688  0.1635  1.6871 -0.7062
 4408TIP3   OH213187   0.226   1.757   1.634  0.1645  0.0242 -0.2919
 4408TIP3    H113188   0.167   1.719   1.569 -1.0344  3.7665 -1.7113
 4408TIP3    H213189   0.313   1.746   1.597  0.1845 -3.0394  0.4372
 4409TIP3   OH213190   6.853   1.671   5.781 -0.1274 -0.5863  0.1018
 4409TIP3    H113191   6.814   1.600   5.729 -0.1137  0.0908 -0.8581
 4409TIP3    H213192   6.807   1.750   5.751  2.3948  0.3732 -1.6078
 4410TIP3   OH213193   6.811   1.855   2.855 -0.3124 -0.2434 -0.4557
 4410TIP3    H113194   6.838   1.813   2.773 -0.9101 -2.3840  0.3795
 4410TIP3    H213195   6.855   1.940   2.854  0.6926 -0.7287 -2.4126
 4411TIP3   OH213196   6.359   6.338   1.475  0.0865  0.4834 -0.2390
 4411TIP3    H113197   6.318   6.272   1.531  2.2382 -1.0659 -0.3612
 4411TIP3    H213198   6.453   6.322   1.484  0.6530  2.8445 -1.1664
 4412TIP3   OH213199   1.281   0.316   0.651  0.0756  0.0503  0.0303
 4412TIP3    H113200   1.227   0.246   0.614  0.1422  0.1207 -0.1999
 4412TIP3    H213201   1.362   0.272   0.678  0.2280  0.0803 -0.3622
 4413TIP3   OH213202   0.605   2.150   2.405 -0.8786 -0.2419 -0.2904
 4413TIP3    H113203   0.623   2.105   2.487 -2.5376  0.2436  0.3974
 4413TIP3    H213204   0.532   2.209   2.426 -0.9770  0.2986 -1.9770
 4414TIP3   OH213205   0.280   5.507   5.706 -0.0235  0.7835 -0.2705
 4414TIP3    H113206   0.345   5.558   5.658 -0.5449  0.5746 -1.2136
 4414TIP3    H213207   0.305   5.416   5.691 -0.8312  0.6847 -1.0895
 4415TIP3   OH213208   0.863   2.387   2.956  0.6816  0.2785 -0.2155
 4415TIP3    H113209   0.850   2.401   2.862 -0.4456  0.1432 -0.0944
 4415TIP3    H213210   0.888   2.295   2.964  2.0080  0.5964 -0.4768
 4416TIP3   OH213211   1.904   5.479   4.359  0.4334 -0.3161  0.6044
 4416TIP3    H113212   1.960   5.470   4.436  1.5296 -1.8930 -0.2996
 4416TIP3    H213213   1.898   5.573   4.344  0.6560 -0.0073  2.2773
 4417TIP3   OH213214   6.899   2.425   2.936  0.8006  0.1766  0.0494
 4417TIP3    H113215   6.916   2.444   2.844  0.6135  0.2696  0.0343
 4417TIP3    H213216   6.983   2.442   2.979  1.0133 -0.2925 -0.1657
 4418TIP3   OH213217   2.256   2.265   3.574 -0.1355  0.2920 -0.0704
 4418TIP3    H113218   2.185   2.229   3.521  0.3728 -1.3670  0.3210
 4418TIP3    H213219   2.214   2.292   3.656 -0.5058  0.5056 -0.3277
 4419TIP3   OH213220   1.952   5.139   2.778 -0.4284 -0.1316  0.1701
 4419TIP3    H113221   1.974   5.232   2.781 -0.9254  0.1334 -2.3440
 4419TIP3    H213222   2.009   5.103   2.710 -1.5196 -1.2701 -0.1722
 4420TIP3   OH213223   3.448   2.220   3.237 -0.1994 -0.1570 -0.0327
 4420TIP3    H113224   3.420   2.148   3.181  0.0098 -0.8823  0.7802
 4420TIP3    H213225   3.385   2.290   3.220 -1.8348 -1.3547  0.8948
 4421TIP3   OH213226   6.464   3.342   4.023  0.2925  0.0481 -1.1171
 4421TIP3    H113227   6.461   3.259   4.070  0.5490  1.6079  1.9660
 4421TIP3    H213228   6.513   3.324   3.944  1.4795 -2.4601  0.0965
 4422TIP3   OH213229   1.897   2.691   1.428 -0.2293  0.0468 -0.9377
 4422TIP3    H113230   1.821   2.688   1.486  0.5336  0.7356  0.1457
 4422TIP3    H213231   1.892   2.778   1.388  0.5704  0.5476 -0.0012
 4423TIP3   OH213232   2.942   2.617   1.182  0.0097 -0.4552  0.0351
 4423TIP3    H113233   2.863   2.596   1.232  0.2288 -3.9305 -0.8257
 4423TIP3    H213234   2.911   2.624   1.091  0.3782  0.6285 -0.0232
 4424TIP3   OH213235   3.902   2.981   4.340  0.8811  0.5052  0.2735
 4424TIP3    H113236   3.862   2.914   4.396 -3.5691  2.8058  0.2791
 4424TIP3    H213237   3.878   2.955   4.251  1.5468  0.6978  0.0315
 4425TIP3   OH213238   3.326   3.939   3.224  0.7404 -0.7998 -0.0553
 4425TIP3    H113239   3.311   3.964   3.133  2.4885 -2.7817 -0.9982
 4425TIP3    H213240   3.244   3.899   3.252  0.0844  0.1054 -0.6453
 4426TIP3   OH213241   1.987   4.680   3.002  0.2433 -0.3368 -0.3836
 4426TIP3    H113242   1.948   4.740   3.066 -1.4454 -0.5945 -1.1197
 4426TIP3    H213243   2.076   4.714   2.988 -0.2226  1.2084  0.2073
 4427TIP3   OH213244   4.569   4.958   5.653  0.0253  0.1839  0.0984
 4427TIP3    H113245   4.583   4.896   5.581 -1.3214  0.0049 -0.0506
 4427TIP3    H213246   4.600   4.912   5.731 -0.4485 -0.4705 -0.0901
 4428TIP3   OH213247   0.172   2.151   5.200 -0.1472  0.4691  0.3607
 4428TIP3    H113248   0.098   2.194   5.244  0.4155  0.7469  1.0552
 4428TIP3    H213249   0.248   2.172   5.255  0.2281 -0.9898  0.4409
 4429TIP3   OH213250   6.117   2.636   4.491  0.1376  0.2108 -0.2539
 4429TIP3    H113251   6.040   2.615   4.543  0.0847 -1.2648 -0.8963
 4429TIP3    H213252   6.086   2.700   4.427  0.1424  1.8308  1.2827
 4430TIP3   OH213253   6.497   0.822   3.109  0.2474  0.1049  0.2658
 4430TIP3    H113254   6.458   0.889   3.052  0.9130  0.3488  0.0856
 4430TIP3    H213255   6.466   0.846   3.197  0.2794  0.5054  0.1725
 4431TIP3   OH213256   1.382   3.168   0.246 -0.0751 -0.1624 -0.1974
 4431TIP3    H113257   1.415   3.078   0.241 -0.4764 -0.3397  0.3308
 4431TIP3    H213258   1.457   3.219   0.277  0.2153 -0.2736 -0.6972
 4432TIP3   OH213259   5.402   4.137   3.953  0.1372  0.1058  0.2662
 4432TIP3    H113260   5.310   4.148   3.976  0.2053 -1.6860  1.6633
 4432TIP3    H213261   5.450   4.171   4.029  0.6361  0.7408 -0.3157
 4433TIP3   OH213262   2.534   0.346   2.418  0.0698 -0.0112  0.1937
 4433TIP3    H113263   2.587   0.305   2.486 -0.0948 -0.0795  0.2827
 4433TIP3    H213264   2.547   0.440   2.430  1.3655 -0.0427 -0.7431
 4434TIP3   OH213265   6.295   5.739   4.801  0.1556 -0.1080 -0.3653
 4434TIP3    H113266   6.257   5.664   4.848  0.7611 -0.5167 -0.5244
 4434TIP3    H213267   6.325   5.798   4.870 -0.7775  0.2317 -0.2349
 4435TIP3   OH213268   0.158   0.970   5.794  0.3956 -0.2354 -0.1955
 4435TIP3    H113269   0.197   1.019   5.722 -0.8758 -1.5927 -1.8904
 4435TIP3    H213270   0.066   0.997   5.794 -0.0409 -1.6665 -0.3688
 4436TIP3   OH213271   2.206   1.906   0.060  0.2853 -0.2930 -0.1107
 4436TIP3    H113272   2.221   1.853  -0.018  0.3823  0.4582 -0.6129
 4436TIP3    H213273   2.268   1.978   0.052 -0.0789  0.0803  0.3862
 4437TIP3   OH213274   5.228   4.294   3.094  0.5002 -0.1105  0.6226
 4437TIP3    H113275   5.243   4.200   3.093  2.2132  0.1373 -0.0416
 4437TIP3    H213276   5.266   4.324   3.177  1.4510  0.1883  0.0963
 4438TIP3   OH213277   4.636   3.122   5.597  0.3036 -0.0655  0.3488
 4438TIP3    H113278   4.568   3.177   5.558 -2.6213 -2.1906  2.0064
 4438TIP3    H213279   4.683   3.181   5.656 -0.5120  1.3847 -0.3985
 4439TIP3   OH213280   0.546   1.740   0.058  0.4147  0.0506  0.2738
 4439TIP3    H113281   0.457   1.754   0.024  1.1411  0.8815 -1.4321
 4439TIP3    H213282   0.550   1.795   0.136 -0.3813  0.4940  0.0241
 4440TIP3   OH213283   3.569   2.291   0.830  0.1590  0.4129  0.4817
 4440TIP3    H113284   3.628   2.218   0.846  0.7055  1.0681  1.5850
 4440TIP3    H213285   3.579   2.311   0.737 -0.9801 -1.7341 -0.1540
 4441TIP3   OH213286   5.774   0.554   0.405  0.3442 -0.4197 -0.0136
 4441TIP3    H113287   5.747   0.607   0.480  0.3320  1.3496 -1.1911
 4441TIP3    H213288   5.777   0.465   0.438  1.2944  0.4100  2.3501
 4442TIP3   OH213289   6.810   6.507   5.509  0.7039  0.2417  0.0047
 4442TIP3    H113290   6.851   6.538   5.428  0.9694  0.5402  0.2490
 4442TIP3    H213291   6.843   6.418   5.521  1.4543  0.5566  0.3114
 4443TIP3   OH213292   6.133   3.378   3.681  0.2596  0.1909 -0.1409
 4443TIP3    H113293   6.152   3.393   3.773  1.1029  0.6194 -0.3787
 4443TIP3    H213294   6.092   3.459   3.651  1.4680  0.6794 -0.5275
 4444TIP3   OH213295   3.932   0.069   2.247  0.3323 -0.1287 -0.2087
 4444TIP3    H113296   4.019   0.031   2.234  0.3114 -0.1126 -0.3953
 4444TIP3    H213297   3.893   0.017   2.317  1.5805  1.6507  1.9508
 4445TIP3   OH213298   3.870   3.215   4.139  0.7119 -0.0912  0.3726
 4445TIP3    H113299   3.881   3.236   4.232 -1.7728  0.2139  0.6686
 4445TIP3    H213300   3.785   3.252   4.116  1.6464  0.6145 -2.2953
 4446TIP3   OH213301   6.450   4.524   2.526  0.1706 -0.0938 -0.8233
 4446TIP3    H113302   6.480   4.614   2.511  1.8475 -0.5296 -0.2912
 4446TIP3    H213303   6.394   4.504   2.450  0.6124  1.0392 -1.4645
 4447TIP3   OH213304   6.512   0.521   0.252 -0.5785 -0.2367 -0.2211
 4447TIP3    H113305   6.574   0.592   0.268  0.7726 -1.5117  0.4874
 4447TIP3    H213306   6.531   0.457   0.321 -2.0851 -1.0757 -0.5404
 4448TIP3   OH213307   0.695   0.707   5.774 -0.2740  0.0765  0.0066
 4448TIP3    H113308   0.673   0.617   5.752 -1.7444  0.1524  0.9987
 4448TIP3    H213309   0.743   0.740   5.698  0.7355 -1.6677 -0.1643
 4449TIP3   OH213310   0.488   3.197   5.370  0.4946 -0.0956  0.2761
 4449TIP3    H113311   0.486   3.150   5.288 -0.2456  1.2064 -0.4893
 4449TIP3    H213312   0.397   3.198   5.400  0.3465  1.4115 -0.1056
 4450TIP3   OH213313   2.324   0.028   2.320 -0.3819 -0.5418  0.6207
 4450TIP3    H113314   2.297   0.119   2.333 -1.1401 -0.6092 -0.3769
 4450TIP3    H213315   2.413   0.035   2.285 -0.4066 -0.1857  0.6214
 4451TIP3   OH213316   0.777   2.442   4.321  0.2954  0.1517 -0.4308
 4451TIP3    H113317   0.707   2.461   4.384  0.8866 -0.2763  0.3676
 4451TIP3    H213318   0.824   2.525   4.312  1.3719 -0.2517  1.1689
 4452TIP3   OH213319   7.176   1.559   3.882  0.0461 -0.4922  0.0108
 4452TIP3    H113320   7.119   1.566   3.959 -0.0244 -0.2321 -0.0632
 4452TIP3    H213321   7.118   1.568   3.807  0.2294  0.2088 -0.0603
 4453TIP3   OH213322   5.090   3.433   2.695 -0.0048 -0.7004 -0.0472
 4453TIP3    H113323   5.034   3.355   2.696 -0.0679 -0.6701  1.6920
 4453TIP3    H213324   5.056   3.486   2.623 -0.8563 -1.6392 -0.3649
 4454TIP3   OH213325   5.943   5.196   2.534  0.3261  0.0344  0.3151
 4454TIP3    H113326   5.939   5.166   2.443  1.2279  0.2492  0.1951
 4454TIP3    H213327   6.014   5.146   2.573 -1.5329 -1.7978  1.5932
 4455TIP3   OH213328   4.162   1.288   0.462 -0.2866  0.0347  0.4072
 4455TIP3    H113329   4.198   1.369   0.424  0.8858 -0.5327  0.2435
 4455TIP3    H213330   4.067   1.297   0.455 -0.1953  1.6554  0.9292
 4456TIP3   OH213331   2.648   2.740   0.773  0.0164  0.3641  0.3860
 4456TIP3    H113332   2.612   2.747   0.684 -1.0213 -0.0981  0.7466
 4456TIP3    H213333   2.577   2.700   0.824  1.0972 -0.6782  1.1188
 4457TIP3   OH213334   5.172   5.949   4.213 -0.2692 -0.0049  0.5389
 4457TIP3    H113335   5.215   6.034   4.203 -0.8582  0.1574 -1.0193
 4457TIP3    H213336   5.217   5.907   4.286  3.0275 -0.1554 -1.4041
 4458TIP3   OH213337   6.115   5.495   1.272  0.2534  0.1388 -0.4524
 4458TIP3    H113338   6.107   5.455   1.359 -1.7894 -0.7887 -1.0129
 4458TIP3    H213339   6.080   5.583   1.283  1.6976  0.6891  0.0321
 4459TIP3   OH213340   4.579   3.149   5.114 -0.0990 -1.2618 -0.1975
 4459TIP3    H113341   4.590   3.151   5.209  1.3433  2.5560 -0.2780
 4459TIP3    H213342   4.497   3.196   5.098  0.8868  0.3496 -0.8240
 4460TIP3   OH213343   4.514   6.768   5.388 -0.1111 -0.0136  0.2513
 4460TIP3    H113344   4.435   6.781   5.335  0.4563  0.3985 -0.4949
 4460TIP3    H213345   4.483   6.718   5.464 -0.8140 -1.1974 -0.7794
 4461TIP3   OH213346   2.447   2.140   2.174  0.2345 -0.2233 -0.0443
 4461TIP3    H113347   2.500   2.109   2.100 -1.3834  2.1502 -2.3372
 4461TIP3    H213348   2.367   2.087   2.170 -0.8706  1.4800 -1.5543
 4462TIP3   OH213349   7.179   5.545   5.033  0.1052 -0.5662  0.1179
 4462TIP3    H113350   7.238   5.557   4.959  1.1950 -1.6398  0.7790
 4462TIP3    H213351   7.106   5.604   5.015  1.2362  0.5963 -0.8579
 4463TIP3   OH213352   1.366   6.050   1.931 -0.1361 -0.2676  0.2496
 4463TIP3    H113353   1.372   6.109   1.856 -0.2813 -0.2613  0.2413
 4463TIP3    H213354   1.322   5.972   1.897 -1.3356  0.2255  0.6100
 4464TIP3   OH213355   1.797   5.619   0.891 -0.2371 -0.2029  0.1295
 4464TIP3    H113356   1.751   5.660   0.965  0.6176 -0.5890  0.9019
 4464TIP3    H213357   1.889   5.617   0.919  0.7292  2.7193 -2.3180
 4465TIP3   OH213358   0.483   5.135   0.617  0.1346 -0.1053  0.6662
 4465TIP3    H113359   0.512   5.214   0.571 -0.1531 -0.2282  0.2732
 4465TIP3    H213360   0.563   5.086   0.633  0.1291 -0.5661 -0.6346
 4466TIP3   OH213361   0.085   2.603   2.277 -0.0557 -0.0248  0.2572
 4466TIP3    H113362   0.019   2.535   2.286  0.3333 -0.3415  0.8661
 4466TIP3    H213363   0.085   2.625   2.184 -0.3517 -0.6949  0.0904
 4467TIP3   OH213364   4.393   5.202   2.634 -0.4973 -0.1170  0.4197
 4467TIP3    H113365   4.330   5.273   2.621 -2.1412 -1.7113 -0.7950
 4467TIP3    H213366   4.351   5.125   2.596  2.6119 -1.1033 -1.3892
 4468TIP3   OH213367   5.426   2.015   3.983  0.5628  0.2229  0.1273
 4468TIP3    H113368   5.351   2.029   4.042 -0.0156  0.6389 -0.6884
 4468TIP3    H213369   5.405   2.067   3.905  1.2770 -0.3933 -0.4887
 4469TIP3   OH213370   1.850   5.874   4.498  0.1281  0.3614  0.1940
 4469TIP3    H113371   1.862   5.968   4.481  2.1518  0.3551  1.2338
 4469TIP3    H213372   1.914   5.831   4.442  1.0273 -0.1778  1.5705
 4470TIP3   OH213373   2.400   2.689   5.832 -0.3567 -0.2763  0.4470
 4470TIP3    H113374   2.351   2.631   5.890 -3.1202  1.2260 -0.1739
 4470TIP3    H213375   2.422   2.634   5.756 -0.6575 -1.1274  0.9671
 4471TIP3   OH213376   4.580   6.330   2.572 -0.1269  0.2292  0.0844
 4471TIP3    H113377   4.509   6.390   2.593  0.2773  0.8255 -0.2445
 4471TIP3    H213378   4.643   6.341   2.643  0.4546  1.0032 -0.5431
 4472TIP3   OH213379   4.284   3.280   2.501  0.4822 -0.1623 -0.3233
 4472TIP3    H113380   4.217   3.235   2.450 -0.6629  1.3808 -0.2294
 4472TIP3    H213381   4.267   3.373   2.487 -0.1398  0.3847  3.1081
 4473TIP3   OH213382   4.646   1.050   1.861  0.3151  0.0781  0.1974
 4473TIP3    H113383   4.736   1.083   1.855 -0.2790  1.6726 -0.5183
 4473TIP3    H213384   4.610   1.065   1.774 -0.6691 -0.4973  0.4974
 4474TIP3   OH213385   4.171   6.552   5.726 -1.0301 -0.1215  0.5278
 4474TIP3    H113386   4.126   6.597   5.798 -0.5529  1.4734 -0.1138
 4474TIP3    H213387   4.211   6.475   5.767 -1.5138  0.2624  1.7782
 4475TIP3   OH213388   1.359   2.360   3.046  0.0527  0.4325  0.3152
 4475TIP3    H113389   1.272   2.388   3.017 -0.7595 -1.5749  0.6010
 4475TIP3    H213390   1.365   2.268   3.019  1.9598  0.4296  0.6066
 4476TIP3   OH213391   6.656   1.387   1.062 -0.2288 -0.4050  0.0044
 4476TIP3    H113392   6.597   1.374   1.136  1.3274 -0.5489  1.2940
 4476TIP3    H213393   6.616   1.458   1.012 -0.8482  0.3737  1.5297
 4477TIP3   OH213394   6.654   5.809   3.771  0.9949 -0.0143  0.0453
 4477TIP3    H113395   6.740   5.802   3.730  1.2555  0.6902  0.4546
 4477TIP3    H213396   6.606   5.732   3.739  2.3030 -1.3177  1.0925
 4478TIP3   OH213397   1.577   3.897   3.696  0.3867 -0.8502  0.4394
 4478TIP3    H113398   1.624   3.868   3.617  1.1961  1.2239  0.0900
 4478TIP3    H213399   1.630   3.969   3.730 -0.5937 -0.9125  2.2183
 4479TIP3   OH213400   5.269   0.109   1.671 -0.4720 -0.5954  0.1844
 4479TIP3    H113401   5.211   0.086   1.598 -0.3855 -0.8839  0.2065
 4479TIP3    H213402   5.230   0.068   1.747  1.3390 -3.3923 -0.2556
 4480TIP3   OH213403   4.286   0.933   3.632 -0.0405 -0.4840 -0.5675
 4480TIP3    H113404   4.255   0.988   3.561  0.0483  4.0997  2.5356
 4480TIP3    H213405   4.259   0.978   3.712  2.6636 -3.4957  2.3759
 4481TIP3   OH213406   6.649   1.007   5.640 -0.9179  0.0172 -0.3653
 4481TIP3    H113407   6.563   1.036   5.671 -0.2342  1.4005  0.3289
 4481TIP3    H213408   6.711   1.050   5.699  0.2327 -1.8482 -0.1465
 4482TIP3   OH213409   0.621   1.766   4.038  0.1717 -0.7218  0.6541
 4482TIP3    H113410   0.585   1.717   3.964 -0.0137  0.0572  0.2156
 4482TIP3    H213411   0.546   1.815   4.072  0.7759  0.8962 -0.2513
 4483TIP3   OH213412   2.692   4.691   0.403  0.3954  0.2990 -0.0813
 4483TIP3    H113413   2.614   4.734   0.439 -0.5526 -0.9995 -0.4925
 4483TIP3    H213414   2.713   4.740   0.323 -0.3977  0.2874 -0.3033
 4484TIP3   OH213415   7.110   3.259   0.969 -0.4999 -0.0033  0.3118
 4484TIP3    H113416   7.138   3.215   0.889  0.4147 -1.5381  1.4120
 4484TIP3    H213417   7.068   3.190   1.020 -1.1647  0.9683  1.1240
 4485TIP3   OH213418   5.133   1.013   4.637  0.1693  0.0914  0.1274
 4485TIP3    H113419   5.109   0.963   4.559 -0.5766 -1.5700  1.3675
 4485TIP3    H213420   5.117   0.953   4.710  2.4817  0.9684  1.4770
 4486TIP3   OH213421   0.461   2.802   1.767  0.0495  0.2757  0.4904
 4486TIP3    H113422   0.515   2.773   1.694 -1.1695 -0.3761 -0.1763
 4486TIP3    H213423   0.371   2.789   1.738 -0.4806  1.0829  1.6764
 4487TIP3   OH213424   1.398   0.210   1.144  0.0315 -0.3180 -0.5687
 4487TIP3    H113425   1.378   0.184   1.054 -1.5448  0.3158 -0.4269
 4487TIP3    H213426   1.314   0.233   1.182  0.5967 -0.9884  1.2276
 4488TIP3   OH213427   3.401   5.263   3.249  0.1771 -0.2696 -0.1396
 4488TIP3    H113428   3.368   5.173   3.248 -0.4723 -0.0604  0.9107
 4488TIP3    H213429   3.351   5.306   3.318  0.7159  0.8154 -0.4066
 4489TIP3   OH213430   3.748   4.613   1.144 -0.2290  0.2554 -0.1987
 4489TIP3    H113431   3.834   4.654   1.159 -0.4672  1.2815 -1.4228
 4489TIP3    H213432   3.766   4.519   1.141  0.1346 -0.0208  4.1573
 4490TIP3   OH213433   6.796   2.243   0.911 -0.8397  0.3811 -0.8649
 4490TIP3    H113434   6.805   2.268   1.003 -0.7510 -0.0435 -0.7546
 4490TIP3    H213435   6.796   2.147   0.913 -0.3913  0.3694 -1.3524
 4491TIP3   OH213436   0.714   5.662   4.965 -0.1815 -0.1866  0.1093
 4491TIP3    H113437   0.765   5.590   5.003 -0.0309  0.2448  0.7370
 4491TIP3    H213438   0.780   5.726   4.938 -0.3697  0.4065  0.9868
 4492TIP3   OH213439   1.857   5.280   5.287  0.6818  0.2698  0.1725
 4492TIP3    H113440   1.837   5.294   5.194  0.5450  1.1992  0.3340
 4492TIP3    H213441   1.845   5.186   5.300  2.2034 -0.1440 -1.0995
 4493TIP3   OH213442   5.172   5.881   4.834  0.4712  0.1786 -0.1403
 4493TIP3    H113443   5.237   5.950   4.825 -1.5480  1.9492 -2.2766
 4493TIP3    H213444   5.126   5.901   4.915  1.7057 -0.3744  0.7332
 4494TIP3   OH213445   5.368   4.584   2.958 -0.4997  0.2374  0.1254
 4494TIP3    H113446   5.274   4.587   2.973 -0.3319  0.6407  1.1583
 4494TIP3    H213447   5.393   4.675   2.942 -0.1374  0.2820  0.8903
 4495TIP3   OH213448   5.773   4.846   0.406  0.4814  0.3541 -0.1611
 4495TIP3    H113449   5.766   4.801   0.491  0.9760 -0.5891 -0.6047
 4495TIP3    H213450   5.795   4.936   0.429  2.1717 -0.2244  0.6914
 4496TIP3   OH213451   2.536   3.192   2.204 -0.3840  0.3086 -0.7473
 4496TIP3    H113452   2.604   3.259   2.210  0.0517 -0.2035  0.1531
 4496TIP3    H213453   2.507   3.179   2.294  0.4204 -1.6038 -0.7137
 4497TIP3   OH213454   4.382   3.729   4.351 -0.2832 -0.1146 -0.1280
 4497TIP3    H113455   4.393   3.711   4.257 -0.1676  0.7790 -0.2961
 4497TIP3    H213456   4.298   3.689   4.374  0.9039 -2.7093  0.0218
 4498TIP3   OH213457   1.764   2.792   5.140 -0.0756 -0.5790  0.1279
 4498TIP3    H113458   1.831   2.860   5.148 -2.0574  1.4167  0.7997
 4498TIP3    H213459   1.762   2.749   5.225 -0.8989  0.6500  0.7573
 4499TIP3   OH213460   1.072   4.881   5.568  0.2367  0.1048  0.3235
 4499TIP3    H113461   1.027   4.872   5.652 -0.5012 -1.2163 -0.1987
 4499TIP3    H213462   1.006   4.919   5.509 -0.0264 -1.2196 -0.2696
 4500TIP3   OH213463   5.833   1.353   2.839  0.0181  0.4325 -0.1550
 4500TIP3    H113464   5.862   1.418   2.775 -0.5407 -0.2751 -1.1502
 4500TIP3    H213465   5.823   1.402   2.920  0.8985  1.3194 -0.5567
 4501TIP3   OH213466   2.761   5.866   3.177 -0.4943  0.1382  0.0131
 4501TIP3    H113467   2.747   5.774   3.155 -0.6292 -0.4267  2.2396
 4501TIP3    H213468   2.673   5.904   3.182 -0.4378  0.4258 -0.9324
 4502TIP3   OH213469   2.999   2.628   2.542 -0.3027 -0.3611 -0.0839
 4502TIP3    H113470   2.953   2.573   2.605 -0.0734  2.0598  2.3981
 4502TIP3    H213471   2.935   2.693   2.515  0.9267  1.8185  1.8617
 4503TIP3   OH213472   1.943   4.833   4.597  0.1692 -0.0014  0.1157
 4503TIP3    H113473   1.856   4.801   4.573  0.2567  0.7639 -1.3261
 4503TIP3    H213474   1.929   4.880   4.679 -0.1464 -2.7028  1.7593
 4504TIP3   OH213475   5.697   6.129   1.483  0.2909  0.2825 -0.6518
 4504TIP3    H113476   5.701   6.077   1.563  0.3525  0.7006 -0.3806
 4504TIP3    H213477   5.776   6.106   1.435 -0.7900 -1.6610 -1.6620
 4505TIP3   OH213478   1.933   3.693   3.110 -0.1996 -0.0419  0.6028
 4505TIP3    H113479   2.015   3.735   3.133  0.3802 -0.6003 -0.3613
 4505TIP3    H213480   1.889   3.756   3.053  0.1320 -0.2368  0.1201
 4506TIP3   OH213481   3.296   4.010   0.472 -0.0484 -0.0053 -0.1279
 4506TIP3    H113482   3.204   4.022   0.450  0.4355  1.6870 -1.4063
 4506TIP3    H213483   3.343   4.069   0.414  2.0118 -2.1297 -0.7718
 4507TIP3   OH213484   4.304   5.544   0.591  0.1048  0.2231 -0.1819
 4507TIP3    H113485   4.211   5.563   0.581 -0.4871 -2.4572 -0.3514
 4507TIP3    H213486   4.317   5.535   0.685 -0.2248 -1.1302 -0.2487
 4508TIP3   OH213487   3.891   6.595   2.500  0.7238 -0.0763 -0.1194
 4508TIP3    H113488   3.901   6.650   2.422  0.9835  0.6251  0.3968
 4508TIP3    H213489   3.857   6.512   2.467 -0.7704  0.7655 -0.7949
 4509TIP3   OH213490   1.567   5.040   4.595  0.8196 -0.2253  0.0728
 4509TIP3    H113491   1.614   4.959   4.614  1.1997 -1.4192 -4.5792
 4509TIP3    H213492   1.475   5.015   4.595  0.7436  0.0263  1.1285
 4510TIP3   OH213493   4.870   6.677   4.749 -0.4210  0.3819 -0.2680
 4510TIP3    H113494   4.787   6.654   4.791 -0.0585  1.0309  0.8492
 4510TIP3    H213495   4.850   6.753   4.696 -0.5440  0.5258 -0.0142
 4511TIP3   OH213496   0.113   3.858   2.654  0.1968  0.0098  0.0560
 4511TIP3    H113497   0.042   3.804   2.691  0.0012 -0.3613 -0.8353
 4511TIP3    H213498   0.191   3.803   2.662  0.4760  0.5444  1.3389
 4512TIP3   OH213499   3.283   0.719   0.227  0.2837 -0.3568 -0.0810
 4512TIP3    H113500   3.235   0.754   0.152 -1.9732 -1.8955  0.5689
 4512TIP3    H213501   3.337   0.793   0.256 -0.8518  1.1374 -1.5201
 4513TIP3   OH213502   6.360   3.384   1.953  0.0499 -0.6200 -0.1940
 4513TIP3    H113503   6.338   3.430   2.035 -2.7204 -3.5462  0.9080
 4513TIP3    H213504   6.452   3.359   1.964  0.6364  1.6238  0.5993
 4514TIP3   OH213505   0.815   5.887   4.465 -0.3403  0.3160  0.1512
 4514TIP3    H113506   0.870   5.878   4.387 -0.4659  0.6039  0.0262
 4514TIP3    H213507   0.874   5.925   4.531 -0.5931  1.4364 -0.2353
 4515TIP3   OH213508   1.556   5.360   5.369 -0.7606 -0.4030  0.3928
 4515TIP3    H113509   1.464   5.337   5.376 -0.4292 -3.1355 -2.3715
 4515TIP3    H213510   1.601   5.277   5.357  2.1650  0.8122  1.8606
 4516TIP3   OH213511   1.169   6.267   0.589  0.0832  0.1497 -0.1153
 4516TIP3    H113512   1.184   6.300   0.677 -2.4262 -0.2010  0.5257
 4516TIP3    H213513   1.193   6.174   0.593  0.5205  0.2658  0.0143
 4517TIP3   OH213514   5.501   1.785   5.901 -0.5633  0.5413 -0.4760
 4517TIP3    H113515   5.434   1.776   5.834 -0.3326 -3.1507 -0.3767
 4517TIP3    H213516   5.568   1.721   5.878 -0.6667 -1.2381  3.4115
 4518TIP3   OH213517   0.447   3.251   2.579 -1.0931 -0.6359 -0.0869
 4518TIP3    H113518   0.509   3.188   2.543 -1.1580 -0.5097 -0.4252
 4518TIP3    H213519   0.475   3.263   2.670 -0.9252 -0.9560 -0.0955
 4519TIP3   OH213520   1.071   5.066   3.209  0.0463  0.7626  0.0578
 4519TIP3    H113521   1.042   5.098   3.123 -0.5666  1.3499  0.4716
 4519TIP3    H213522   1.041   4.976   3.213 -2.6731  1.6137  0.8495
 4520TIP3   OH213523   2.273   5.442   0.159 -0.4514  0.2879 -0.3823
 4520TIP3    H113524   2.277   5.453   0.254 -0.9554  0.4089 -0.3708
 4520TIP3    H213525   2.344   5.497   0.126  0.2042 -0.3384 -0.0372
 4521TIP3   OH213526   3.497   6.240   0.063  0.0199  0.0878 -0.4171
 4521TIP3    H113527   3.406   6.271   0.056 -0.2578 -0.8336 -1.2679
 4521TIP3    H213528   3.488   6.150   0.096  0.6095 -0.0969 -0.7559
 4522TIP3   OH213529   6.228   4.653   3.420  0.0741  0.1852 -0.5481
 4522TIP3    H113530   6.179   4.583   3.377 -1.9146 -0.0752  1.9324
 4522TIP3    H213531   6.219   4.635   3.513  1.4635  2.4937  0.1127
 4523TIP3   OH213532   2.394   1.027   5.321 -0.4943 -0.1686 -0.1836
 4523TIP3    H113533   2.476   1.072   5.342 -0.3768 -0.6835  0.5053
 4523TIP3    H213534   2.327   1.095   5.332 -0.0664  0.6038 -2.0126
 4524TIP3   OH213535   2.151   2.518   5.717  0.3889  0.0490 -0.7476
 4524TIP3    H113536   2.161   2.612   5.702  0.5289 -0.0543 -1.3245
 4524TIP3    H213537   2.179   2.504   5.807  0.0271  0.6156 -0.5420
 4525TIP3   OH213538   2.529   0.422   0.758 -0.8489  0.5437  0.1307
 4525TIP3    H113539   2.586   0.495   0.783 -1.3890  0.8100  0.6175
 4525TIP3    H213540   2.551   0.405   0.666  1.1846 -0.4618  0.7588
 4526TIP3   OH213541   7.161   6.724   3.077 -0.5129  0.6176 -0.3947
 4526TIP3    H113542   7.196   6.671   3.005 -3.5860 -0.3655 -1.3460
 4526TIP3    H213543   7.179   6.672   3.155  1.9772  1.2166 -0.4954
 4527TIP3   OH213544   3.090   6.528   5.897 -0.0328  0.1668  0.1313
 4527TIP3    H113545   3.039   6.454   5.865  0.1657  0.8082 -1.7668
 4527TIP3    H213546   3.176   6.518   5.858 -0.0049  1.3973 -0.1814
 4528TIP3   OH213547   3.716   2.262   3.298  0.5991 -0.2647 -0.4337
 4528TIP3    H113548   3.724   2.167   3.306  0.1131 -0.2039  1.3250
 4528TIP3    H213549   3.624   2.277   3.278  0.6180 -0.1691 -0.4476
 4529TIP3   OH213550   3.621   4.976   2.565  0.5407  0.1879  0.1797
 4529TIP3    H113551   3.562   4.917   2.612  2.7202 -3.2182 -1.0274
 4529TIP3    H213552   3.641   5.045   2.629 -2.1949 -0.2331  1.6522
 4530TIP3   OH213553   4.562   6.047   3.737 -0.5594 -0.4919 -0.0927
 4530TIP3    H113554   4.618   6.009   3.805  0.4149  0.8469 -0.1087
 4530TIP3    H213555   4.475   6.052   3.778  0.1511  0.9471  1.3477
 4531TIP3   OH213556   0.968   1.969   5.783  0.2201  0.0396 -0.1184
 4531TIP3    H113557   1.005   2.056   5.768  0.7106 -0.4722 -2.2625
 4531TIP3    H213558   0.989   1.920   5.703 -0.3626 -1.9435  0.8800
 4532TIP3   OH213559   0.893   4.921   5.792  0.0978 -0.0708 -0.2973
 4532TIP3    H113560   0.898   5.016   5.783  0.7797 -0.2329 -2.1086
 4532TIP3    H213561   0.799   4.904   5.803 -0.3166  0.7229 -2.0409
 4533TIP3   OH213562   2.246   6.675   5.394 -0.2700  0.2303 -0.3356
 4533TIP3    H113563   2.203   6.646   5.475 -0.3582 -0.1451 -0.5140
 4533TIP3    H213564   2.267   6.767   5.410 -0.1243  0.1108  0.1823
 4534TIP3   OH213565   1.330   1.287   1.919  0.2472 -0.4880  0.2576
 4534TIP3    H113566   1.376   1.362   1.883 -1.4062  0.0462 -0.8485
 4534TIP3    H213567   1.345   1.217   1.856 -0.4553 -0.2973 -0.1344
 4535TIP3   OH213568   2.125   6.070   3.563 -0.4404 -0.6131 -0.3963
 4535TIP3    H113569   2.048   6.093   3.616 -1.0180 -2.6109 -0.2777
 4535TIP3    H213570   2.111   6.115   3.480 -1.3921 -0.3850 -0.1275
 4536TIP3   OH213571   0.563   2.621   1.957 -0.1141  0.4927 -0.0308
 4536TIP3    H113572   0.504   2.554   1.921 -0.6095 -0.0248  1.6482
 4536TIP3    H213573   0.532   2.703   1.919 -0.6743 -0.0216 -0.6980
 4537TIP3   OH213574   6.738   3.426   5.364 -0.6019 -0.3636  0.6301
 4537TIP3    H113575   6.711   3.417   5.273 -0.9383 -0.7612  0.7640
 4537TIP3    H213576   6.832   3.413   5.363 -0.8236 -2.3334  0.5746
 4538TIP3   OH213577   3.170   0.776   5.478  0.5499 -0.5193 -0.5217
 4538TIP3    H113578   3.222   0.807   5.405  0.7887  0.4586  0.0448
 4538TIP3    H213579   3.087   0.823   5.470  0.8351  0.1466  0.2159
 4539TIP3   OH213580   3.267   4.590   2.375 -0.2370 -0.1215 -0.3225
 4539TIP3    H113581   3.317   4.536   2.437 -0.2510 -1.6538 -1.5661
 4539TIP3    H213582   3.181   4.548   2.370 -1.2010  1.6335  0.6844
 4540TIP3   OH213583   0.481   3.095   0.235 -0.2296 -0.2317  0.7989
 4540TIP3    H113584   0.427   3.153   0.288  0.0858  0.7139  0.1176
 4540TIP3    H213585   0.541   3.154   0.189 -0.3398 -1.0463 -0.4218
 4541TIP3   OH213586   2.525   2.137   2.856 -0.6901  0.6225  0.1047
 4541TIP3    H113587   2.530   2.099   2.768  0.4067  0.9875 -0.0093
 4541TIP3    H213588   2.442   2.184   2.857  0.0837  2.1873 -1.4102
 4542TIP3   OH213589   3.655   5.728   4.768  0.3194 -0.0298 -0.1304
 4542TIP3    H113590   3.734   5.692   4.808  0.1151  1.9736  2.3493
 4542TIP3    H213591   3.583   5.681   4.811  0.1313  1.0210  0.7641
 4543TIP3   OH213592   5.273   0.705   1.737 -0.6095 -0.0343  0.9816
 4543TIP3    H113593   5.317   0.631   1.696  0.4391  2.2211 -2.3646
 4543TIP3    H213594   5.227   0.749   1.665 -0.4182  3.0825  2.5737
 4544TIP3   OH213595   6.142   1.685   0.556  0.0810 -0.2591 -0.2212
 4544TIP3    H113596   6.234   1.678   0.582 -0.1375 -0.7896  0.4226
 4544TIP3    H213597   6.145   1.705   0.463  0.8552 -0.0128 -0.1467
 4545TIP3   OH213598   6.214   5.039   1.314 -0.5003 -0.2742  0.5481
 4545TIP3    H113599   6.302   5.056   1.280 -0.7036  0.7176  0.4828
 4545TIP3    H213600   6.212   5.083   1.399  0.0238 -2.7874  1.9648
 4546TIP3   OH213601   2.788   1.747   5.476  0.2264  0.1742  0.3006
 4546TIP3    H113602   2.813   1.835   5.446  1.2950 -0.8117 -1.9049
 4546TIP3    H213603   2.871   1.704   5.496 -0.3039 -0.2901  1.6353
 4547TIP3   OH213604   3.381   3.410   0.872 -0.0602 -0.1410 -0.4010
 4547TIP3    H113605   3.324   3.486   0.878  0.2863  0.1800 -1.1286
 4547TIP3    H213606   3.321   3.336   0.859 -0.3322  0.1318 -0.6953
 4548TIP3   OH213607   6.288   0.495   2.629  0.3135 -0.5102 -0.4531
 4548TIP3    H113608   6.216   0.452   2.584  0.5004 -0.2944 -0.9556
 4548TIP3    H213609   6.367   0.458   2.589  0.4852 -0.5908 -0.0520
 4549TIP3   OH213610   4.772   0.212   0.528 -0.0491  0.3493 -0.4216
 4549TIP3    H113611   4.796   0.148   0.461  1.2249  1.2425 -0.8341
 4549TIP3    H213612   4.784   0.164   0.611 -1.7832 -0.8060 -0.7746
 4550TIP3   OH213613   5.672   3.542   0.752  0.3501 -0.3032  0.0023
 4550TIP3    H113614   5.668   3.627   0.797  0.5790 -0.5614  0.5176
 4550TIP3    H213615   5.747   3.498   0.791 -1.3749 -1.8678  1.7617
 4551TIP3   OH213616   2.365   2.192   3.919  0.0940  0.3294 -0.3171
 4551TIP3    H113617   2.391   2.225   4.006  0.2038 -0.4089 -0.0643
 4551TIP3    H213618   2.275   2.223   3.908  0.0250  0.2996  0.1325
 4552TIP3   OH213619   6.436   4.268   1.875 -0.2595 -0.0905  0.3890
 4552TIP3    H113620   6.471   4.289   1.961  1.4849  1.1074 -0.5529
 4552TIP3    H213621   6.506   4.293   1.814 -1.4686 -0.8345 -1.3776
 4553TIP3   OH213622   5.251   4.632   3.655  0.3723 -0.1185  0.2288
 4553TIP3    H113623   5.318   4.593   3.711  0.7693 -0.5012 -0.4936
 4553TIP3    H213624   5.273   4.725   3.652 -0.2588  0.0907  1.5234
 4554TIP3   OH213625   6.811   6.498   3.652  0.1296  0.1543 -0.0621
 4554TIP3    H113626   6.852   6.555   3.717  0.5674 -0.5636  0.3083
 4554TIP3    H213627   6.803   6.553   3.574  0.8244  0.6304  0.1892
 4555TIP3   OH213628   2.050   2.392   1.908 -0.4890  0.2489  0.4716
 4555TIP3    H113629   2.055   2.394   1.812 -0.3078 -2.1209  0.3613
 4555TIP3    H213630   1.985   2.325   1.927  1.1838 -1.0813  1.9649
 4556TIP3   OH213631   0.092   3.460   0.234 -0.1050  0.2063 -0.3357
 4556TIP3    H113632   0.128   3.372   0.231 -0.8910 -0.1099 -1.0657
 4556TIP3    H213633   0.021   3.454   0.299 -0.1757  0.2874 -0.4048
 4557TIP3   OH213634   2.321   6.285   5.296  0.7099 -0.0311 -0.2329
 4557TIP3    H113635   2.244   6.231   5.315 -0.7895  1.5410 -1.5468
 4557TIP3    H213636   2.395   6.232   5.325 -0.8011 -1.9421  0.3323
 4558TIP3   OH213637   7.035   5.783   1.173  0.0127  0.4181  0.1819
 4558TIP3    H113638   7.079   5.857   1.131 -0.6461  0.5332 -0.3215
 4558TIP3    H213639   6.949   5.818   1.199 -2.0010 -1.1113 -3.6123
 4559TIP3   OH213640   7.204   1.490   4.850  0.3295  0.0847 -0.5518
 4559TIP3    H113641   7.166   1.578   4.847  0.2746  0.0596 -0.6039
 4559TIP3    H213642   7.232   1.479   4.940  0.5383  0.2414 -0.5968
 4560TIP3   OH213643   0.680   1.365   0.330 -0.1921 -0.1233 -0.5057
 4560TIP3    H113644   0.594   1.324   0.335 -0.3854  0.3624  0.7860
 4560TIP3    H213645   0.678   1.415   0.249 -0.6372 -1.1558 -1.1499
 4561TIP3   OH213646   3.004   4.810   0.393 -0.6212  0.2535 -1.1173
 4561TIP3    H113647   3.033   4.727   0.433  0.5417  1.9977  2.0598
 4561TIP3    H213648   2.916   4.791   0.361 -0.4065 -2.2178 -0.5020
 4562TIP3   OH213649   4.564   6.090   2.442 -0.0042  0.2779 -0.2467
 4562TIP3    H113650   4.577   6.154   2.512 -0.9411 -0.6188  0.7751
 4562TIP3    H213651   4.652   6.060   2.420  0.2380 -0.1373  1.2174
 4563TIP3   OH213652   4.563   3.394   1.183 -0.1826  0.3474 -0.0223
 4563TIP3    H113653   4.506   3.320   1.201 -0.2870  0.6034  0.7576
 4563TIP3    H213654   4.650   3.356   1.172 -0.0275  0.2020  1.5327
 4564TIP3   OH213655   6.323   5.278   3.476  0.2212  0.1468 -0.2714
 4564TIP3    H113656   6.250   5.326   3.516 -0.2140 -0.6640 -0.0667
 4564TIP3    H213657   6.358   5.224   3.547  0.4098 -0.1757 -0.6059
 4565TIP3   OH213658   2.305   2.368   2.322 -0.1840 -0.1956  0.1314
 4565TIP3    H113659   2.216   2.387   2.292 -0.7966 -0.9421  1.3826
 4565TIP3    H213660   2.331   2.290   2.273  0.7492  1.3562 -1.9907
 4566TIP3   OH213661   3.767   2.251   1.766 -0.4815 -0.3172 -0.1274
 4566TIP3    H113662   3.710   2.296   1.704 -0.2393  0.4999  0.2368
 4566TIP3    H213663   3.782   2.165   1.726 -0.7161  0.0222 -0.9698
 4567TIP3   OH213664   2.477   4.753   3.613 -0.5436  0.0127  0.3193
 4567TIP3    H113665   2.522   4.700   3.548 -1.3574 -0.3510  0.0400
 4567TIP3    H213666   2.430   4.819   3.562 -0.0952  0.5737  0.6237
 4568TIP3   OH213667   1.768   5.150   3.472  0.1871  0.3906  0.1711
 4568TIP3    H113668   1.836   5.137   3.406 -0.0369  2.7300 -0.5956
 4568TIP3    H213669   1.803   5.107   3.550  0.2083 -3.0037 -1.5078
 4569TIP3   OH213670   5.447   3.537   0.389 -0.0146 -0.3614 -0.4764
 4569TIP3    H113671   5.445   3.631   0.408 -0.2101 -0.3623 -0.4953
 4569TIP3    H213672   5.514   3.528   0.321  0.4545 -0.3174 -0.0298
 4570TIP3   OH213673   4.618   3.769   2.811 -0.2854  0.0228 -0.1017
 4570TIP3    H113674   4.645   3.783   2.720 -1.1261  0.1747 -0.3351
 4570TIP3    H213675   4.530   3.732   2.805 -0.6602  0.7424  0.6556
 4571TIP3   OH213676   5.029   6.529   1.631  0.3679 -0.1561  0.1632
 4571TIP3    H113677   4.959   6.518   1.567  1.1365 -1.6396 -0.4647
 4571TIP3    H213678   5.009   6.466   1.700  0.6252  0.0127  0.3966
 4572TIP3   OH213679   5.085   0.909   5.089  0.2142  0.2015 -0.0963
 4572TIP3    H113680   5.095   0.940   5.179 -1.2602 -0.6706  0.4147
 4572TIP3    H213681   5.017   0.966   5.053  0.7160  0.4675 -0.6368
 4573TIP3   OH213682   0.559   3.812   4.263 -0.2156  0.5665 -0.1896
 4573TIP3    H113683   0.529   3.723   4.249  0.3108  0.2852  0.4383
 4573TIP3    H213684   0.530   3.835   4.351 -0.2295  0.9706 -0.2931
 4574TIP3   OH213685   2.984   4.460   5.007  0.4178 -0.2422  0.0082
 4574TIP3    H113686   2.939   4.483   5.089 -0.2613 -0.2991 -0.3402
 4574TIP3    H213687   2.920   4.480   4.939  1.7055  1.8053 -0.6785
 4575TIP3   OH213688   5.872   6.310   5.567 -0.1784 -1.0982  0.1391
 4575TIP3    H113689   5.846   6.233   5.516 -0.3402  0.1311 -1.7524
 4575TIP3    H213690   5.842   6.384   5.514  3.6121  0.3800 -0.2713
 4576TIP3   OH213691   1.058   1.384   1.173 -0.5502  0.2298  0.6227
 4576TIP3    H113692   0.971   1.345   1.160 -1.1848  1.8871 -0.3214
 4576TIP3    H213693   1.045   1.477   1.157  1.7007  0.3348 -0.8998
 4577TIP3   OH213694   5.893   0.268   0.178  0.3085  0.1477 -0.6507
 4577TIP3    H113695   5.929   0.268   0.267  1.1629 -0.1284 -0.9835
 4577TIP3    H213696   5.963   0.303   0.124  0.2550 -0.8435 -1.3907
 4578TIP3   OH213697   4.702   4.543   0.609  0.1061 -0.1185  0.5056
 4578TIP3    H113698   4.659   4.589   0.537  0.5785  0.4233  0.5615
 4578TIP3    H213699   4.680   4.451   0.596  1.2645 -0.1979 -1.0846
 4579TIP3   OH213700   6.000   1.183   4.800  0.1343  0.2450  0.0893
 4579TIP3    H113701   6.004   1.101   4.849 -2.9685 -0.1129 -0.0631
 4579TIP3    H213702   6.014   1.251   4.866  2.8563 -0.3142  0.1960
 4580TIP3   OH213703   5.853   2.643   3.054 -0.2139  0.1287  0.3970
 4580TIP3    H113704   5.771   2.601   3.081 -0.2500  1.3022  2.2769
 4580TIP3    H213705   5.835   2.737   3.060  0.6590  0.4277 -1.1802
 4581TIP3   OH213706   2.788   1.442   3.229  0.5141 -0.1884  0.0470
 4581TIP3    H113707   2.799   1.351   3.255  3.0217 -0.0726 -0.3474
 4581TIP3    H213708   2.810   1.492   3.307 -0.1978  0.1093  0.0673
 4582TIP3   OH213709   2.121   2.209   0.758 -0.0190 -0.2135 -0.1171
 4582TIP3    H113710   2.056   2.207   0.828 -0.2361 -0.6633 -0.3249
 4582TIP3    H213711   2.125   2.300   0.731 -0.8427 -0.2444 -0.3665
 4583TIP3   OH213712   2.843   3.082   4.149 -0.0537 -0.1176 -0.2619
 4583TIP3    H113713   2.771   3.025   4.177  0.3878 -0.9389 -0.7680
 4583TIP3    H213714   2.907   3.023   4.111  1.4928  0.4452  1.3475
 4584TIP3   OH213715   1.866   4.550   5.778 -0.2300  0.2135  0.5167
 4584TIP3    H113716   1.909   4.476   5.819 -1.0192  0.0401  1.0546
 4584TIP3    H213717   1.936   4.614   5.764  0.3953 -0.5115  0.3249
 4585TIP3   OH213718   1.584   0.709   0.336 -0.2445  0.5108 -0.6510
 4585TIP3    H113719   1.629   0.708   0.421 -0.6075  0.7389 -0.4557
 4585TIP3    H213720   1.652   0.683   0.273 -0.2835 -0.8903 -0.1514
 4586TIP3   OH213721   1.530   0.826   5.818  0.6815 -0.0025 -0.3113
 4586TIP3    H113722   1.603   0.772   5.788 -0.7203 -1.0916 -1.9827
 4586TIP3    H213723   1.501   0.872   5.739  0.3174  1.3889  0.5923
 4587TIP3   OH213724   3.076   6.780   5.095  0.4751  0.2950  0.9208
 4587TIP3    H113725   3.119   6.724   5.160 -0.0867  1.4514  2.3602
 4587TIP3    H213726   2.982   6.771   5.115  0.2680  0.4639  0.0695
 4588TIP3   OH213727   1.409   4.591   0.277 -0.1432 -0.3569 -0.5914
 4588TIP3    H113728   1.437   4.539   0.202 -0.2604  1.3751 -1.8913
 4588TIP3    H213729   1.314   4.580   0.280 -0.4107  1.1614 -2.0117
 4589TIP3   OH213730   1.081   3.893   3.333 -0.1827  0.3365 -0.0193
 4589TIP3    H113731   1.077   3.801   3.359  0.1756  0.4879  0.5894
 4589TIP3    H213732   1.118   3.938   3.409  1.0931  0.7557 -0.8447
 4590TIP3   OH213733   5.955   6.278   0.944 -0.0376  0.1823  0.5724
 4590TIP3    H113734   6.024   6.216   0.970 -0.4723 -0.5584  0.0126
 4590TIP3    H213735   5.986   6.315   0.862 -0.2823 -0.1139  0.3457
 4591TIP3   OH213736   5.033   0.499   0.512  1.0660 -0.0237 -0.2734
 4591TIP3    H113737   5.026   0.592   0.534 -1.6406  1.1610 -4.7264
 4591TIP3    H213738   5.108   0.494   0.453  1.3977 -0.7486  0.2017
 4592TIP3   OH213739   5.606   0.114   0.557  0.1321 -0.1975 -0.5589
 4592TIP3    H113740   5.665   0.189   0.550  2.0483 -1.5146  0.6298
 4592TIP3    H213741   5.552   0.133   0.634  1.0740 -0.3339  0.1443
 4593TIP3   OH213742   6.102   4.178   5.726  0.0653 -0.1870 -0.0758
 4593TIP3    H113743   6.045   4.108   5.757  0.2149 -0.1674  0.2383
 4593TIP3    H213744   6.171   4.134   5.677 -1.2897 -0.1073 -2.1785
 4594TIP3   OH213745   5.943   1.548   3.417 -0.6209 -0.5182  0.2427
 4594TIP3    H113746   5.887   1.495   3.474 -0.6924 -1.9568 -1.1160
 4594TIP3    H213747   5.892   1.561   3.337  0.5396 -0.9046 -0.5874
 4595TIP3   OH213748   2.027   0.130   5.119  0.5094  0.1942 -0.1121
 4595TIP3    H113749   1.934   0.109   5.110  0.4589 -0.2166  1.1717
 4595TIP3    H213750   2.043   0.197   5.052 -0.3335 -0.8251 -1.3946
 4596TIP3   OH213751   3.565   6.463   5.296 -0.1904 -0.6597 -0.1044
 4596TIP3    H113752   3.522   6.378   5.308  1.7110 -1.6370  0.0928
 4596TIP3    H213753   3.516   6.504   5.225 -1.9907 -1.3141  0.6805
 4597TIP3   OH213754   3.594   5.161   5.301  0.6624  0.3173 -0.3167
 4597TIP3    H113755   3.571   5.202   5.218  0.8944 -1.1135 -1.1292
 4597TIP3    H213756   3.521   5.180   5.359 -0.1608  0.1635 -1.2879
 4598TIP3   OH213757   0.169   6.548   4.375 -0.0947 -0.0345 -0.4003
 4598TIP3    H113758   0.085   6.536   4.332 -0.5903 -0.8341  0.7639
 4598TIP3    H213759   0.173   6.641   4.395 -1.4886 -0.2645  1.0917
 4599TIP3   OH213760   2.155   6.462   4.920 -0.6002 -0.1200 -0.0777
 4599TIP3    H113761   2.210   6.392   4.956 -1.7776 -0.7866  0.4655
 4599TIP3    H213762   2.137   6.519   4.994  0.2820  0.7363 -0.5015
 4600TIP3   OH213763   2.790   5.514   4.064 -0.5415  0.2412 -0.1453
 4600TIP3    H113764   2.772   5.421   4.074 -0.3141  0.1616 -0.4686
 4600TIP3    H213765   2.821   5.542   4.150  0.3837 -0.2090 -0.3229
 4601TIP3   OH213766   3.919   2.062   0.061 -0.6672  0.4776 -0.1507
 4601TIP3    H113767   3.869   2.126   0.112  0.3434  1.4164 -0.3075
 4601TIP3    H213768   3.888   2.075  -0.029 -2.2316 -0.9736  0.1195
 4602TIP3   OH213769   6.348   6.119   4.086  0.1068  0.4652 -0.1436
 4602TIP3    H113770   6.391   6.034   4.073 -0.4942 -0.1222  1.4037
 4602TIP3    H213771   6.350   6.160   4.000  0.9752 -0.8514 -0.7970
 4603TIP3   OH213772   4.261   2.130   4.875  0.1724 -0.3125 -0.0100
 4603TIP3    H113773   4.355   2.147   4.868 -0.1589  1.3245 -1.1390
 4603TIP3    H213774   4.250   2.090   4.961  1.6982  1.1441  0.9206
 4604TIP3   OH213775   0.809   6.022   3.320  0.0503  0.2575 -0.5496
 4604TIP3    H113776   0.741   5.967   3.359  2.0466 -3.2774 -1.5623
 4604TIP3    H213777   0.869   6.041   3.392 -1.0736  2.0119 -0.0082
 4605TIP3   OH213778   5.320   6.415   5.756  0.2915 -0.5866  0.2101
 4605TIP3    H113779   5.294   6.428   5.665 -1.7127  0.3226  0.8584
 4605TIP3    H213780   5.327   6.320   5.766 -2.1031 -0.8620 -0.2443
 4606TIP3   OH213781   0.424   5.126   3.641  0.1398  0.1141  0.5923
 4606TIP3    H113782   0.485   5.114   3.713  0.1191  1.6368  0.8984
 4606TIP3    H213783   0.350   5.173   3.680 -0.9802 -1.2064  0.1039
 4607TIP3   OH213784   4.079   1.944   4.737 -0.1832 -0.6852 -0.0148
 4607TIP3    H113785   4.019   1.923   4.808 -0.6630 -3.0964 -1.0453
 4607TIP3    H213786   4.151   1.991   4.779 -2.2216  1.3885  1.3999
 4608TIP3   OH213787   3.627   0.218   0.807  0.5132  0.6445 -0.2455
 4608TIP3    H113788   3.678   0.209   0.888  1.2754  0.9698 -0.6823
 4608TIP3    H213789   3.651   0.142   0.755 -0.9795 -0.2780  0.3571
 4609TIP3   OH213790   5.646   1.218   2.111 -0.8897  0.5447  0.1735
 4609TIP3    H113791   5.701   1.196   2.036 -0.5509 -0.1341  0.6179
 4609TIP3    H213792   5.651   1.313   2.117 -0.5107  0.5616 -0.3555
 4610TIP3   OH213793   3.740   2.821   5.645  0.2235 -0.4648  0.2101
 4610TIP3    H113794   3.831   2.817   5.675  0.3651 -0.5435 -0.2245
 4610TIP3    H213795   3.708   2.731   5.651 -0.2949 -0.2010  1.7777
 4611TIP3   OH213796   2.316   0.542   3.577 -0.7784 -0.6987 -0.0380
 4611TIP3    H113797   2.276   0.628   3.595 -0.2418 -0.5990  0.7367
 4611TIP3    H213798   2.276   0.514   3.495 -1.4098  0.0235  0.0071
 4612TIP3   OH213799   6.662   0.252   4.292  0.2534 -0.0733  0.1543
 4612TIP3    H113800   6.619   0.176   4.252  0.4706 -0.1368  0.0430
 4612TIP3    H213801   6.602   0.279   4.362 -0.4439  0.4363 -0.6262
 4613TIP3   OH213802   4.894   2.320   1.538 -0.3065 -0.1183  0.1888
 4613TIP3    H113803   4.956   2.247   1.540 -1.1006 -0.7948  0.9902
 4613TIP3    H213804   4.935   2.384   1.480  1.5461 -0.1788  1.3478
 4614TIP3   OH213805   1.379   1.918   0.008  0.3553  0.3855  0.0151
 4614TIP3    H113806   1.357   1.862   0.082  0.9595 -0.1100 -0.1772
 4614TIP3    H213807   1.377   2.007   0.044 -1.7349  0.3627  0.0566
 4615TIP3   OH213808   1.124   6.152   2.493 -0.2286 -0.0580 -0.4366
 4615TIP3    H113809   1.051   6.188   2.442 -0.5026 -0.7518 -0.5532
 4615TIP3    H213810   1.087   6.076   2.537  0.2604 -0.0297  0.0371
 4616TIP3   OH213811   4.811   0.580   4.169 -0.1508  0.2646  0.2386
 4616TIP3    H113812   4.771   0.543   4.090  0.7008 -0.8058  0.2713
 4616TIP3    H213813   4.773   0.667   4.177 -2.4830 -0.6834  0.3054
 4617TIP3   OH213814   1.728   4.979   4.290  0.3214  0.5128  0.2731
 4617TIP3    H113815   1.694   4.921   4.359  2.5111 -1.4296 -0.1202
 4617TIP3    H213816   1.697   4.941   4.208  0.7902  0.5770  0.0586
 4618TIP3   OH213817   0.174   1.418   2.440  0.7556  0.1291 -0.2388
 4618TIP3    H113818   0.180   1.333   2.396  0.4853  0.7644 -1.5640
 4618TIP3    H213819   0.157   1.480   2.369  0.5030  1.2330  0.7585
 4619TIP3   OH213820   1.929   1.632   4.091  0.0820 -0.0727  0.3300
 4619TIP3    H113821   1.837   1.658   4.098  0.6371  2.9066 -1.4942
 4619TIP3    H213822   1.932   1.574   4.015 -0.3563 -0.6075  0.7171
 4620TIP3   OH213823   4.762   5.419   0.846 -0.3492 -0.2329  0.2303
 4620TIP3    H113824   4.744   5.512   0.832 -0.2870 -0.3273 -0.5609
 4620TIP3    H213825   4.729   5.377   0.767 -1.8087 -1.0803  1.2567
 4621TIP3   OH213826   4.496   0.398   4.366  0.2965  0.1812 -0.4237
 4621TIP3    H113827   4.437   0.419   4.294  0.2314 -2.1877 -1.1159
 4621TIP3    H213828   4.508   0.303   4.362  1.2792  0.1250  1.9366
 4622TIP3   OH213829   2.230   2.967   4.490  0.2195  0.0209 -0.5430
 4622TIP3    H113830   2.176   2.928   4.422 -0.3467  1.9766 -1.2808
 4622TIP3    H213831   2.205   3.059   4.491  2.3131  0.6368  0.3040
 4623TIP3   OH213832   0.192   2.188   2.815 -0.3448  0.4663  0.4034
 4623TIP3    H113833   0.195   2.093   2.809 -1.3089  0.3961  0.8312
 4623TIP3    H213834   0.253   2.209   2.886  1.0357  0.3105 -0.6911
 4624TIP3   OH213835   1.212   3.254   0.938  0.3075  0.9537  0.1060
 4624TIP3    H113836   1.225   3.283   1.028  0.1349 -0.5720  0.6537
 4624TIP3    H213837   1.202   3.335   0.888 -0.2377  1.8151  1.5413
 4625TIP3   OH213838   7.077   5.086   2.923 -0.3064 -0.4782 -0.2129
 4625TIP3    H113839   7.064   5.155   2.857  0.7344 -1.8226 -1.9131
 4625TIP3    H213840   7.170   5.091   2.945 -0.3261 -1.0444  0.0049
 4626TIP3   OH213841   1.925   3.766   1.245  0.3963  0.5142  0.4553
 4626TIP3    H113842   1.918   3.806   1.158  2.1311  0.2460  0.1548
 4626TIP3    H213843   1.895   3.834   1.305 -0.7346  0.7386 -0.3265
 4627TIP3   OH213844   2.420   0.135   3.392 -0.1835 -0.0361  0.1903
 4627TIP3    H113845   2.394   0.135   3.484  0.8183  1.8586  0.5173
 4627TIP3    H213846   2.514   0.116   3.393 -0.6493 -2.7205 -0.6783
 4628TIP3   OH213847   5.650   1.156  -0.024  0.3272  0.4243  0.2511
 4628TIP3    H113848   5.679   1.090   0.038 -0.2428 -0.0546  0.0170
 4628TIP3    H213849   5.601   1.219   0.029 -0.0613  0.0763  0.3123
 4629TIP3   OH213850   3.115   1.402   3.038 -0.4166  0.3202 -0.1941
 4629TIP3    H113851   3.123   1.450   3.120 -0.4744  0.3772 -0.2221
 4629TIP3    H213852   3.039   1.345   3.050 -0.6928  0.6467 -0.3688
 4630TIP3   OH213853   4.268   6.744   5.537  0.1819 -0.0603  0.0828
 4630TIP3    H113854   4.206   6.704   5.477  0.5755  0.0776 -0.4299
 4630TIP3    H213855   4.242   6.714   5.623 -1.5933  1.2796  0.0635
 4631TIP3   OH213856   1.480   2.606   0.061 -0.2080  0.6816  0.5251
 4631TIP3    H113857   1.402   2.659   0.047  0.9515  1.5788 -4.0180
 4631TIP3    H213858   1.468   2.529   0.006  1.0711 -0.4500  1.7376
 4632TIP3   OH213859   2.016   3.581   5.499 -0.3176  0.2611 -0.4698
 4632TIP3    H113860   1.977   3.501   5.464  0.9196 -0.8340  0.5523
 4632TIP3    H213861   2.090   3.598   5.442  0.4804 -0.3639  0.3497
 4633TIP3   OH213862   0.202   3.144   1.725 -0.2149  0.3874  0.4044
 4633TIP3    H113863   0.160   3.058   1.726  0.2789  0.0983 -0.8357
 4633TIP3    H213864   0.143   3.199   1.673  0.0381  0.4783  0.2107
 4634TIP3   OH213865   6.206   0.664   0.878 -0.3426  0.5053 -0.3721
 4634TIP3    H113866   6.289   0.666   0.830 -1.4638  1.5365 -2.4191
 4634TIP3    H213867   6.218   0.728   0.949  1.2392 -0.7973  0.6110
 4635TIP3   OH213868   2.915   0.354   4.709 -0.4360  0.3072  0.2720
 4635TIP3    H113869   2.994   0.367   4.762  0.5862 -0.5197 -0.9972
 4635TIP3    H213870   2.925   0.416   4.637 -0.2956 -0.6761 -0.5766
 4636TIP3   OH213871   4.081   3.881   0.467  0.0192 -0.4035  0.1516
 4636TIP3    H113872   4.161   3.929   0.444  0.3376 -0.9981  0.0034
 4636TIP3    H213873   4.111   3.792   0.484 -0.5856 -0.5759  0.3111
 4637TIP3   OH213874   5.143   0.954   5.367  0.1949  0.0687 -0.5429
 4637TIP3    H113875   5.222   0.906   5.345  0.5978 -0.0003  0.9641
 4637TIP3    H213876   5.084   0.889   5.405 -0.4631  0.1860 -1.3226
 4638TIP3   OH213877   0.106   0.151   4.663 -0.0363 -0.1690  0.1077
 4638TIP3    H113878   0.166   0.101   4.608 -1.3423 -0.3370 -1.2212
 4638TIP3    H213879   0.019   0.130   4.629 -0.6972  2.1704  0.2189
 4639TIP3   OH213880   3.179   3.338   2.883  0.1167  0.8306  0.1156
 4639TIP3    H113881   3.207   3.266   2.827  3.5099  2.3905 -0.4604
 4639TIP3    H213882   3.164   3.297   2.969 -0.1505 -0.8421 -0.6882
 4640TIP3   OH213883   4.277   1.132   2.587  0.3650  0.3907  0.1190
 4640TIP3    H113884   4.309   1.103   2.672  0.0795 -1.5690 -0.3998
 4640TIP3    H213885   4.320   1.216   2.572 -0.6779  1.5071  2.8194
 4641TIP3   OH213886   5.134   6.003   3.286 -0.8346  0.0103  0.3671
 4641TIP3    H113887   5.119   5.925   3.338  1.0571 -1.3905 -1.0339
 4641TIP3    H213888   5.068   5.998   3.216 -0.1609 -0.8634 -0.2318
 4642TIP3   OH213889   6.278   5.576   2.596 -0.6230 -0.6621  0.3713
 4642TIP3    H113890   6.216   5.589   2.525  0.0436 -1.5903 -0.4192
 4642TIP3    H213891   6.310   5.486   2.583  3.4057  0.8038 -1.3727
 4643TIP3   OH213892   6.964   5.539   3.535  0.1839  0.3398  0.6237
 4643TIP3    H113893   6.965   5.545   3.439  0.7350  0.0201  0.6023
 4643TIP3    H213894   7.018   5.462   3.554 -0.6097 -0.0903  1.1537
 4644TIP3   OH213895   5.191   5.750   0.411  0.7103  0.2804 -0.2103
 4644TIP3    H113896   5.249   5.740   0.336  1.7157  0.7601  0.4802
 4644TIP3    H213897   5.166   5.661   0.435  0.2363  0.1317 -1.2033
 4645TIP3   OH213898   5.253   2.450   4.890  0.3616  0.4077  0.1826
 4645TIP3    H113899   5.175   2.457   4.834  0.7011 -1.0108 -0.4948
 4645TIP3    H213900   5.323   2.426   4.830  1.1661  0.8741  0.9192
 4646TIP3   OH213901   2.016   6.754   1.969 -0.5989 -0.0581  0.0161
 4646TIP3    H113902   2.026   6.751   2.064 -0.4520  2.0746  0.1120
 4646TIP3    H213903   1.929   6.791   1.955 -1.2994 -1.8790 -0.7274
 4647TIP3   OH213904   2.865   5.682   1.407  0.0065 -0.2769 -0.0030
 4647TIP3    H113905   2.784   5.641   1.376  0.0423  0.5758 -1.2667
 4647TIP3    H213906   2.863   5.770   1.371  1.1843 -0.0206  0.5125
 4648TIP3   OH213907   0.179   4.373   5.482 -0.0815  0.3816  0.5312
 4648TIP3    H113908   0.165   4.432   5.408 -0.3246 -0.0169  0.2577
 4648TIP3    H213909   0.162   4.286   5.447  1.5204  0.0064  0.5865
 4649TIP3   OH213910   5.901   0.342   2.952 -0.2223  0.1774 -0.5163
 4649TIP3    H113911   5.896   0.412   3.017 -0.0481 -0.8023  0.5925
 4649TIP3    H213912   5.833   0.280   2.978 -1.0930  0.4144 -2.1085
 4650TIP3   OH213913   5.151   5.833   0.760 -0.2270  0.7605 -0.1515
 4650TIP3    H113914   5.147   5.908   0.701  0.6351 -0.0439 -1.2707
 4650TIP3    H213915   5.104   5.764   0.714 -0.0868  0.3013  0.3909
 4651TIP3   OH213916   2.648   5.165   0.003 -0.2836 -0.0901 -0.2631
 4651TIP3    H113917   2.665   5.240   0.060  0.1971  0.0305 -0.5609
 4651TIP3    H213918   2.554   5.169  -0.014 -0.0477  1.2690 -1.4024
 4652TIP3   OH213919   4.630   6.381   3.333  0.1783 -0.5549  0.1002
 4652TIP3    H113920   4.721   6.379   3.303  0.6297 -0.0559  1.3596
 4652TIP3    H213921   4.622   6.465   3.379 -1.4670  0.2741 -1.5942
 4653TIP3   OH213922   6.142   6.431   3.672 -0.2415  0.2435 -0.1314
 4653TIP3    H113923   6.082   6.470   3.736  0.1753  0.4732  0.1195
 4653TIP3    H213924   6.168   6.504   3.616  0.6982  0.3800  0.4633
 4654TIP3   OH213925   0.188   2.093   0.266  0.7098  0.0301  0.1873
 4654TIP3    H113926   0.112   2.125   0.315  1.9408 -1.7352  3.6245
 4654TIP3    H213927   0.263   2.126   0.315  2.1053 -0.8669 -1.2544
 4655TIP3   OH213928   3.731   5.989   2.747  0.5386  0.0800  0.0567
 4655TIP3    H113929   3.687   5.930   2.807  0.5398  0.3121  0.2867
 4655TIP3    H213930   3.822   5.993   2.779  0.7469 -0.4340 -0.4412
 4656TIP3   OH213931   7.077   2.784   5.417  0.4761 -0.1082 -0.0275
 4656TIP3    H113932   7.095   2.868   5.375  2.0531  0.2122  1.2156
 4656TIP3    H213933   7.097   2.798   5.509  0.1061 -1.6687  0.3203
 4657TIP3   OH213934   0.344   2.400   3.533  0.1727  0.4250  0.2512
 4657TIP3    H113935   0.329   2.434   3.621 -0.1294 -0.0200  0.3758
 4657TIP3    H213936   0.438   2.383   3.529  0.3199  1.1902  0.2105
 4658TIP3   OH213937   6.180   0.049   0.265  0.2169 -0.1799 -0.3406
 4658TIP3    H113938   6.102   0.003   0.236  0.1735 -0.4912  0.2358
 4658TIP3    H213939   6.240   0.047   0.191  0.2356 -1.2303 -0.3010
 4659TIP3   OH213940   3.434   6.021   2.628  0.1561  0.1319 -0.1223
 4659TIP3    H113941   3.414   6.068   2.548  0.2944  2.3471  1.0534
 4659TIP3    H213942   3.530   6.020   2.632  0.2485 -2.3801 -1.2528
 4660TIP3   OH213943   0.466   2.999   0.587 -0.4997  0.1906  0.5884
 4660TIP3    H113944   0.543   2.992   0.644  1.1426 -1.2514 -1.6265
 4660TIP3    H213945   0.474   3.085   0.547 -0.5723  0.4164  1.0478
 4661TIP3   OH213946   4.388   1.389   4.067  0.5772 -0.0174  0.2888
 4661TIP3    H113947   4.422   1.478   4.057  0.8543 -0.0236  1.0848
 4661TIP3    H213948   4.370   1.359   3.978 -3.7857  2.4719  0.0378
 4662TIP3   OH213949   5.100   4.746   2.399 -0.3136 -0.1529  0.3836
 4662TIP3    H113950   5.012   4.771   2.428  0.0973 -0.5178  2.0498
 4662TIP3    H213951   5.115   4.661   2.440  0.9490  0.0504  0.3689
 4663TIP3   OH213952   2.339   5.940   1.614  0.2863  0.2034  0.1769
 4663TIP3    H113953   2.420   5.911   1.656  0.2841 -1.9073 -1.1407
 4663TIP3    H213954   2.272   5.880   1.648  0.0346 -0.6327 -1.7149
 4664TIP3   OH213955   5.508   4.029   1.667  0.1632 -0.1607 -0.4881
 4664TIP3    H113956   5.576   4.028   1.600  0.8455  1.4237  0.1205
 4664TIP3    H213957   5.437   4.081   1.629 -0.2049 -0.7579 -0.6404
 4665TIP3   OH213958   4.337   3.353   4.120 -0.2120 -0.3854  0.6760
 4665TIP3    H113959   4.333   3.313   4.032  0.8403  0.8060  0.0656
 4665TIP3    H213960   4.246   3.378   4.138 -0.2289  0.6796 -0.7179
 4666TIP3   OH213961   6.074   3.457   5.897 -0.2936  0.0327 -0.5581
 4666TIP3    H113962   5.985   3.426   5.879 -0.7538  1.2976 -0.5936
 4666TIP3    H213963   6.091   3.520   5.827 -0.7332  2.3938  1.3488
 4667TIP3   OH213964   0.432   2.193   1.341  0.2100  0.3533 -0.5061
 4667TIP3    H113965   0.357   2.134   1.327  1.3479 -1.1574 -0.4909
 4667TIP3    H213966   0.504   2.135   1.364  0.4583  2.0220  3.9070
 4668TIP3   OH213967   4.468   5.568   3.769  0.3520  0.1908  0.2012
 4668TIP3    H113968   4.506   5.483   3.746  0.5836  0.2872  0.2261
 4668TIP3    H213969   4.532   5.632   3.737 -1.2321  0.4969 -2.6203
 4669TIP3   OH213970   2.771   2.404   4.270 -0.4098 -0.3619  0.7305
 4669TIP3    H113971   2.729   2.487   4.248  0.5137 -0.4778 -1.8955
 4669TIP3    H213972   2.746   2.346   4.198  1.8050 -1.2816  0.6313
 4670TIP3   OH213973   1.912   5.907   5.235  0.3632 -0.6686  0.3647
 4670TIP3    H113974   1.929   5.847   5.308 -0.5210  0.3747  1.4835
 4670TIP3    H213975   1.850   5.971   5.271 -0.2106 -0.2019 -1.3661
 4671TIP3   OH213976   1.133   3.570   1.867  0.1371 -0.1272 -0.2678
 4671TIP3    H113977   1.148   3.583   1.961 -1.2286  1.9973 -0.2894
 4671TIP3    H213978   1.038   3.572   1.857  0.2838  0.2005 -1.7762
 4672TIP3   OH213979   6.923   3.790   4.375  0.1825 -0.4949  0.4736
 4672TIP3    H113980   6.907   3.857   4.442 -0.6950 -0.2450  0.0409
 4672TIP3    H213981   6.918   3.838   4.292  2.2769 -0.6110  0.2389
 4673TIP3   OH213982   4.460   5.444   4.440  0.0552  0.3395  0.3203
 4673TIP3    H113983   4.384   5.501   4.434  0.2589  0.4994 -0.9450
 4673TIP3    H213984   4.535   5.501   4.423  0.2284 -0.3499 -1.4600
 4674TIP3   OH213985   1.921   1.851   4.834 -0.3089  0.4431  0.5814
 4674TIP3    H113986   1.850   1.788   4.820 -0.1805 -0.2507  2.6890
 4674TIP3    H213987   1.881   1.936   4.820 -1.4330  0.0352  1.2073
 4675TIP3   OH213988   0.693   2.721   0.728 -0.0343 -0.1350 -0.3113
 4675TIP3    H113989   0.602   2.697   0.710 -0.4833 -0.2453  1.8132
 4675TIP3    H213990   0.695   2.816   0.721 -0.1432 -0.1837 -1.0375
 4676TIP3   OH213991   2.418   1.086   1.247  0.0146  0.3753  0.5224
 4676TIP3    H113992   2.331   1.060   1.215  0.7628 -0.5334 -0.8613
 4676TIP3    H213993   2.462   1.003   1.266  0.2080  0.8460  2.3586
 4677TIP3   OH213994   3.657   2.570   5.703 -0.5303 -0.5708  0.0616
 4677TIP3    H113995   3.710   2.549   5.779 -2.8135 -1.0014  1.6298
 4677TIP3    H213996   3.583   2.509   5.707 -1.0083 -0.2290 -2.1992
 4678TIP3   OH213997   1.126   6.114   5.345  0.2838 -0.0324  0.0877
 4678TIP3    H113998   1.048   6.058   5.346 -0.3159  0.7581 -0.6496
 4678TIP3    H213999   1.178   6.084   5.420 -0.6799 -0.6485  0.5326
 4679TIP3   OH214000   1.293   6.491   0.389 -0.0215 -0.1830 -0.4197
 4679TIP3    H114001   1.381   6.468   0.418  0.2691  0.7284 -0.5371
 4679TIP3    H214002   1.294   6.587   0.384 -1.4420 -0.0491  0.9514
 4680TIP3   OH214003   0.404   0.546   5.846  0.3556  0.5126  0.4791
 4680TIP3    H114004   0.480   0.509   5.892  0.4139 -0.2096 -0.1715
 4680TIP3    H214005   0.331   0.491   5.875  0.1441  0.9674  0.8117
 4681TIP3   OH214006   5.374   0.523   5.367 -0.3938 -0.2898  0.1731
 4681TIP3    H114007   5.442   0.460   5.392 -1.9014 -1.9411  0.2770
 4681TIP3    H214008   5.345   0.561   5.450  2.1587  2.4835 -0.0153
 4682TIP3   OH214009   2.197   1.265   3.247  0.0148  0.0200 -0.2298
 4682TIP3    H114010   2.264   1.201   3.220 -0.9708 -0.7472 -0.9034
 4682TIP3    H214011   2.247   1.346   3.263  0.9512 -0.1629 -1.9791
 4683TIP3   OH214012   5.904   5.810   0.813  0.0958  0.5813 -0.3304
 4683TIP3    H114013   5.875   5.776   0.728  1.6583  0.2760 -0.7792
 4683TIP3    H214014   5.916   5.904   0.798  1.3038  0.3849 -0.7705
 4684TIP3   OH214015   5.433   2.852   2.425 -0.2147  0.1308 -0.0598
 4684TIP3    H114016   5.488   2.928   2.403  0.0384 -0.1166 -0.2959
 4684TIP3    H214017   5.457   2.785   2.360 -1.3929  0.2884 -0.6851
 4685TIP3   OH214018   1.773   1.932   0.742 -0.0087 -0.3531 -0.3433
 4685TIP3    H114019   1.713   2.005   0.729 -1.0274 -1.3111 -1.2962
 4685TIP3    H214020   1.848   1.952   0.686 -0.5801 -0.3437 -1.1256
 4686TIP3   OH214021   4.932   3.950   3.268  0.1675  0.5136  0.0613
 4686TIP3    H114022   4.996   3.892   3.227 -0.9358 -0.6118 -0.1286
 4686TIP3    H214023   4.970   3.971   3.353 -0.3870 -2.3923  1.1421
 4687TIP3   OH214024   3.429   6.707   3.982 -0.7807 -0.5789 -0.1234
 4687TIP3    H114025   3.353   6.763   3.964 -0.4161 -0.0336 -0.0113
 4687TIP3    H214026   3.485   6.762   4.037  0.9868  0.0663 -2.4181
 4688TIP3   OH214027   6.130   0.685   2.453 -0.1342  0.2305 -0.2113
 4688TIP3    H114028   6.052   0.669   2.507  0.4154 -1.3221  0.1690
 4688TIP3    H214029   6.193   0.726   2.513  0.4518 -1.4334  0.3620
 4689TIP3   OH214030   1.127   1.512   3.085  0.2186  0.4150 -0.4254
 4689TIP3    H114031   1.163   1.442   3.030  1.1216 -0.3003  1.0286
 4689TIP3    H214032   1.119   1.586   3.025 -0.4070 -0.7914 -1.9187
 4690TIP3   OH214033   6.018   1.679   1.711  0.5265  0.6344  0.2823
 4690TIP3    H114034   6.007   1.768   1.744 -0.5378  0.6527 -0.0648
 4690TIP3    H214035   6.052   1.691   1.623  2.1723  0.6250  0.8957
 4691TIP3   OH214036   4.987   5.917   4.626 -0.4562 -0.0824 -0.2322
 4691TIP3    H114037   5.024   6.004   4.615  1.4269 -0.9594 -1.3687
 4691TIP3    H214038   5.056   5.867   4.670 -0.9917 -1.3059 -0.7353
 4692TIP3   OH214039   3.540   1.057   1.153 -1.1835 -0.0520  0.1976
 4692TIP3    H114040   3.487   1.136   1.159  0.1760  0.8765  0.5420
 4692TIP3    H214041   3.537   1.032   1.061  0.0065  1.6207 -0.3423
 4693TIP3   OH214042   3.412   2.138   5.252  0.6600 -0.1562  0.6536
 4693TIP3    H114043   3.419   2.205   5.183 -1.2076  0.1762  0.7310
 4693TIP3    H214044   3.403   2.056   5.204 -0.9487  0.1086  0.4619
 4694TIP3   OH214045   4.675   2.612   3.423 -0.4124  0.4378  0.1725
 4694TIP3    H114046   4.621   2.687   3.448  0.2925  0.8706  0.4069
 4694TIP3    H214047   4.757   2.623   3.471  0.9562  1.2606 -2.1907
 4695TIP3   OH214048   3.351   3.086   2.598  0.0530  0.9468  0.2570
 4695TIP3    H114049   3.295   3.013   2.627  0.4660  0.1399 -0.9029
 4695TIP3    H214050   3.290   3.155   2.572 -0.3806  0.5022  0.0863
 4696TIP3   OH214051   1.898   5.726   1.317 -0.3554  0.1334 -0.4428
 4696TIP3    H114052   1.833   5.796   1.304 -0.4680 -0.0184 -0.7087
 4696TIP3    H214053   1.911   5.724   1.412 -3.7691 -2.5139  0.1567
 4697TIP3   OH214054   4.297   3.970   4.822 -0.3613  0.0492 -0.4523
 4697TIP3    H114055   4.297   3.903   4.754  0.1922  0.3040 -0.7077
 4697TIP3    H214056   4.368   4.030   4.797 -0.1399  0.1348  0.3522
 4698TIP3   OH214057   0.358   2.785   5.084 -0.0198 -0.6428 -0.3107
 4698TIP3    H114058   0.380   2.838   5.008  1.4844  0.0672  0.5674
 4698TIP3    H214059   0.307   2.844   5.140  0.6447 -0.4885  0.1411
 4699TIP3   OH214060   6.397   1.268   5.615  0.0453 -0.1846 -0.2477
 4699TIP3    H114061   6.347   1.337   5.570 -2.0919 -2.0600 -0.9733
 4699TIP3    H214062   6.443   1.222   5.544  2.5729  1.2382  0.3724
 4700TIP3   OH214063   1.396   6.692   2.409 -0.0350  0.2347  0.4054
 4700TIP3    H114064   1.411   6.603   2.379 -0.5647  0.0725  0.6148
 4700TIP3    H214065   1.302   6.697   2.423 -0.0993  1.0131 -0.2034
 4701TIP3   OH214066   6.796   3.885   5.671 -0.1726 -0.3398  0.1893
 4701TIP3    H114067   6.779   3.810   5.614 -0.1973 -0.0271 -0.2187
 4701TIP3    H214068   6.887   3.909   5.653 -1.3445  2.5615 -3.1388
 4702TIP3   OH214069   6.888   4.731   4.912  0.0703  0.0380 -0.6186
 4702TIP3    H114070   6.881   4.713   5.006  2.6743 -0.0967 -0.3858
 4702TIP3    H214071   6.870   4.647   4.871  3.1196 -1.0553  0.0401
 4703TIP3   OH214072   3.859   3.265   5.056  0.4606 -0.0825 -0.3110
 4703TIP3    H114073   3.786   3.210   5.025 -0.4120  1.3298 -0.8548
 4703TIP3    H214074   3.937   3.213   5.037 -0.2780 -0.7310 -1.7327
 4704TIP3   OH214075   2.788   6.572   1.249  0.0336  0.2589 -0.1312
 4704TIP3    H114076   2.803   6.659   1.213 -1.3910 -0.7205 -3.5372
 4704TIP3    H214077   2.876   6.537   1.265  0.8502  0.8809 -2.7368
 4705TIP3   OH214078   2.962   0.756   2.303  0.5288  0.3451  0.6737
 4705TIP3    H114079   2.895   0.760   2.234 -0.6889  3.0653  1.8526
 4705TIP3    H214080   2.969   0.663   2.325 -0.0015 -0.4521 -2.1331
 4706TIP3   OH214081   1.401   6.275   5.537 -0.5386 -0.5377 -0.2488
 4706TIP3    H114082   1.471   6.292   5.474 -1.6684 -1.2564 -1.7803
 4706TIP3    H214083   1.436   6.209   5.596 -0.0337 -1.1496 -1.2120
 4707TIP3   OH214084   2.991   2.760   5.354 -0.2616  0.1940 -0.2018
 4707TIP3    H114085   3.069   2.707   5.336  0.2244  0.0900  1.9306
 4707TIP3    H214086   2.965   2.794   5.268  1.7413 -0.2830 -1.0673
 4708TIP3   OH214087   6.170   2.681   2.909 -0.2787 -0.5809 -0.3333
 4708TIP3    H114088   6.243   2.728   2.867  0.0241 -0.5369  0.2388
 4708TIP3    H214089   6.096   2.695   2.849  0.1604 -0.5618 -0.8829
 4709TIP3   OH214090   2.608   4.630   2.417  0.7505  0.4421  0.5728
 4709TIP3    H114091   2.702   4.630   2.435  1.4677 -1.1418 -2.4188
 4709TIP3    H214092   2.582   4.538   2.426 -1.2426  1.1437  3.9186
 4710TIP3   OH214093   6.335   6.395   4.893 -0.7340 -0.2067 -0.0396
 4710TIP3    H114094   6.290   6.452   4.830  1.1309  2.5554  0.8980
 4710TIP3    H214095   6.297   6.419   4.978 -1.1044 -1.6796  0.2306
 4711TIP3   OH214096   1.538   3.838   4.912 -1.0025 -0.0033 -0.1930
 4711TIP3    H114097   1.532   3.847   5.008 -2.7338 -1.1247 -0.1617
 4711TIP3    H214098   1.503   3.751   4.894  1.9585 -1.0428 -1.6392
 4712TIP3   OH214099   1.449   6.682   3.813 -0.1684  0.0574  0.1027
 4712TIP3    H114100   1.479   6.725   3.733  2.2350 -2.4581 -0.4758
 4712TIP3    H214101   1.360   6.655   3.794 -0.1007  0.6787 -1.1972
 4713TIP3   OH214102   7.029   5.267   2.689 -0.1448 -0.0285  0.3056
 4713TIP3    H114103   7.103   5.324   2.670 -2.6120  2.8236 -1.8449
 4713TIP3    H214104   7.022   5.210   2.612 -0.8721  0.6014 -0.1107
 4714TIP3   OH214105   5.109   3.557   1.325 -0.2623  0.1803  0.2220
 4714TIP3    H114106   5.162   3.535   1.401 -1.0013  0.6408  0.8960
 4714TIP3    H214107   5.087   3.650   1.338 -0.9516  0.0827 -0.2023
 4715TIP3   OH214108   4.296   3.784   3.289  1.1684 -0.3578  0.1373
 4715TIP3    H114109   4.219   3.828   3.325  0.1820 -0.9100 -1.1945
 4715TIP3    H214110   4.294   3.805   3.195  1.6668 -1.7887 -0.2212
 4716TIP3   OH214111   6.183   6.364   2.245  0.2293  0.1816  0.0349
 4716TIP3    H114112   6.257   6.371   2.184  0.4738 -0.5362  0.2404
 4716TIP3    H214113   6.164   6.270   2.248 -0.4754  0.3288  0.2441
 4717TIP3   OH214114   3.887   5.529   5.530 -0.6010 -0.1526 -0.1329
 4717TIP3    H114115   3.796   5.502   5.515 -0.1566  0.0736 -4.4249
 4717TIP3    H214116   3.938   5.449   5.516 -0.0283  0.0844  0.5538
 4718TIP3   OH214117   3.731   6.031   4.726 -0.2419  0.4052 -0.1139
 4718TIP3    H114118   3.709   5.943   4.697  0.7753  1.1627 -3.6967
 4718TIP3    H214119   3.651   6.082   4.710  0.5273  0.9632 -2.4613
 4719TIP3   OH214120   0.764   5.457   4.043 -0.6300 -0.0591 -0.4330
 4719TIP3    H114121   0.725   5.430   3.959 -2.3684 -1.9951  0.8953
 4719TIP3    H214122   0.785   5.375   4.087  0.7329  0.9253  0.8404
 4720TIP3   OH214123   2.474   1.635   2.033  0.1226  0.1117 -0.1656
 4720TIP3    H114124   2.467   1.557   2.089  0.3014  0.2189  0.0079
 4720TIP3    H214125   2.526   1.606   1.959  1.1777  0.3679  0.4549
 4721TIP3   OH214126   1.278   6.060   3.577  0.3616 -0.4797 -0.7704
 4721TIP3    H114127   1.286   6.154   3.562 -0.6219 -0.1839  0.4188
 4721TIP3    H214128   1.279   6.022   3.489 -0.1446  0.7189 -1.3202
 4722TIP3   OH214129   5.136   3.210   1.714  0.0588  0.0627  0.0863
 4722TIP3    H114130   5.140   3.260   1.796 -0.7359  1.2474 -0.5721
 4722TIP3    H214131   5.223   3.171   1.705  0.4805  0.7665  0.9617
 4723TIP3   OH214132   1.932   1.723   4.503 -0.2673  0.1301  0.3911
 4723TIP3    H114133   1.987   1.647   4.524 -1.3708 -0.2755  1.9533
 4723TIP3    H214134   1.847   1.685   4.479 -0.5550  0.8358  0.2647
 4724TIP3   OH214135   5.350   3.626   3.164  0.3855  0.2832 -0.2820
 4724TIP3    H114136   5.344   3.710   3.119 -0.4455  0.5404  0.2768
 4724TIP3    H214137   5.408   3.642   3.238  1.7851 -0.1505 -1.2547
 4725TIP3   OH214138   3.173   4.670   0.043  0.0997  0.2417 -0.1132
 4725TIP3    H114139   3.117   4.685  -0.033  0.7996  0.7396 -0.5468
 4725TIP3    H214140   3.188   4.575   0.043  0.1293  0.2449 -0.6248
 4726TIP3   OH214141   0.506   6.352   1.082  0.2898 -0.0340  0.1936
 4726TIP3    H114142   0.491   6.387   0.994  1.4740 -0.0466 -0.0251
 4726TIP3    H214143   0.471   6.420   1.141  0.6116  0.5353 -0.2609
 4727TIP3   OH214144   2.741   0.283   2.607 -0.0718 -0.6706  0.1523
 4727TIP3    H114145   2.836   0.270   2.604  0.0016 -0.4483  1.1501
 4727TIP3    H214146   2.717   0.258   2.696 -1.1078 -1.7029 -0.3926
 4728TIP3   OH214147   5.346   1.848   2.964  0.3055  0.1116  0.2818
 4728TIP3    H114148   5.440   1.865   2.972  0.3874  0.6641 -1.4346
 4728TIP3    H214149   5.304   1.927   2.999  0.4988  0.1782  0.3638
 4729TIP3   OH214150   6.218   6.652   1.026  0.1287  0.0696  0.2181
 4729TIP3    H114151   6.253   6.689   1.107 -0.8156 -0.3196  0.8120
 4729TIP3    H214152   6.284   6.588   0.998  0.6981  0.5756  0.3956
 4730TIP3   OH214153   0.649   4.547   0.378 -0.0915 -0.1128 -0.3880
 4730TIP3    H114154   0.624   4.625   0.329 -2.0023  0.1341  0.8658
 4730TIP3    H214155   0.705   4.580   0.448 -1.1994  0.2401  0.3657
 4731TIP3   OH214156   5.697   5.309   2.355  0.6624 -0.3099  0.2217
 4731TIP3    H114157   5.681   5.222   2.318 -1.1518  0.2753 -0.5078
 4731TIP3    H214158   5.763   5.295   2.423  1.2564 -2.0518 -0.6627
 4732TIP3   OH214159   6.772   6.473   1.607  0.9417 -0.0352  0.1604
 4732TIP3    H114160   6.727   6.557   1.599 -0.7652 -0.7749  1.4188
 4732TIP3    H214161   6.865   6.496   1.606  0.5265  1.8541  0.3904
 4733TIP3   OH214162   0.128   5.991   5.346  0.4301  0.2428  0.8641
 4733TIP3    H114163   0.116   5.897   5.328 -0.9635  0.0310  2.6114
 4733TIP3    H214164   0.065   6.035   5.289  0.8909  0.1078  0.2418
 4734TIP3   OH214165   6.177   0.167   2.008 -0.0395  0.2213  0.9774
 4734TIP3    H114166   6.265   0.133   2.026 -0.5860 -0.6446  2.1523
 4734TIP3    H214167   6.136   0.101   1.953  0.9429  1.9347 -1.9945
 4735TIP3   OH214168   1.117   1.307   5.124  0.7733 -0.3488  0.4152
 4735TIP3    H114169   1.112   1.220   5.162  1.0425  0.5143  2.5165
 4735TIP3    H214170   1.045   1.309   5.060 -0.2938 -1.5666  1.5194
 4736TIP3   OH214171   0.092   0.088   3.719  0.3289 -0.1227  0.1789
 4736TIP3    H114172   0.119   0.179   3.723 -0.2941  0.0202  1.9599
 4736TIP3    H214173   0.165   0.040   3.759  0.3579 -0.3457 -0.1336
 4737TIP3   OH214174   4.472   5.099   3.208 -0.1056 -0.0723  0.0981
 4737TIP3    H114175   4.414   5.083   3.133 -0.1259  1.2495 -0.1938
 4737TIP3    H214176   4.553   5.132   3.168  0.3734 -0.6450  0.5844
 4738TIP3   OH214177   3.358   0.671   4.300  0.3874  0.1460 -0.3334
 4738TIP3    H114178   3.416   0.621   4.242 -0.4884  0.1294 -1.2327
 4738TIP3    H214179   3.406   0.752   4.319  0.8704 -0.0441 -0.7274
 4739TIP3   OH214180   6.353   5.510   2.870 -0.5082 -0.4250 -0.5711
 4739TIP3    H114181   6.411   5.544   2.802 -0.3597 -0.6968 -0.5803
 4739TIP3    H214182   6.308   5.436   2.829  0.2933 -1.2046 -0.0764
 4740TIP3   OH214183   5.265   2.720   2.878 -0.1612 -0.2709 -0.7272
 4740TIP3    H114184   5.228   2.796   2.922 -0.0380  0.3810 -1.7094
 4740TIP3    H214185   5.253   2.648   2.940  1.0472  0.8169  0.8406
 4741TIP3   OH214186   0.432   3.283   4.666  0.1943  0.5162  0.6124
 4741TIP3    H114187   0.504   3.297   4.727 -0.9210 -2.7741  2.9667
 4741TIP3    H214188   0.353   3.301   4.717 -0.7472  0.2938 -0.7059
 4742TIP3   OH214189   6.862   0.423   0.207  0.1637  0.3245  0.0037
 4742TIP3    H114190   6.792   0.369   0.245 -0.6052  0.3504 -1.2963
 4742TIP3    H214191   6.830   0.513   0.214 -0.2361  0.2922 -1.1253
 4743TIP3   OH214192   1.028   0.978   3.185  0.6193 -0.3997  0.1255
 4743TIP3    H114193   0.969   0.914   3.225  0.7867 -0.5864  0.0790
 4743TIP3    H214194   0.971   1.050   3.158  0.1992 -1.1829 -1.1909
 4744TIP3   OH214195   3.832   3.985   0.802 -0.0318 -0.1903  0.2449
 4744TIP3    H114196   3.767   3.962   0.735 -0.6834 -0.5354  0.9892
 4744TIP3    H214197   3.782   3.991   0.883  0.4852  1.7085  0.4707
 4745TIP3   OH214198   5.233   0.419   4.316 -0.4414  0.1548 -0.3249
 4745TIP3    H114199   5.204   0.439   4.227 -1.7042 -2.5838 -0.6293
 4745TIP3    H214200   5.158   0.441   4.371  0.5600  2.4652  0.2489
 4746TIP3   OH214201   5.118   5.517   3.552  0.2912 -0.0912 -0.8152
 4746TIP3    H114202   5.181   5.530   3.624 -0.0860  1.0855 -0.6810
 4746TIP3    H214203   5.132   5.426   3.525 -0.1655 -0.8915  1.3449
 4747TIP3   OH214204   1.018   1.442   2.588  0.0457  0.0378  0.2108
 4747TIP3    H114205   1.108   1.467   2.567 -0.7121 -0.4566 -4.9842
 4747TIP3    H214206   0.966   1.478   2.516 -3.2935 -3.2813  0.6606
 4748TIP3   OH214207   5.078   5.038   1.215  0.1671 -0.3065  0.0104
 4748TIP3    H114208   5.070   5.133   1.217  1.2238 -0.2306  0.9899
 4748TIP3    H214209   5.002   5.009   1.163  0.7159  1.1567 -1.7178
 4749TIP3   OH214210   5.084   6.658   2.370  0.4369  0.3525  0.8070
 4749TIP3    H114211   5.168   6.648   2.327 -0.2395 -0.1374 -0.4465
 4749TIP3    H214212   5.069   6.752   2.374  0.5239  0.4086 -0.0221
 4750TIP3   OH214213   6.691   2.667   4.485  0.3232 -0.2732 -0.1732
 4750TIP3    H114214   6.736   2.740   4.444 -1.4807  0.9016 -0.1795
 4750TIP3    H214215   6.604   2.700   4.505 -1.0679 -2.8364 -1.4443
 4751TIP3   OH214216   2.292   0.876   0.309 -0.3403  0.1003 -0.2971
 4751TIP3    H114217   2.242   0.806   0.267 -0.3689 -0.2504  0.3149
 4751TIP3    H214218   2.288   0.856   0.403  3.6798 -1.8804 -0.3276
 4752TIP3   OH214219   0.248   0.336   0.664 -0.2438  0.3720  0.1457
 4752TIP3    H114220   0.166   0.368   0.701 -0.5218 -0.1994  0.0469
 4752TIP3    H214221   0.220   0.279   0.592  0.2612  0.7849 -0.3881
 4753TIP3   OH214222   5.002   1.674   4.635  0.2885  0.2827  0.8150
 4753TIP3    H114223   4.942   1.701   4.704  1.7743  0.8103  1.9269
 4753TIP3    H214224   5.042   1.593   4.668 -0.8345 -0.8945 -0.5574
 4754TIP3   OH214225   3.855   5.493   1.113  0.7518 -0.1179  0.0536
 4754TIP3    H114226   3.936   5.538   1.138  1.2707  0.0754 -1.8533
 4754TIP3    H214227   3.785   5.549   1.148  1.4029  0.0398  1.1689
 4755TIP3   OH214228   3.143   1.542   0.784  0.0395 -0.2089 -0.2457
 4755TIP3    H114229   3.164   1.633   0.763  1.0932 -0.6736 -1.3214
 4755TIP3    H214230   3.125   1.544   0.878  1.1938  0.9255 -0.0059
 4756TIP3   OH214231   2.701   1.599   1.869  0.2972 -0.3980 -0.0680
 4756TIP3    H114232   2.794   1.623   1.869  0.7550 -1.7173  2.9400
 4756TIP3    H214233   2.701   1.505   1.851 -0.4717 -0.3688 -0.2273
 4757TIP3   OH214234   2.531   1.957   2.642 -0.1136  0.0525  0.0488
 4757TIP3    H114235   2.579   2.006   2.575 -1.4667  2.0476  0.4628
 4757TIP3    H214236   2.571   1.870   2.641  1.5364  0.7636 -1.6167
 4758TIP3   OH214237   3.260   4.114   5.528 -0.1227 -0.1920 -0.3123
 4758TIP3    H114238   3.268   4.184   5.463 -1.5756  0.5220  0.2319
 4758TIP3    H214239   3.214   4.155   5.601  3.1328 -0.3875  2.0845
 4759TIP3   OH214240   2.916   3.673   0.114  0.1559 -0.1226  0.2346
 4759TIP3    H114241   2.920   3.624   0.196 -0.2566  0.5211  0.6484
 4759TIP3    H214242   2.961   3.755   0.134 -0.4775  0.2859  0.0021
 4760TIP3   OH214243   5.432   4.651   0.869  0.2346 -0.4410 -0.0585
 4760TIP3    H114244   5.374   4.659   0.794  0.2339  0.3790  0.0226
 4760TIP3    H214245   5.400   4.574   0.916  1.7214 -2.4930 -2.1700
 4761TIP3   OH214246   1.151   2.712   3.596 -0.2822  0.1396  0.8622
 4761TIP3    H114247   1.134   2.640   3.535 -0.7020  0.9276  0.0064
 4761TIP3    H214248   1.184   2.670   3.675  0.1425 -0.9324  0.1397
 4762TIP3   OH214249   5.254   0.866   3.630 -0.2549  0.0093  0.1074
 4762TIP3    H114250   5.181   0.839   3.574 -0.8798 -1.4523  1.5449
 4762TIP3    H214251   5.304   0.928   3.577 -1.3582 -0.5746 -1.6866
 4763TIP3   OH214252   3.604   4.464   0.491  0.1260 -0.0311  0.0406
 4763TIP3    H114253   3.638   4.387   0.536 -0.0300  0.9358  1.9430
 4763TIP3    H214254   3.560   4.514   0.560  0.9345  2.1518 -0.9365
 4764TIP3   OH214255   6.699   5.236   3.568 -0.2841 -0.1132  0.1173
 4764TIP3    H114256   6.664   5.150   3.593 -1.5043 -0.0544 -1.2709
 4764TIP3    H214257   6.728   5.275   3.651 -0.1586 -1.6499  0.8365
 4765TIP3   OH214258   0.868   0.099   2.842 -0.2217  0.1850 -0.1011
 4765TIP3    H114259   0.898   0.119   2.754  1.0317  0.2216  0.3233
 4765TIP3    H214260   0.852   0.004   2.842 -2.1670  0.4622 -0.9151
 4766TIP3   OH214261   4.672   5.901   0.967 -0.0336  0.1156  0.0736
 4766TIP3    H114262   4.693   5.924   1.057  1.2855  1.3059 -0.5073
 4766TIP3    H214263   4.745   5.935   0.915 -0.3140 -1.3239 -1.3658
 4767TIP3   OH214264   2.217   2.889   1.364 -0.3584  0.1210  0.4221
 4767TIP3    H114265   2.214   2.794   1.358  1.2870 -0.0461  1.5406
 4767TIP3    H214266   2.255   2.906   1.450 -2.6489  1.8553  1.1942
 4768TIP3   OH214267   4.690   2.647   2.098 -0.1262 -0.0918  0.4360
 4768TIP3    H114268   4.647   2.595   2.031 -1.6243 -1.1544  2.1138
 4768TIP3    H214269   4.767   2.683   2.055 -0.0445 -2.1686 -1.3496
 4769TIP3   OH214270   4.768   3.109   1.393 -0.1062  0.9449  0.0586
 4769TIP3    H114271   4.796   3.037   1.338 -1.4935 -0.2090  0.7705
 4769TIP3    H214272   4.841   3.124   1.453  0.0822 -0.1271  0.1174
 4770TIP3   OH214273   7.198   4.936   1.376  0.2320 -0.2450 -0.0343
 4770TIP3    H114274   7.169   4.948   1.285  0.4199 -0.6865 -0.1545
 4770TIP3    H214275   7.162   4.851   1.402 -0.8549  0.4322  0.7169
 4771TIP3   OH214276   3.649   1.868   4.781 -0.0923 -0.6125 -0.0319
 4771TIP3    H114277   3.598   1.947   4.761 -1.2119 -1.4869 -0.7470
 4771TIP3    H214278   3.689   1.845   4.698  0.3366 -0.7384  0.2080
 4772TIP3   OH214279   2.806   6.644   3.278  0.4166 -0.2100  0.2036
 4772TIP3    H114280   2.746   6.714   3.251 -1.1655 -1.6713 -0.3232
 4772TIP3    H214281   2.877   6.648   3.214 -0.3263  0.0817 -0.6252
 4773TIP3   OH214282   3.378   1.441   2.515  0.0264 -0.5076  0.4175
 4773TIP3    H114283   3.412   1.504   2.579  0.8245 -0.4219 -0.0825
 4773TIP3    H214284   3.394   1.481   2.430  1.7174 -1.8950  0.0137
 4774TIP3   OH214285   7.081   0.127   2.824 -0.5526 -0.3871 -0.5338
 4774TIP3    H114286   7.098   0.164   2.737 -0.7850 -0.5559 -0.6499
 4774TIP3    H214287   7.017   0.058   2.809  0.1590 -1.1031 -0.3690
 4775TIP3   OH214288   1.794   5.122   5.597  0.4884 -0.3785  0.1498
 4775TIP3    H114289   1.889   5.120   5.607  0.3783 -1.5054  1.2207
 4775TIP3    H214290   1.762   5.167   5.675  0.1401  0.3042 -0.3690
 4776TIP3   OH214291   4.566   2.213   0.912 -0.2131 -0.2339 -0.2905
 4776TIP3    H114292   4.536   2.275   0.846 -1.3748 -2.3422 -1.8559
 4776TIP3    H214293   4.537   2.128   0.880  1.4368 -1.6336  1.6891
 4777TIP3   OH214294   5.192   3.065   5.252  0.2478 -0.0572  0.5931
 4777TIP3    H114295   5.233   3.048   5.167  0.9728 -1.0462  1.1113
 4777TIP3    H214296   5.224   3.151   5.278 -0.1636  0.3534 -0.2280
 4778TIP3   OH214297   4.869   2.627   1.566  0.3358  0.2474  0.0445
 4778TIP3    H114298   4.902   2.568   1.634 -0.4867  0.5902  0.7667
 4778TIP3    H214299   4.947   2.672   1.533  0.6281  1.0871  1.7559
 4779TIP3   OH214300   5.772   2.811   0.319  0.4082  0.1321 -0.1101
 4779TIP3    H114301   5.693   2.822   0.372  0.5632 -0.2057  0.1915
 4779TIP3    H214302   5.793   2.900   0.290 -0.1567  0.2117 -0.3045
 4780TIP3   OH214303   4.786   5.839   4.780 -0.1820  0.8986  0.1555
 4780TIP3    H114304   4.867   5.864   4.736  0.2734  1.1959  1.1253
 4780TIP3    H214305   4.727   5.813   4.710  0.8803  0.3155 -0.5450
 4781TIP3   OH214306   1.519   4.099   5.281  0.6894  0.5399 -0.1102
 4781TIP3    H114307   1.584   4.133   5.343 -0.1584  1.4205  0.3173
 4781TIP3    H214308   1.436   4.135   5.312  0.2133  0.7487 -1.5899
 4782TIP3   OH214309   6.554   5.714   2.796  0.1060 -0.1742  0.2714
 4782TIP3    H114310   6.640   5.732   2.758 -0.5620  0.8776 -0.8306
 4782TIP3    H214311   6.550   5.767   2.875  0.8392 -0.9927  0.8635
 4783TIP3   OH214312   5.952   0.576   2.757 -0.5521  0.0973 -0.5293
 4783TIP3    H114313   5.905   0.635   2.698 -1.8531  0.7015  1.0150
 4783TIP3    H214314   5.895   0.499   2.766 -1.5850  1.0205  1.7055
 4784TIP3   OH214315   4.472   2.519   4.853  0.1318 -0.1309 -0.1736
 4784TIP3    H114316   4.535   2.564   4.909 -0.7200  0.6991  0.1407
 4784TIP3    H214317   4.510   2.524   4.765 -0.4443  2.2087 -0.3506
 4785TIP3   OH214318   3.693   3.989   1.032  0.5050 -0.2721  0.1005
 4785TIP3    H114319   3.657   4.060   1.085  1.3567 -1.3150  2.2196
 4785TIP3    H214320   3.620   3.928   1.019  0.4662 -0.3841  0.7960
 4786TIP3   OH214321   1.028   4.622   4.034  0.3842 -0.2457 -1.0304
 4786TIP3    H114322   0.960   4.673   3.990 -0.3977 -0.0642  0.3333
 4786TIP3    H214323   0.999   4.618   4.125  2.5069  0.3628 -0.2702
 4787TIP3   OH214324   6.845   4.875   2.125  0.5550  0.3966  0.1006
 4787TIP3    H114325   6.811   4.956   2.089 -2.9344 -1.0466 -0.2954
 4787TIP3    H214326   6.775   4.811   2.110  1.7887 -1.9508  3.1773
 4788TIP3   OH214327   5.041   2.891   4.426 -0.1232  0.3827 -0.7088
 4788TIP3    H114328   4.973   2.875   4.361 -2.0831  1.4176  0.9638
 4788TIP3    H214329   5.059   2.805   4.464 -0.0916  0.0143 -1.5518
 4789TIP3   OH214330   6.862   0.234   5.652 -0.1545 -0.0780  0.0738
 4789TIP3    H114331   6.876   0.244   5.558  1.5167 -0.9482  0.1974
 4789TIP3    H214332   6.903   0.150   5.674  0.0305  0.3950  1.6733
 4790TIP3   OH214333   0.136   0.651   0.404 -0.0110 -0.8822  0.2984
 4790TIP3    H114334   0.193   0.725   0.383  0.3396 -1.6670 -1.6915
 4790TIP3    H214335   0.050   0.690   0.419 -0.0966 -0.1183 -1.8588
 4791TIP3   OH214336   0.947   0.068   3.567 -0.0965 -0.8900  0.5537
 4791TIP3    H114337   0.950   0.013   3.646  1.1327 -0.8172  0.5716
 4791TIP3    H214338   0.906   0.012   3.501  0.1704 -1.4539  0.8573
 4792TIP3   OH214339   3.132   1.020   2.220  0.3438 -0.1930  0.4412
 4792TIP3    H114340   3.137   0.944   2.162 -1.0886 -0.6736  0.9207
 4792TIP3    H214341   3.179   0.993   2.299  2.7193  0.6307 -0.5941
 4793TIP3   OH214342   1.045   5.074   1.433 -0.2138  0.9989 -0.7212
 4793TIP3    H114343   0.965   5.023   1.440 -0.2157  1.0558 -0.3064
 4793TIP3    H214344   1.033   5.147   1.493  0.3413  0.7570 -0.3078
 4794TIP3   OH214345   6.608   3.347   3.781 -0.2640 -0.1160  0.0813
 4794TIP3    H114346   6.642   3.437   3.785 -0.6321  0.1070 -1.3545
 4794TIP3    H214347   6.550   3.347   3.706 -0.6072 -1.4637  0.3308
 4795TIP3   OH214348   5.561   3.683   5.216 -0.5339 -0.1178  0.1517
 4795TIP3    H114349   5.601   3.620   5.276 -1.0826 -0.9160 -0.3125
 4795TIP3    H214350   5.552   3.636   5.133  2.3339  1.6375 -1.3410
 4796TIP3   OH214351   2.598   0.999   2.866 -0.0256 -0.3396 -0.2972
 4796TIP3    H114352   2.627   1.000   2.957  0.1301  1.1483 -0.3425
 4796TIP3    H214353   2.675   1.022   2.815 -0.3770 -0.0460 -0.7098
 4797TIP3   OH214354   4.870   0.339   4.540 -0.4080  0.0447 -0.9259
 4797TIP3    H114355   4.927   0.307   4.609 -0.3988  0.4138 -0.7570
 4797TIP3    H214356   4.797   0.277   4.537 -1.3431  0.9991  0.6647
 4798TIP3   OH214357   4.843   4.965   1.067  0.2677 -0.0127 -0.2754
 4798TIP3    H114358   4.810   4.899   1.006 -2.8978  0.2648  0.9684
 4798TIP3    H214359   4.785   5.040   1.056  2.2957  1.7063  0.0759
 4799TIP3   OH214360   0.985   4.139   2.131 -0.4148 -0.2039  0.2982
 4799TIP3    H114361   0.990   4.046   2.109 -1.7210 -0.3146  0.4290
 4799TIP3    H214362   0.902   4.149   2.177  0.6123  0.6754  2.0773
 4800TIP3   OH214363   2.494   4.588   3.377  0.0440 -0.3462 -0.0017
 4800TIP3    H114364   2.431   4.618   3.313 -1.4428  1.7348  2.2636
 4800TIP3    H214365   2.448   4.521   3.427  0.4846 -0.5526  0.1351
 4801TIP3   OH214366   4.603   0.673   5.436 -0.9998  0.3260 -0.1588
 4801TIP3    H114367   4.536   0.663   5.504  0.1658  1.3096  1.1924
 4801TIP3    H214368   4.670   0.608   5.459 -1.0469 -0.0029 -0.9404
 4802TIP3   OH214369   6.078   4.486   0.254  0.3419 -0.2527 -0.2173
 4802TIP3    H114370   5.988   4.512   0.277 -0.3692 -1.0067 -1.9962
 4802TIP3    H214371   6.116   4.459   0.338 -1.3125 -0.5678  0.4845
 4803TIP3   OH214372   6.203   4.132   1.780 -0.5313  0.4200 -0.1244
 4803TIP3    H114373   6.262   4.201   1.809  0.4190  0.6020 -2.2715
 4803TIP3    H214374   6.116   4.172   1.781 -0.1513  1.2548 -0.1761
 4804TIP3   OH214375   7.101   2.757   5.712 -0.0425  0.0516  0.2382
 4804TIP3    H114376   7.081   2.709   5.793  1.5062  0.2797  0.7980
 4804TIP3    H214377   7.052   2.838   5.720  0.0566  0.0491  0.9401
 4805TIP3   OH214378   4.964   3.484   0.865  0.5268  0.1713 -0.4235
 4805TIP3    H114379   5.046   3.457   0.823  1.9522  1.8081  1.1316
 4805TIP3    H214380   4.973   3.458   0.956 -1.0972 -0.3946 -0.3958
 4806TIP3   OH214381   6.865   5.587   2.041 -0.0467  0.0825 -0.0315
 4806TIP3    H114382   6.937   5.647   2.056  0.4715 -0.5297 -0.0183
 4806TIP3    H214383   6.832   5.610   1.954  1.3722 -0.8374 -0.8591
 4807TIP3   OH214384   4.567   3.680   3.282 -0.0163 -0.1280 -0.9584
 4807TIP3    H114385   4.607   3.699   3.367  1.2218  1.1142 -1.7651
 4807TIP3    H214386   4.483   3.726   3.284  0.2164  0.2925 -0.5735
 4808TIP3   OH214387   5.094   4.443   0.796 -0.2250 -0.0496  0.0768
 4808TIP3    H114388   5.102   4.538   0.791 -1.7772  0.2290  1.7980
 4808TIP3    H214389   5.106   4.422   0.889  3.4690 -1.9808 -0.6405
 4809TIP3   OH214390   3.581   2.983   0.700 -0.5191  1.1235  0.1853
 4809TIP3    H114391   3.590   3.075   0.679 -0.2496  0.8669 -0.8632
 4809TIP3    H214392   3.592   2.937   0.616 -2.5364  0.2575  0.3277
 4810TIP3   OH214393   1.602   4.796   0.336  0.1941 -0.1480  0.6957
 4810TIP3    H114394   1.680   4.778   0.282 -0.5315 -1.6847  0.0787
 4810TIP3    H214395   1.545   4.721   0.320 -0.2007 -0.5141  3.3779
 4811TIP3   OH214396   2.059   1.214   1.104  0.5478  0.0318 -0.0481
 4811TIP3    H114397   2.106   1.241   1.183 -0.3805  0.3361  0.4146
 4811TIP3    H214398   2.128   1.194   1.041  1.3448 -1.0658  1.1103
 4812TIP3   OH214399   6.179   3.522   1.498 -0.0576  0.2885 -0.0847
 4812TIP3    H114400   6.181   3.441   1.549  0.2958  0.3810  0.0555
 4812TIP3    H214401   6.268   3.558   1.507  0.2104 -0.0342 -1.3251
 4813TIP3   OH214402   5.604   3.985   2.616 -0.1993 -0.0360  0.2123
 4813TIP3    H114403   5.543   4.030   2.557  1.2448  1.6572 -0.0850
 4813TIP3    H214404   5.610   4.042   2.693  2.5623  1.0193 -0.6572
 4814TIP3   OH214405   1.431   4.538   2.366 -0.2005  0.5918 -0.0316
 4814TIP3    H114406   1.458   4.591   2.441 -0.0013 -0.7282  0.8667
 4814TIP3    H214407   1.370   4.474   2.402 -0.6128  0.3491 -1.1259
 4815TIP3   OH214408   2.090   4.289   1.532  0.1866 -0.0588 -0.2953
 4815TIP3    H114409   2.130   4.361   1.484 -2.7400  1.7639 -0.2291
 4815TIP3    H214410   2.007   4.272   1.486 -1.5492  0.0569  2.5408
 4816TIP3   OH214411   3.524   3.502   2.031 -0.3640 -0.2175  0.0745
 4816TIP3    H114412   3.481   3.581   1.998 -1.5147  0.2176  2.4230
 4816TIP3    H214413   3.616   3.515   2.008 -0.4203  2.1153  0.8752
 4817TIP3   OH214414   5.141   0.164   4.640  0.3339  0.3548  0.3407
 4817TIP3    H114415   5.184   0.248   4.656 -0.4353  0.7836  0.2388
 4817TIP3    H214416   5.086   0.151   4.718  0.7569 -0.2576  0.5418
 4818TIP3   OH214417   3.193   2.421   2.394 -0.3280 -0.4710  0.2705
 4818TIP3    H114418   3.153   2.488   2.449  0.1414  0.8981 -0.9922
 4818TIP3    H214419   3.127   2.403   2.327 -0.6077 -1.5959  0.8249
 4819TIP3   OH214420   6.782   6.681   5.701  0.1801 -0.3412 -0.6814
 4819TIP3    H114421   6.797   6.627   5.624 -1.1443  0.0790 -1.2631
 4819TIP3    H214422   6.686   6.686   5.708  0.2765  1.6030 -0.4169
 4820TIP3   OH214423   4.112   6.453   1.812  0.0980  0.1120  0.1751
 4820TIP3    H114424   4.200   6.448   1.775  0.2065 -1.2984  0.5444
 4820TIP3    H214425   4.124   6.493   1.898  0.6128 -1.3308  0.8094
 4821TIP3   OH214426   7.023   4.197   4.418  0.3185 -0.0509  0.6787
 4821TIP3    H114427   7.033   4.136   4.345  1.3118 -1.4350  1.9040
 4821TIP3    H214428   6.928   4.210   4.425  0.2505  1.2910 -1.7193
 4822TIP3   OH214429   0.612   3.471   4.036 -0.3082  0.1682  0.4413
 4822TIP3    H114430   0.575   3.458   4.124 -1.8839 -1.6974 -0.4169
 4822TIP3    H214431   0.642   3.384   4.010  0.1472  0.7018 -0.8787
 4823TIP3   OH214432   2.950   1.534   1.724  0.3156  0.0154 -0.2160
 4823TIP3    H114433   3.014   1.464   1.709 -0.1208 -0.5227  0.3857
 4823TIP3    H214434   2.893   1.530   1.647  0.0830 -0.5250 -0.0207
 4824TIP3   OH214435   5.243   0.240   5.048  0.0601 -0.4716 -0.1931
 4824TIP3    H114436   5.169   0.284   5.089  0.2495  0.2460 -0.6120
 4824TIP3    H214437   5.206   0.160   5.011 -0.5398 -0.0310 -0.5582
 4825TIP3   OH214438   5.538   2.175   1.538  0.1630 -0.3835 -0.2229
 4825TIP3    H114439   5.502   2.110   1.599  0.2569 -0.8458 -0.6582
 4825TIP3    H214440   5.591   2.124   1.477  0.9683  0.2093 -0.0309
 4826TIP3   OH214441   0.827   3.809   3.093 -0.5785 -0.1380 -0.1677
 4826TIP3    H114442   0.830   3.732   3.150 -2.5338 -1.4205 -1.6210
 4826TIP3    H214443   0.739   3.845   3.106 -0.4708  0.5142 -1.1274
 4827TIP3   OH214444   5.108   2.464   5.876 -0.2159  0.1112  0.4938
 4827TIP3    H114445   5.068   2.518   5.808  0.2718 -1.1422 -0.8453
 4827TIP3    H214446   5.039   2.402   5.901 -0.3590  0.4990  1.0736
 4828TIP3   OH214447   4.914   5.155   3.542  0.5509 -0.6899  0.3438
 4828TIP3    H114448   4.947   5.188   3.459  1.9807  2.3018  1.9443
 4828TIP3    H214449   4.819   5.150   3.531  0.6194  0.7232 -1.1020
 4829TIP3   OH214450   0.157   3.786   4.542  0.0516  0.3278  0.4588
 4829TIP3    H114451   0.100   3.712   4.523 -0.9969  1.0813  0.5781
 4829TIP3    H214452   0.244   3.748   4.551 -0.3037 -0.7425 -0.5020
 4830TIP3   OH214453   1.239   2.532   2.276  0.4851 -0.3142 -0.6312
 4830TIP3    H114454   1.174   2.480   2.228 -1.1870  1.2038 -0.0889
 4830TIP3    H214455   1.292   2.467   2.322 -1.7843 -1.5670  0.3630
 4831TIP3   OH214456   0.907   6.478   4.565  0.2864  0.0153 -0.3779
 4831TIP3    H114457   0.879   6.524   4.644  4.0270 -0.3986  1.3930
 4831TIP3    H214458   0.935   6.548   4.506 -0.6359  0.2515 -0.5479
 4832TIP3   OH214459   0.337   4.804   3.712  0.3734 -0.1184 -0.0784
 4832TIP3    H114460   0.283   4.883   3.703 -0.7510 -0.7831  0.5104
 4832TIP3    H214461   0.424   4.830   3.681 -0.2543  1.0254 -0.9764
 4833TIP3   OH214462   5.969   2.012   1.125  0.7757  0.1369 -0.5899
 4833TIP3    H114463   6.041   1.953   1.150  0.3136 -0.0877  0.2381
 4833TIP3    H214464   5.959   2.070   1.200  0.5872  0.6647 -1.0159
 4834TIP3   OH214465   3.110   4.626   1.197 -0.7028  0.1856  0.3616
 4834TIP3    H114466   3.130   4.665   1.112  0.9161 -0.3824  0.4478
 4834TIP3    H214467   3.136   4.534   1.189 -1.2043 -0.0513  1.2495
 4835TIP3   OH214468   2.508   6.754   1.924  0.2768 -0.1941 -0.1234
 4835TIP3    H114469   2.503   6.659   1.907  1.6505 -0.4920  0.9246
 4835TIP3    H214470   2.601   6.775   1.911  0.2720  0.6927  1.1613
 4836TIP3   OH214471   2.596   3.207   5.785 -0.6170 -0.3336  0.5681
 4836TIP3    H114472   2.680   3.229   5.825 -0.4943  0.7294 -0.2163
 4836TIP3    H214473   2.607   3.116   5.755  0.1140 -0.3382  0.8305
 4837TIP3   OH214474   0.398   1.117   3.469 -0.2458 -0.5916  0.2809
 4837TIP3    H114475   0.387   1.159   3.554 -0.7774 -0.8554  0.3446
 4837TIP3    H214476   0.449   1.038   3.487  2.9283  1.1677 -0.1575
 4838TIP3   OH214477   5.352   6.144   5.097  0.2577 -0.3320  0.3604
 4838TIP3    H114478   5.404   6.224   5.095  0.0060 -0.1610  0.6233
 4838TIP3    H214479   5.267   6.168   5.059 -0.3244 -0.1010  1.7619
 4839TIP3   OH214480   5.968   3.645   3.810  0.1428  0.5155 -0.0077
 4839TIP3    H114481   6.053   3.630   3.851  0.9895  2.4783 -0.9183
 4839TIP3    H214482   5.987   3.650   3.716 -0.8261  1.7979 -0.1693
 4840TIP3   OH214483   4.363   3.521   1.057  0.1652  0.1078  0.1020
 4840TIP3    H114484   4.330   3.582   1.123 -4.9519 -3.1825  1.2307
 4840TIP3    H214485   4.424   3.465   1.104 -0.2329  0.3457  0.9142
 4841TIP3   OH214486   2.183   1.237   1.530  0.4414 -0.1945 -0.6537
 4841TIP3    H114487   2.103   1.286   1.550  0.2057 -0.4455 -0.9593
 4841TIP3    H214488   2.152   1.159   1.483  0.5825 -1.7065  1.6057
 4842TIP3   OH214489   7.094   0.643   3.022  0.0560  0.4427  0.0367
 4842TIP3    H114490   7.184   0.651   3.052  0.8499  1.0170 -2.2636
 4842TIP3    H214491   7.097   0.575   2.955 -0.3268  2.9949 -2.8127
 4843TIP3   OH214492   3.346   4.253   4.611 -0.0533  0.0455  0.1660
 4843TIP3    H114493   3.299   4.171   4.625 -0.0307 -0.4305 -2.2483
 4843TIP3    H214494   3.303   4.315   4.670 -0.9346 -1.3635  1.0684
 4844TIP3   OH214495   4.162   4.455   0.741  0.2548 -0.0367  0.2043
 4844TIP3    H114496   4.111   4.458   0.659  0.3512  2.6291  0.1437
 4844TIP3    H214497   4.098   4.432   0.808 -0.7254  1.4738 -0.1412
 4845TIP3   OH214498   5.092   5.248   2.102  0.5582 -0.1268 -0.0193
 4845TIP3    H114499   5.030   5.175   2.101  1.6228 -1.0593 -1.5553
 4845TIP3    H214500   5.137   5.239   2.186  0.1537 -0.7891  0.1377
 4846TIP3   OH214501   2.729   2.707   2.756  0.2707 -0.3961  0.3514
 4846TIP3    H114502   2.757   2.743   2.672  2.0760 -0.7719  0.7449
 4846TIP3    H214503   2.770   2.764   2.821 -0.2450 -0.7279  0.9773
 4847TIP3   OH214504   3.435   2.862   3.053  0.3773 -0.5326 -0.3795
 4847TIP3    H114505   3.498   2.791   3.066 -0.1943 -1.1127 -0.7044
 4847TIP3    H214506   3.451   2.892   2.963  2.2384  1.3921  0.5156
 4848TIP3   OH214507   4.906   4.613   1.507 -0.5543  0.2711 -0.5867
 4848TIP3    H114508   4.884   4.546   1.442 -1.2126 -0.1208  0.0284
 4848TIP3    H214509   4.914   4.694   1.457  2.7821 -0.6433 -1.7719
 4849TIP3   OH214510   6.210   0.462   0.193  0.3376  0.1758  0.4321
 4849TIP3    H114511   6.301   0.434   0.207  0.6546  0.1797 -1.3591
 4849TIP3    H214512   6.174   0.472   0.281  2.0753  0.1744  1.1810
 4850TIP3   OH214513   1.537   0.373   2.577 -0.4911 -0.6112 -0.1013
 4850TIP3    H114514   1.561   0.282   2.594 -0.8679 -0.8920 -1.0115
 4850TIP3    H214515   1.605   0.424   2.621  0.5878 -1.3538 -0.8395
 4851TIP3   OH214516   6.268   0.739   1.134 -0.1048  0.2073  0.1547
 4851TIP3    H114517   6.314   0.672   1.183  0.0101 -0.4348 -0.8005
 4851TIP3    H214518   6.325   0.816   1.139  0.3856 -0.1529  0.1715
 4852TIP3   OH214519   6.938   5.144   0.059  0.0602  0.5049  0.1180
 4852TIP3    H114520   6.933   5.063   0.110 -1.5032  0.2243 -0.4254
 4852TIP3    H214521   6.937   5.214   0.125  0.2022  0.1098  0.5417
 4853TIP3   OH214522   6.139   0.106   3.231 -0.1006 -0.0305  0.1146
 4853TIP3    H114523   6.215   0.112   3.289 -0.0478 -0.7608  0.1275
 4853TIP3    H214524   6.073   0.060   3.282 -0.8475  1.2977  0.3875
 4854TIP3   OH214525   6.936   4.682   5.456  0.1050  0.0378  0.0481
 4854TIP3    H114526   6.852   4.677   5.503  0.1109  0.6467  0.1367
 4854TIP3    H214527   6.997   4.633   5.511  0.6341  2.5204  1.9041
 4855TIP3   OH214528   2.654   2.151   2.455 -0.0862  0.3189 -0.0362
 4855TIP3    H114529   2.668   2.190   2.368  1.3256  0.4645  0.2261
 4855TIP3    H214530   2.734   2.172   2.503  0.0865 -1.6515  0.6044
 4856TIP3   OH214531   7.120   3.280   4.418 -0.4053  0.0538 -0.0657
 4856TIP3    H114532   7.215   3.269   4.425 -0.5482 -0.2082  1.9316
 4856TIP3    H214533   7.098   3.246   4.331  1.4348  1.0738 -0.9895
 4857TIP3   OH214534   4.151   3.516   3.747  0.5163  0.0224  0.2419
 4857TIP3    H114535   4.141   3.464   3.667  0.7183 -0.3742  0.4760
 4857TIP3    H214536   4.061   3.532   3.776  0.4008  0.9224 -0.5423
 4858TIP3   OH214537   0.758   0.845   0.450 -0.3173 -0.3640  0.5405
 4858TIP3    H114538   0.834   0.809   0.496  1.2747  1.0125 -0.8906
 4858TIP3    H214539   0.772   0.939   0.451 -1.1408 -0.1892 -1.1930
 4859TIP3   OH214540   5.292   6.183   0.381 -0.2778 -0.2810 -0.2249
 4859TIP3    H114541   5.241   6.203   0.302  0.1909  0.3926 -0.3640
 4859TIP3    H214542   5.359   6.251   0.384  1.5028 -1.9233 -0.8113
 4860TIP3   OH214543   2.920   3.158   4.438  0.0346 -0.2607  0.1542
 4860TIP3    H114544   2.894   3.120   4.354  4.8411 -0.8849 -1.3246
 4860TIP3    H214545   2.908   3.087   4.501 -0.8110 -0.7620 -0.5446
 4861TIP3   OH214546   3.371   3.319   3.403 -0.3632  0.1996 -0.3631
 4861TIP3    H114547   3.281   3.284   3.406 -0.4255  0.3410 -0.6283
 4861TIP3    H214548   3.405   3.302   3.491 -0.3077 -0.7623 -0.5591
 4862TIP3   OH214549   3.982   4.803   2.871  0.0525 -0.0258  0.2651
 4862TIP3    H114550   3.929   4.774   2.796 -0.5122  2.7406 -0.5342
 4862TIP3    H214551   4.035   4.875   2.836  1.4944 -0.1765  2.0130
 4863TIP3   OH214552   6.825   0.001   0.151 -0.0903 -0.0497 -0.1682
 4863TIP3    H114553   6.920   0.007   0.150 -0.1641  3.1776 -0.6323
 4863TIP3    H214554   6.801   0.009   0.243  0.0533 -2.7625  0.1724
 4864TIP3   OH214555   1.972   1.307   2.113 -0.1660 -0.3604 -0.4806
 4864TIP3    H114556   2.062   1.287   2.085  0.4955  0.4379  0.9352
 4864TIP3    H214557   1.983   1.372   2.183 -1.9548  1.0637 -1.4437
 4865TIP3   OH214558   3.795   3.870   4.243  0.4840  0.4627 -0.0877
 4865TIP3    H114559   3.756   3.923   4.312  1.6673  1.4481 -0.1428
 4865TIP3    H214560   3.872   3.830   4.284 -0.7345 -1.8249  0.1550
 4866TIP3   OH214561   6.262   4.139   1.514 -0.6025 -0.2263 -0.3454
 4866TIP3    H114562   6.248   4.102   1.602  0.6296 -1.5230 -0.6554
 4866TIP3    H214563   6.338   4.197   1.525  0.1826 -1.1502 -0.7199
 4867TIP3   OH214564   2.730   2.498   1.348  0.0907  1.0087 -0.6384
 4867TIP3    H114565   2.710   2.508   1.441 -1.7569  1.4167 -1.0465
 4867TIP3    H214566   2.763   2.409   1.340  2.1509  1.5786  0.6737
 4868TIP3   OH214567   3.234   4.009   2.971  0.0826 -0.0118 -0.1536
 4868TIP3    H114568   3.229   3.935   2.910 -0.1279  0.6643 -0.9783
 4868TIP3    H214569   3.143   4.022   2.999  0.4061 -1.4065  1.6607
 4869TIP3   OH214570   5.067   5.010   0.422  0.1561  0.4359  0.0320
 4869TIP3    H114571   4.974   5.019   0.401 -0.0109  0.1852  0.6412
 4869TIP3    H214572   5.112   5.057   0.352 -0.4089  0.1503 -0.5334
 4870TIP3   OH214573   7.097   3.195   4.958 -0.5327 -0.1351  0.1489
 4870TIP3    H114574   7.004   3.203   4.938 -0.1456 -0.9409 -2.3673
 4870TIP3    H214575   7.140   3.208   4.873  1.5695 -1.0854  1.0162
 4871TIP3   OH214576   0.437   1.521   5.436 -0.5975 -0.4500 -0.2377
 4871TIP3    H114577   0.506   1.577   5.471 -0.3336 -0.0669 -1.3280
 4871TIP3    H214578   0.362   1.538   5.493 -0.0565 -0.1870  0.4094
 4872TIP3   OH214579   1.678   2.541   4.448 -0.2019  0.1856  0.2718
 4872TIP3    H114580   1.646   2.460   4.489  0.9160 -0.4501 -0.0750
 4872TIP3    H214581   1.619   2.555   4.374 -0.4785 -0.2409  0.4050
 4873TIP3   OH214582   1.401   2.717   0.439  0.1686 -0.3298  0.1610
 4873TIP3    H114583   1.411   2.808   0.467 -0.4710 -0.3764  0.5723
 4873TIP3    H214584   1.307   2.705   0.429  0.3287 -0.5005 -1.4654
 4874TIP3   OH214585   4.926   4.840   4.152  0.2473  0.6783 -0.4131
 4874TIP3    H114586   4.872   4.770   4.188  0.6963  0.6893  0.2915
 4874TIP3    H214587   4.882   4.865   4.071  0.9001 -1.4266 -1.4629
 4875TIP3   OH214588   0.456   6.232   0.292 -0.0270 -0.6844 -0.0017
 4875TIP3    H114589   0.491   6.296   0.354 -2.2402  0.0545  0.6120
 4875TIP3    H214590   0.491   6.148   0.321 -0.3954 -0.2479  1.8145
 4876TIP3   OH214591   4.624   6.110   2.844  0.1834 -0.1707 -0.2089
 4876TIP3    H114592   4.636   6.054   2.767 -0.7201  0.7488 -1.0417
 4876TIP3    H214593   4.713   6.123   2.878  0.4961 -1.3699 -0.5155
 4877TIP3   OH214594   3.123   5.373   3.946  0.3332 -0.2375  0.2119
 4877TIP3    H114595   3.028   5.355   3.944  0.1549  0.4426  1.4142
 4877TIP3    H214596   3.131   5.460   3.908  0.5905 -0.6368 -0.6750
 4878TIP3   OH214597   2.627   1.669   3.544  0.0956 -0.1365  0.1724
 4878TIP3    H114598   2.689   1.679   3.472  0.7375  0.7435  0.8163
 4878TIP3    H214599   2.585   1.585   3.529  2.3986 -1.4118  0.4030
 4879TIP3   OH214600   6.702   1.861   5.652 -0.7225 -0.0394  0.1546
 4879TIP3    H114601   6.702   1.823   5.564 -0.8814 -0.9280  0.5249
 4879TIP3    H214602   6.734   1.950   5.640  0.4451 -0.5344 -0.6433
 4880TIP3   OH214603   4.994   0.354   0.739  0.3898  0.3891 -0.1428
 4880TIP3    H114604   4.929   0.407   0.784  0.6013 -0.9084  1.8033
 4880TIP3    H214605   5.002   0.394   0.652 -0.3517  2.7436  0.7957
 4881TIP3   OH214606   6.978   0.326   4.363  0.0979  0.1723  0.1888
 4881TIP3    H114607   7.053   0.268   4.375  1.3443  1.0640 -2.4670
 4881TIP3    H214608   6.908   0.286   4.414  1.9038 -1.6330  1.3917
 4882TIP3   OH214609   1.079   5.853   5.161  0.4077 -0.6572  0.2831
 4882TIP3    H114610   0.993   5.886   5.188  0.0108 -2.0276  0.7773
 4882TIP3    H214611   1.107   5.912   5.091 -1.2117 -0.5562 -0.3112
 4883TIP3   OH214612   2.748   5.565   2.983  0.0034 -0.1831 -0.1114
 4883TIP3    H114613   2.672   5.586   3.038  0.4639  0.0046  0.4738
 4883TIP3    H214614   2.715   5.566   2.894 -0.9074 -1.1004  0.1982
 4884TIP3   OH214615   5.668   3.060   4.155  0.0715  0.5581 -0.0866
 4884TIP3    H114616   5.602   3.066   4.224  1.1462  1.2264  0.8996
 4884TIP3    H214617   5.686   3.151   4.131  0.7135  0.3772 -0.2885
 4885TIP3   OH214618   5.135   3.819   1.932 -0.1078 -0.0083  0.0737
 4885TIP3    H114619   5.132   3.871   1.852 -0.0809  0.1214  0.1558
 4885TIP3    H214620   5.220   3.841   1.972  0.1473 -0.5422 -0.1745
 4886TIP3   OH214621   2.047   2.151   2.331  0.1828  0.2253  0.2885
 4886TIP3    H114622   2.011   2.196   2.408 -1.2055  0.5778 -0.5253
 4886TIP3    H214623   2.047   2.218   2.263  0.1242 -0.4423 -0.3698
 4887TIP3   OH214624   3.863   5.696   2.648  0.3673  0.3554 -0.0198
 4887TIP3    H114625   3.858   5.664   2.738  1.0143  1.2155  0.3359
 4887TIP3    H214626   3.911   5.779   2.655 -1.4179  1.5162 -0.8618
 4888TIP3   OH214627   0.930   4.716   1.813  0.4527  0.9740  0.1609
 4888TIP3    H114628   0.910   4.807   1.834  2.0099  1.6626 -1.1110
 4888TIP3    H214629   1.000   4.692   1.874 -0.2497  0.4726  0.7813
 4889TIP3   OH214630   0.762   1.297   0.819  0.1945 -0.1654  0.6772
 4889TIP3    H114631   0.684   1.332   0.777 -0.6627 -1.3007  1.2885
 4889TIP3    H214632   0.830   1.361   0.800 -1.2211  1.6382  1.4412
 4890TIP3   OH214633   1.295   1.005   4.847  0.2244 -0.7754 -0.5119
 4890TIP3    H114634   1.208   1.043   4.842  0.4184 -0.2155  0.3249
 4890TIP3    H214635   1.297   0.958   4.930  1.4998  1.2624  0.7077
 4891TIP3   OH214636   5.883   3.354   3.821 -0.4313  0.2580  0.2601
 4891TIP3    H114637   5.969   3.336   3.781 -0.3804 -1.3046  1.0463
 4891TIP3    H214638   5.903   3.416   3.891  0.3872 -1.5026  1.6614
 4892TIP3   OH214639   5.130   1.395   0.352  0.4039 -0.2085  0.8633
 4892TIP3    H114640   5.148   1.313   0.306 -0.4263 -0.5904  1.2053
 4892TIP3    H214641   5.054   1.431   0.307  0.8007  0.4214  0.6711
 4893TIP3   OH214642   4.566   6.109   4.160 -0.0579  0.0281  0.2112
 4893TIP3    H114643   4.525   6.117   4.246  0.2269 -1.4634  0.5183
 4893TIP3    H214644   4.629   6.181   4.156  0.3030 -0.1972  1.4687
 4894TIP3   OH214645   5.707   3.464   4.695  0.1583 -0.2775 -0.1321
 4894TIP3    H114646   5.635   3.490   4.638 -1.2431 -2.1938  0.6653
 4894TIP3    H214647   5.785   3.500   4.653 -1.1749  1.4117 -1.3037
 4895TIP3   OH214648   4.058   3.058   5.012 -0.1529  0.2844 -0.4329
 4895TIP3    H114649   4.109   3.083   5.089  0.7239  2.4359 -1.6331
 4895TIP3    H214650   4.104   2.982   4.976  0.8674  0.7792 -0.2047
 4896TIP3   OH214651   6.569   0.429   3.626 -0.3930  0.2438  0.1257
 4896TIP3    H114652   6.636   0.472   3.680 -0.1402 -0.1203  0.1074
 4896TIP3    H214653   6.550   0.493   3.557 -1.4965  1.1619  1.2284
 4897TIP3   OH214654   4.872   4.806   1.300  0.1248  0.1896 -0.0121
 4897TIP3    H114655   4.841   4.855   1.223  1.5337 -0.4294 -1.0105
 4897TIP3    H214656   4.937   4.746   1.265 -0.6268 -1.5216  1.3830
 4898TIP3   OH214657   4.108   3.335   1.798 -0.6437  0.0972 -0.5994
 4898TIP3    H114658   4.171   3.399   1.832  0.1655 -1.2268  0.4887
 4898TIP3    H214659   4.111   3.347   1.703 -0.3382  1.5008 -0.4381
 4899TIP3   OH214660   7.129   2.053   3.505 -0.5942 -0.0437  0.1607
 4899TIP3    H114661   7.223   2.071   3.502 -0.6191  0.5655  1.8144
 4899TIP3    H214662   7.091   2.113   3.441  0.0145  0.8266  0.5932
 4900TIP3   OH214663   1.223   3.642   5.751  0.1645  0.0215 -0.7843
 4900TIP3    H114664   1.295   3.637   5.687 -0.2357 -0.3899 -1.2085
 4900TIP3    H214665   1.226   3.557   5.796  0.7072  0.4681  0.0369
 4901TIP3   OH214666   5.377   6.016   5.523 -0.2108 -0.0881 -0.0247
 4901TIP3    H114667   5.427   5.993   5.445  1.0818  0.9632  0.4490
 4901TIP3    H214668   5.286   6.014   5.495  0.2144  0.0865 -1.5098
 4902TIP3   OH214669   0.191   3.461   1.065  0.1752 -0.5674  0.3387
 4902TIP3    H114670   0.130   3.466   1.139  0.6205 -1.2094  0.7592
 4902TIP3    H214671   0.256   3.396   1.092  1.7691  1.0045  0.4210
 4903TIP3   OH214672   1.606   1.363   5.562 -0.6998  0.2516  0.1473
 4903TIP3    H114673   1.569   1.326   5.482 -0.4394 -1.2071  0.6681
 4903TIP3    H214674   1.696   1.331   5.564 -0.7496  0.1472  1.0959
 4904TIP3   OH214675   6.383   5.175   3.712  0.1672  0.3381 -0.5837
 4904TIP3    H114676   6.427   5.239   3.768  0.7885 -0.6646  0.0995
 4904TIP3    H214677   6.384   5.094   3.762 -2.2225  0.1835 -0.6586
 4905TIP3   OH214678   4.297   1.333   5.456  0.0173 -0.5718  0.1688
 4905TIP3    H114679   4.332   1.288   5.380 -1.0301 -2.0959  0.5491
 4905TIP3    H214680   4.290   1.266   5.523 -1.6189  0.1318  0.7560
 4906TIP3   OH214681   1.425   0.637   4.910  0.0174 -0.7005 -0.0688
 4906TIP3    H114682   1.430   0.694   4.987  0.7791 -1.3487  0.3772
 4906TIP3    H214683   1.332   0.628   4.892 -0.1284  0.1943  0.2223
 4907TIP3   OH214684   1.650   5.836   1.884  0.3161 -0.4543 -0.3307
 4907TIP3    H114685   1.712   5.879   1.943  0.3492 -0.4754 -0.3500
 4907TIP3    H214686   1.685   5.747   1.873  0.5838 -0.2979 -0.7841
 4908TIP3   OH214687   2.957   3.485   4.565 -0.0540 -0.0500  0.7167
 4908TIP3    H114688   2.991   3.467   4.477 -0.5099 -1.2250  0.7631
 4908TIP3    H214689   2.864   3.504   4.551 -0.4797 -1.7151  1.0640
 4909TIP3   OH214690   1.376   2.231   1.828 -0.4225 -0.3658  0.5863
 4909TIP3    H114691   1.384   2.214   1.922  0.4705 -1.4511  0.3438
 4909TIP3    H214692   1.287   2.265   1.817 -0.0953  1.0399  1.9808
 4910TIP3   OH214693   3.843   2.322   0.984  0.4376 -0.2020  0.6289
 4910TIP3    H114694   3.826   2.245   0.929  0.4798 -0.7068  1.3049
 4910TIP3    H214695   3.889   2.383   0.926 -2.2416  0.5924 -0.8179
 4911TIP3   OH214696   2.887   3.341   0.193 -0.3811  0.4402  1.2046
 4911TIP3    H114697   2.954   3.280   0.225 -1.0716 -1.7926 -1.2857
 4911TIP3    H214698   2.872   3.400   0.267  1.2933 -1.5808  3.3283
 4912TIP3   OH214699   0.124   4.604   0.909 -0.3139 -0.2685  0.1062
 4912TIP3    H114700   0.197   4.543   0.912  0.0092  0.1265  2.6882
 4912TIP3    H214701   0.049   4.550   0.882  1.0144 -0.3832 -4.1486
 4913TIP3   OH214702   2.423   4.923   4.577  0.0706  0.0645 -0.1818
 4913TIP3    H114703   2.384   4.969   4.651  2.1075  1.8592 -0.1397
 4913TIP3    H214704   2.443   4.836   4.610  0.3271  0.6219  1.1791
 4914TIP3   OH214705   3.206   5.727   3.019 -0.0046 -0.4856 -0.1079
 4914TIP3    H114706   3.242   5.759   2.936 -0.4291 -1.3510 -0.6402
 4914TIP3    H214707   3.277   5.676   3.058  0.6345  0.9671  0.6887
 4915TIP3   OH214708   5.664   3.134   3.872  0.3227  0.1136  0.2108
 4915TIP3    H114709   5.737   3.197   3.875 -0.0994  0.5749  1.7013
 4915TIP3    H214710   5.664   3.095   3.959 -0.1027 -1.1949 -0.3664
 4916TIP3   OH214711   4.681   4.903   1.853  0.3226 -0.3265  0.0277
 4916TIP3    H114712   4.659   4.886   1.761 -1.6057 -1.4388  0.6241
 4916TIP3    H214713   4.730   4.985   1.852 -0.8183  0.3983 -1.8756
 4917TIP3   OH214714   0.883   1.465   5.026 -0.8114  0.4426 -0.2280
 4917TIP3    H114715   0.943   1.512   4.968  0.6865 -2.2318 -1.0212
 4917TIP3    H214716   0.798   1.469   4.982 -0.3501  1.0104 -1.0819
 4918TIP3   OH214717   5.714   4.868   1.675  0.3532 -0.1808 -0.4529
 4918TIP3    H114718   5.762   4.952   1.671 -1.3820  0.8511 -0.5746
 4918TIP3    H214719   5.716   4.835   1.585 -0.3328  0.5516 -0.7460
 4919TIP3   OH214720   3.765   4.855   5.044  0.0003 -0.6595 -0.0787
 4919TIP3    H114721   3.728   4.795   4.979  2.0961 -0.9680 -1.0845
 4919TIP3    H214722   3.845   4.812   5.074 -0.7699 -0.3849  2.5808
 4920TIP3   OH214723   1.509   4.309   1.260 -0.2141  0.3926  0.6317
 4920TIP3    H114724   1.461   4.346   1.185  1.3957 -0.2865 -0.8099
 4920TIP3    H214725   1.542   4.386   1.307 -1.5832  0.8362  0.9021
 4921TIP3   OH214726   6.252   5.431   5.252 -0.6353  0.2005 -0.0196
 4921TIP3    H114727   6.175   5.375   5.257 -0.5676  0.0740 -0.3260
 4921TIP3    H214728   6.244   5.476   5.168  0.0512 -0.4666 -0.4663
 4922TIP3   OH214729   5.991   4.165   5.352 -0.2656 -0.2718  0.3727
 4922TIP3    H114730   6.070   4.164   5.406  0.6358  1.6294 -0.7735
 4922TIP3    H214731   5.920   4.147   5.413  0.9406 -0.8899  1.6581
 4923TIP3   OH214732   3.007   2.046   0.363  0.1706 -0.4577  0.3259
 4923TIP3    H114733   3.100   2.040   0.339  0.3568 -1.1178  1.1450
 4923TIP3    H214734   2.998   2.135   0.398 -0.2343  0.7136 -2.5342
 4924TIP3   OH214735   5.630   4.077   5.213  0.1425 -0.2970  0.1738
 4924TIP3    H114736   5.709   4.037   5.177  0.8956  0.6482  0.7284
 4924TIP3    H214737   5.620   4.158   5.163  0.1167  0.0853  0.7951
 4925TIP3   OH214738   5.744   5.972   2.746  0.3814 -0.1929  0.4999
 4925TIP3    H114739   5.696   5.891   2.731 -0.9587  1.0165 -2.3796
 4925TIP3    H214740   5.681   6.030   2.790  0.9258 -0.2506  1.3901
 4926TIP3   OH214741   6.618   6.293   2.635  0.3088  0.6122 -0.2644
 4926TIP3    H114742   6.644   6.218   2.689 -1.2254 -0.0552 -0.3990
 4926TIP3    H214743   6.574   6.352   2.697  0.6593  0.9570 -0.3429
 4927TIP3   OH214744   5.828   6.106   5.403 -0.1945 -0.3540 -0.4196
 4927TIP3    H114745   5.828   6.153   5.319 -1.1760  1.9065  0.7639
 4927TIP3    H214746   5.745   6.059   5.403  0.3643 -1.3714 -1.2165
 4928TIP3   OH214747   2.300   4.976   1.036  0.5194  0.0076  0.0256
 4928TIP3    H114748   2.244   4.928   0.976 -0.5547  0.4016  0.6940
 4928TIP3    H214749   2.330   4.909   1.098  0.4552 -0.1279 -0.0892
 4929TIP3   OH214750   3.130   2.363   0.477 -0.4627  0.4259  0.1506
 4929TIP3    H114751   3.096   2.399   0.559 -0.8824  1.1764 -0.3410
 4929TIP3    H214752   3.060   2.378   0.414 -0.6404 -1.2057 -0.1026
 4930TIP3   OH214753   2.004   0.510   1.983 -0.6694 -0.4694 -0.3263
 4930TIP3    H114754   2.016   0.422   1.947 -1.4257 -0.8342  0.2949
 4930TIP3    H214755   2.093   0.539   2.004 -0.5077 -1.6026  0.6517
 4931TIP3   OH214756   4.074   2.979   1.275 -0.0631 -0.0254 -0.2921
 4931TIP3    H114757   4.097   3.055   1.221 -0.6116  1.0061  0.8872
 4931TIP3    H214758   4.075   3.012   1.365 -0.9418 -1.2470  0.1921
 4932TIP3   OH214759   3.100   5.318   2.834  0.1544 -0.2162 -0.2215
 4932TIP3    H114760   3.189   5.315   2.798  0.5903 -0.6718  0.8380
 4932TIP3    H214761   3.094   5.403   2.877  0.0142 -0.1130 -0.4450
 4933TIP3   OH214762   6.082   5.919   0.508 -0.1616 -0.3530 -0.2566
 4933TIP3    H114763   6.003   5.866   0.519 -1.1758  1.3381  0.9971
 4933TIP3    H214764   6.063   5.976   0.434 -0.5840  0.7917  0.7004
 4934TIP3   OH214765   6.875   3.786   3.694  0.9463  0.0777  0.4275
 4934TIP3    H114766   6.900   3.863   3.642  0.4339  1.6756  2.4256
 4934TIP3    H214767   6.958   3.741   3.712  1.0903 -0.8341 -2.1217
 4935TIP3   OH214768   6.818   3.685   4.074 -0.1033 -0.2787  0.2786
 4935TIP3    H114769   6.770   3.673   4.157  0.7465 -1.1336  0.6703
 4935TIP3    H214770   6.761   3.646   4.008 -1.2325  1.2584  0.2821
 4936TIP3   OH214771   4.685   4.058  -0.022 -0.0234 -0.7391  0.2498
 4936TIP3    H114772   4.744   3.983  -0.019  0.8523 -0.1140 -0.8262
 4936TIP3    H214773   4.721   4.120   0.042 -0.7755 -1.2318  1.1762
 4937TIP3   OH214774   1.695   6.235   5.500  0.2480 -0.2097 -0.3375
 4937TIP3    H114775   1.672   6.145   5.479 -1.0944 -0.0921  0.5217
 4937TIP3    H214776   1.731   6.270   5.418 -0.4148 -1.1534 -1.0554
 4938TIP3   OH214777   4.800   4.615   3.944 -0.4311  0.7221  0.2213
 4938TIP3    H114778   4.797   4.568   4.028 -1.8522  0.1137 -0.1378
 4938TIP3    H214779   4.854   4.560   3.888 -3.4862 -1.5785 -0.7460
 4939TIP3   OH214780   5.558   5.078   3.420  0.1425 -0.3633  0.4735
 4939TIP3    H114781   5.653   5.090   3.409  0.2925  0.3170  2.1765
 4939TIP3    H214782   5.534   5.014   3.353  1.5602  0.4235 -0.8755
 4940TIP3   OH214783   6.361   0.648   0.520 -0.2844  0.1820  0.0726
 4940TIP3    H114784   6.316   0.731   0.501  0.1251  0.3806 -0.0249
 4940TIP3    H214785   6.291   0.583   0.519 -0.5363  0.4549 -0.3301
 4941TIP3   OH214786   4.028   5.026   3.266 -0.3549  0.1763  0.6199
 4941TIP3    H114787   4.002   4.958   3.328  2.3316 -3.2000 -1.5901
 4941TIP3    H214788   4.118   5.048   3.291 -0.4061  1.2651 -0.0850
 4942TIP3   OH214789   2.947   5.705   2.356  0.7236  0.2955 -0.5067
 4942TIP3    H114790   2.902   5.784   2.388 -0.2639  0.1845 -1.5499
 4942TIP3    H214791   2.922   5.636   2.417  1.1065  0.6530  0.0642
 4943TIP3   OH214792   3.709   3.303   3.796 -0.0094 -0.0803 -0.0147
 4943TIP3    H114793   3.717   3.344   3.709 -0.9900  1.7028  0.6734
 4943TIP3    H214794   3.686   3.212   3.777  1.4981 -0.1908 -1.6250
 4944TIP3   OH214795   7.086   6.780   4.757 -0.2072  0.3038 -0.3818
 4944TIP3    H114796   7.083   6.693   4.718 -0.9199  0.5354 -0.8700
 4944TIP3    H214797   6.999   6.792   4.795  0.8689 -0.5076  2.6669
 4945TIP3   OH214798   2.324   4.397   4.165  0.1965  0.4996  0.5526
 4945TIP3    H114799   2.282   4.340   4.229  1.2665  0.0015  0.8218
 4945TIP3    H214800   2.407   4.355   4.144 -1.0064 -0.5084 -2.8317
 4946TIP3   OH214801   6.701   0.484   5.224 -0.1971 -0.8264 -0.1578
 4946TIP3    H114802   6.665   0.514   5.307  0.4656  3.0221 -1.0786
 4946TIP3    H214803   6.790   0.456   5.245  0.0002  0.2129  0.4740
 4947TIP3   OH214804   4.958   6.205   3.910 -0.1168  0.0357  0.1837
 4947TIP3    H114805   4.947   6.297   3.886 -0.8966 -0.2529 -0.5992
 4947TIP3    H214806   5.045   6.183   3.875  0.3837  0.6513  0.9947
 4948TIP3   OH214807   1.893   5.897   1.080  0.8917 -0.0626 -0.2734
 4948TIP3    H114808   1.987   5.882   1.071  1.0034  1.5158 -3.4564
 4948TIP3    H214809   1.880   5.985   1.043 -1.9033 -0.5472 -0.6421
 4949TIP3   OH214810   1.358   4.689   2.146  0.8051  0.0127 -0.0830
 4949TIP3    H114811   1.425   4.757   2.155 -0.3221  0.9565  1.4936
 4949TIP3    H214812   1.370   4.633   2.223  0.2210 -0.2145 -0.1509
 4950TIP3   OH214813   5.688   0.021   5.910  1.0509 -0.1825  0.4945
 4950TIP3    H114814   5.729   0.058   5.831 -3.3836 -1.1042 -2.6010
 4950TIP3    H214815   5.720  -0.069   5.913  0.8754 -0.2994 -0.6085
 4951TIP3   OH214816   1.580   6.223   0.003  0.0366  0.4086  0.0939
 4951TIP3    H114817   1.568   6.262   0.090  0.5803  1.4536 -0.2766
 4951TIP3    H214818   1.541   6.287  -0.057  1.1076  0.4746 -0.5554
 4952TIP3   OH214819   5.168   2.430   2.954  0.0830  0.1278  0.3931
 4952TIP3    H114820   5.074   2.444   2.944  0.2255  0.2347 -1.0646
 4952TIP3    H214821   5.182   2.340   2.925  0.7427  0.9393 -2.0770
 4953TIP3   OH214822   6.676   4.114   3.678  0.1646  0.1727  0.1639
 4953TIP3    H114823   6.693   4.179   3.610 -0.5539  0.8029  0.5723
 4953TIP3    H214824   6.580   4.114   3.687  0.1779 -0.7366  0.3670
 4954TIP3   OH214825   4.317   3.381   4.719  0.1593 -0.6425  0.2197
 4954TIP3    H114826   4.257   3.445   4.681 -2.0964 -1.0887  2.7436
 4954TIP3    H214827   4.385   3.369   4.652  0.7951  4.3498 -0.3695
 4955TIP3   OH214828   1.320   2.192   0.122 -0.2190 -0.2510 -0.3377
 4955TIP3    H114829   1.285   2.208   0.034  0.3836  1.7714 -0.2524
 4955TIP3    H214830   1.272   2.253   0.178  0.6064 -0.2935  0.4390
 4956TIP3   OH214831   3.497   1.854   0.331 -0.3697 -0.0526  0.2157
 4956TIP3    H114832   3.501   1.758   0.336  1.2278 -0.1508 -1.6488
 4956TIP3    H214833   3.587   1.882   0.349 -0.8233  1.1052  0.7270
 4957TIP3   OH214834   3.058   3.298   5.427 -0.0270 -0.1663  0.4223
 4957TIP3    H114835   3.042   3.349   5.348  0.4024  0.3847  0.6835
 4957TIP3    H214836   3.150   3.314   5.448 -0.1001 -0.4208  0.9567
 4958TIP3   OH214837   4.800   4.295   0.468  0.3400  0.7043 -0.4733
 4958TIP3    H114838   4.739   4.222   0.456  0.7415  0.3978 -0.6748
 4958TIP3    H214839   4.801   4.311   0.562  0.3733  0.3448 -0.4123
 4959TIP3   OH214840   4.983   4.822   4.767  0.1911  0.3776 -0.2584
 4959TIP3    H114841   5.006   4.905   4.724  2.4796  0.1878  0.4407
 4959TIP3    H214842   5.048   4.814   4.837 -0.3826 -1.7076  0.0832
 4960TIP3   OH214843   3.917   0.569   0.546  0.3169  0.0042 -0.2493
 4960TIP3    H114844   3.881   0.520   0.620 -0.4134  0.4972 -0.2638
 4960TIP3    H214845   3.946   0.501   0.484 -1.4413 -0.4485 -0.6326
 4961TIP3   OH214846   4.955   6.096   4.208  0.2522 -0.3071 -0.3313
 4961TIP3    H114847   5.010   6.017   4.213 -2.5061 -2.3964 -0.1840
 4961TIP3    H214848   4.947   6.114   4.115  2.6121  1.2263 -0.3196
 4962TIP3   OH214849   2.551   3.245   0.317 -0.0980  0.3146 -0.4246
 4962TIP3    H114850   2.476   3.291   0.353 -2.0041 -2.5110 -0.4165
 4962TIP3    H214851   2.524   3.221   0.228  1.3313  0.3708 -0.8942
 4963TIP3   OH214852   2.188   3.383   1.076 -0.6757 -0.4412  0.3427
 4963TIP3    H114853   2.136   3.444   1.023  0.9378  0.0808 -0.7071
 4963TIP3    H214854   2.244   3.338   1.012  0.4055 -0.7365  1.4686
 4964TIP3   OH214855   0.688   0.440   5.663  0.0463 -0.2084 -0.6093
 4964TIP3    H114856   0.757   0.435   5.598  1.6443  1.1394  0.8869
 4964TIP3    H214857   0.704   0.365   5.721  0.3305  0.1647 -0.2011
 4965TIP3   OH214858   1.298   3.769   5.403  0.8191 -0.2289 -0.2094
 4965TIP3    H114859   1.268   3.697   5.347  0.0287  0.9775 -1.4282
 4965TIP3    H214860   1.339   3.727   5.478 -0.4527 -1.9583 -0.4244
 4966TIP3   OH214861   5.076   1.460   5.084  0.0851  0.1559 -0.2255
 4966TIP3    H114862   5.121   1.525   5.137 -0.3517 -0.2209  0.6345
 4966TIP3    H214863   5.144   1.398   5.059  0.8951  1.8987 -2.6540
 4967TIP3   OH214864   4.304   3.282   0.944 -0.3677  0.0259 -0.2565
 4967TIP3    H114865   4.296   3.364   0.992  1.2607  0.9944 -1.5712
 4967TIP3    H214866   4.364   3.301   0.872 -2.1257 -1.5546 -2.2805
 4968TIP3   OH214867   5.057   2.537   3.954  0.3233  0.5651 -0.1494
 4968TIP3    H114868   4.964   2.520   3.968  0.4788 -1.3442 -1.1634
 4968TIP3    H214869   5.064   2.633   3.957 -1.5111  0.7103  0.8117
 4969TIP3   OH214870   0.707   2.487   5.252 -0.1367 -0.1337 -0.4890
 4969TIP3    H114871   0.720   2.481   5.157  0.3291  0.7907 -0.4933
 4969TIP3    H214872   0.622   2.446   5.266  0.7632 -2.3037 -1.0062
 4970TIP3   OH214873   0.866   3.671   0.302 -0.0887 -0.5722 -0.1040
 4970TIP3    H114874   0.809   3.745   0.282 -2.0152 -1.5160  1.5508
 4970TIP3    H214875   0.926   3.666   0.227  0.6924  3.1112  0.0904
 4971TIP3   OH214876   5.195   1.932   5.669 -0.2648  0.3188 -0.1412
 4971TIP3    H114877   5.189   2.027   5.678 -3.4786  0.2008  0.0664
 4971TIP3    H214878   5.167   1.898   5.754  0.0261 -0.8152 -0.4906
 4972TIP3   OH214879   2.564   2.274   5.452 -0.0087 -0.0875 -0.3668
 4972TIP3    H114880   2.511   2.314   5.383 -0.3547 -0.5026 -0.3479
 4972TIP3    H214881   2.500   2.242   5.516  0.3304  1.4224  0.7970
 4973TIP3   OH214882   0.336   4.956   5.367  0.5378  0.0630  0.1172
 4973TIP3    H114883   0.419   4.930   5.327  1.0682  0.9993  0.5706
 4973TIP3    H214884   0.326   4.898   5.443  2.4303  2.0095  1.9732
 4974TIP3   OH214885   1.142   2.762   0.373  0.1806  0.6304  0.5232
 4974TIP3    H114886   1.061   2.801   0.405  0.1779  1.9246 -0.9369
 4974TIP3    H214887   1.123   2.740   0.282  1.0835 -0.2318  0.5270
 4975TIP3   OH214888   0.723   6.258   4.461  0.4280  0.6182 -0.7337
 4975TIP3    H114889   0.787   6.319   4.499  0.4177  0.2028 -0.0330
 4975TIP3    H214890   0.708   6.292   4.373  1.0626  1.1427 -0.6526
 4976TIP3   OH214891   5.943   4.760   3.310  0.5388  0.2130  0.2829
 4976TIP3    H114892   5.972   4.761   3.219  1.3825 -0.4894  0.5285
 4976TIP3    H214893   5.873   4.695   3.312  0.6276  0.1126  0.1585
 4977TIP3   OH214894   4.202   1.919   2.641  0.6934 -0.8258 -0.2213
 4977TIP3    H114895   4.257   1.964   2.576 -0.9812  0.5896 -0.7269
 4977TIP3    H214896   4.122   1.897   2.594 -0.9644  1.0694  1.5004
 4978TIP3   OH214897   2.954   3.004   0.776 -0.3377 -0.1259  0.5195
 4978TIP3    H114898   2.924   2.996   0.686  1.4973 -1.2784 -0.0336
 4978TIP3    H214899   2.879   2.975   0.829 -1.4987  0.7476 -0.5799
 4979TIP3   OH214900   0.973   3.810   5.453 -0.5825 -0.3887  0.1259
 4979TIP3    H114901   1.025   3.867   5.396 -2.1355  0.0202 -0.9554
 4979TIP3    H214902   0.997   3.836   5.542  0.5881  0.2008 -0.3424
 4980TIP3   OH214903   2.637   6.745   2.481  0.1097  0.3597  0.0715
 4980TIP3    H114904   2.602   6.713   2.398  0.5361 -0.0366  0.0383
 4980TIP3    H214905   2.679   6.668   2.520 -1.4090  0.1459  1.3755
 4981TIP3   OH214906   0.919   0.008   1.163 -0.0145 -0.3555 -0.3689
 4981TIP3    H114907   0.926   0.101   1.186  0.2028 -0.3197 -0.5845
 4981TIP3    H214908   0.977  -0.036   1.225 -0.1311 -0.3498 -0.2550
 4982TIP3   OH214909   3.954   1.945   1.193  0.5124 -0.0861  0.0611
 4982TIP3    H114910   3.977   1.973   1.282  0.8374  0.4329 -0.1835
 4982TIP3    H214911   3.867   1.982   1.179  0.2667 -0.5521  0.3275
 4983TIP3   OH214912   5.168   5.420   4.586 -0.1629  0.0988 -0.0757
 4983TIP3    H114913   5.154   5.359   4.658  0.4548 -0.3844 -0.3594
 4983TIP3    H214914   5.189   5.365   4.511  1.0743  0.6723 -0.1795
 4984TIP3   OH214915   6.271   1.229   4.729 -0.0384  0.4767  0.2861
 4984TIP3    H114916   6.246   1.254   4.640 -0.2033  1.0972  0.5015
 4984TIP3    H214917   6.190   1.201   4.770 -0.3361  2.0462  0.8387
 4985TIP3   OH214918   5.713   4.241   2.436 -0.3210  0.1312  0.2848
 4985TIP3    H114919   5.703   4.216   2.344 -1.7236 -2.7813  1.1385
 4985TIP3    H214920   5.623   4.245   2.470  0.2431 -1.3010  2.0953
 4986TIP3   OH214921   4.662   0.638   0.483  0.2603  0.4416 -0.3615
 4986TIP3    H114922   4.606   0.711   0.509  0.1397  0.8565 -1.6944
 4986TIP3    H214923   4.700   0.666   0.400  1.1905 -0.5055 -0.2712
 4987TIP3   OH214924   1.739   4.207   2.233  0.6658 -0.4502 -0.0785
 4987TIP3    H114925   1.799   4.148   2.187 -0.6305  0.4151 -3.1238
 4987TIP3    H214926   1.659   4.154   2.246 -0.5837  0.5143 -3.0229
 4988TIP3   OH214927   6.453   2.242   1.249  0.3170  0.4132  0.5052
 4988TIP3    H114928   6.527   2.186   1.228 -0.4027 -0.0945 -0.7705
 4988TIP3    H214929   6.479   2.287   1.329  1.3062 -0.9975  1.0010
 4989TIP3   OH214930   2.649   1.227   1.355 -0.1505 -0.2510  0.8442
 4989TIP3    H114931   2.684   1.139   1.371  0.8171  0.4807  3.3095
 4989TIP3    H214932   2.565   1.212   1.313  0.0328 -2.3563  1.0959
 4990TIP3   OH214933   6.255   2.830   5.551 -0.7036 -0.1203 -0.0470
 4990TIP3    H114934   6.263   2.925   5.549  0.4949 -0.2255 -1.7142
 4990TIP3    H214935   6.162   2.815   5.569 -1.2873  1.3831 -1.5794
 4991TIP3   OH214936   6.868   0.641   1.010 -0.0976 -0.5366  0.1228
 4991TIP3    H114937   6.835   0.671   0.925 -0.3970 -0.9460  0.0916
 4991TIP3    H214938   6.956   0.678   1.015  0.2258 -1.1458 -0.7153
 4992TIP3   OH214939   0.655   5.688   0.845 -0.1263  0.0167  0.1014
 4992TIP3    H114940   0.734   5.742   0.858  0.5707 -0.4765 -1.7999
 4992TIP3    H214941   0.689   5.600   0.828 -1.2140 -0.7762  1.7378
 4993TIP3   OH214942   7.120   3.727   2.757 -0.0390 -0.2477  0.2600
 4993TIP3    H114943   7.098   3.659   2.693  2.0143  0.6890 -1.5578
 4993TIP3    H214944   7.113   3.683   2.842 -2.1368 -1.7343 -0.5893
 4994TIP3   OH214945   6.206   3.829   5.692 -0.2870  0.2533  0.4083
 4994TIP3    H114946   6.271   3.761   5.707 -0.7717 -0.4375 -0.4524
 4994TIP3    H214947   6.191   3.826   5.597  0.7307  2.5529  0.1125
 4995TIP3   OH214948   2.803   4.791   0.197 -0.1509  0.2368  0.4487
 4995TIP3    H114949   2.820   4.723   0.132  1.2652  0.0263  1.0258
 4995TIP3    H214950   2.789   4.871   0.145  1.6711  0.2213 -0.1077
 4996TIP3   OH214951   4.411   2.620   1.180  0.0085  0.1307 -0.1556
 4996TIP3    H114952   4.413   2.568   1.099 -0.7976  2.0583 -1.5004
 4996TIP3    H214953   4.334   2.676   1.170  0.4331  1.0726  1.5477
 4997TIP3   OH214954   3.287   4.863   3.734  0.2395  0.3242  0.0561
 4997TIP3    H114955   3.242   4.846   3.651  1.7740 -0.0814 -0.7356
 4997TIP3    H214956   3.343   4.938   3.716  1.9926 -0.9131  0.1289
 4998TIP3   OH214957   1.302   0.843   1.597  0.0976  0.3649  0.2365
 4998TIP3    H114958   1.307   0.863   1.503  0.7685  0.7479  0.3459
 4998TIP3    H214959   1.229   0.782   1.605 -0.2512  0.6846 -0.4764
 4999TIP3   OH214960   3.324   1.262   3.728 -0.3993 -0.2598 -0.5957
 4999TIP3    H114961   3.417   1.240   3.737 -0.3699  0.5428  1.3965
 4999TIP3    H214962   3.321   1.324   3.655  0.9411  1.3064  0.6053
 5000TIP3   OH214963   3.865   1.803   5.565  0.2117 -0.2541  0.3016
 5000TIP3    H114964   3.827   1.716   5.580  0.2252 -0.9525 -2.9781
 5000TIP3    H214965   3.790   1.861   5.559  0.1855 -0.0391  2.1613
 5001TIP3   OH214966   2.426   4.435   2.866  0.1915 -0.5378 -0.4691
 5001TIP3    H114967   2.484   4.496   2.820 -0.3381  0.8965  0.7212
 5001TIP3    H214968   2.484   4.364   2.895  1.2964  0.6663  0.3503
 5002TIP3   OH214969   1.679   5.993   5.372 -0.1659  0.4556  0.0730
 5002TIP3    H114970   1.633   5.989   5.287 -0.4840 -2.0051  0.3036
 5002TIP3    H214971   1.656   5.911   5.416  0.8376  1.2131  2.1340
 5003TIP3   OH214972   3.253   5.645   2.226 -0.0320  0.2219  0.3260
 5003TIP3    H114973   3.191   5.640   2.300 -0.2045 -0.1898  0.1578
 5003TIP3    H214974   3.222   5.578   2.165 -0.3699  1.1212 -0.4943
 5004TIP3   OH214975   2.883   5.043   3.715 -0.1318  0.0263  0.1879
 5004TIP3    H114976   2.815   5.070   3.654  0.4206  1.5493  0.1985
 5004TIP3    H214977   2.866   5.095   3.794  1.6572  1.3024 -0.1942
 5005TIP3   OH214978   5.658   6.291   1.709 -0.5531 -0.5835  1.3061
 5005TIP3    H114979   5.565   6.271   1.703 -0.0480 -2.9187 -0.0872
 5005TIP3    H214980   5.696   6.253   1.630  1.5883  0.2888  1.8398
 5006TIP3   OH214981   3.405   0.038   0.232 -0.1795 -0.2604 -0.0714
 5006TIP3    H114982   3.430  -0.018   0.158  0.2878  0.8882 -0.8143
 5006TIP3    H214983   3.322   0.078   0.206  0.9387  1.6710 -0.8939
 5007TIP3   OH214984   3.305   1.920   1.193  1.0042 -0.1158  0.6071
 5007TIP3    H114985   3.220   1.887   1.166  1.3038 -0.6809  0.3230
 5007TIP3    H214986   3.358   1.841   1.208  1.5623  0.2270  0.4909
 5008TIP3   OH214987   1.217   3.116   5.592  0.0539  0.1122 -0.4111
 5008TIP3    H114988   1.250   3.194   5.637  2.6132  0.4099 -2.5733
 5008TIP3    H214989   1.251   3.042   5.642 -1.3249  0.3340  0.9219
 5009TIP3   OH214990   4.524   3.265   1.977 -0.0743  0.0333  0.0215
 5009TIP3    H114991   4.500   3.260   1.885 -0.6152 -3.0499  0.2152
 5009TIP3    H214992   4.451   3.311   2.019 -0.1774  0.7890 -0.9502
 5010TIP3   OH214993   4.042   6.008  -0.004  0.0574  0.3491 -0.6464
 5010TIP3    H114994   4.074   5.923  -0.036  1.0634  0.9825 -1.3809
 5010TIP3    H214995   4.050   6.001   0.092  2.5367  0.4674 -0.7700
 5011TIP3   OH214996   2.802   6.742   1.892  0.2539  0.5181  0.9099
 5011TIP3    H114997   2.871   6.675   1.888 -1.0543 -0.8511  0.4498
 5011TIP3    H214998   2.796   6.765   1.985 -0.2605 -1.0917  1.2999
 5012TIP3   OH214999   3.295   1.409   0.535 -0.5349  0.2704  0.0521
 5012TIP3    H115000   3.226   1.453   0.486 -1.0275 -0.1911  0.3289
 5012TIP3    H215001   3.256   1.387   0.619  0.0641  0.3327  0.3551
 5013TIP3   OH215002   1.274   1.536   2.651  0.1977 -0.0072  0.1335
 5013TIP3    H115003   1.320   1.619   2.668  1.6215 -1.0959  2.0862
 5013TIP3    H215004   1.342   1.469   2.662 -1.2763 -1.5378  0.2472
 5014TIP3   OH215005   2.869   5.992   5.326  0.0951  0.3575  0.0117
 5014TIP3    H115006   2.879   6.010   5.420  4.1405  2.8830 -0.6472
 5014TIP3    H215007   2.934   5.924   5.308 -0.2238  0.3287 -1.0849
 5015TIP3   OH215008   1.016   2.096   0.419 -0.6044  0.1717  0.0868
 5015TIP3    H115009   0.983   2.008   0.441  0.1878 -0.8364 -2.3961
 5015TIP3    H215010   1.026   2.094   0.324  2.3080  1.9399  0.2654
 5016TIP3   OH215011   5.242   0.931   0.616 -0.4684 -0.6988 -0.0287
 5016TIP3    H115012   5.209   1.003   0.562 -1.2592 -0.9117  0.1596
 5016TIP3    H215013   5.337   0.935   0.605 -0.6250 -1.0869 -1.8933
 5017TIP3   OH215014   1.838   3.857   2.902  0.3694 -0.1567  0.2758
 5017TIP3    H115015   1.796   3.796   2.841  1.2858  0.1488 -0.6724
 5017TIP3    H215016   1.890   3.915   2.847 -2.5015  3.2603  0.8170
 5018TIP3   OH215017   5.574   4.408   2.857  0.1270  0.3082  0.2093
 5018TIP3    H115018   5.627   4.479   2.821  0.7513 -0.1843  0.1480
 5018TIP3    H215019   5.490   4.449   2.878  0.2402  0.9085 -0.4771
 5019TIP3   OH215020   1.953   0.516   2.470  0.0336  0.6206  0.1966
 5019TIP3    H115021   1.932   0.566   2.549  3.6637  0.5011  1.4213
 5019TIP3    H215022   1.971   0.583   2.404 -0.3229  0.7854  0.2642
 5020TIP3   OH215023   5.959   2.592   1.927  0.2529 -0.1538  0.0405
 5020TIP3    H115024   6.029   2.544   1.971  0.6881 -0.6027 -1.0977
 5020TIP3    H215025   5.927   2.653   1.993  0.7140 -0.9621  1.0457
 5021TIP3   OH215026   1.856   4.273   5.214  0.6020 -0.2357  0.1376
 5021TIP3    H115027   1.862   4.198   5.273 -0.0740  0.3968  1.0469
 5021TIP3    H215028   1.789   4.329   5.253  1.0652  0.8301 -0.5378
 5022TIP3   OH215029   4.971   3.163   0.307 -0.8764 -0.2337  0.2466
 5022TIP3    H115030   5.020   3.208   0.376 -1.8357  1.0913  0.1030
 5022TIP3    H215031   4.896   3.125   0.352  1.0471 -3.8161  0.8031
 5023TIP3   OH215032   4.190   3.358   2.809  0.3293  0.0060 -0.1047
 5023TIP3    H115033   4.156   3.318   2.728  1.0194 -0.6390 -0.0838
 5023TIP3    H215034   4.150   3.307   2.879  0.1804  0.1990 -0.0494
 5024TIP3   OH215035   4.350   3.294   3.849  0.0303  0.2018 -0.1074
 5024TIP3    H115036   4.440   3.311   3.819  0.7782 -1.7371  0.8152
 5024TIP3    H215037   4.295   3.351   3.796  1.6582  0.0942 -2.0183
 5025TIP3   OH215038  -0.015   3.321   5.175 -0.2604 -0.4433  0.4518
 5025TIP3    H115039   0.079   3.301   5.178 -0.0535  0.0062 -1.3962
 5025TIP3    H215040  -0.044   3.285   5.091 -1.6290 -0.1095  0.7667
 5026TIP3   OH215041   5.154   5.832   3.972 -0.1388 -0.2155 -0.5140
 5026TIP3    H115042   5.244   5.826   3.939 -0.1742  0.3596 -0.7298
 5026TIP3    H215043   5.159   5.898   4.042 -0.5358  0.3937 -1.0511
 5027TIP3   OH215044   3.932   5.595   3.502  0.3598  0.3428 -0.3195
 5027TIP3    H115045   3.912   5.544   3.581  1.8970  1.4146  0.8305
 5027TIP3    H215046   4.022   5.570   3.480 -0.3044 -0.5155 -2.2358
 5028TIP3   OH215047   0.474   6.620   3.996 -0.1290  0.9078 -0.4414
 5028TIP3    H115048   0.400   6.565   4.022  0.3079  0.7126  0.4206
 5028TIP3    H215049   0.442   6.670   3.921  0.1124 -2.0370 -2.6592
 5029TIP3   OH215050   0.733   3.860   2.298 -0.1233 -0.4132  0.1389
 5029TIP3    H115051   0.811   3.809   2.321  0.3284  0.2040 -0.0227
 5029TIP3    H215052   0.737   3.868   2.203 -0.9598 -1.2883  0.0045
 5030TIP3   OH215053   7.143   4.927   4.390  0.0837  0.3659  0.2827
 5030TIP3    H115054   7.239   4.922   4.386  0.0400  0.4673 -1.4825
 5030TIP3    H215055   7.126   5.017   4.418  0.5042  0.6040 -0.1979
 5031TIP3   OH215056   1.635   4.199   5.546  0.2585 -0.1959  0.4671
 5031TIP3    H115057   1.611   4.114   5.583  0.5357 -0.0702  0.9525
 5031TIP3    H215058   1.716   4.223   5.593  0.0669  0.4284  0.4851
 5032TIP3   OH215059   3.301   5.121   2.963  0.5954 -0.4570  0.6670
 5032TIP3    H115060   3.213   5.154   2.981  0.8561 -0.2957  1.6933
 5032TIP3    H215061   3.358   5.174   3.019  1.3545 -0.4979 -0.0622
 5033TIP3   OH215062   4.862   0.287   3.653  0.1632 -0.4156  0.2001
 5033TIP3    H115063   4.883   0.220   3.718 -1.1909 -0.5556  0.5144
 5033TIP3    H215064   4.895   0.251   3.571  1.6582 -0.3541  0.7355
 5034TIP3   OH215065   4.519   2.362   2.394  0.1468  0.0015  0.2207
 5034TIP3    H115066   4.511   2.357   2.489 -0.7249  1.3022  0.2327
 5034TIP3    H215067   4.493   2.451   2.372  1.2093  0.0036 -1.1633
 5035TIP3   OH215068   5.638   2.741   2.577 -0.4043  0.2989 -0.6954
 5035TIP3    H115069   5.597   2.767   2.660  0.4550 -0.5308  0.0059
 5035TIP3    H215070   5.615   2.812   2.516 -1.6335  0.5691  0.0552
 5036TIP3   OH215071   6.947   5.916   4.703  0.2359  0.0385  0.8147
 5036TIP3    H115072   6.945   5.973   4.626  0.8809  1.0608  1.5440
 5036TIP3    H215073   6.943   5.975   4.778  0.2871 -0.9070  1.5879
 5037TIP3   OH215074   4.659   1.932   1.261  0.1763  0.3954  0.2965
 5037TIP3    H115075   4.694   1.857   1.213 -1.6654 -0.4427  0.1584
 5037TIP3    H215076   4.725   1.953   1.326  0.4900 -1.7505  0.7340
 5038TIP3   OH215077   3.170   2.017   2.526 -0.2929 -0.0722  0.5057
 5038TIP3    H115078   3.129   1.962   2.593 -0.5775 -0.3297  0.1315
 5038TIP3    H215079   3.136   1.981   2.443  0.7868 -0.3750  0.1780
 5039TIP3   OH215080   1.761   0.719   0.536 -0.3489  0.1631  0.2546
 5039TIP3    H115081   1.757   0.811   0.510  0.1252 -0.2566 -1.3729
 5039TIP3    H215082   1.795   0.722   0.625  0.8365  1.5043 -0.2028
 5040TIP3   OH215083   5.263   0.795   5.649  0.5742 -0.2644  0.1705
 5040TIP3    H115084   5.278   0.889   5.658 -0.8345 -0.0256  0.2286
 5040TIP3    H215085   5.198   0.787   5.580  0.1417 -1.1465  0.6540
 5041TIP3   OH215086   3.724   2.877   0.908  0.3389  0.2919  0.2080
 5041TIP3    H115087   3.805   2.909   0.870  0.2407  0.2292 -0.0616
 5041TIP3    H215088   3.663   2.875   0.834  0.6678 -1.6386 -0.0564
 5042TIP3   OH215089   1.809   6.046   5.707  1.0893  0.2470 -0.3620
 5042TIP3    H115090   1.872   6.034   5.778  0.1417 -0.3894  0.4029
 5042TIP3    H215091   1.825   6.134   5.675  2.6177 -0.0411 -0.4482
 5043TIP3   OH215092   2.070   2.017   5.147  0.6328 -0.1847  0.3026
 5043TIP3    H115093   2.090   1.971   5.229 -1.2627  1.7692  2.0046
 5043TIP3    H215094   1.975   2.008   5.137  0.1900  2.8182  0.5587
 5044TIP3   OH215095   4.499   5.357   1.892 -0.3632  0.0706  0.0321
 5044TIP3    H115096   4.418   5.405   1.907  0.5404  1.6477  0.0676
 5044TIP3    H215097   4.510   5.302   1.970 -1.5244 -0.3833 -0.1107
 5045TIP3   OH215098   1.730   5.389   0.532 -0.2097 -0.2958 -0.3399
 5045TIP3    H115099   1.667   5.410   0.600  0.1492 -0.1466 -0.0494
 5045TIP3    H215100   1.688   5.320   0.480 -0.8864  0.2769 -0.5668
 5046TIP3   OH215101   6.326   0.331   2.265 -0.5630 -0.5597  0.2390
 5046TIP3    H115102   6.382   0.332   2.343 -1.0055 -0.5960  0.5626
 5046TIP3    H215103   6.240   0.357   2.297 -0.2704  1.6661 -0.6246
 5047TIP3   OH215104   5.532   0.553   0.639 -0.1604 -0.1603  0.2180
 5047TIP3    H115105   5.509   0.586   0.726 -0.5656  0.5023 -0.1381
 5047TIP3    H215106   5.561   0.463   0.655  0.5322  0.2127  1.1380
 5048TIP3   OH215107   3.809   5.298   0.624 -0.6148  0.4813 -0.5795
 5048TIP3    H115108   3.794   5.393   0.621  2.4059  1.1316  0.7196
 5048TIP3    H215109   3.871   5.282   0.553  0.8826  0.0098  0.7703
 5049TIP3   OH215110   2.437   4.840   2.665  0.2243  0.4071 -0.1650
 5049TIP3    H115111   2.423   4.934   2.653 -1.5814  0.3577  1.1603
 5049TIP3    H215112   2.509   4.834   2.728 -0.3214  0.9583  0.5364
 5050TIP3   OH215113   3.455   0.016   4.151  0.3465  0.2951  0.0392
 5050TIP3    H115114   3.497  -0.059   4.108 -0.3991  0.1977 -0.5441
 5050TIP3    H215115   3.441   0.079   4.080 -1.0397  0.0734  0.0836
 5051TIP3   OH215116   5.622   2.706   0.747 -0.8224  0.4408 -0.2753
 5051TIP3    H115117   5.595   2.636   0.688 -1.9866  0.5256  0.1282
 5051TIP3    H215118   5.718   2.701   0.748 -0.8779 -1.1485 -0.2551
 5052TIP3   OH215119   5.678   1.188   5.214 -0.3176 -0.0060  0.4911
 5052TIP3    H115120   5.724   1.229   5.287  0.6678 -1.2670  0.6168
 5052TIP3    H215121   5.733   1.113   5.191 -0.1470  0.8348 -2.1082
 5053TIP3   OH215122   5.245   5.184   5.726 -0.3488  0.3166  0.0733
 5053TIP3    H115123   5.255   5.128   5.803  1.2449 -1.2185 -1.1679
 5053TIP3    H215124   5.334   5.199   5.696 -0.9545  0.5601 -1.6833
 5054TIP3   OH215125   2.667   5.412   5.098 -0.0373 -0.2564  0.3022
 5054TIP3    H115126   2.665   5.359   5.177  0.4110 -0.2730  0.3047
 5054TIP3    H215127   2.598   5.478   5.111 -0.0526 -0.3403  0.6430
 5055TIP3   OH215128   7.173   2.445   2.986  0.2783  0.0871 -0.3251
 5055TIP3    H115129   7.182   2.540   2.993 -0.2272  0.0486  1.0361
 5055TIP3    H215130   7.219   2.423   2.905  2.0127  1.2757  0.2851
 5056TIP3   OH215131   6.420   4.594   4.620  0.3721 -0.2243 -0.6172
 5056TIP3    H115132   6.334   4.563   4.594  0.1269 -1.8544  1.7722
 5056TIP3    H215133   6.425   4.683   4.585 -2.5842  0.2106 -0.2239
 5057TIP3   OH215134   3.586   2.888   0.431  0.5746  0.2313 -0.0100
 5057TIP3    H115135   3.543   2.957   0.380  0.2023 -1.3930 -2.0065
 5057TIP3    H215136   3.518   2.822   0.445  1.3561 -0.5250  0.3631
 5058TIP3   OH215137   5.514   2.139   5.714 -0.3813 -0.1055 -0.3293
 5058TIP3    H115138   5.600   2.179   5.723  0.2992 -1.6452  0.3768
 5058TIP3    H215139   5.517   2.095   5.629 -0.5741  0.0522 -0.4193
 5059TIP3   OH215140   0.399   2.330   5.309 -0.4531  0.5041  0.2922
 5059TIP3    H115141   0.454   2.379   5.370 -1.4513  2.0593 -0.0062
 5059TIP3    H215142   0.391   2.388   5.233 -0.4739 -0.7643 -0.7032
 5060TIP3   OH215143   0.382   0.022   5.830 -0.3195 -0.3044 -0.5216
 5060TIP3    H115144   0.417  -0.014   5.911  0.7918 -0.7054 -1.1608
 5060TIP3    H215145   0.349   0.109   5.854  0.0223 -0.4083  0.3464
 5061TIP3   OH215146   0.041   3.757   0.835 -0.1854  0.2965  0.0678
 5061TIP3    H115147  -0.011   3.687   0.798 -0.2289 -0.1598  0.9609
 5061TIP3    H215148   0.022   3.833   0.780 -0.4188 -0.2979 -0.6837
 5062TIP3   OH215149   0.879   4.679   1.152  0.2018  0.1453  0.2046
 5062TIP3    H115150   0.964   4.646   1.182 -0.9044 -0.9023  2.4192
 5062TIP3    H215151   0.901   4.745   1.086  2.7740  0.6936  1.4822
 5063TIP3   OH215152   5.270   6.476   5.088 -0.1707  0.0399 -0.2252
 5063TIP3    H115153   5.192   6.474   5.033 -0.3128 -1.3346  0.0054
 5063TIP3    H215154   5.237   6.472   5.178  0.0956  1.5504 -0.0182
 5064TIP3   OH215155   1.140   1.106   5.297  0.1624  0.0358 -0.0339
 5064TIP3    H115156   1.073   1.041   5.316 -0.4383  0.4457 -0.7021
 5064TIP3    H215157   1.220   1.055   5.282 -0.7571 -0.7713 -2.7634
 5065TIP3   OH215158   3.161   6.272   4.046 -0.0223  0.0959 -0.1633
 5065TIP3    H115159   3.231   6.208   4.050  0.6776  0.7510 -1.3311
 5065TIP3    H215160   3.202   6.355   4.071 -0.3632  0.4862 -0.8468
 5066TIP3   OH215161   2.233   0.696   2.354  0.6452  0.3460  0.5199
 5066TIP3    H115162   2.317   0.729   2.323  1.3176 -0.3004  1.6059
 5066TIP3    H215163   2.254   0.645   2.432 -0.5134 -1.5231 -0.3297
 5067TIP3   OH215164   0.311   5.754   3.868 -0.0014 -0.1679 -0.8610
 5067TIP3    H115165   0.347   5.672   3.834  1.0707 -0.6365  1.2130
 5067TIP3    H215166   0.368   5.822   3.833  0.8103 -0.5996 -0.4130
 5068TIP3   OH215167   1.246   3.452   1.564 -0.2473  0.0298  0.0793
 5068TIP3    H115168   1.306   3.445   1.489 -0.0769  2.2240 -0.0563
 5068TIP3    H215169   1.163   3.417   1.532  0.7356 -2.5230  0.0881
 5069TIP3   OH215170   2.279   6.535   5.178  0.3393 -0.4140  0.2320
 5069TIP3    H115171   2.300   6.450   5.217 -0.1758 -0.7492 -0.2065
 5069TIP3    H215172   2.271   6.594   5.253  1.4298 -0.5724  0.5017
 5070TIP3   OH215173   1.596   4.556   4.053  0.6399 -0.2934  0.0518
 5070TIP3    H115174   1.564   4.494   4.119 -1.6718  1.9244  1.1839
 5070TIP3    H215175   1.541   4.542   3.977 -0.6383  0.9866  0.6871
 5071TIP3   OH215176   2.167   3.178   5.192 -0.1858  0.5248  0.1486
 5071TIP3    H115177   2.168   3.200   5.285 -2.6490  1.8033 -0.0140
 5071TIP3    H215178   2.175   3.262   5.148  1.5685 -0.1224 -0.8665
 5072TIP3   OH215179   6.409   3.057   1.717 -0.4912  0.1431  0.0130
 5072TIP3    H115180   6.366   3.082   1.635  0.7386  0.1831 -0.6365
 5072TIP3    H215181   6.465   2.983   1.693 -0.2255  0.0686  0.8488
 5073TIP3   OH215182   3.765   6.377   3.488 -0.0712 -0.0780  0.2582
 5073TIP3    H115183   3.827   6.304   3.495 -0.3429 -0.7403 -2.7249
 5073TIP3    H215184   3.817   6.454   3.513  0.8288 -1.0229  1.4409
 5074TIP3   OH215185   2.402   2.574   0.078  0.1912  0.2724  1.0247
 5074TIP3    H115186   2.483   2.622   0.065  0.3795 -0.5117 -0.9287
 5074TIP3    H215187   2.335   2.627   0.037  0.3736 -0.9575 -0.9869
 5075TIP3   OH215188   1.750   2.627   5.583  0.4712 -0.0137  0.2147
 5075TIP3    H115189   1.797   2.556   5.628  0.5490  0.4055  0.8031
 5075TIP3    H215190   1.750   2.699   5.646 -1.9594 -0.3628  0.6902
 5076TIP3   OH215191   3.798   5.233   4.128  0.0708 -0.3667  0.1692
 5076TIP3    H115192   3.824   5.268   4.213  0.4725 -0.1829 -0.0262
 5076TIP3    H215193   3.711   5.271   4.112  0.4427  0.4591  0.0184
 5077TIP3   OH215194   3.178   4.433   4.759 -0.5673 -0.2492 -0.2754
 5077TIP3    H115195   3.173   4.521   4.795 -0.9553  0.0070 -0.9449
 5077TIP3    H215196   3.099   4.424   4.706  0.4327 -0.2823 -1.8046
 5078TIP3   OH215197   0.042   0.126   0.710 -0.2012  0.2849 -0.4265
 5078TIP3    H115198   0.081   0.140   0.796 -1.5765 -0.7428  0.3993
 5078TIP3    H215199   0.084   0.046   0.677 -0.1178  0.3378 -0.4492
 5079TIP3   OH215200   0.338   2.064   1.691  0.0814  0.0843  0.3179
 5079TIP3    H115201   0.331   1.969   1.698  0.8650  0.0062  0.1511
 5079TIP3    H215202   0.263   2.090   1.638  0.8424 -0.6497 -1.1832
 5080TIP3   OH215203   3.609   2.932   1.367  0.0121  0.3418 -0.2840
 5080TIP3    H115204   3.691   2.941   1.318  0.7137  1.4328  1.0355
 5080TIP3    H215205   3.630   2.871   1.438  0.3048  2.1527  1.2580
 5081TIP3   OH215206   6.978   6.494   2.650  0.4230  0.3083 -0.7436
 5081TIP3    H115207   7.052   6.552   2.631 -0.6410  1.8982 -0.2642
 5081TIP3    H215208   6.960   6.508   2.743  2.9159 -4.2321  0.7428
 5082TIP3   OH215209   1.143   2.085   3.507  0.6381 -0.0821  0.2563
 5082TIP3    H115210   1.067   2.119   3.554  0.2261  0.4646 -0.7834
 5082TIP3    H215211   1.131   2.114   3.417  1.6280 -0.7531 -0.1113
 5083TIP3   OH215212   5.386   3.175   1.638  0.0481 -0.3882  0.6145
 5083TIP3    H115213   5.408   3.082   1.628 -2.8697 -1.2416  1.1136
 5083TIP3    H215214   5.413   3.215   1.556 -1.4626 -2.3672 -0.9587
 5084TIP3   OH215215   2.245   6.009   1.325 -0.1400  0.8816  0.2792
 5084TIP3    H115216   2.209   6.050   1.404 -0.0809  1.0708  0.2086
 5084TIP3    H215217   2.333   5.982   1.350 -0.4797  0.0087  0.5917
 5085TIP3   OH215218   6.941   4.731   4.498  0.2848 -0.1889 -0.3667
 5085TIP3    H115219   7.002   4.804   4.490  1.2569 -1.0671 -1.4843
 5085TIP3    H215220   6.884   4.754   4.571  1.8021  0.7955  0.5601
 5086TIP3   OH215221   4.566   0.091   2.937  0.1172 -0.4582 -0.1039
 5086TIP3    H115222   4.615   0.125   2.862 -0.7183  2.1685  0.4072
 5086TIP3    H215223   4.492   0.045   2.898 -0.2879  0.8405 -0.9540
 5087TIP3   OH215224   6.307   1.609   5.410 -0.0601  0.1543 -0.2514
 5087TIP3    H115225   6.383   1.556   5.387  0.6149  1.4151 -1.0786
 5087TIP3    H215226   6.290   1.662   5.332  1.2107  3.3268  1.4266
 5088TIP3   OH215227   5.385   2.751   5.528 -0.1651 -0.4570 -0.0327
 5088TIP3    H115228   5.423   2.669   5.497 -0.9186 -0.6464 -0.4704
 5088TIP3    H215229   5.356   2.732   5.618 -1.1816 -0.9496 -0.4567
 5089TIP3   OH215230   1.978   5.836   3.476  0.4286 -0.3501  0.1571
 5089TIP3    H115231   2.033   5.892   3.530 -0.9207  2.6162 -1.2850
 5089TIP3    H215232   1.899   5.822   3.528 -0.2166  1.1843 -0.3497
 5090TIP3   OH215233   5.879   2.016   3.439  0.3666 -0.0411 -0.1973
 5090TIP3    H115234   5.913   1.956   3.505 -0.8322 -0.3836  0.1329
 5090TIP3    H215235   5.954   2.035   3.383  1.3840  0.1645  1.1798
 5091TIP3   OH215236   7.117   1.191  -0.003 -0.3149  0.3412  0.2699
 5091TIP3    H115237   7.085   1.272  -0.044 -1.8152 -0.4413 -0.2003
 5091TIP3    H215238   7.125   1.212   0.090  0.2782  1.2988  0.0122
 5092TIP3   OH215239   0.432   5.049   1.595  0.0884  0.2841 -0.4494
 5092TIP3    H115240   0.340   5.024   1.591  0.2523 -0.3046 -0.7296
 5092TIP3    H215241   0.445   5.079   1.685 -0.2901  0.0184 -0.3020
 5093TIP3   OH215242   2.421   2.747   3.892 -0.0887 -0.2745 -0.3983
 5093TIP3    H115243   2.379   2.787   3.816  0.9797  0.2092 -0.7527
 5093TIP3    H215244   2.362   2.676   3.918 -1.4922  0.8436 -0.4126
 5094TIP3   OH215245   0.571   3.761   0.431 -0.5703 -0.0492  0.3960
 5094TIP3    H115246   0.543   3.681   0.385 -1.0894  0.5243 -0.3084
 5094TIP3    H215247   0.586   3.825   0.362 -1.8898  1.0039  1.0294
 5095TIP3   OH215248   6.240   5.217   4.086 -0.2583  0.3714 -0.2779
 5095TIP3    H115249   6.241   5.223   3.990 -0.2741  1.2594 -0.2267
 5095TIP3    H215250   6.228   5.124   4.104 -0.1964  0.1927 -1.1421
 5096TIP3   OH215251   7.124   6.416   0.636  0.8134  0.0523  0.4924
 5096TIP3    H115252   7.050   6.406   0.577  1.8347 -0.2626 -0.7704
 5096TIP3    H215253   7.184   6.346   0.613  2.3789  1.4270  0.1587
 5097TIP3   OH215254   0.374   5.585   1.412  0.2355  0.0082  0.4236
 5097TIP3    H115255   0.458   5.599   1.456  0.1672  0.7281  0.3375
 5097TIP3    H215256   0.311   5.578   1.484  0.3162 -0.1339  0.4795
 5098TIP3   OH215257   0.319   4.878   2.634 -0.6320 -0.2068  0.3980
 5098TIP3    H115258   0.379   4.836   2.695  0.5225 -0.4043 -0.8126
 5098TIP3    H215259   0.376   4.914   2.566 -1.5409  3.4232  1.3700
 5099TIP3   OH215260   0.023   2.412   3.713 -0.1198 -0.1665  0.3612
 5099TIP3    H115261   0.044   2.422   3.620  1.3233 -2.4387  0.3724
 5099TIP3    H215262   0.051   2.495   3.752  0.4821  0.3346 -1.0415
 5100TIP3   OH215263   3.018   2.345   3.296 -0.0397  0.3143  0.0358
 5100TIP3    H115264   3.083   2.310   3.235 -0.9308 -1.4363  0.0273
 5100TIP3    H215265   2.937   2.299   3.273 -1.1936  2.0936  0.3503
 5101TIP3   OH215266   2.387   5.200   3.102 -0.1119 -0.2704  0.0533
 5101TIP3    H115267   2.329   5.247   3.163 -0.4936 -1.2932  0.5064
 5101TIP3    H215268   2.473   5.240   3.114 -0.6013  0.9128 -0.2373
 5102TIP3   OH215269   3.165   2.351   5.762 -0.0371 -0.0751  0.1180
 5102TIP3    H115270   3.081   2.319   5.731 -0.5889  0.5041  0.9738
 5102TIP3    H215271   3.176   2.310   5.848  1.4047 -1.5624 -0.7056
 5103TIP3   OH215272   3.792   2.751   4.911  0.2715 -0.2205  0.0688
 5103TIP3    H115273   3.846   2.812   4.861 -0.2630  0.0520 -0.1792
 5103TIP3    H215274   3.772   2.798   4.992  0.6982 -0.4585  0.3155
 5104TIP3   OH215275   2.182   1.184   5.354  0.0012  0.1960 -0.0176
 5104TIP3    H115276   2.097   1.145   5.332 -0.3372  1.1485 -0.4088
 5104TIP3    H215277   2.161   1.273   5.382  0.7828  0.1251  0.8020
 5105TIP3   OH215278   1.547   0.169   1.620 -0.0122 -0.2209 -0.2322
 5105TIP3    H115279   1.476   0.167   1.685  0.0653  1.2267 -0.0777
 5105TIP3    H215280   1.624   0.141   1.669 -0.1519 -0.1407  0.0390
 5106TIP3   OH215281   2.858   5.347   0.456 -0.4137 -0.1914 -0.3156
 5106TIP3    H115282   2.847   5.252   0.458  0.4774 -0.3101 -0.6583
 5106TIP3    H215283   2.940   5.363   0.504 -0.5367  0.3987 -0.2933
 5107TIP3   OH215284   3.729   1.804   4.219 -0.0816 -0.6467  0.3924
 5107TIP3    H115285   3.714   1.721   4.263 -1.9973 -0.3131  0.4572
 5107TIP3    H215286   3.699   1.870   4.282 -0.1167 -0.0087 -0.2826
 5108TIP3   OH215287   1.729   1.058   3.006  0.1247  0.6330  0.0546
 5108TIP3    H115288   1.706   1.055   3.099 -0.6701  1.8511 -0.0799
 5108TIP3    H215289   1.757   1.148   2.991  0.8030  0.2995 -0.7756
 5109TIP3   OH215290   5.012   0.767   0.582 -0.2627 -0.7938  0.1607
 5109TIP3    H115291   4.951   0.839   0.567  0.0224 -0.1997  1.6784
 5109TIP3    H215292   5.095   0.810   0.601  0.5536 -1.5836 -1.3998
 5110TIP3   OH215293   4.366   0.654   0.217  0.1004 -0.1891  0.3779
 5110TIP3    H115294   4.311   0.617   0.149 -0.9460 -1.2039  1.7266
 5110TIP3    H215295   4.307   0.707   0.270  0.9566  0.8359  0.3546
 5111TIP3   OH215296   0.498   6.003   4.098 -0.0755  0.3292 -0.3871
 5111TIP3    H115297   0.417   5.953   4.102 -0.0875  0.3343 -0.5803
 5111TIP3    H215298   0.560   5.952   4.150  0.1092 -0.2490 -1.1702
 5112TIP3   OH215299   0.343   5.530   2.351 -0.1393 -0.2950  0.0761
 5112TIP3    H115300   0.414   5.519   2.414 -1.0956  1.2331  1.4856
 5112TIP3    H215301   0.370   5.602   2.295 -1.5395  2.0697  2.2144
 5113TIP3   OH215302   6.619   3.570   1.692  0.3186  0.1899  0.1438
 5113TIP3    H115303   6.624   3.567   1.788 -0.4756  1.8899  0.2723
 5113TIP3    H215304   6.696   3.620   1.666 -0.2085  0.9249 -0.0054
 5114TIP3   OH215305   6.535   4.746   0.183 -0.7644  0.6584  0.3798
 5114TIP3    H115306   6.522   4.658   0.219  0.6210  0.3618  0.2315
 5114TIP3    H215307   6.587   4.732   0.104 -1.3572  1.5451 -0.1918
 5115TIP3   OH215308   4.022   3.571   3.218 -0.2174 -0.7802 -0.2122
 5115TIP3    H115309   3.960   3.550   3.148  0.5430 -0.4086 -1.0225
 5115TIP3    H215310   4.063   3.653   3.190 -1.9314  0.9700  2.0944
 5116TIP3   OH215311   5.640   3.441   4.217  0.5085  0.0601  0.1660
 5116TIP3    H115312   5.589   3.513   4.180  1.5523  0.5175 -0.4250
 5116TIP3    H215313   5.594   3.362   4.189  0.2148  0.4601 -0.5016
 5117TIP3   OH215314   1.662   5.767   1.090  0.4871 -0.3194  0.4804
 5117TIP3    H115315   1.638   5.769   1.183  1.9931  3.6486  0.9576
 5117TIP3    H215316   1.750   5.803   1.087  1.1726 -1.9479 -2.4228
 5118TIP3   OH215317   1.119   5.325   2.914  0.2017  0.6593 -0.7779
 5118TIP3    H115318   1.083   5.384   2.848  0.0459 -2.0872 -3.3565
 5118TIP3    H215319   1.044   5.272   2.943  0.5187  0.9709  0.6681
 5119TIP3   OH215320   2.525   3.098   4.991 -0.3234 -0.2797  0.2553
 5119TIP3    H115321   2.579   3.115   5.068 -0.4297 -1.8960  0.7194
 5119TIP3    H215322   2.577   3.039   4.938 -0.5224  0.3141 -0.6269
 5120TIP3   OH215323   4.583   5.320   3.789  0.4787  0.3972  0.6195
 5120TIP3    H115324   4.670   5.354   3.765  0.5883 -1.0646 -1.2532
 5120TIP3    H215325   4.595   5.226   3.793 -0.3582  0.3223  3.4252
 5121TIP3   OH215326   4.334   5.011   1.593 -0.3918 -0.0483 -0.7467
 5121TIP3    H115327   4.295   5.037   1.509 -2.1021  2.8872  0.7821
 5121TIP3    H215328   4.399   5.079   1.610 -0.1862 -0.5101  0.3520
 5122TIP3   OH215329   1.091   2.824   1.920  0.5853 -0.2343 -0.0035
 5122TIP3    H115330   1.042   2.812   1.838 -0.4440  0.7857  0.4338
 5122TIP3    H215331   1.183   2.817   1.894  0.2425 -1.6890 -0.9401
 5123TIP3   OH215332   0.541   6.215   5.500 -0.4074 -0.1054 -0.2923
 5123TIP3    H115333   0.549   6.293   5.444 -0.2951  0.8041  0.9335
 5123TIP3    H215334   0.601   6.152   5.461  0.3490  0.8173 -0.6873
 5124TIP3   OH215335   4.177   1.628   3.942 -0.1877 -0.3805 -0.7375
 5124TIP3    H115336   4.132   1.662   4.019  1.3673  0.0656  0.0196
 5124TIP3    H215337   4.166   1.533   3.948  0.3573 -0.3908  0.3375
 5125TIP3   OH215338   0.108   6.078   1.941  0.4676 -0.6593  0.2509
 5125TIP3    H115339   0.147   6.040   1.863 -2.9167 -1.0963 -1.4343
 5125TIP3    H215340   0.160   6.156   1.960  1.7438 -0.8904 -2.0817
 5126TIP3   OH215341   2.487   3.297   1.956 -0.6307  0.1693  0.2670
 5126TIP3    H115342   2.520   3.387   1.960 -0.1353  0.0016  0.0491
 5126TIP3    H215343   2.482   3.269   2.048  0.6998 -0.1004  0.2779
 5127TIP3   OH215344   2.918   1.376   0.396  0.4676 -0.1677  0.4677
 5127TIP3    H115345   2.974   1.454   0.400  0.9147 -0.3937 -0.7901
 5127TIP3    H215346   2.834   1.409   0.365  1.1792 -0.3695 -1.9195
 5128TIP3   OH215347   0.278   4.829   5.607  0.1439 -0.4338  0.0962
 5128TIP3    H115348   0.231   4.745   5.608  1.1817 -1.0321 -0.3921
 5128TIP3    H215349   0.310   4.839   5.697  1.4431 -1.4070 -0.2236
 5129TIP3   OH215350   4.676   2.015   2.302  0.4690 -0.2555 -0.1517
 5129TIP3    H115351   4.607   2.074   2.273  0.0041 -0.4536  0.5409
 5129TIP3    H215352   4.636   1.928   2.302  0.8995 -0.4604 -0.3419
 5130TIP3   OH215353   4.794   5.020   0.327  0.0087  0.4352 -0.0919
 5130TIP3    H115354   4.735   4.969   0.384  0.1795 -0.7533 -0.9466
 5130TIP3    H215355   4.755   5.013   0.240 -0.1374  2.0751 -0.1848
 5131TIP3   OH215356   5.344   0.127   4.071 -0.2926  0.5443  0.0979
 5131TIP3    H115357   5.349   0.179   3.991 -1.0271  1.5311  0.6730
 5131TIP3    H215358   5.264   0.156   4.114 -1.8297 -2.4526 -0.4709
 5132TIP3   OH215359   4.001   6.276   4.232  0.8241  0.0777 -0.3622
 5132TIP3    H115360   4.094   6.289   4.253  0.8462 -0.0976 -0.3504
 5132TIP3    H215361   3.974   6.204   4.289  0.6699  0.1563 -0.3373
 5133TIP3   OH215362   2.318   6.637   3.468 -0.1170 -0.3244 -0.0189
 5133TIP3    H115363   2.375   6.584   3.412 -0.3266 -1.0934  0.4810
 5133TIP3    H215364   2.335   6.727   3.440 -0.4957 -0.7009 -1.5830
 5134TIP3   OH215365   4.963   1.586   2.457  1.3108 -0.2865 -0.0326
 5134TIP3    H115366   4.957   1.679   2.437  0.5325 -0.5115 -0.9001
 5134TIP3    H215367   4.899   1.544   2.399  1.6300 -1.3595  0.3583
 5135TIP3   OH215368   3.557   1.168   2.807 -0.2019  0.2674  0.0149
 5135TIP3    H115369   3.581   1.079   2.835  0.3640  0.7224  1.0155
 5135TIP3    H215370   3.561   1.220   2.887 -0.5787  1.1938 -0.5594
 5136TIP3   OH215371   1.235   4.465   2.714  0.2882 -0.2301 -0.3941
 5136TIP3    H115372   1.297   4.392   2.714  0.0949 -0.4638  1.7359
 5136TIP3    H215373   1.278   4.534   2.765 -1.0585 -0.3310  0.9747
 5137TIP3   OH215374   3.225   1.935   5.711 -0.2596  0.0785 -0.1245
 5137TIP3    H115375   3.255   2.018   5.675  0.3247 -1.2566 -2.9495
 5137TIP3    H215376   3.289   1.913   5.779  0.2610  1.3316 -0.1925
 5138TIP3   OH215377   3.209   2.626   5.333 -0.0928  0.1860 -0.1316
 5138TIP3    H115378   3.249   2.631   5.420 -1.0187 -1.5537  0.4426
 5138TIP3    H215379   3.234   2.540   5.299 -1.1835  0.1262 -0.8365
 5139TIP3   OH215380   1.661   1.261   5.052  0.0118  0.0658  0.3920
 5139TIP3    H115381   1.629   1.339   5.006  1.8344 -0.3719 -1.8168
 5139TIP3    H215382   1.629   1.188   4.998 -1.6904 -0.7997  2.4364
 5140TIP3   OH215383   3.388   2.550   2.252 -0.0915  0.3085 -0.4047
 5140TIP3    H115384   3.325   2.586   2.190  0.5894  1.3509 -0.5170
 5140TIP3    H215385   3.337   2.492   2.308 -0.7774 -0.4487 -1.7537
 5141TIP3   OH215386   6.753   2.015   1.660 -0.7492  0.2448 -0.7577
 5141TIP3    H115387   6.794   2.076   1.598 -1.1452  1.3066 -0.0144
 5141TIP3    H215388   6.745   2.066   1.741  0.1362 -1.2462  0.3001
 5142TIP3   OH215389   5.239   6.639   4.739 -0.5373 -0.2016  0.0707
 5142TIP3    H115390   5.199   6.694   4.807 -2.1002  0.2547 -1.1487
 5142TIP3    H215391   5.260   6.700   4.668  0.1731 -0.8013 -0.2457
 5143TIP3   OH215392   3.959   2.510   5.071  0.7630  0.5316  0.0253
 5143TIP3    H115393   4.040   2.468   5.100  1.7364  0.2553 -2.8065
 5143TIP3    H215394   3.986   2.599   5.048  0.5816  0.1048 -2.0209
 5144TIP3   OH215395   2.957   3.139   3.572 -0.8198  0.5117 -0.1750
 5144TIP3    H115396   2.868   3.140   3.539 -1.1537  0.2096  0.7088
 5144TIP3    H215397   2.951   3.099   3.658  0.6984 -3.2916 -1.6187
 5145TIP3   OH215398   4.630   2.098   2.941  0.4793  0.1704  0.1664
 5145TIP3    H115399   4.541   2.113   2.971 -0.3356 -1.0960 -1.4108
 5145TIP3    H215400   4.649   2.172   2.883 -0.3662 -0.5856 -1.1153
 5146TIP3   OH215401   4.534   0.903   5.268 -0.8786  0.2565  0.0437
 5146TIP3    H115402   4.611   0.884   5.215 -2.8544 -0.6069 -2.7569
 5146TIP3    H215403   4.531   0.831   5.331  0.8494  0.6035  0.5713
 5147TIP3   OH215404   0.298   5.770   5.893  0.1363 -0.2505  0.1815
 5147TIP3    H115405   0.227   5.753   5.830  0.4585 -0.2920 -0.1754
 5147TIP3    H215406   0.341   5.848   5.859  2.1792 -1.8954 -1.3586
 5148TIP3   OH215407   0.163   5.014   3.607  0.0501 -0.2162 -0.3242
 5148TIP3    H115408   0.171   5.107   3.628 -1.0404 -0.1227 -0.2247
 5148TIP3    H215409   0.202   5.004   3.521 -0.0232  0.3792 -0.4240
 5149TIP3   OH215410   5.520   5.786   0.468 -0.8977 -0.1319  0.0381
 5149TIP3    H115411   5.481   5.720   0.411 -1.8246  0.5959 -0.1893
 5149TIP3    H215412   5.489   5.763   0.556 -0.2217 -0.6998  0.1461
 5150TIP3   OH215413   2.874   0.963   2.463 -0.0070  0.1051  0.3738
 5150TIP3    H115414   2.962   0.991   2.488 -0.8195  2.3331  0.9523
 5150TIP3    H215415   2.886   0.919   2.379  1.6955 -0.0804  0.6692
 5151TIP3   OH215416   6.936   5.063   1.492 -0.0620  0.2366 -0.6215
 5151TIP3    H115417   6.996   5.126   1.452  0.3495 -0.1914 -0.6855
 5151TIP3    H215418   6.891   5.023   1.418 -1.7694  1.8253 -0.5293
 5152TIP3   OH215419   0.744   0.694   5.222 -0.0994  0.4143  0.6682
 5152TIP3    H115420   0.665   0.671   5.271 -0.0649  0.3723  0.7044
 5152TIP3    H215421   0.716   0.697   5.131  0.4958 -2.6400  0.2810
 5153TIP3   OH215422   6.477   1.240   1.902 -0.5480 -0.5302  0.0660
 5153TIP3    H115423   6.572   1.251   1.909 -0.7203  0.5185  1.2274
 5153TIP3    H215424   6.446   1.240   1.993 -1.8911  1.6683 -0.3141
 5154TIP3   OH215425   0.229   3.638   1.525 -0.0068 -0.7489  0.3511
 5154TIP3    H115426   0.269   3.724   1.539 -1.2550 -0.3111  1.4308
 5154TIP3    H215427   0.225   3.599   1.612 -0.9994 -1.1805  0.1232
 5155TIP3   OH215428   6.763   6.138   3.982 -0.2559 -0.3591 -0.2152
 5155TIP3    H115429   6.817   6.060   3.985 -0.3656 -0.4775 -0.9542
 5155TIP3    H215430   6.707   6.133   4.059  1.4538  0.2797  1.1275
 5156TIP3   OH215431   1.903   3.959   1.508 -0.1090  0.4133 -0.9165
 5156TIP3    H115432   1.913   3.890   1.574 -0.4978  0.6922 -0.5607
 5156TIP3    H215433   1.819   4.000   1.528 -0.2075  0.5414 -1.5551
 5157TIP3   OH215434   0.816   0.228   3.771  0.1925 -0.3544 -0.0378
 5157TIP3    H115435   0.885   0.226   3.705 -0.8594 -0.9850 -1.1761
 5157TIP3    H215436   0.838   0.302   3.827  1.7403 -0.5135 -0.4055
 5158TIP3   OH215437   7.154   1.970   1.746 -0.1740 -0.2373  0.1860
 5158TIP3    H115438   7.070   2.009   1.769  0.2693  0.1996  1.1426
 5158TIP3    H215439   7.181   1.922   1.824  0.4459 -0.4052 -0.1207
 5159TIP3   OH215440   5.953   0.896   2.183 -0.1074 -0.0753  0.5405
 5159TIP3    H115441   5.882   0.950   2.216 -1.3036  0.1755 -2.1987
 5159TIP3    H215442   5.917   0.807   2.180  1.1697 -0.7798  3.0672
 5160TIP3   OH215443   1.799   3.407   1.865 -0.2652 -0.3456 -0.4799
 5160TIP3    H115444   1.722   3.357   1.838 -0.4679  0.1348 -0.8117
 5160TIP3    H215445   1.829   3.449   1.785 -1.1482  1.4674  0.0798
 5161TIP3   OH215446   0.844   0.988   5.891  0.2937  0.4600  0.2405
 5161TIP3    H115447   0.844   0.986   5.796 -1.4047 -0.5010  0.2057
 5161TIP3    H215448   0.936   0.988   5.916  0.7788  1.5803 -1.3858
 5162TIP3   OH215449   0.122   1.003   2.677 -0.4742  0.1394 -1.1110
 5162TIP3    H115450   0.156   0.927   2.630  0.5329 -0.2768  0.2233
 5162TIP3    H215451   0.127   1.075   2.615 -0.4070 -0.6480 -2.0385
 5163TIP3   OH215452   1.026   5.496   1.159 -0.4896  0.7015  0.0586
 5163TIP3    H115453   1.023   5.567   1.095 -0.3900 -0.0962 -0.8717
 5163TIP3    H215454   0.937   5.461   1.161 -0.4315  0.5530  0.1407
 5164TIP3   OH215455   3.361   6.660   2.327  0.2765  0.3306  0.2166
 5164TIP3    H115456   3.327   6.679   2.415  0.8810 -1.3643  0.8656
 5164TIP3    H215457   3.441   6.711   2.322  1.4139 -1.1934  1.5716
 5165TIP3   OH215458   5.590   5.951   5.342  0.1923 -0.1285 -0.0787
 5165TIP3    H115459   5.580   5.869   5.390 -1.3782 -0.3407 -0.6975
 5165TIP3    H215460   5.555   5.932   5.255  0.6420  0.9458 -0.5082
 5166TIP3   OH215461   1.399   5.596   5.880  0.6180 -0.3980 -0.4394
 5166TIP3    H115462   1.322   5.578   5.934  0.9247 -2.1513 -0.5341
 5166TIP3    H215463   1.370   5.577   5.791  0.2881  1.9213 -0.9007
 5167TIP3   OH215464   1.298   0.264   5.834 -0.1545  0.0885  0.4448
 5167TIP3    H115465   1.351   0.185   5.823 -0.5725 -0.2281  0.6880
 5167TIP3    H215466   1.212   0.241   5.798 -0.1420  0.5897  0.0802
 5168TIP3   OH215467   5.735   1.977   5.241  0.3893  0.0997  0.1050
 5168TIP3    H115468   5.687   2.050   5.204  2.1767  0.7765 -1.0239
 5168TIP3    H215469   5.824   2.010   5.253  0.9428 -1.4984  0.7707
 5169TIP3   OH215470   3.511   1.997   1.894  0.0694  0.7892  0.2476
 5169TIP3    H115471   3.594   1.950   1.902  0.4734  1.1748 -1.3279
 5169TIP3    H215472   3.481   2.008   1.984  0.9730 -0.6656  0.7649
 5170TIP3   OH215473   0.721   6.381   4.213  0.4799 -0.5947  0.4151
 5170TIP3    H115474   0.696   6.473   4.224  2.8779  0.2523 -0.6305
 5170TIP3    H215475   0.678   6.354   4.132 -0.0742 -0.3650  0.6244
 5171TIP3   OH215476   4.503   2.391   1.588 -0.2457  0.1102  0.0601
 5171TIP3    H115477   4.582   2.411   1.639 -0.7741  1.2977  0.4515
 5171TIP3    H215478   4.431   2.424   1.642 -0.8669  0.7856 -1.1503
 5172TIP3   OH215479   6.442   6.077   4.633 -0.3909  0.1773  0.5043
 5172TIP3    H115480   6.425   6.019   4.559 -1.5629  0.7383  0.3020
 5172TIP3    H215481   6.518   6.129   4.607 -1.0472  0.6586 -0.4945
 5173TIP3   OH215482   0.669   6.658   4.175  0.1229 -0.2425  0.7021
 5173TIP3    H115483   0.706   6.738   4.136 -0.8588  0.9736  2.1732
 5173TIP3    H215484   0.587   6.645   4.128 -0.7769  0.8952  1.8834
 5174TIP3   OH215485   1.588   3.549   0.725  0.1004 -0.9980 -0.1731
 5174TIP3    H115486   1.676   3.514   0.738  0.7684  0.2924 -1.0175
 5174TIP3    H215487   1.602   3.638   0.693 -1.4585 -1.4686 -2.4118
 5175TIP3   OH215488   6.683   5.428   1.452  0.1664  0.3911  0.0638
 5175TIP3    H115489   6.766   5.442   1.406  1.3929 -1.2952  1.6335
 5175TIP3    H215490   6.691   5.479   1.533 -1.6996  2.7799 -1.0932
 5176TIP3   OH215491   6.133   0.659   5.248 -0.3034 -0.1405 -0.6513
 5176TIP3    H115492   6.225   0.687   5.253 -0.5069  0.3593  1.2931
 5176TIP3    H215493   6.137   0.567   5.222  0.5980  0.4203 -2.7498
 5177TIP3   OH215494   3.293   2.134   1.390  0.1810 -0.2920 -0.5631
 5177TIP3    H115495   3.204   2.162   1.367  0.8643  2.2026 -0.4038
 5177TIP3    H215496   3.314   2.067   1.324 -2.2658 -2.0136  0.2427
 5178TIP3   OH215497   1.788   5.600   5.748  0.0208  0.0329  0.3077
 5178TIP3    H115498   1.799   5.543   5.672 -1.7515 -1.4459  1.0775
 5178TIP3    H215499   1.748   5.680   5.713  0.7165  0.0422 -0.5053
 5179TIP3   OH215500   4.735   5.481   5.672  0.1388 -0.0020  0.2543
 5179TIP3    H115501   4.706   5.516   5.756  0.6492 -0.6232  0.6961
 5179TIP3    H215502   4.712   5.388   5.675  0.2943 -0.0599 -0.2277
 5180TIP3   OH215503   5.684   6.205   0.368  0.6075  0.5780 -0.4809
 5180TIP3    H115504   5.691   6.110   0.360 -1.8798  0.2205  0.5387
 5180TIP3    H215505   5.646   6.234   0.285  0.4374  0.5417 -0.4160
 5181TIP3   OH215506   3.414   3.749   2.619  0.2294  0.0365  0.9863
 5181TIP3    H115507   3.338   3.767   2.674  0.6070  1.2462  1.1457
 5181TIP3    H215508   3.378   3.746   2.530  0.1740  2.0180  0.9107
 5182TIP3   OH215509   4.585   1.188   2.286 -0.2583  0.4305  0.5631
 5182TIP3    H115510   4.664   1.200   2.233 -0.6245  1.3388  0.1850
 5182TIP3    H215511   4.524   1.142   2.228 -0.6666  1.4434  0.1557
 5183TIP3   OH215512   3.862   0.800   2.268 -0.3208  0.4684  0.2180
 5183TIP3    H115513   3.937   0.847   2.232 -1.4293  0.9155 -1.6782
 5183TIP3    H215514   3.860   0.823   2.361  0.5491  2.2630 -0.1817
 5184TIP3   OH215515   3.399   5.837   0.472  0.2423  0.0120  0.0829
 5184TIP3    H115516   3.371   5.772   0.536 -0.0742 -0.3307 -0.3959
 5184TIP3    H215517   3.476   5.798   0.430  1.1636  0.7424  1.0596
 5185TIP3   OH215518   6.738   4.506   4.069  0.7497  0.0453 -0.0004
 5185TIP3    H115519   6.736   4.412   4.055 -0.6109 -0.3342  2.2433
 5185TIP3    H215520   6.657   4.538   4.029  0.8439  0.1676 -0.0972
 5186TIP3   OH215521   5.852   5.501   0.375  0.2392 -0.4090  0.3179
 5186TIP3    H115522   5.948   5.510   0.376  0.3742 -1.4830 -0.5267
 5186TIP3    H215523   5.824   5.555   0.301  0.1710 -0.0131  0.6273
 5187TIP3   OH215524   5.071   1.218   0.852  0.1115 -0.1006  0.4991
 5187TIP3    H115525   5.076   1.132   0.894  0.3662 -0.4048 -0.1368
 5187TIP3    H215526   5.114   1.205   0.768 -0.5859  0.4386  0.0537
 5188TIP3   OH215527   6.945   4.671   4.008  0.0912  0.2048 -0.1918
 5188TIP3    H115528   7.007   4.598   4.004  1.0922  0.8694  1.9594
 5188TIP3    H215529   6.871   4.636   4.059 -1.9098 -0.8881 -3.4893
 5189TIP3   OH215530   2.425   4.070   5.384  0.0168  0.1357 -0.1885
 5189TIP3    H115531   2.348   4.022   5.353  1.7797 -2.3597 -1.0347
 5189TIP3    H215532   2.418   4.066   5.480 -0.6386 -0.5185 -0.2509
 5190TIP3   OH215533   5.837   0.579   0.809  0.2640  0.1568  0.1659
 5190TIP3    H115534   5.810   0.670   0.795  1.2742  0.1986 -1.8413
 5190TIP3    H215535   5.869   0.578   0.899  0.4022  1.8551  0.1715
 5191TIP3   OH215536   0.934   6.679   3.471  0.1363  0.2145  0.0650
 5191TIP3    H115537   0.863   6.742   3.459 -0.7775 -0.8134  0.0071
 5191TIP3    H215538   0.891   6.594   3.478  1.3293 -0.3816  0.4748
 5192TIP3   OH215539   5.686   6.465   4.641 -0.1353  0.2464  0.6231
 5192TIP3    H115540   5.656   6.376   4.624 -0.2808  0.5157 -0.5994
 5192TIP3    H215541   5.781   6.459   4.645 -0.2055 -0.2275  2.2250
 5193TIP3   OH215542   1.005   5.414   2.679  0.4947  0.1737 -0.3821
 5193TIP3    H115543   0.996   5.414   2.584 -1.5689 -2.3288 -0.3085
 5193TIP3    H215544   1.008   5.321   2.703  2.0014  0.7367  1.9590
 5194TIP3   OH215545   0.618   3.911   3.332 -0.2813 -0.3299 -0.0065
 5194TIP3    H115546   0.524   3.916   3.348 -0.2469 -0.8238  0.3818
 5194TIP3    H215547   0.647   3.833   3.380  0.4889  0.3557  0.6833
 5195TIP3   OH215548   6.456   0.664   2.797 -0.2578  0.2812 -0.7552
 5195TIP3    H115549   6.386   0.693   2.856 -0.3768  1.8568 -1.6034
 5195TIP3    H215550   6.411   0.608   2.733 -0.2479 -0.8773  0.2374
 5196TIP3   OH215551   4.193   4.123   0.195 -0.3575  0.3186 -0.7121
 5196TIP3    H115552   4.194   4.076   0.112  1.9583  1.9568 -1.7435
 5196TIP3    H215553   4.174   4.214   0.171 -2.1989  0.4271  0.9096
 5197TIP3   OH215554   1.986   2.672   4.813 -0.3318 -0.3109  0.5982
 5197TIP3    H115555   1.939   2.591   4.830 -2.2645  0.5440 -0.3795
 5197TIP3    H215556   2.055   2.647   4.751 -0.4524 -1.3216  0.8566
 5198TIP3   OH215557   4.669   2.534   1.397 -0.5633 -0.1136 -0.3687
 5198TIP3    H115558   4.599   2.491   1.445 -0.1270 -0.5071 -0.0804
 5198TIP3    H215559   4.722   2.576   1.464 -0.0619 -0.5012 -0.5187
 5199TIP3   OH215560   6.299   0.281   3.076 -0.4295  0.0184 -0.0052
 5199TIP3    H115561   6.289   0.354   3.136 -1.6658  0.8481 -1.1552
 5199TIP3    H215562   6.245   0.211   3.113 -1.8493  0.8024 -0.5330
 5200TIP3   OH215563   5.912   2.511   4.658  0.1727 -0.0262  0.9703
 5200TIP3    H115564   5.858   2.457   4.716  0.1849  0.7331  1.7149
 5200TIP3    H215565   5.926   2.457   4.581 -3.1411  0.3818 -0.0601
 5201TIP3   OH215566   6.110   4.943   3.001 -0.0897  0.1928 -0.5322
 5201TIP3    H115567   6.151   4.872   3.051  2.3092  1.8560  0.0471
 5201TIP3    H215568   6.144   5.023   3.041 -0.5815  1.6420 -2.8377
 5202TIP3   OH215569   6.425   5.028   0.363  0.2578  0.0950 -0.2053
 5202TIP3    H115570   6.514   5.065   0.365 -0.0189  0.7219  1.2101
 5202TIP3    H215571   6.411   5.007   0.270  2.0019 -0.3213 -0.4169
 5203TIP3   OH215572   0.991   4.920   1.017 -0.1401  0.2858 -0.3833
 5203TIP3    H115573   0.901   4.945   1.039  0.1888  0.3523  0.9265
 5203TIP3    H215574   1.039   5.003   1.011  0.2559  0.1724  0.8867
 5204TIP3   OH215575   2.165   3.106   2.114  0.0698  0.2346  0.1710
 5204TIP3    H115576   2.207   3.189   2.093 -1.3334  0.8068 -0.5027
 5204TIP3    H215577   2.188   3.090   2.206  1.9941  0.3387 -0.2524
 5205TIP3   OH215578   3.820   4.575   1.543  0.2407  0.4381  0.4238
 5205TIP3    H115579   3.759   4.642   1.574  0.5857 -0.2347  2.7586
 5205TIP3    H215580   3.874   4.555   1.619  2.4880  0.0141 -1.1774
 5206TIP3   OH215581   1.540   2.513   0.301  0.6539 -0.0753 -0.5806
 5206TIP3    H115582   1.509   2.518   0.211  1.1327 -0.4312 -0.7703
 5206TIP3    H215583   1.484   2.573   0.350 -0.0615 -0.4094 -0.9872
 5207TIP3   OH215584   5.565   3.350   5.152  0.0287 -0.4815 -0.9344
 5207TIP3    H115585   5.651   3.369   5.115  0.0682 -1.7865 -1.5959
 5207TIP3    H215586   5.505   3.358   5.079 -0.4321  0.4544 -0.4676
 5208TIP3   OH215587   5.206   1.072   3.291  0.2700 -0.3703 -0.0491
 5208TIP3    H115588   5.257   1.132   3.346  0.0512  0.0214 -0.2692
 5208TIP3    H215589   5.115   1.088   3.316  0.0218  1.0389 -1.6995
 5209TIP3   OH215590   1.198   4.094   4.192 -0.7035  0.4560 -0.2627
 5209TIP3    H115591   1.211   4.033   4.264  0.2114  0.8916 -0.0469
 5209TIP3    H215592   1.198   4.181   4.233  0.7899  0.7819 -0.8543
 5210TIP3   OH215593   6.433   0.206   1.190  0.5142 -0.0942 -0.4097
 5210TIP3    H115594   6.445   0.114   1.213  1.3539  0.2796  0.7011
 5210TIP3    H215595   6.498   0.222   1.121 -1.3377 -0.9546 -2.4637
 5211TIP3   OH215596   3.323   4.221   2.391  0.0082  0.1599 -0.3122
 5211TIP3    H115597   3.346   4.131   2.414 -0.6165 -0.3310 -1.4483
 5211TIP3    H215598   3.231   4.229   2.419  0.0643  0.4402 -0.2140
 5212TIP3   OH215599   2.983   3.399   0.796 -0.6168  0.3629 -0.4360
 5212TIP3    H115600   3.059   3.343   0.808 -0.3161  0.5309 -1.4817
 5212TIP3    H215601   2.920   3.369   0.862 -0.1207 -0.5905 -0.3874
 5213TIP3   OH215602   4.563   4.086   5.431 -0.5312 -0.2042 -0.6669
 5213TIP3    H115603   4.572   4.155   5.496  2.5824 -1.0648 -0.0366
 5213TIP3    H215604   4.646   4.038   5.434 -1.9469 -3.0468 -2.1446
 5214TIP3   OH215605   1.259   1.142   3.033 -0.0161  0.5208  0.2358
 5214TIP3    H115606   1.332   1.204   3.042 -0.0882  0.5424  0.7213
 5214TIP3    H215607   1.188   1.194   2.995  0.3374  0.4053 -0.6022
 5215TIP3   OH215608   6.476   5.885   3.996 -0.1583 -0.3221  0.2186
 5215TIP3    H115609   6.397   5.868   3.946  0.4133 -0.4098 -0.6694
 5215TIP3    H215610   6.548   5.870   3.934  0.5344  0.2474  0.8637
 5216TIP3   OH215611   1.296   1.940   5.819  0.3966 -0.5725 -0.5398
 5216TIP3    H115612   1.375   1.973   5.862 -0.1862  2.0970 -1.3154
 5216TIP3    H215613   1.233   1.931   5.890  0.4590  0.4456 -0.3388
 5217TIP3   OH215614   0.385   6.105   0.958 -0.0653  0.1256 -0.1340
 5217TIP3    H115615   0.442   6.032   0.984 -0.5575 -0.4860 -0.7172
 5217TIP3    H215616   0.417   6.180   1.007  1.3679 -0.1557 -0.5947
 5218TIP3   OH215617   6.093   2.773   1.261 -0.3132 -0.5339  0.2733
 5218TIP3    H115618   6.024   2.708   1.275 -0.0827 -1.5494 -2.6840
 5218TIP3    H215619   6.049   2.845   1.215  0.0434  0.1627  0.9884
 5219TIP3   OH215620   6.618   6.673   4.158 -0.6195  0.3549 -0.2304
 5219TIP3    H115621   6.669   6.679   4.077  0.3948  0.2338  0.3815
 5219TIP3    H215622   6.684   6.673   4.228 -1.5204  2.4589  0.7095
 5220TIP3   OH215623   4.349   4.611   3.259 -0.2687  0.4613  0.1616
 5220TIP3    H115624   4.443   4.612   3.276 -0.4862  2.5556  1.6410
 5220TIP3    H215625   4.341   4.644   3.169  0.4284 -1.1870 -0.5500
 5221TIP3   OH215626   2.707   2.176   5.205  0.3984 -0.0532  0.3163
 5221TIP3    H115627   2.620   2.147   5.177 -0.7809  0.9717  2.6911
 5221TIP3    H215628   2.691   2.252   5.260  2.9170  0.8523 -0.0708
 5222TIP3   OH215629   5.033   2.793   4.992  0.5084  0.1152  0.0826
 5222TIP3    H115630   4.993   2.853   5.056  0.0536 -0.9132  0.7967
 5222TIP3    H215631   4.978   2.715   4.997  1.3766 -0.5336 -0.4893
 5223TIP3   OH215632   0.105   3.178   0.240  0.3065 -0.2998 -0.0409
 5223TIP3    H115633   0.078   3.111   0.303 -0.1746  0.4801  0.6038
 5223TIP3    H215634   0.173   3.136   0.188  1.1105 -0.7980  1.3648
 5224TIP3   OH215635   0.903   2.047   2.446 -0.3937 -0.1988  0.1318
 5224TIP3    H115636   0.889   2.138   2.417  0.1105 -0.0359  0.3893
 5224TIP3    H215637   0.935   2.002   2.368 -2.7724 -0.7137 -0.6302
 5225TIP3   OH215638   1.957   6.553   1.374  0.4832 -0.4320 -0.0965
 5225TIP3    H115639   1.957   6.552   1.278  0.1143  1.5357 -0.1521
 5225TIP3    H215640   1.911   6.473   1.398 -0.7120 -0.2486 -1.5910
 5226TIP3   OH215641   5.246   3.943   2.634 -0.7191 -1.0756 -0.4680
 5226TIP3    H115642   5.305   4.009   2.670 -0.9309 -0.9168 -0.4065
 5226TIP3    H215643   5.174   3.939   2.697 -0.5711 -1.5661 -0.3275
 5227TIP3   OH215644   3.064   0.634   1.110  0.2418  0.2450 -0.1033
 5227TIP3    H115645   3.157   0.615   1.100  0.3774 -0.1725  1.6636
 5227TIP3    H215646   3.025   0.550   1.136 -0.1237  1.0042  1.9746
 5228TIP3   OH215647   1.786   2.863   1.001 -0.1736  0.2766 -0.1655
 5228TIP3    H115648   1.866   2.915   0.989 -1.8091  2.7578 -1.1808
 5228TIP3    H215649   1.757   2.883   1.090 -0.0175 -0.0853 -0.0333
 5229TIP3   OH215650   3.592   0.995   4.929 -0.3028  0.1238  0.2449
 5229TIP3    H115651   3.515   0.956   4.887  0.6393 -2.3323  0.6567
 5229TIP3    H215652   3.635   0.922   4.973  2.8998  1.1767 -0.9064
 5230TIP3   OH215653   4.141   4.759   5.329  0.0611  0.3167 -0.5664
 5230TIP3    H115654   4.149   4.664   5.314  1.7724  0.1788  0.8470
 5230TIP3    H215655   4.071   4.767   5.394 -0.7931  0.1222 -1.4474
 5231TIP3   OH215656   5.226   3.459   4.722 -0.5079  0.1069  0.1291
 5231TIP3    H115657   5.265   3.478   4.637  0.1725  1.2693  0.6751
 5231TIP3    H215658   5.218   3.364   4.725 -0.7854  0.0664 -1.3283
 5232TIP3   OH215659   1.183   2.273   5.352 -0.0599  0.0466 -0.0570
 5232TIP3    H115660   1.089   2.271   5.334 -0.3874  1.1313  1.3851
 5232TIP3    H215661   1.194   2.213   5.426  0.4438 -0.3028 -0.4062
 5233TIP3   OH215662   4.281   4.409   2.605  0.3134  0.3272  0.1878
 5233TIP3    H115663   4.264   4.435   2.514 -2.5667 -2.1438 -0.1537
 5233TIP3    H215664   4.369   4.370   2.602 -0.3756 -1.2757 -2.0155
 5234TIP3   OH215665   6.198   1.600   4.704 -0.1378 -0.0207 -0.4275
 5234TIP3    H115666   6.155   1.592   4.619  0.1651 -3.3600 -0.3873
 5234TIP3    H215667   6.262   1.670   4.691 -0.9136  0.3948 -2.5537
 5235TIP3   OH215668   0.555   4.777   0.215 -0.1772 -0.2008  0.4561
 5235TIP3    H115669   0.585   4.865   0.237  1.4081 -0.4511 -0.5016
 5235TIP3    H215670   0.480   4.791   0.158 -0.1418  0.5279  0.5737
 5236TIP3   OH215671   5.796   1.059   3.853  1.0004 -0.3200  0.6951
 5236TIP3    H115672   5.839   1.119   3.792  2.5719 -0.7282  1.3568
 5236TIP3    H215673   5.760   1.116   3.921  1.3727 -0.0323  0.6554
 5237TIP3   OH215674   0.966   3.524   5.136  0.2082 -0.5605 -0.3793
 5237TIP3    H115675   0.965   3.469   5.215  3.1001 -1.3234 -0.7693
 5237TIP3    H215676   0.940   3.611   5.168  2.3027 -0.5919  1.7199
 5238TIP3   OH215677   1.347   2.319   2.426  0.3516  0.3134 -0.2713
 5238TIP3    H115678   1.338   2.224   2.432  1.7117  0.2541  1.5052
 5238TIP3    H215679   1.387   2.345   2.509 -1.3824  2.6335 -0.0533
 5239TIP3   OH215680   6.341   1.327   5.331  0.1960 -0.0480 -0.2850
 5239TIP3    H115681   6.327   1.232   5.337 -0.4325  0.1432  2.5031
 5239TIP3    H215682   6.260   1.360   5.294 -0.0411 -0.5058 -0.1857
 5240TIP3   OH215683   4.681   2.365   2.816 -0.3023 -0.5142  0.3988
 5240TIP3    H115684   4.747   2.394   2.754  1.9316 -0.1990  2.7766
 5240TIP3    H215685   4.609   2.427   2.805  0.4949  0.1994 -1.0414
 5241TIP3   OH215686   0.227   1.600   3.834 -0.2534  0.3826 -0.0821
 5241TIP3    H115687   0.232   1.691   3.804  0.4956  0.1945 -0.5456
 5241TIP3    H215688   0.134   1.585   3.850 -0.6786  0.5542 -2.1336
 5242TIP3   OH215689   6.644   2.940   2.057 -0.0654 -0.6469  0.0252
 5242TIP3    H115690   6.735   2.966   2.064  0.1485 -0.9885 -1.1746
 5242TIP3    H215691   6.647   2.851   2.021 -0.8581  0.0164 -1.8598
 5243TIP3   OH215692   3.718   4.929   5.448  0.0060  0.7780  0.1285
 5243TIP3    H115693   3.777   4.989   5.401  1.4677 -0.9334 -0.3608
 5243TIP3    H215694   3.644   4.918   5.389  1.9946 -1.6662 -2.2072
 5244TIP3   OH215695   0.380   5.498   0.770 -0.4633 -0.6169  0.0764
 5244TIP3    H115696   0.358   5.450   0.691  0.5346 -1.9271  0.5551
 5244TIP3    H215697   0.426   5.576   0.739  1.6837 -2.0686 -0.6269
 5245TIP3   OH215698   7.174   5.579   1.865  0.2374  0.3510 -0.3980
 5245TIP3    H115699   7.253   5.573   1.919  0.0478  0.4170 -0.1089
 5245TIP3    H215700   7.122   5.649   1.907  0.2716  0.6802 -0.9034
 5246TIP3   OH215701   1.983   4.444   3.763  0.2668  0.0257  0.4284
 5246TIP3    H115702   2.020   4.389   3.832 -0.9386 -2.0834 -0.5329
 5246TIP3    H215703   1.901   4.478   3.800 -0.1616 -0.7466  0.1886
 5247TIP3   OH215704   4.090   0.498   1.309  0.0987  0.4464  0.7662
 5247TIP3    H115705   4.053   0.565   1.367  0.1758 -0.4064  1.8170
 5247TIP3    H215706   4.073   0.415   1.354 -0.1700 -0.2720 -0.6091
 5248TIP3   OH215707   0.781   3.246   5.406  0.1485 -0.1847  0.4681
 5248TIP3    H115708   0.744   3.176   5.354  0.4966 -0.4833  0.6213
 5248TIP3    H215709   0.721   3.254   5.481  0.0100 -0.1947  0.3590
 5249TIP3   OH215710   5.721   1.768   2.350 -0.0662 -0.5873 -0.4173
 5249TIP3    H115711   5.737   1.801   2.261  0.8800  0.0314 -0.0304
 5249TIP3    H215712   5.776   1.689   2.357  0.0038 -0.5294 -0.3153
 5250TIP3   OH215713   6.528   0.233   3.837 -0.8240  0.1226  0.3599
 5250TIP3    H115714   6.544   0.305   3.777 -0.8968  0.4988  0.7894
 5250TIP3    H215715   6.460   0.264   3.896  0.0501  0.1981  1.3608
 5251TIP3   OH215716   6.300   5.176   1.926 -0.0305 -0.5302 -0.8598
 5251TIP3    H115717   6.242   5.137   1.860 -0.9078 -0.6180 -0.0615
 5251TIP3    H215718   6.259   5.260   1.948 -0.1664 -0.8369  0.1104
 5252TIP3   OH215719   0.279   1.938   3.775 -0.0296  0.9893 -0.0445
 5252TIP3    H115720   0.230   2.020   3.776 -0.6789  0.6262 -0.9488
 5252TIP3    H215721   0.347   1.952   3.709  0.1822  0.9804  0.1710
 5253TIP3   OH215722   2.909   1.549   3.448 -0.5877  0.3171  0.4270
 5253TIP3    H115723   2.946   1.632   3.419  2.6417 -0.6927  1.2564
 5253TIP3    H215724   2.902   1.557   3.543 -0.5701 -0.2461  0.4787
 5254TIP3   OH215725   0.067   4.656   0.042  0.0620  0.6295  0.1413
 5254TIP3    H115726   0.094   4.709  -0.032 -0.1251  0.9728  0.3173
 5254TIP3    H215727   0.038   4.719   0.108 -0.2899  0.3078  0.3008
 5255TIP3   OH215728   4.133   0.531   0.843  0.1539  0.5231  0.0773
 5255TIP3    H115729   4.091   0.477   0.776 -1.7089  1.5452  0.3732
 5255TIP3    H215730   4.191   0.589   0.793 -1.0449  1.1173 -0.6582
 5256TIP3   OH215731   6.274   2.321   3.864 -0.5008 -0.1359 -0.1648
 5256TIP3    H115732   6.213   2.275   3.806 -0.2033 -1.1540  0.3035
 5256TIP3    H215733   6.314   2.388   3.808 -0.3240 -1.0117 -1.1229
 5257TIP3   OH215734   6.140   0.076   1.020  0.4024  0.2232 -0.2942
 5257TIP3    H115735   6.173   0.110   1.103  1.4227 -0.1542 -0.5311
 5257TIP3    H215736   6.050   0.049   1.039 -0.3588  2.7463 -0.0228
 5258TIP3   OH215737   6.222   1.493   3.770  0.6468 -0.1433 -0.3897
 5258TIP3    H115738   6.132   1.509   3.796  0.4643 -0.0137 -1.0764
 5258TIP3    H215739   6.252   1.577   3.734  1.0479 -0.1782 -0.1430
 5259TIP3   OH215740   1.843   6.002   2.767 -0.0947 -0.0929 -0.2529
 5259TIP3    H115741   1.830   6.092   2.799  2.1644  0.2224 -0.0765
 5259TIP3    H215742   1.768   5.986   2.710 -1.8024  1.0168  1.5557
 5260TIP3   OH215743   2.614   6.362   0.218  0.0413  0.2502 -0.2493
 5260TIP3    H115744   2.595   6.367   0.312  0.3232 -3.5688  0.1473
 5260TIP3    H215745   2.529   6.376   0.176 -0.2782  0.9708  0.5897
 5261TIP3   OH215746   6.369   5.385   0.655 -0.6547 -0.2278 -0.3142
 5261TIP3    H115747   6.396   5.407   0.744 -0.2171  2.6120 -1.0376
 5261TIP3    H215748   6.273   5.382   0.658 -0.6004 -1.8626  0.5527
 5262TIP3   OH215749   5.853   5.540   5.702  0.4254  0.7984 -0.1388
 5262TIP3    H115750   5.789   5.607   5.724  0.9067  0.6274  1.9844
 5262TIP3    H215751   5.811   5.489   5.632 -2.3644 -0.1131  2.0230
 5263TIP3   OH215752   6.802   6.671   1.186 -0.0706 -0.4961  0.2135
 5263TIP3    H115753   6.863   6.738   1.157  1.0171 -1.1120  1.0217
 5263TIP3    H215754   6.795   6.683   1.281 -1.6078 -0.1265  0.0844
 5264TIP3   OH215755   0.592   2.177   1.690  0.5058  0.3628 -0.2170
 5264TIP3    H115756   0.609   2.160   1.597  0.7101  0.3254 -0.1742
 5264TIP3    H215757   0.516   2.123   1.711  0.5939  0.2022 -0.3084
 5265TIP3   OH215758   4.608   5.135   1.394  0.1167 -0.1160 -0.0839
 5265TIP3    H115759   4.574   5.179   1.472 -1.5974 -1.5014 -0.0097
 5265TIP3    H215760   4.701   5.157   1.394 -0.0342  0.7566  1.7765
 5266TIP3   OH215761   2.060   3.536   0.865  0.1053 -0.5446  0.2737
 5266TIP3    H115762   2.142   3.556   0.820 -0.0833 -0.9018 -0.2383
 5266TIP3    H215763   2.012   3.619   0.865 -0.3903 -0.7914 -1.2473
 5267TIP3   OH215764   6.731   6.108   3.258 -0.8391  0.1655 -0.1852
 5267TIP3    H115765   6.659   6.068   3.209 -2.4614  1.2800  1.1643
 5267TIP3    H215766   6.772   6.035   3.303 -1.1712 -0.4916 -0.9165
 5268TIP3   OH215767   2.683   5.368   0.196 -0.2375 -0.3888  0.3959
 5268TIP3    H115768   2.771   5.384   0.230 -0.5770  2.3295  0.2463
 5268TIP3    H215769   2.633   5.445   0.223 -2.4164 -1.5310 -0.1330
 5269TIP3   OH215770   4.388   6.158   3.939 -0.4313  0.1587  0.2229
 5269TIP3    H115771   4.382   6.115   4.025 -2.3842 -1.1055 -0.4664
 5269TIP3    H215772   4.356   6.247   3.955 -3.4238 -0.8377  0.4026
 5270TIP3   OH215773   3.915   4.165   3.461  0.1372  0.4273  0.6484
 5270TIP3    H115774   3.882   4.254   3.472 -1.5498  0.0967 -1.1325
 5270TIP3    H215775   3.848   4.121   3.409  0.3330 -2.2661  2.4689
 5271TIP3   OH215776   4.390   5.460   2.141  0.4180  0.0307 -0.0524
 5271TIP3    H115777   4.362   5.392   2.203 -0.2400  0.2447 -0.1046
 5271TIP3    H215778   4.447   5.516   2.192  1.6014 -0.9901 -0.2119
 5272TIP3   OH215779   2.818   4.085   4.246 -0.4606 -0.2213 -0.1983
 5272TIP3    H115780   2.727   4.071   4.222 -0.5676  0.1660 -0.0335
 5272TIP3    H215781   2.814   4.120   4.335 -0.1317 -0.5743 -0.0453
 5273TIP3   OH215782   4.127   4.177   4.824  0.0008  0.0662 -0.1114
 5273TIP3    H115783   4.093   4.173   4.734  1.6256  1.1100 -0.8097
 5273TIP3    H215784   4.179   4.098   4.834 -2.4485 -1.5303  0.9571
 5274TIP3   OH215785   3.081   3.936   2.413  0.3899  0.8911  0.1800
 5274TIP3    H115786   3.102   3.943   2.319  0.9660 -2.1832 -0.0282
 5274TIP3    H215787   2.986   3.933   2.416  0.3767 -1.3945 -0.6437
 5275TIP3   OH215788   3.526   1.438   5.791  0.4005 -0.2416 -0.4478
 5275TIP3    H115789   3.594   1.430   5.858 -0.2687 -0.6047  0.2005
 5275TIP3    H215790   3.472   1.360   5.802 -1.3218  1.0155  0.4187
 5276TIP3   OH215791   0.419   0.777   4.137 -0.3161 -0.0791 -0.3191
 5276TIP3    H115792   0.435   0.692   4.177  0.1048  0.1738  0.0625
 5276TIP3    H215793   0.340   0.810   4.181 -1.3664 -0.8905 -1.4971
 5277TIP3   OH215794   2.837   5.752   4.567 -0.3027  0.6457  0.3762
 5277TIP3    H115795   2.783   5.699   4.626 -1.3310  1.0361 -0.2016
 5277TIP3    H215796   2.861   5.829   4.619  1.2819 -0.3763  1.2560
 5278TIP3   OH215797   2.957   2.618   3.303 -0.1033 -0.0680  0.5603
 5278TIP3    H115798   2.898   2.614   3.227 -0.3759 -0.1311  0.7722
 5278TIP3    H215799   2.979   2.527   3.321  1.5824  0.0433 -0.6777
 5279TIP3   OH215800   0.743   2.923   1.316  0.2462 -0.1960  0.0542
 5279TIP3    H115801   0.671   2.971   1.357  2.2056  2.3617  0.7460
 5279TIP3    H215802   0.721   2.921   1.223  0.2697  2.5933 -0.0932
 5280TIP3   OH215803   0.599   1.218   2.782 -0.2884  0.5194 -0.2442
 5280TIP3    H115804   0.640   1.199   2.698 -1.0638 -0.3235 -0.4553
 5280TIP3    H215805   0.528   1.278   2.761 -0.7659 -0.0434 -0.2712
 5281TIP3   OH215806   5.009   5.629   0.601 -0.8286 -0.2665 -0.2006
 5281TIP3    H115807   4.919   5.597   0.601 -2.0263  2.7225  0.9159
 5281TIP3    H215808   5.005   5.711   0.551  1.4722 -0.4887 -0.8508
 5282TIP3   OH215809   0.579   0.729   2.337  0.2141 -0.1510 -0.2126
 5282TIP3    H115810   0.486   0.740   2.317 -0.6597 -1.2735  2.7606
 5282TIP3    H215811   0.622   0.803   2.293 -2.0314  0.3297 -1.7448
 5283TIP3   OH215812   4.397   5.590   5.144  0.2210  0.1701 -0.5937
 5283TIP3    H115813   4.402   5.621   5.054  1.3529  1.1730 -0.2232
 5283TIP3    H215814   4.356   5.504   5.138 -2.1417  1.3002 -1.7833
 5284TIP3   OH215815   2.202   2.742   1.100  1.2842  0.1141  0.3446
 5284TIP3    H115816   2.208   2.788   1.184 -0.7399 -2.0062  1.7599
 5284TIP3    H215817   2.116   2.766   1.065  1.4640 -0.2390 -0.3738
 5285TIP3   OH215818   2.442   2.157   1.556 -0.1815 -0.0327 -0.0698
 5285TIP3    H115819   2.425   2.063   1.552  0.5356 -0.1203 -1.5028
 5285TIP3    H215820   2.526   2.165   1.602  0.3998 -0.1838 -1.0922
 5286TIP3   OH215821   6.823   2.911   4.400 -0.1926 -0.3563  0.1311
 5286TIP3    H115822   6.886   2.940   4.335  0.9700 -0.7084  1.0749
 5286TIP3    H215823   6.869   2.916   4.483 -1.4118 -0.6155  0.8573
 5287TIP3   OH215824   4.307   1.951   5.090 -0.3495 -0.1158 -0.4959
 5287TIP3    H115825   4.374   1.899   5.134 -0.8497 -1.9395 -1.7881
 5287TIP3    H215826   4.264   1.999   5.160  1.0772 -0.3324  0.5758
 5288TIP3   OH215827   6.822   2.316   1.185  0.4988 -0.3877 -0.3298
 5288TIP3    H115828   6.780   2.401   1.195  0.4893 -0.5244  0.9680
 5288TIP3    H215829   6.911   2.337   1.157  0.4146  0.0336 -0.2924
 5289TIP3   OH215830   4.089   4.084   1.655 -0.0369 -0.3342 -0.6363
 5289TIP3    H115831   4.097   4.097   1.561  0.6718 -2.6893 -0.9738
 5289TIP3    H215832   4.006   4.037   1.666 -0.1871  0.0519 -0.0589
 5290TIP3   OH215833   2.779   0.561   3.966 -0.2129  0.1065  0.2343
 5290TIP3    H115834   2.824   0.610   4.035 -0.3788 -0.4055  0.7206
 5290TIP3    H215835   2.717   0.505   4.013  0.7084 -1.3404 -0.1982
 5291TIP3   OH215836   6.122   4.850   5.533 -0.1823 -0.0714 -0.3538
 5291TIP3    H115837   6.158   4.806   5.610 -0.9357 -0.0435  0.0270
 5291TIP3    H215838   6.178   4.821   5.461  0.9421  0.4208  0.2905
 5292TIP3   OH215839   6.383   3.188   2.783  0.4850  0.4591  0.2643
 5292TIP3    H115840   6.290   3.173   2.768  0.1976  1.0343  1.3998
 5292TIP3    H215841   6.420   3.196   2.695 -0.6142  0.7173 -0.1952
 5293TIP3   OH215842   1.782   6.387   1.811  0.1183 -0.1943 -0.5941
 5293TIP3    H115843   1.821   6.317   1.758 -0.1927  0.1351 -1.2590
 5293TIP3    H215844   1.852   6.452   1.818  0.2796 -0.3962 -0.2946
 5294TIP3   OH215845   5.111   0.101   3.203  0.0405 -0.2523 -0.4027
 5294TIP3    H115846   5.067   0.166   3.149  1.2848  0.2066 -0.8813
 5294TIP3    H215847   5.204   0.113   3.185  0.6736  0.9419  2.9305
 5295TIP3   OH215848   2.899   6.144   2.492 -0.2328  0.8144 -0.4657
 5295TIP3    H115849   2.867   6.155   2.581  0.1215 -1.3351 -0.0285
 5295TIP3    H215850   2.989   6.178   2.494  0.4258 -0.8990  0.4987
 5296TIP3   OH215851   0.768   5.534   2.035  0.7253 -0.3301  0.0459
 5296TIP3    H115852   0.726   5.620   2.033  1.6581  0.2078  1.7440
 5296TIP3    H215853   0.783   5.517   2.127  3.4132 -0.8830 -0.4176
 5297TIP3   OH215854   1.108   3.589   2.624 -0.8857 -0.3736  0.0833
 5297TIP3    H115855   1.081   3.501   2.596 -1.0561 -0.1267 -0.5607
 5297TIP3    H215856   1.040   3.617   2.685 -1.0081 -0.5597  0.0331
 5298TIP3   OH215857   4.827   6.236   4.639 -0.1213  0.1568  0.0567
 5298TIP3    H115858   4.888   6.309   4.636  0.5787 -0.3500  1.3947
 5298TIP3    H215859   4.819   6.215   4.732 -0.4320 -1.3736 -0.2947
 5299TIP3   OH215860   6.699   2.047   4.476  0.2196  0.0345  0.2168
 5299TIP3    H115861   6.678   2.067   4.567 -1.4692  1.8792 -0.5158
 5299TIP3    H215862   6.757   2.118   4.448  0.6301 -0.4530 -0.1958
 5300TIP3   OH215863   6.535   2.317   0.838  0.0575  0.2170  0.2541
 5300TIP3    H115864   6.629   2.311   0.856  0.2046  2.7327  0.6637
 5300TIP3    H215865   6.494   2.324   0.925 -0.6180 -1.5844  0.1186
 5301TIP3   OH215866   6.670   3.794   5.280  0.1602  0.6902  0.5669
 5301TIP3    H115867   6.676   3.734   5.354  1.3140 -0.9440 -0.7643
 5301TIP3    H215868   6.761   3.808   5.253 -0.1392  2.4847  0.3870
 5302TIP3   OH215869   1.062   6.272   1.335 -0.0116  0.5552 -0.1256
 5302TIP3    H115870   1.100   6.307   1.415  2.8371 -1.3197 -0.4946
 5302TIP3    H215871   1.090   6.334   1.267  2.6430 -0.7781 -0.3881
 5303TIP3   OH215872   6.547   6.134   1.228  0.1678  0.2287  0.2198
 5303TIP3    H115873   6.600   6.135   1.307 -0.3687 -0.3406  0.5943
 5303TIP3    H215874   6.602   6.090   1.163 -0.0070 -0.7375  0.7215
 5304TIP3   OH215875   4.011   2.859   5.711 -0.1819  0.0612  0.1083
 5304TIP3    H115876   4.080   2.808   5.753 -0.0264 -0.3913 -0.6731
 5304TIP3    H215877   4.034   2.950   5.729  1.9718  0.0492 -2.1093
 5305TIP3   OH215878   5.788   5.468   0.008 -0.3628  0.3830  0.2262
 5305TIP3    H115879   5.743   5.511   0.081 -1.2480  0.1247 -0.1510
 5305TIP3    H215880   5.863   5.524  -0.010 -1.7134  2.0432 -0.5277
 5306TIP3   OH215881   6.600   4.079   2.201  0.0758  0.2357  0.7726
 5306TIP3    H115882   6.655   4.073   2.280 -0.8183  0.1531  1.4015
 5306TIP3    H215883   6.649   4.031   2.134  2.1322  2.5022  0.5193
 5307TIP3   OH215884   3.069   5.286   1.492 -0.0599  0.2267 -0.3524
 5307TIP3    H115885   3.165   5.293   1.487  0.0750 -0.6722  0.6855
 5307TIP3    H215886   3.049   5.206   1.443 -0.1921 -0.0685  0.1826
 5308TIP3   OH215887   5.748   6.162   0.039 -0.1873  0.6042  0.2399
 5308TIP3    H115888   5.755   6.068   0.025 -0.6797  0.7522 -1.1387
 5308TIP3    H215889   5.661   6.173   0.079 -0.6800  0.5694 -0.7811
 5309TIP3   OH215890   7.212   2.375   5.336 -0.1383 -0.3822  0.5877
 5309TIP3    H115891   7.119   2.356   5.332 -0.2112 -0.1783  1.2084
 5309TIP3    H215892   7.229   2.394   5.429 -0.1182  2.7311  0.0733
 5310TIP3   OH215893   2.616   5.800   4.063  0.2248 -0.2247  0.5669
 5310TIP3    H115894   2.649   5.887   4.041 -1.8120  0.5570  0.3722
 5310TIP3    H215895   2.557   5.814   4.137 -1.5040 -1.1084 -0.5522
 5311TIP3   OH215896   1.523   6.435   0.540 -0.1507  0.3135 -0.2762
 5311TIP3    H115897   1.497   6.374   0.610  0.4100  0.1936 -0.1709
 5311TIP3    H215898   1.553   6.513   0.586 -0.6814  0.6038 -0.4084
 5312TIP3   OH215899   2.308   6.231   4.986  0.4017  0.0339 -0.5592
 5312TIP3    H115900   2.291   6.165   4.919 -0.0564  0.4443 -0.8560
 5312TIP3    H215901   2.263   6.198   5.064 -0.6473  0.4634 -0.9746
 5313TIP3   OH215902   5.988   5.977   4.765  0.2381  0.3082  0.4676
 5313TIP3    H115903   5.950   6.034   4.697  1.5756 -0.7974 -1.2968
 5313TIP3    H215904   6.046   6.035   4.814 -0.4887  1.0558  0.4831
 5314TIP3   OH215905   1.300   5.674   1.248 -0.1466  0.0373  0.0091
 5314TIP3    H115906   1.264   5.681   1.336  1.4145  0.1983  0.6700
 5314TIP3    H215907   1.333   5.584   1.243 -1.6867 -0.5058 -1.0225
 5315TIP3   OH215908   5.721   2.785   4.096 -0.3437 -0.1514  0.1376
 5315TIP3    H115909   5.692   2.872   4.122  0.2845  0.0601  0.1333
 5315TIP3    H215910   5.645   2.729   4.113  0.3795 -0.2853  3.8325
 5316TIP3   OH215911   3.728   6.710   2.693 -0.4052 -0.0210 -0.0366
 5316TIP3    H115912   3.787   6.684   2.764 -0.5788  1.4195  0.6699
 5316TIP3    H215913   3.775   6.685   2.613  0.5130 -0.2035  0.5383
 5317TIP3   OH215914   5.280   3.687   2.542  0.4955  0.0124 -0.1664
 5317TIP3    H115915   5.250   3.775   2.568  0.9753 -0.3739  1.8865
 5317TIP3    H215916   5.208   3.652   2.489 -0.3340  1.0976  0.2045
 5318TIP3   OH215917   2.610   1.693   2.822 -0.1934 -0.4243  0.1806
 5318TIP3    H115918   2.600   1.602   2.798 -0.7104 -0.7150  1.4087
 5318TIP3    H215919   2.553   1.704   2.898  0.4617  0.7161  0.5326
 5319TIP3   OH215920   6.777   2.909   2.708 -0.1346 -0.0242  0.2911
 5319TIP3    H115921   6.836   2.946   2.642 -1.2399  0.5149 -0.4179
 5319TIP3    H215922   6.764   2.818   2.681  0.1612 -0.0779  0.3165
 5320TIP3   OH215923   0.861   2.508   1.848  0.7186  0.0156 -0.3823
 5320TIP3    H115924   0.816   2.548   1.774  4.1885 -1.3798 -3.6296
 5320TIP3    H215925   0.944   2.556   1.854  0.9052 -0.4728  2.1448
 5321TIP3   OH215926   3.905   1.298   2.959 -0.3971  0.0764  0.2553
 5321TIP3    H115927   3.961   1.331   2.888 -1.1340  0.4999 -0.1424
 5321TIP3    H215928   3.952   1.222   2.993  0.8482  0.9420  0.5160
 5322TIP3   OH215929   5.923   3.008   2.156 -0.1113 -0.3122  0.0102
 5322TIP3    H115930   5.926   2.982   2.248  0.1212  0.3060  0.1817
 5322TIP3    H215931   5.896   3.099   2.158  0.0241 -0.2578 -0.5319
 5323TIP3   OH215932   5.348   5.151   3.212  0.5437  0.1526 -0.1936
 5323TIP3    H115933   5.413   5.098   3.258  0.2019 -0.2322 -0.1474
 5323TIP3    H215934   5.399   5.204   3.151  1.0925  1.1821  1.0904
 5324TIP3   OH215935   2.977   1.950   2.039  0.8103  0.4228  0.7275
 5324TIP3    H115936   3.007   1.867   2.002  2.4893  1.5100 -0.5707
 5324TIP3    H215937   2.886   1.959   2.010  0.9189 -0.5295  0.0624
 5325TIP3   OH215938   1.039   2.092   0.149  0.6250 -0.1000 -0.2306
 5325TIP3    H115939   1.045   2.031   0.075 -1.5178  1.1513 -1.5569
 5325TIP3    H215940   1.123   2.138   0.149  0.9295 -0.6059 -1.4751
 5326TIP3   OH215941   6.068   6.700   0.581  0.1500 -0.4452  0.3374
 5326TIP3    H115942   6.019   6.781   0.568 -0.0316 -0.3377  1.6494
 5326TIP3    H215943   6.158   6.728   0.594  0.3460 -0.5604 -0.6756
 5327TIP3   OH215944   4.691   4.878   3.988  0.5760 -0.5018  0.4670
 5327TIP3    H115945   4.596   4.875   3.974  0.4713  0.2061  0.9845
 5327TIP3    H215946   4.721   4.789   3.968 -0.1621 -0.6699  0.0748
 5328TIP3   OH215947   4.279   0.326   4.173  0.1917  0.5597  0.0835
 5328TIP3    H115948   4.193   0.360   4.198 -0.1559  1.2411 -1.8677
 5328TIP3    H215949   4.259   0.249   4.120  0.7647  1.0927 -0.9097
 5329TIP3   OH215950   1.202   6.624   4.709  0.3720  0.4549 -0.6985
 5329TIP3    H115951   1.297   6.635   4.716  0.3391  0.4693 -0.2354
 5329TIP3    H215952   1.185   6.616   4.615  0.7597  1.0674 -0.8257
 5330TIP3   OH215953   3.869   5.650   0.139 -0.2666  0.5638  0.5858
 5330TIP3    H115954   3.869   5.555   0.125  1.1315  0.4290  1.3512
 5330TIP3    H215955   3.917   5.685   0.064  1.3191  0.4212  1.4783
 5331TIP3   OH215956   1.823   4.030   4.345 -0.0205  0.7626 -0.4862
 5331TIP3    H115957   1.862   3.982   4.272  2.0668  1.7776 -0.1225
 5331TIP3    H215958   1.823   3.968   4.418 -1.0150  0.1176 -1.0180
 5332TIP3   OH215959   5.197   1.372   2.308  0.1854  0.2079 -0.5164
 5332TIP3    H115960   5.187   1.292   2.359 -0.1687  1.5385  1.6427
 5332TIP3    H215961   5.111   1.414   2.312  0.6363  1.1803 -0.7117
 5333TIP3   OH215962   5.492   2.339   0.326  0.1900 -0.4417 -0.2969
 5333TIP3    H115963   5.573   2.292   0.308 -0.5230 -0.6910 -3.4749
 5333TIP3    H215964   5.423   2.283   0.290 -1.0334  1.3103 -0.8063
 5334TIP3   OH215965   2.862   2.312   1.523  0.3591  0.5519  0.6481
 5334TIP3    H115966   2.870   2.333   1.616  4.3039  0.7099  0.4398
 5334TIP3    H215967   2.826   2.223   1.521  1.8606 -0.1511  2.4583
 5335TIP3   OH215968   3.119   3.293   0.001 -0.0169  0.0225 -0.1452
 5335TIP3    H115969   3.118   3.301   0.097 -1.3117 -1.5019  0.0138
 5335TIP3    H215970   3.172   3.214  -0.015 -0.1190  0.0595 -0.6733
 5336TIP3   OH215971   1.627   6.207   1.188 -0.3195  0.1426 -0.2486
 5336TIP3    H115972   1.580   6.150   1.249  0.4138  0.9271  1.0758
 5336TIP3    H215973   1.570   6.210   1.111 -1.8677  0.0903  0.8447
 5337TIP3   OH215974   2.291   3.529   1.711  0.7250 -0.6317  0.1717
 5337TIP3    H115975   2.276   3.542   1.805  0.6547 -1.6469  0.3147
 5337TIP3    H215976   2.292   3.434   1.700  2.6156 -0.5666 -0.5591
 5338TIP3   OH215977   2.244   2.417   1.036  0.0399 -0.5756 -0.6149
 5338TIP3    H115978   2.187   2.486   1.069 -0.1002 -0.7540 -0.4843
 5338TIP3    H215979   2.207   2.336   1.071 -0.1770 -0.7812 -1.2887
 5339TIP3   OH215980   1.902   5.032   3.037 -0.5608 -0.0703  0.1782
 5339TIP3    H115981   1.941   5.074   2.960 -0.2110  2.0619  1.4494
 5339TIP3    H215982   1.830   4.979   3.001 -0.9290  1.4912 -1.5428
 5340TIP3   OH215983   3.941   2.569   0.895  0.1930 -0.3278  0.3737
 5340TIP3    H115984   3.972   2.594   0.982 -0.0133  2.0403 -0.1663
 5340TIP3    H215985   3.978   2.635   0.836 -0.4627 -1.3009 -1.2205
 5341TIP3   OH215986   4.662   1.417   1.296  0.3363 -0.2536  0.0577
 5341TIP3    H115987   4.727   1.487   1.291  0.3809 -0.2627  0.4990
 5341TIP3    H215988   4.652   1.387   1.205 -1.0898  1.6268 -0.4904
 5342TIP3   OH215989   5.378   1.186   2.795  0.0039  0.2117  0.0479
 5342TIP3    H115990   5.355   1.181   2.888 -0.9306  1.5490 -0.0890
 5342TIP3    H215991   5.391   1.095   2.769  1.0944 -0.1519  1.6698
 5343TIP3   OH215992   2.370   2.431   1.860 -0.1853 -0.2706  0.1483
 5343TIP3    H115993   2.437   2.371   1.891  0.8210  1.9130  2.5240
 5343TIP3    H215994   2.290   2.378   1.855  1.0870 -2.2634 -0.0623
 5344TIP3   OH215995   1.682   2.380   4.840 -0.3997  0.2186  0.0932
 5344TIP3    H115996   1.591   2.395   4.865 -0.9020 -2.2381 -0.0117
 5344TIP3    H215997   1.682   2.380   4.745  0.0152  1.6473  0.0733
 5345TIP3   OH215998   5.827   5.652   5.025 -0.1988 -0.0046  0.0772
 5345TIP3    H115999   5.843   5.633   4.933 -0.7940  1.1505 -0.2874
 5345TIP3    H216000   5.733   5.670   5.030 -0.3050 -0.6980  1.0424
 5346TIP3   OH216001   4.267   6.316   3.404 -0.1516  0.1815  0.3293
 5346TIP3    H116002   4.362   6.308   3.397 -0.2049 -2.1637  1.3954
 5346TIP3    H216003   4.238   6.342   3.316  1.3623 -0.2033 -0.3128
 5347TIP3   OH216004   1.292   5.351   5.606 -0.6448  0.3901  0.4382
 5347TIP3    H116005   1.218   5.293   5.624 -0.6420 -0.1415 -1.1219
 5347TIP3    H216006   1.257   5.418   5.548  0.1139  0.0479 -0.4438
 5348TIP3   OH216007   2.680   5.998   3.452  0.2736  0.2184  0.2029
 5348TIP3    H116008   2.614   6.048   3.405 -1.1466 -0.6131  1.2261
 5348TIP3    H216009   2.649   5.998   3.543  0.3205 -2.2771  0.2867
 5349TIP3   OH216010   5.615   0.590   1.506  0.0958  0.1341 -0.0235
 5349TIP3    H116011   5.589   0.676   1.539 -0.7113  0.0273 -0.3736
 5349TIP3    H216012   5.708   0.599   1.486  0.4328  0.4389  1.5239
 5350TIP3   OH216013   3.590   5.758   1.466  0.2470  0.4799 -0.2538
 5350TIP3    H116014   3.650   5.736   1.537  0.2640  2.1078  0.2900
 5350TIP3    H216015   3.504   5.730   1.497  0.5204 -0.6319 -0.4624
 5351TIP3   OH216016   0.653   2.631   4.648  0.2322  0.0024 -0.5540
 5351TIP3    H116017   0.651   2.666   4.737 -0.7660 -0.4477 -0.3836
 5351TIP3    H216018   0.667   2.537   4.659 -2.9480 -0.5990 -0.6453
 5352TIP3   OH216019   1.550   0.817   3.515  0.1975  0.3060  0.8988
 5352TIP3    H116020   1.643   0.797   3.531  0.4834  2.1262  1.7699
 5352TIP3    H216021   1.548   0.912   3.503 -1.0730 -0.0313 -2.7742
 5353TIP3   OH216022   4.205   0.510   5.671 -0.0744  0.4494  0.4892
 5353TIP3    H116023   4.126   0.552   5.705 -0.5934  2.9258 -3.2249
 5353TIP3    H216024   4.174   0.432   5.624 -0.5227  1.7425 -1.4775
 5354TIP3   OH216025   4.108   2.262   3.789 -0.3977  0.2595 -0.4082
 5354TIP3    H116026   4.062   2.345   3.800  0.7204  0.9400 -0.6390
 5354TIP3    H216027   4.198   2.288   3.769  0.2847 -1.0234  0.8713
 5355TIP3   OH216028   3.826   5.840   5.716 -0.2010  0.4054 -0.3209
 5355TIP3    H116029   3.782   5.757   5.695  0.5701  0.3709 -1.9467
 5355TIP3    H216030   3.784   5.904   5.658 -1.7056  1.4910  1.8267
 5356TIP3   OH216031   4.138   3.593   4.387 -0.2738 -0.2689 -0.3704
 5356TIP3    H116032   4.149   3.509   4.430  0.8874 -1.2786 -2.5024
 5356TIP3    H216033   4.058   3.584   4.336 -0.8233  0.3952  0.3386
 5357TIP3   OH216034   3.443   3.888   4.963  0.1158  0.4510 -0.2548
 5357TIP3    H116035   3.510   3.951   4.940  0.5634 -0.4470 -1.5398
 5357TIP3    H216036   3.373   3.940   5.004  0.6850  1.6774 -0.8117
 5358TIP3   OH216037   0.457   0.851   0.861 -0.0736  0.3260  0.3104
 5358TIP3    H116038   0.436   0.895   0.943  1.5056  2.0711 -0.1545
 5358TIP3    H216039   0.508   0.915   0.811  0.1373 -1.1487 -1.4934
 5359TIP3   OH216040   4.697   5.165   4.591 -0.0562  0.7368  0.5383
 5359TIP3    H116041   4.637   5.091   4.588  2.1744 -1.1614  0.4468
 5359TIP3    H216042   4.711   5.188   4.499 -0.6023  1.1926  0.5604
 5360TIP3   OH216043   5.725   2.366   1.309  0.1171  0.5362 -0.0449
 5360TIP3    H116044   5.660   2.405   1.367 -0.4669 -1.1360  0.4937
 5360TIP3    H216045   5.679   2.350   1.227 -0.2557 -0.8538  0.4098
 5361TIP3   OH216046   4.887   6.441   1.398  0.5083 -0.1686  0.1670
 5361TIP3    H116047   4.973   6.399   1.403 -0.5981 -2.5844  0.0477
 5361TIP3    H216048   4.900   6.513   1.335  2.4194 -0.4729  0.1498
 5362TIP3   OH216049   6.761   3.290   0.553 -0.1311  0.1728  0.1380
 5362TIP3    H116050   6.686   3.351   0.556  0.7459  1.2584  1.6720
 5362TIP3    H216051   6.723   3.205   0.572 -1.3438  0.2402 -1.7095
 5363TIP3   OH216052   2.802   0.698   5.111 -0.4410  0.2727  0.1806
 5363TIP3    H116053   2.893   0.694   5.138 -0.6673 -2.1280  0.8491
 5363TIP3    H216054   2.765   0.770   5.162  0.6742  0.0726  1.3227
 5364TIP3   OH216055   5.557   5.622   4.574  0.5672 -0.3299 -0.3311
 5364TIP3    H116056   5.472   5.625   4.618 -0.1564 -1.2647 -1.5679
 5364TIP3    H216057   5.601   5.703   4.599 -1.0055  0.5427 -0.2572
 5365TIP3   OH216058   5.399   0.975   0.917 -0.1328  0.1879 -0.3131
 5365TIP3    H116059   5.311   0.941   0.930 -0.4979  1.2254 -0.0139
 5365TIP3    H216060   5.446   0.952   0.997 -0.0290 -0.6402 -0.6011
 5366TIP3   OH216061   0.170   3.485   2.393  0.3060 -0.3141 -0.2567
 5366TIP3    H116062   0.161   3.458   2.484 -0.6223 -2.4962 -0.9423
 5366TIP3    H216063   0.250   3.442   2.362  0.7831  0.6550 -0.4167
 5367TIP3   OH216064   3.534   1.818   5.037 -0.2554 -0.2116 -0.0162
 5367TIP3    H116065   3.457   1.875   5.048  0.2240  0.5482 -0.4465
 5367TIP3    H216066   3.579   1.855   4.961  1.2433  0.1853  1.0197
 5368TIP3   OH216067   4.882   2.496   0.514  0.4742 -0.3038 -0.1937
 5368TIP3    H116068   4.854   2.559   0.447  0.9942  1.1679  0.9200
 5368TIP3    H216069   4.977   2.499   0.511  0.5048 -0.9537 -0.0275
 5369TIP3   OH216070   6.390   1.227   2.194  0.3781  0.2378 -0.2203
 5369TIP3    H116071   6.383   1.155   2.257 -1.0661 -0.1737 -0.8088
 5369TIP3    H216072   6.352   1.302   2.240 -0.8434 -0.1056 -0.6320
 5370TIP3   OH216073   6.049   1.698   2.361  0.7314 -0.2260 -0.4076
 5370TIP3    H116074   6.123   1.671   2.416 -0.3315 -0.7850  0.7966
 5370TIP3    H216075   5.986   1.627   2.369  0.7524 -0.6172 -2.8693
 5371TIP3   OH216076   2.031   5.000   5.568 -0.3791 -0.6632  0.1551
 5371TIP3    H116077   2.008   4.987   5.476  0.2048  1.8844 -0.4255
 5371TIP3    H216078   2.122   5.029   5.566  0.2516 -2.3555  1.7319
 5372TIP3   OH216079   3.079   4.167   0.701  0.2919 -0.0413 -0.0339
 5372TIP3    H116080   3.090   4.237   0.636 -0.5412 -0.3510 -0.5160
 5372TIP3    H216081   3.048   4.213   0.780 -0.8923  0.0611 -0.5485
 5373TIP3   OH216082   5.857   1.512   2.371 -0.1709  0.2726  0.1118
 5373TIP3    H116083   5.880   1.428   2.411 -0.8347  0.0465  0.0385
 5373TIP3    H216084   5.812   1.487   2.290  2.0853  0.7136 -1.3683
 5374TIP3   OH216085   3.015   2.125   3.853  0.3413 -0.2514 -0.1716
 5374TIP3    H116086   2.991   2.143   3.763  1.9495  1.4293 -0.3241
 5374TIP3    H216087   3.048   2.035   3.851 -0.8803 -0.7050 -0.9570
 5375TIP3   OH216088   0.918   1.794   3.190  0.3807 -0.8909  0.8530
 5375TIP3    H116089   1.010   1.774   3.209  1.0065 -1.4415 -2.3034
 5375TIP3    H216090   0.903   1.879   3.230  3.3086  0.7858 -1.2734
 5376TIP3   OH216091   0.941   4.074   0.618  0.0528  0.2889 -0.1202
 5376TIP3    H116092   0.876   4.083   0.687  1.3783 -0.1014  1.2419
 5376TIP3    H216093   0.911   4.131   0.548 -1.1171  1.0287  0.9522
 5377TIP3   OH216094   3.004   0.577   3.751 -0.3807  0.1725 -0.3306
 5377TIP3    H116095   2.919   0.546   3.783 -0.4208  0.8711  0.2629
 5377TIP3    H216096   3.065   0.507   3.775 -0.5989  0.1977  0.3224
 5378TIP3   OH216097   4.264   0.591   2.301 -0.4365 -0.0185  0.0391
 5378TIP3    H116098   4.340   0.621   2.250 -1.3410  4.0050  0.7546
 5378TIP3    H216099   4.200   0.565   2.235  0.4807 -0.5560 -0.6587
 5379TIP3   OH216100   4.914   1.593   2.774  0.0042  0.1446  0.2534
 5379TIP3    H116101   5.008   1.592   2.755 -0.4839 -0.9406 -2.5674
 5379TIP3    H216102   4.889   1.685   2.767  0.6474  0.2905 -0.1770
 5380TIP3   OH216103   3.013   2.776   1.469  0.1994 -0.2226 -0.4409
 5380TIP3    H116104   3.072   2.832   1.518 -0.0636  0.1154 -0.5030
 5380TIP3    H216105   2.943   2.753   1.531  0.3908 -0.6214 -0.3665
 5381TIP3   OH216106   0.691   1.445   1.719 -0.0258  0.3695  0.1835
 5381TIP3    H116107   0.620   1.385   1.696 -0.1654 -0.6711  2.9175
 5381TIP3    H216108   0.766   1.388   1.736 -0.0982  0.8904  2.6253
 5382TIP3   OH216109   0.512   3.999   1.848 -0.2192  0.3255 -0.0050
 5382TIP3    H116110   0.472   3.976   1.932  0.5079  0.1059  0.2894
 5382TIP3    H216111   0.525   4.094   1.852 -2.6163  0.7650 -0.9548
 5383TIP3   OH216112   1.672   3.057   3.383  0.2014 -0.1444 -0.1790
 5383TIP3    H116113   1.640   3.057   3.473  2.5925 -0.2544  0.7523
 5383TIP3    H216114   1.693   2.966   3.364  2.3528  0.1980  0.2520
 5384TIP3   OH216115   1.025   1.665   3.448  0.7278  0.8158  0.2628
 5384TIP3    H116116   1.019   1.760   3.440 -1.3549  0.6110 -1.3321
 5384TIP3    H216117   0.937   1.637   3.473  1.1771 -0.7487  0.1765
 5385TIP3   OH216118   1.554   2.085   1.230 -0.0794 -0.0133  0.6568
 5385TIP3    H116119   1.502   2.020   1.182 -1.2766  1.3753  0.0226
 5385TIP3    H216120   1.614   2.032   1.284 -0.4221 -1.6262 -0.4740
 5386TIP3   OH216121   4.020   3.300   2.609 -0.4343 -0.3258 -0.3598
 5386TIP3    H116122   4.024   3.381   2.558  3.3935  0.1136  0.3872
 5386TIP3    H216123   3.972   3.239   2.553 -2.0837  1.9600 -1.5956
 5387TIP3   OH216124   5.702   1.158   2.705 -0.0169 -0.2753 -0.4305
 5387TIP3    H116125   5.755   1.211   2.764 -0.5360  0.1978 -0.3850
 5387TIP3    H216126   5.651   1.102   2.764 -1.6717  1.2573 -0.3282
 5388TIP3   OH216127   6.982   1.352   4.424 -0.5358 -0.3357  0.4523
 5388TIP3    H116128   6.987   1.444   4.398  0.3931 -0.3536  0.5078
 5388TIP3    H216129   7.003   1.304   4.344  2.3894 -0.3879  1.1348
 5389TIP3   OH216130   2.384   6.416   3.908 -0.5301 -0.2656  0.2494
 5389TIP3    H116131   2.311   6.436   3.850 -0.4808 -1.3886 -0.2085
 5389TIP3    H216132   2.371   6.325   3.933 -0.3505  0.0783  1.7268
 5390TIP3   OH216133   5.705   1.549   1.444 -0.0093 -0.1045 -0.0661
 5390TIP3    H116134   5.675   1.461   1.421  0.5586 -0.3716  0.1999
 5390TIP3    H216135   5.625   1.598   1.461 -0.3339 -0.5356 -0.3337
 5391TIP3   OH216136   1.405   0.031   4.490  0.0408  0.5569 -0.1031
 5391TIP3    H116137   1.454   0.101   4.533  2.1165 -0.6865 -0.3451
 5391TIP3    H216138   1.407   0.054   4.397 -1.1198  1.2272  0.0103
 5392TIP3   OH216139   5.230   3.006   2.181  0.3281  0.0860  0.2510
 5392TIP3    H116140   5.145   3.050   2.173 -0.0586 -0.5752  0.6152
 5392TIP3    H216141   5.295   3.076   2.167 -0.2710  0.4870 -0.5715
 5393TIP3   OH216142   1.830   5.973   3.248  0.0281  0.5501 -0.3195
 5393TIP3    H116143   1.876   6.057   3.249  0.6063  0.2729  1.4716
 5393TIP3    H216144   1.852   5.933   3.333  0.9523 -2.0407 -1.6575
 5394TIP3   OH216145   7.111   6.473   3.628 -0.2517 -0.1858  0.3255
 5394TIP3    H116146   7.020   6.443   3.623 -0.0650 -0.8121  0.6875
 5394TIP3    H216147   7.143   6.441   3.712  0.3459 -0.0736  0.1468
 5395TIP3   OH216148   5.955   4.851   0.205 -0.5440  0.2514  0.2419
 5395TIP3    H116149   5.998   4.889   0.282 -1.2869 -1.1500  1.3917
 5395TIP3    H216150   5.863   4.843   0.229 -0.7019 -0.7123 -0.5758
 5396TIP3   OH216151   3.499   2.691   2.535  0.0935 -0.0563 -0.1356
 5396TIP3    H116152   3.452   2.759   2.584  2.0743  0.5825  0.9792
 5396TIP3    H216153   3.502   2.724   2.446  0.1345  0.8280  0.1804
 5397TIP3   OH216154   0.368   3.844   1.670 -0.1996  0.4545 -0.2136
 5397TIP3    H116155   0.440   3.844   1.607  0.2678  0.8339  0.3091
 5397TIP3    H216156   0.410   3.861   1.755 -0.6495 -1.4154  0.4252
 5398TIP3   OH216157   7.122   5.931   5.595 -0.1680  0.9460 -0.1434
 5398TIP3    H116158   7.081   5.940   5.509  1.9500  2.3452 -1.0682
 5398TIP3    H216159   7.216   5.930   5.577  0.3050  0.4033  2.1022
 5399TIP3   OH216160   0.312   2.263   2.350 -0.0913  0.2867 -0.3909
 5399TIP3    H116161   0.326   2.343   2.300 -0.5146 -0.8753 -2.4686
 5399TIP3    H216162   0.294   2.196   2.284 -0.6423 -1.3471  1.3309
 5400TIP3   OH216163   1.600   6.701   4.511 -0.0382 -0.3443 -0.3415
 5400TIP3    H116164   1.660   6.662   4.448  0.1720 -0.6919  0.0751
 5400TIP3    H216165   1.656   6.729   4.583 -0.5257 -2.0463  0.7493
 5401TIP3   OH216166   6.801   6.701   3.197  0.4407  0.1052  0.7963
 5401TIP3    H116167   6.851   6.620   3.199  0.7892  0.1771 -1.5234
 5401TIP3    H216168   6.832   6.746   3.118 -0.4899  2.0130  1.4494
 5402TIP3   OH216169   5.108   4.838   4.994  0.1261 -0.1486  0.0786
 5402TIP3    H116170   5.046   4.877   5.056 -1.8866 -0.5987 -1.5288
 5402TIP3    H216171   5.176   4.799   5.049 -1.5504 -0.5389  2.0085
 5403TIP3   OH216172   2.510   1.213   4.739 -0.1381 -0.0067 -0.1025
 5403TIP3    H116173   2.547   1.128   4.763 -1.7505 -0.3923  1.2538
 5403TIP3    H216174   2.501   1.260   4.822  0.3750  1.3603 -0.7963
 5404TIP3   OH216175   1.564   4.949   4.958 -0.6980 -0.4461  0.0577
 5404TIP3    H116176   1.553   5.023   5.018 -1.1032 -1.7013  1.6027
 5404TIP3    H216177   1.478   4.937   4.918 -0.7655 -0.4138  0.1922
 5405TIP3   OH216178   5.455   5.598   3.209 -0.3790 -0.0012  0.4681
 5405TIP3    H116179   5.523   5.562   3.266  0.2116  1.2183  0.5517
 5405TIP3    H216180   5.477   5.565   3.122 -0.4621 -0.6939  0.6971
 5406TIP3   OH216181   4.028   2.183   0.763  0.5170 -0.4881 -0.2887
 5406TIP3    H116182   4.119   2.214   0.768 -0.1171  2.0048 -2.0236
 5406TIP3    H216183   3.998   2.211   0.677 -1.8634 -1.3929  0.1705
 5407TIP3   OH216184   1.521   4.978   3.770  0.1519  0.2348 -0.1312
 5407TIP3    H116185   1.428   4.954   3.772  0.2642 -0.2794 -0.6752
 5407TIP3    H216186   1.522   5.067   3.735 -0.1753  0.4580  0.4253
 5408TIP3   OH216187   4.610   4.548   1.593 -0.9174 -0.3852 -0.5609
 5408TIP3    H116188   4.697   4.587   1.602 -1.0834 -0.5046  2.8038
 5408TIP3    H216189   4.552   4.622   1.579 -0.4645 -0.1384 -1.1566
 5409TIP3   OH216190   4.831   5.174   2.471  0.0559 -0.4239 -0.6483
 5409TIP3    H116191   4.764   5.139   2.529 -0.2038  0.9073 -0.0943
 5409TIP3    H216192   4.782   5.224   2.406  0.5014  1.7054  0.5499
 5410TIP3   OH216193   1.166   4.129   2.784 -0.3129 -0.5150 -0.3128
 5410TIP3    H116194   1.126   4.055   2.829 -0.9213  0.4720  0.8313
 5410TIP3    H216195   1.095   4.192   2.773 -0.1745 -0.6811 -2.6591
 5411TIP3   OH216196   6.962   4.075   1.339 -0.3862  0.1021  0.0149
 5411TIP3    H116197   7.019   4.117   1.404 -0.5936 -0.3410  0.4963
 5411TIP3    H216198   6.887   4.134   1.331  0.3441  0.9332 -0.9812
 5412TIP3   OH216199   0.955   1.538   1.528  0.1748 -0.4456 -0.1056
 5412TIP3    H116200   0.931   1.575   1.613  0.0987  1.4582 -0.9037
 5412TIP3    H216201   0.881   1.559   1.471  1.0461  0.0113 -1.0983
 5413TIP3   OH216202   2.891   0.609   3.091 -0.1021  0.6111  0.1586
 5413TIP3    H116203   2.891   0.584   2.998  0.9637 -1.2356  0.6144
 5413TIP3    H216204   2.926   0.533   3.137  0.9541  2.0617  1.9224
 5414TIP3   OH216205   7.222   1.084   1.349  0.5488  0.2923  0.0307
 5414TIP3    H116206   7.154   1.042   1.297  1.5216 -1.1448 -0.1365
 5414TIP3    H216207   7.177   1.112   1.429 -0.6469  1.2479 -0.9329
 5415TIP3   OH216208   0.463   0.719   4.838  0.3840  0.2432 -0.1330
 5415TIP3    H116209   0.407   0.722   4.760 -0.3731  0.7395  0.4095
 5415TIP3    H216210   0.405   0.689   4.908  0.7369  0.9772  0.4924
 5416TIP3   OH216211   5.756   1.147   4.120  0.6987  0.0034  0.0292
 5416TIP3    H116212   5.843   1.137   4.157  0.6042 -2.0253 -0.1862
 5416TIP3    H216213   5.720   1.058   4.118 -1.8432  0.8933  1.2181
 5417TIP3   OH216214   1.145   4.776   2.009  0.4589 -0.5242 -0.1685
 5417TIP3    H116215   1.168   4.850   2.065  0.4598 -2.1699  2.1535
 5417TIP3    H216216   1.210   4.710   2.029 -0.7335 -1.8907 -0.6347
 5418TIP3   OH216217   2.473   5.788   5.419 -0.7107  0.1345 -0.3206
 5418TIP3    H116218   2.428   5.869   5.446  0.5106  0.7916 -0.1621
 5418TIP3    H216219   2.459   5.783   5.325 -0.2261  0.9157 -0.4444
 5419TIP3   OH216220   4.268   2.451   3.028 -0.1712  0.3308 -0.2668
 5419TIP3    H116221   4.182   2.426   2.997  0.5489 -0.4331 -1.7495
 5419TIP3    H216222   4.270   2.423   3.119 -1.3929  0.1386 -0.2834
 5420TIP3   OH216223   1.415   4.230   4.824 -0.3619 -0.1512 -0.3084
 5420TIP3    H116224   1.398   4.216   4.917 -1.7685  1.3529 -0.2941
 5420TIP3    H216225   1.475   4.305   4.821 -1.3558  0.6506 -0.6264
 5421TIP3   OH216226   3.371   0.138   3.884 -0.2068  0.1661  0.2182
 5421TIP3    H116227   3.405   0.111   3.798  0.1659  1.6395 -0.1224
 5421TIP3    H216228   3.435   0.202   3.916 -0.2169 -0.5273  1.7189
 5422TIP3   OH216229   5.512   3.645   4.939 -0.4828  0.0203 -0.2590
 5422TIP3    H116230   5.494   3.706   4.868  0.3000  1.2789  0.5924
 5422TIP3    H216231   5.431   3.594   4.948 -0.8601  0.3527 -1.5178
 5423TIP3   OH216232   1.501   3.157   4.284 -0.0152 -0.1429 -0.1992
 5423TIP3    H116233   1.421   3.196   4.319 -0.1263 -0.9622  0.4945
 5423TIP3    H216234   1.541   3.112   4.359  1.0295  0.1402 -0.5632
 5424TIP3   OH216235   3.866   2.491   1.946 -0.5115  0.3899  0.3416
 5424TIP3    H116236   3.846   2.485   1.852 -0.4460  2.7928  0.1030
 5424TIP3    H216237   3.785   2.524   1.986  0.2625  2.0256  0.6594
 5425TIP3   OH216238   2.848   0.200   3.537  0.1801  0.5288  0.2986
 5425TIP3    H116239   2.858   0.253   3.458  0.8324  1.2220  0.8251
 5425TIP3    H216240   2.858   0.262   3.609 -0.0284 -0.1527  0.9320
 5426TIP3   OH216241   6.349   4.374   2.744 -0.1082  0.3070 -0.6568
 5426TIP3    H116242   6.374   4.422   2.665 -1.8900  0.2491 -1.2864
 5426TIP3    H216243   6.293   4.435   2.793  0.0100 -0.0841 -0.0155
 5427TIP3   OH216244   1.507   6.651   1.398 -0.6889  0.6947  0.0023
 5427TIP3    H116245   1.439   6.676   1.335 -0.0481  0.6187 -0.7319
 5427TIP3    H216246   1.458   6.614   1.472 -1.4185 -0.6512 -1.0880
 5428TIP3   OH216247   4.119   1.673   5.584 -0.9362  0.0620 -0.3013
 5428TIP3    H116248   4.120   1.585   5.548  0.6723 -1.1592  2.4449
 5428TIP3    H216249   4.026   1.695   5.591 -1.4286 -1.9624  0.1501
 5429TIP3   OH216250   5.617   3.617   1.561  0.3666  0.1811 -0.3288
 5429TIP3    H116251   5.674   3.682   1.519  0.1299 -0.4067 -1.6280
 5429TIP3    H216252   5.596   3.655   1.646  0.3617  1.7279 -0.9863
 5430TIP3   OH216253   5.049   5.825   5.788 -0.0551 -0.2583 -0.2364
 5430TIP3    H116254   5.143   5.829   5.772 -0.0485 -0.4804 -0.2644
 5430TIP3    H216255   5.027   5.909   5.828  0.4148 -0.7403  1.1139
 5431TIP3   OH216256   3.620   0.002   0.413 -0.2151 -0.1443  0.3416
 5431TIP3    H116257   3.537   0.009   0.367  0.3013  0.6697 -0.5142
 5431TIP3    H216258   3.686  -0.003   0.344  0.6724  2.1843  0.8993
 5432TIP3   OH216259   5.473   6.782   3.666 -0.3002  0.4308  0.3045
 5432TIP3    H116260   5.538   6.749   3.604  0.3030  0.5385  0.8659
 5432TIP3    H216261   5.523   6.842   3.722 -1.0775  1.2134  0.1751
 5433TIP3   OH216262   1.395   1.968   4.684 -0.1216 -0.1625  0.2372
 5433TIP3    H116263   1.383   2.061   4.700 -0.6892  0.1322 -1.6372
 5433TIP3    H216264   1.444   1.936   4.760  0.6411  1.7856  0.6053
 5434TIP3   OH216265   2.477   2.277   1.094 -0.0152 -0.8321  0.5157
 5434TIP3    H116266   2.412   2.343   1.071  0.5712 -0.2188  0.5821
 5434TIP3    H216267   2.452   2.200   1.044 -0.3801 -0.3775 -0.0118
 5435TIP3   OH216268   3.606   4.976   0.448  0.0561 -0.4352 -0.2014
 5435TIP3    H116269   3.605   4.983   0.353  2.9111  2.3325 -0.1971
 5435TIP3    H216270   3.565   5.057   0.479 -1.5017 -1.6164  1.0202
 5436TIP3   OH216271   3.632   1.233   5.092  0.0616  0.0018 -0.5901
 5436TIP3    H116272   3.713   1.280   5.069  0.3479  0.0507  0.4913
 5436TIP3    H216273   3.632   1.157   5.034  1.2213 -0.3373 -0.1773
 5437TIP3   OH216274   2.766   2.061   2.963  0.2885 -0.4711  0.0729
 5437TIP3    H116275   2.677   2.088   2.937  0.5969  0.4027 -0.1344
 5437TIP3    H216276   2.822   2.131   2.928  0.8664  0.0144  1.8864
 5438TIP3   OH216277   3.765   2.905   3.312 -0.1851 -0.0737 -0.5888
 5438TIP3    H116278   3.811   2.862   3.240 -0.2304  0.6258 -1.0373
 5438TIP3    H216279   3.723   2.833   3.359 -0.6770 -0.4870 -1.6277
 5439TIP3   OH216280   4.352   1.659   5.345 -0.8118  0.2797 -0.0944
 5439TIP3    H116281   4.352   1.586   5.406  0.5240 -0.0134 -0.4157
 5439TIP3    H216282   4.328   1.735   5.398 -2.1556 -0.3660  0.2495
 5440TIP3   OH216283   7.119   0.265   2.601 -0.8649 -0.2113  0.0773
 5440TIP3    H116284   7.207   0.300   2.609 -0.8415 -0.1477 -0.4111
 5440TIP3    H216285   7.084   0.307   2.522 -1.5995  0.3387  0.6775
 5441TIP3   OH216286   6.489   1.869   3.770 -0.0328  0.2310 -0.0336
 5441TIP3    H116287   6.491   1.824   3.686 -1.1321 -1.2322  0.6822
 5441TIP3    H216288   6.580   1.895   3.786  0.5110 -1.1445 -0.8002
 5442TIP3   OH216289   5.516   5.469   5.556 -0.0873 -0.3883 -0.0125
 5442TIP3    H116290   5.539   5.379   5.580  1.2701 -0.0462  0.0490
 5442TIP3    H216291   5.494   5.464   5.463 -1.7911 -1.0772  0.3899
 5443TIP3   OH216292   1.311   6.770   0.682 -0.5282 -0.2484 -0.5376
 5443TIP3    H116293   1.295   6.754   0.589 -0.4336  0.4171 -0.6745
 5443TIP3    H216294   1.403   6.746   0.695 -0.3751  0.2124 -0.7492
 5444TIP3   OH216295   6.987   2.349   0.550  0.0214  0.2236 -0.8816
 5444TIP3    H116296   6.961   2.258   0.564  0.3378  0.2013 -0.3926
 5444TIP3    H216297   6.904   2.396   0.539 -0.3254  0.2913  1.4590
 5445TIP3   OH216298   5.547   6.470   3.228  1.2171  0.6175 -0.4673
 5445TIP3    H116299   5.580   6.441   3.143  1.0647  0.0676 -0.3486
 5445TIP3    H216300   5.501   6.552   3.210  0.0590 -0.1522 -1.1477
 5446TIP3   OH216301   0.470   0.151   1.557 -0.3031 -0.1162  0.2788
 5446TIP3    H116302   0.410   0.166   1.630  0.0756  2.0751  0.2301
 5446TIP3    H216303   0.414   0.140   1.481 -0.6720 -0.0589  0.5403
 5447TIP3   OH216304   5.063   0.681   4.905  0.2722  0.0760  0.2797
 5447TIP3    H116305   5.154   0.653   4.908  0.4871  0.4447 -1.6738
 5447TIP3    H216306   5.060   0.759   4.962  1.6610  1.2673 -1.1874
 5448TIP3   OH216307   4.672   3.773   5.782  0.0167  0.1981  0.0943
 5448TIP3    H116308   4.650   3.835   5.851  2.0014 -1.5516  2.4396
 5448TIP3    H216309   4.590   3.763   5.732 -0.6002  3.9523  0.0704
 5449TIP3   OH216310   0.244   4.175   3.329  0.4255  0.0935  0.1064
 5449TIP3    H116311   0.175   4.116   3.359 -0.5457  0.9982 -0.2826
 5449TIP3    H216312   0.282   4.131   3.254  2.2891 -1.7861  1.9951
 5450TIP3   OH216313   5.232   3.935   5.261 -0.1337  0.2291  0.2161
 5450TIP3    H116314   5.241   4.005   5.195 -0.9809  0.8030  0.6860
 5450TIP3    H216315   5.321   3.919   5.291  0.2149  0.2565 -0.7652
 5451TIP3   OH216316   5.432   2.117   1.895 -0.2343 -0.6276 -0.4905
 5451TIP3    H116317   5.440   2.059   1.820 -0.1699 -1.8791  0.4420
 5451TIP3    H216318   5.502   2.090   1.954 -0.3657  0.2341  0.0853
 5452TIP3   OH216319   1.294   4.963   4.054  0.5745  0.1930  0.1396
 5452TIP3    H116320   1.331   4.888   4.008  2.4368  1.2620 -0.2349
 5452TIP3    H216321   1.333   4.958   4.142  0.6134  0.6517  0.1500
 5453TIP3   OH216322   3.015   0.880   5.720  0.1713  0.4114 -0.3634
 5453TIP3    H116323   3.083   0.838   5.666 -2.2980 -0.8160 -2.7739
 5453TIP3    H216324   3.017   0.832   5.803  1.8110  0.0153 -0.5867
 5454TIP3   OH216325   1.946   5.745   5.455 -0.1958  0.6333  0.1799
 5454TIP3    H116326   1.924   5.652   5.463  1.6114  0.0411 -1.1081
 5454TIP3    H216327   1.976   5.771   5.542  0.3193 -0.2844  0.2874
 5455TIP3   OH216328   0.488   0.992   4.838 -0.4860  0.5570 -0.3453
 5455TIP3    H116329   0.430   1.035   4.775 -2.2261  0.6717  1.2496
 5455TIP3    H216330   0.472   0.898   4.825  0.3135  0.5058 -1.0808
 5456TIP3   OH216331   6.292   5.314   1.634  0.0083  0.5855  0.2784
 5456TIP3    H116332   6.324   5.358   1.555 -1.7991  0.2824 -0.6688
 5456TIP3    H216333   6.304   5.379   1.704  0.3790  1.3707 -0.4901
 5457TIP3   OH216334   5.295   1.584   3.063 -0.1663  0.0602 -0.6575
 5457TIP3    H116335   5.325   1.673   3.045  0.2237 -0.2456 -1.5998
 5457TIP3    H216336   5.295   1.541   2.977 -1.9712 -0.3651 -0.4834
 5458TIP3   OH216337  -0.005   3.108   3.215 -0.3414  0.6384 -0.0244
 5458TIP3    H116338  -0.025   3.065   3.298  0.3539  1.3081  0.5056
 5458TIP3    H216339   0.060   3.051   3.174 -1.5185 -0.2834 -0.6413
 5459TIP3   OH216340   3.712   4.283   5.214  0.1480  0.3534 -0.1713
 5459TIP3    H116341   3.632   4.301   5.164 -0.3569 -1.1168  0.0453
 5459TIP3    H216342   3.782   4.321   5.162 -0.5801  0.6648 -0.9501
 5460TIP3   OH216343   4.273   4.715   4.903  0.2446  0.4152 -0.0523
 5460TIP3    H116344   4.353   4.668   4.925 -0.3113 -1.3322 -1.5243
 5460TIP3    H216345   4.293   4.807   4.923  1.2903 -0.3794  3.1661
 5461TIP3   OH216346   0.957   5.176   3.752  0.0271 -0.1672  0.0051
 5461TIP3    H116347   0.998   5.244   3.700 -1.3882  0.2080 -0.6600
 5461TIP3    H216348   0.943   5.103   3.691 -1.6292  0.2708 -0.1732
 5462TIP3   OH216349   5.493   2.128   0.644 -0.0683 -0.1189  0.1537
 5462TIP3    H116350   5.584   2.116   0.672 -0.3639 -2.2853  0.3770
 5462TIP3    H216351   5.480   2.061   0.576 -1.4811  0.2026  0.0787
 5463TIP3   OH216352   1.022   1.516   2.013  0.1023 -0.0151  0.7584
 5463TIP3    H116353   1.067   1.587   2.059  0.7554 -0.0739  0.2269
 5463TIP3    H216354   1.086   1.445   2.010  0.8835  0.6874 -2.0324
 5464TIP3   OH216355   1.268   6.614   4.408  0.9489  0.0904  0.2240
 5464TIP3    H116356   1.237   6.667   4.335  0.4361  0.6474  0.8369
 5464TIP3    H216357   1.351   6.655   4.433 -0.6550  2.3414  2.3940
 5465TIP3   OH216358   2.509   0.466   1.607  0.4399 -0.4261  0.6014
 5465TIP3    H116359   2.503   0.469   1.511  1.6119 -0.6797  0.4973
 5465TIP3    H216360   2.586   0.411   1.624  0.3189 -0.2828  1.6915
 5466TIP3   OH216361   7.193   0.598   4.265 -0.0910  0.1728 -0.2331
 5466TIP3    H116362   7.241   0.519   4.288 -0.3476  0.1023  0.0583
 5466TIP3    H216363   7.103   0.568   4.249 -0.7845  0.7244  2.2427
 5467TIP3   OH216364   5.709   6.767   3.863  0.1928  0.3443 -0.3674
 5467TIP3    H116365   5.724   6.809   3.947 -1.5063  0.1137  0.0819
 5467TIP3    H216366   5.706   6.674   3.883  0.2041  0.2583 -0.7592
 5468TIP3   OH216367   0.057   1.037   0.849  0.1214 -0.0188  0.0093
 5468TIP3    H116368  -0.033   1.071   0.848  0.2202  0.2879  0.7370
 5468TIP3    H216369   0.089   1.058   0.937  1.4362  1.2793 -0.7290
 5469TIP3   OH216370   6.331   3.535   2.790 -0.1451 -0.1888  0.2368
 5469TIP3    H116371   6.296   3.503   2.707  0.6561  2.9974 -1.4868
 5469TIP3    H216372   6.426   3.539   2.777 -0.0687  1.0604  1.0409
 5470TIP3   OH216373   6.593   3.714   5.023  0.2976  0.1799 -0.3180
 5470TIP3    H116374   6.629   3.743   5.106 -0.0115 -1.2784  0.3679
 5470TIP3    H216375   6.500   3.736   5.028  0.7168  2.5317 -1.4440
 5471TIP3   OH216376   6.653   3.123   0.196 -0.0098  0.0059  0.2829
 5471TIP3    H116377   6.680   3.126   0.289 -0.3230 -1.5141  0.4450
 5471TIP3    H216378   6.577   3.065   0.195 -0.7949  1.0144 -0.7730
 5472TIP3   OH216379   0.211   1.307   0.137  0.1610 -0.6174  0.3143
 5472TIP3    H116380   0.185   1.388   0.092 -1.6338  0.2839  2.7615
 5472TIP3    H216381   0.131   1.276   0.179  1.1287 -2.9680  0.5537
 5473TIP3   OH216382   2.079   2.811   4.280 -0.2391  0.1942 -1.0967
 5473TIP3    H116383   2.123   2.727   4.289 -1.0330 -0.3119 -1.8460
 5473TIP3    H216384   2.022   2.801   4.204  1.1592  2.0723 -2.4979
 5474TIP3   OH216385   5.377   6.155   1.291  0.2945  0.4937 -0.1385
 5474TIP3    H116386   5.407   6.064   1.284 -0.7336  0.0926  0.3800
 5474TIP3    H216387   5.446   6.199   1.340 -0.1171 -0.4910  1.3839
 5475TIP3   OH216388   2.404   1.148   0.382 -0.0298 -0.0700  0.3430
 5475TIP3    H116389   2.317   1.108   0.374 -1.2968  2.7098 -1.2996
 5475TIP3    H216390   2.449   1.124   0.301  1.0746 -1.9763  1.4300
 5476TIP3   OH216391   5.030   1.989   1.770  0.1022 -0.5246  0.3629
 5476TIP3    H116392   5.042   2.020   1.860  0.1442  2.5246 -0.6004
 5476TIP3    H216393   5.042   2.067   1.716  1.6641 -2.5569 -2.4509
 5477TIP3   OH216394   2.805   3.088   0.115  0.3754 -0.3697  0.4008
 5477TIP3    H116395   2.836   3.075   0.025 -0.0647 -1.1540  0.3462
 5477TIP3    H216396   2.823   3.180   0.134 -0.5727  0.1183 -0.9071
 5478TIP3   OH216397   1.530   4.503   1.446 -0.2797 -0.3098  0.6124
 5478TIP3    H116398   1.519   4.578   1.388 -0.6706 -0.3640  0.6169
 5478TIP3    H216399   1.557   4.542   1.530  1.9817 -0.3285 -0.0316
 5479TIP3   OH216400   6.686   1.444   4.767 -0.4957  0.3375 -0.0524
 5479TIP3    H116401   6.675   1.396   4.686  0.7217  0.6811 -0.4412
 5479TIP3    H216402   6.598   1.454   4.802 -0.8334 -1.6774 -0.2380
 5480TIP3   OH216403   6.174   4.109   3.207  0.1117  0.4136  0.6525
 5480TIP3    H116404   6.215   4.065   3.133 -1.2312  0.6549 -0.2743
 5480TIP3    H216405   6.211   4.197   3.207 -0.3480  0.6203 -0.1581
 5481TIP3   OH216406   4.143   4.322   1.798  0.0046  0.2723  0.7976
 5481TIP3    H116407   4.126   4.331   1.891 -3.1165  1.0861  0.2855
 5481TIP3    H216408   4.123   4.231   1.778  1.2310 -0.0488  0.9916
 5482TIP3   OH216409   4.524   5.173   1.663 -0.3303 -0.5081 -0.2148
 5482TIP3    H116410   4.599   5.175   1.722  1.3608  1.7720 -2.2232
 5482TIP3    H216411   4.468   5.245   1.691 -0.0867 -0.1369 -0.6539
 5483TIP3   OH216412   2.167   4.644   1.697  0.3960  0.2142 -0.5314
 5483TIP3    H116413   2.231   4.692   1.644 -0.9381  1.7525 -0.8391
 5483TIP3    H216414   2.131   4.579   1.637  1.2607 -0.3043 -0.5093
 5484TIP3   OH216415   6.577   1.393   0.727  0.0250 -0.5404 -0.3904
 5484TIP3    H116416   6.623   1.321   0.769  0.4210  0.5530  1.1308
 5484TIP3    H216417   6.508   1.351   0.676 -0.5399 -1.9546  1.4339
 5485TIP3   OH216418   6.689   4.966   5.387  0.1625  0.3140 -0.3482
 5485TIP3    H116419   6.682   4.879   5.347 -3.5056  0.7996 -1.0794
 5485TIP3    H216420   6.737   5.018   5.323 -0.2869 -0.4229 -1.3095
 5486TIP3   OH216421   0.152   3.266   1.971 -0.0236  0.2925 -0.1208
 5486TIP3    H116422   0.218   3.293   2.035  0.3249  2.1543 -1.1753
 5486TIP3    H216423   0.202   3.222   1.902 -0.1732 -0.2372  0.1107
 5487TIP3   OH216424   1.899   2.840   4.486  0.0846  0.2642 -0.2161
 5487TIP3    H116425   1.852   2.756   4.487 -0.0862  0.3381 -1.2841
 5487TIP3    H216426   1.989   2.817   4.465  0.1034  0.3166 -0.1924
 5488TIP3   OH216427   2.828   6.173   2.761 -0.0162 -0.4469 -0.0775
 5488TIP3    H116428   2.871   6.144   2.842 -1.0321  0.1694  0.7089
 5488TIP3    H216429   2.765   6.239   2.790  2.0865  2.5083 -1.7482
 5489TIP3   OH216430   4.436   0.677   1.194  0.3510  0.3371  0.0970
 5489TIP3    H116431   4.525   0.643   1.193  0.3609  0.0909  2.6414
 5489TIP3    H216432   4.382   0.608   1.155  1.1734  0.1845 -0.7799
 5490TIP3   OH216433   0.761   4.373   1.962  0.3199 -0.1885 -0.1415
 5490TIP3    H116434   0.840   4.326   1.990 -0.0913 -0.6800  0.2194
 5490TIP3    H216435   0.745   4.436   2.032  0.3402 -0.1536 -0.1686
 5491TIP3   OH216436   3.988   0.634   1.073  0.5865 -0.1461 -0.0159
 5491TIP3    H116437   4.033   0.586   1.003  0.2565 -0.5910  0.0718
 5491TIP3    H216438   4.043   0.622   1.150  0.8575  0.1937 -0.1511
 5492TIP3   OH216439   0.596   1.469   4.970 -0.5610  0.0188 -0.3026
 5492TIP3    H116440   0.596   1.505   4.881 -0.6402  0.3303 -0.1795
 5492TIP3    H216441   0.529   1.400   4.968 -0.0246 -0.4970 -0.6871
 5493TIP3   OH216442   0.069   0.944   3.940 -0.4695 -0.0211 -0.4344
 5493TIP3    H116443   0.028   1.010   3.885 -0.5801  0.2659 -0.0119
 5493TIP3    H216444   0.062   0.863   3.889  0.2856  0.4160 -1.2422
 5494TIP3   OH216445   0.511   2.852   0.111 -0.0370  0.5020  0.1904
 5494TIP3    H116446   0.448   2.846   0.040  0.6614  0.9543 -0.4849
 5494TIP3    H216447   0.483   2.928   0.162  1.0893  1.9437 -1.2646
 5495TIP3   OH216448   6.329   0.555   3.739  0.4530 -0.0562  0.3022
 5495TIP3    H116449   6.418   0.525   3.757  0.7818  0.8193  0.1805
 5495TIP3    H216450   6.307   0.610   3.814  0.3180  0.3715 -0.0483
 5496TIP3   OH216451   2.065   3.594   2.578  0.0630  0.1574 -0.4237
 5496TIP3    H116452   2.002   3.661   2.550  0.2804 -0.8030 -3.6284
 5496TIP3    H216453   2.048   3.520   2.520  3.0569 -0.7237 -0.3460
 5497TIP3   OH216454   5.263   3.024   5.548 -0.2014 -0.2702  0.5741
 5497TIP3    H116455   5.269   3.034   5.453 -0.9589  1.8131  0.6903
 5497TIP3    H216456   5.195   2.958   5.561 -1.1108  0.4580 -0.3445
 5498TIP3   OH216457   3.968   6.035   3.447  0.7647  0.3798 -0.3798
 5498TIP3    H116458   3.909   6.016   3.519 -0.8987  1.0963 -1.4890
 5498TIP3    H216459   4.013   6.116   3.472  0.2494  0.5870 -0.1146
 5499TIP3   OH216460   5.062   3.913   3.521 -0.0184 -0.4317 -0.0261
 5499TIP3    H116461   5.011   3.832   3.517 -0.9672  0.1528 -0.2605
 5499TIP3    H216462   5.151   3.887   3.501 -0.1900 -1.5192  0.5638
 5500TIP3   OH216463   3.233   1.105   0.579  0.1513  0.2112  0.7435
 5500TIP3    H116464   3.307   1.124   0.521 -2.2527  0.6641 -2.4410
 5500TIP3    H216465   3.251   1.156   0.658  2.3645  1.6994 -0.5948
 5501TIP3   OH216466   1.563   1.092   4.743 -0.3608  0.0432  0.2484
 5501TIP3    H116467   1.468   1.079   4.745 -0.1106 -2.1928 -0.0318
 5501TIP3    H216468   1.599   1.004   4.733  1.6818  1.0718 -2.5338
 5502TIP3   OH216469   5.834   4.087   5.568 -0.3976  0.0886 -0.4844
 5502TIP3    H116470   5.744   4.056   5.557 -0.0933 -0.7860 -0.6035
 5502TIP3    H216471   5.876   4.019   5.621  0.2369  0.4082 -0.5670
 5503TIP3   OH216472   4.000   4.330   5.534  0.5860 -0.5624  0.5671
 5503TIP3    H116473   3.928   4.274   5.506 -0.1246  1.2371 -1.5267
 5503TIP3    H216474   3.979   4.354   5.624 -0.7547 -1.1039  0.4243
 5504TIP3   OH216475   1.439   0.118   5.089  0.4145 -0.0930  0.4574
 5504TIP3    H116476   1.458   0.177   5.016  0.1881 -0.9221 -0.2984
 5504TIP3    H216477   1.452   0.030   5.052  1.6183 -0.5108  1.7955
 5505TIP3   OH216478   3.042   0.377   1.143 -0.1001 -0.2124 -0.7245
 5505TIP3    H116479   3.048   0.289   1.179 -0.6516 -0.0406 -0.1963
 5505TIP3    H216480   3.123   0.388   1.093  1.8833  0.3391  2.3320
 5506TIP3   OH216481   5.676   4.975   5.821 -0.8237 -0.6154 -0.2058
 5506TIP3    H116482   5.604   4.923   5.785 -0.6967 -1.2208  0.3935
 5506TIP3    H216483   5.745   4.912   5.838 -0.3573 -0.1182 -0.2386
 5507TIP3   OH216484   0.298   4.274   4.284 -0.1773  0.1647 -0.4946
 5507TIP3    H116485   0.311   4.323   4.203 -0.9492 -0.2492 -0.8777
 5507TIP3    H216486   0.225   4.319   4.328 -1.6702 -1.2792 -1.3949
 5508TIP3   OH216487   0.738   3.710   4.069  0.3774 -0.1555  0.2708
 5508TIP3    H116488   0.671   3.735   4.133  1.8686  0.0489  1.8238
 5508TIP3    H216489   0.711   3.623   4.040 -0.6539 -0.0082  0.7260
 5509TIP3   OH216490   2.546   6.485   0.978  0.0803 -0.1270 -0.0085
 5509TIP3    H116491   2.531   6.435   0.898  1.5788 -1.3031  0.3941
 5509TIP3    H216492   2.620   6.541   0.957 -0.2858  0.4372  0.1891
 5510TIP3   OH216493   5.269   0.198   2.892 -0.5168  0.6369 -0.0035
 5510TIP3    H116494   5.313   0.256   2.830  1.3300 -0.5490  0.1532
 5510TIP3    H216495   5.220   0.137   2.836  0.0832  0.3830 -0.2539
 5511TIP3   OH216496   4.194   5.466   3.218 -0.8107 -0.3358  0.0559
 5511TIP3    H116497   4.203   5.504   3.306 -0.6984  1.8385 -0.8329
 5511TIP3    H216498   4.117   5.410   3.224 -0.9898  0.0090  1.4645
 5512TIP3   OH216499   1.416   6.443   3.379  0.2570 -0.0644 -0.2383
 5512TIP3    H116500   1.419   6.362   3.330 -0.6659 -0.2192 -0.0577
 5512TIP3    H216501   1.325   6.472   3.373  0.9817  2.1033 -2.1375
 5513TIP3   OH216502   6.114   3.073   3.847  0.2555  0.4137  0.2222
 5513TIP3    H116503   6.129   2.986   3.883 -3.0301 -0.7253 -0.7719
 5513TIP3    H216504   6.123   3.061   3.752  0.0260  1.2380  0.0906
 5514TIP3   OH216505   6.064   3.441   5.550 -0.4852 -0.3349  0.8092
 5514TIP3    H116506   5.986   3.478   5.592 -0.5314  1.9381 -1.0569
 5514TIP3    H216507   6.030   3.368   5.497 -1.5172  1.0422 -0.4975
 5515TIP3   OH216508   1.848   5.918   2.100  0.2816 -0.2410 -0.1158
 5515TIP3    H116509   1.899   5.891   2.176 -0.7138 -0.5192  0.4751
 5515TIP3    H216510   1.913   5.933   2.031  1.0410 -1.9744  0.1841
 5516TIP3   OH216511   1.407   4.235   0.709  0.1298 -0.6827  0.7350
 5516TIP3    H116512   1.342   4.171   0.737  0.7954 -0.4127  3.0900
 5516TIP3    H216513   1.356   4.312   0.684 -0.5218 -0.9547  1.2048
 5517TIP3   OH216514   3.689   1.730   0.045  0.1209 -0.0707  0.1627
 5517TIP3    H116515   3.749   1.725  -0.030  1.6229 -0.3250  1.3360
 5517TIP3    H216516   3.643   1.813   0.032  0.6602  0.0951 -0.8293
 5518TIP3   OH216517   0.920   2.160   2.078  0.2074 -0.1414 -0.0145
 5518TIP3    H116518   0.915   2.124   1.990 -2.4057  0.1414 -0.0660
 5518TIP3    H216519   0.922   2.083   2.135  1.3292 -0.3257 -0.2886
 5519TIP3   OH216520   6.642   1.372   5.313  0.5500 -0.7980  0.1766
 5519TIP3    H116521   6.555   1.337   5.296  0.1362  0.1302  0.3237
 5519TIP3    H216522   6.660   1.431   5.239  0.3039  0.3657  1.0124
 5520TIP3   OH216523   7.008   1.283   3.147 -0.4319  0.2696  0.1527
 5520TIP3    H116524   7.092   1.325   3.129  0.1102 -0.3618  1.1682
 5520TIP3    H216525   6.981   1.246   3.063  1.1123 -0.9564  0.1627
 5521TIP3   OH216526   3.794   2.714   0.400  0.0237 -0.4378 -0.4750
 5521TIP3    H116527   3.851   2.758   0.464  1.0658 -0.1658 -1.5579
 5521TIP3    H216528   3.728   2.778   0.378 -0.5120 -0.6252  0.5180
 5522TIP3   OH216529   5.171   5.258   5.348  0.0707 -0.6641  0.4685
 5522TIP3    H116530   5.187   5.187   5.410  0.6378 -0.9628 -0.0070
 5522TIP3    H216531   5.112   5.317   5.394 -1.0940 -1.8582  0.5839
 5523TIP3   OH216532   0.733   1.098   3.783 -0.1633  0.2292 -0.1055
 5523TIP3    H116533   0.755   1.189   3.803  2.2149 -0.2345 -0.3220
 5523TIP3    H216534   0.723   1.096   3.688  1.3449  0.0137 -0.2867
 5524TIP3   OH216535   4.094   4.918   0.125 -0.3773 -0.4676 -1.1686
 5524TIP3    H116536   4.071   4.869   0.204  0.0732 -0.8379 -1.2637
 5524TIP3    H216537   4.030   4.989   0.122  0.3849  0.3178  0.2338
 5525TIP3   OH216538   1.878   1.269   5.569 -0.0736 -1.0173  0.1755
 5525TIP3    H116539   1.915   1.217   5.498  0.7474 -0.0381 -0.1262
 5525TIP3    H216540   1.951   1.321   5.602 -1.1294  0.8859 -0.3624
 5526TIP3   OH216541   5.415   3.808   0.404 -0.0001  0.4018 -0.5448
 5526TIP3    H116542   5.344   3.788   0.466  0.0945 -0.0742 -0.5817
 5526TIP3    H216543   5.442   3.897   0.426  0.4990 -0.0061  0.5685
 5527TIP3   OH216544   4.426   1.227   4.505  0.5891  0.3840 -0.2041
 5527TIP3    H116545   4.408   1.142   4.464 -0.7893 -1.4840  3.7709
 5527TIP3    H216546   4.520   1.240   4.492  1.3236 -2.9248  0.8030
 5528TIP3   OH216547   3.564   6.769   0.654  0.1143 -0.1345 -0.1322
 5528TIP3    H116548   3.486   6.750   0.707  0.4279 -0.4066  0.2385
 5528TIP3    H216549   3.530   6.814   0.577 -0.4061 -0.2046  0.0507
 5529TIP3   OH216550   1.145   3.133   4.801 -0.2508  0.1798 -0.2167
 5529TIP3    H116551   1.159   3.226   4.817 -0.6681  0.6970 -2.4989
 5529TIP3    H216552   1.232   3.100   4.777 -0.4029  0.4341 -1.2022
 5530TIP3   OH216553   6.137   3.491   3.950  0.1002 -0.1325  0.4505
 5530TIP3    H116554   6.054   3.457   3.982  0.3146 -1.1937 -0.0790
 5530TIP3    H216555   6.199   3.477   4.022  0.4597 -2.0210 -0.1727
 5531TIP3   OH216556   6.201   1.223   2.942  0.2984 -0.1806 -0.3471
 5531TIP3    H116557   6.190   1.263   3.028  0.2049 -0.6902 -0.1148
 5531TIP3    H216558   6.112   1.196   2.917  0.0741  1.3337 -1.2965
 5532TIP3   OH216559   4.325   1.319   2.068  0.9178 -0.1157  0.1003
 5532TIP3    H116560   4.277   1.240   2.042  0.8746 -0.7998  2.1414
 5532TIP3    H216561   4.280   1.350   2.146  1.0435  1.8652 -0.5673
 5533TIP3   OH216562   1.329   1.288   3.495  0.4148 -0.2892  0.0067
 5533TIP3    H116563   1.326   1.244   3.410 -3.1512 -3.2979  1.4250
 5533TIP3    H216564   1.252   1.346   3.494  0.5243 -0.1083  1.0695
 5534TIP3   OH216565   4.345   1.847   0.358 -0.2098 -0.2110 -0.5533
 5534TIP3    H116566   4.405   1.779   0.327  0.1907  0.4216 -1.2134
 5534TIP3    H216567   4.393   1.891   0.429  0.5181  0.8872 -1.6849
 5535TIP3   OH216568   1.761   0.350   1.006  0.4311  0.2071 -0.3378
 5535TIP3    H116569   1.826   0.341   0.937 -0.1198  1.2979 -1.0271
 5535TIP3    H216570   1.728   0.439   0.997  1.9473  1.2258  2.7879
 5536TIP3   OH216571   0.587   4.299   3.771  0.1641  0.1232 -0.3939
 5536TIP3    H116572   0.613   4.209   3.793  1.1213  0.4212 -0.3029
 5536TIP3    H216573   0.503   4.288   3.726 -0.3414 -0.7296  0.6717
 5537TIP3   OH216574   6.771   0.102   5.159  0.5178  0.8327 -0.0470
 5537TIP3    H116575   6.795   0.047   5.085 -0.2293  0.7315 -0.2227
 5537TIP3    H216576   6.685   0.069   5.187  0.5215  1.2536  0.4843
 5538TIP3   OH216577   1.104   1.988   3.870  0.3644 -0.4057  0.6074
 5538TIP3    H116578   1.075   1.919   3.930  1.3011 -0.8676  0.5510
 5538TIP3    H216579   1.112   1.944   3.785 -1.2485  0.3140  0.0467
 5539TIP3   OH216580   2.131   6.743   4.997  0.1753  0.2088  0.4065
 5539TIP3    H116581   2.081   6.735   4.916  1.1133 -2.4609 -0.0360
 5539TIP3    H216582   2.094   6.818   5.042 -0.0732  2.0959 -2.6933
 5540TIP3   OH216583   4.631   6.709   2.591 -0.7052 -0.2843 -0.6684
 5540TIP3    H116584   4.665   6.651   2.523 -2.5201 -1.9234 -0.2420
 5540TIP3    H216585   4.700   6.711   2.657  0.5740  0.3864 -1.9577
 5541TIP3   OH216586   3.862   4.865   0.540 -0.0560  0.2319  0.3047
 5541TIP3    H116587   3.913   4.919   0.601 -0.4986  1.9707 -0.8007
 5541TIP3    H216588   3.796   4.924   0.505 -0.5632 -1.0464 -0.9810
 5542TIP3   OH216589   1.546   3.762   3.128 -0.2164  0.0494 -0.9430
 5542TIP3    H116590   1.551   3.804   3.042  0.2989 -0.4279 -1.1469
 5542TIP3    H216591   1.593   3.679   3.118 -0.2949 -0.0882 -0.2454
 5543TIP3   OH216592   0.661   5.817   2.074  0.5149  0.1033  0.4708
 5543TIP3    H116593   0.637   5.900   2.116  0.9326  0.1470  0.6262
 5543TIP3    H216594   0.712   5.843   1.998  1.4612 -0.0292  1.0398
 5544TIP3   OH216595   0.688   2.102   2.984  0.0497  0.2401 -0.1568
 5544TIP3    H116596   0.781   2.082   2.986 -0.1775 -1.4058 -2.3368
 5544TIP3    H216597   0.645   2.018   3.003 -1.0342  0.9827  0.8518
 5545TIP3   OH216598   0.775   2.741   0.131  0.2240  0.3912 -0.3620
 5545TIP3    H116599   0.712   2.683   0.087  0.1875  0.4424 -0.3773
 5545TIP3    H216600   0.729   2.825   0.138 -0.7819 -0.2674  2.0505
 5546TIP3   OH216601   4.667   6.009   0.411 -0.2860 -0.3882  0.7160
 5546TIP3    H116602   4.608   6.080   0.383  0.0285  0.0604  1.1764
 5546TIP3    H216603   4.609   5.945   0.452 -0.2975  0.8724  2.8336
 5547TIP3   OH216604   2.090   1.917   3.645  0.7899  0.2184 -0.5568
 5547TIP3    H116605   2.131   2.002   3.661  2.7479 -1.1545  2.8096
 5547TIP3    H216606   2.002   1.925   3.682  1.1816  0.6099  0.3055
 5548TIP3   OH216607   1.892   0.474   1.582 -0.3263  0.7022  0.6547
 5548TIP3    H116608   1.955   0.534   1.542  0.8146 -0.8623 -0.0266
 5548TIP3    H216609   1.825   0.531   1.619  0.7267  2.3838  0.1169
 5549TIP3   OH216610   5.325   3.819   2.974 -0.0497 -0.2200 -0.4025
 5549TIP3    H116611   5.365   3.905   2.986  0.1945 -0.3016 -0.6109
 5549TIP3    H216612   5.357   3.789   2.889 -1.7106  0.3172 -1.2384
 5550TIP3   OH216613   5.707   5.796   5.694  0.2666 -0.3768  0.1035
 5550TIP3    H116614   5.752   5.868   5.650  0.4210 -0.5912 -0.0892
 5550TIP3    H216615   5.631   5.778   5.639 -0.1988  0.1510  0.5595
 5551TIP3   OH216616   0.476   1.614   2.510  0.1221  0.0391 -0.0228
 5551TIP3    H116617   0.491   1.672   2.435 -0.3558 -2.4187 -2.1522
 5551TIP3    H216618   0.537   1.541   2.497 -0.2193 -0.6326  1.8125
 5552TIP3   OH216619   5.082   0.789   0.141  0.6245  0.4297  0.0419
 5552TIP3    H116620   5.138   0.746   0.205  0.0427  1.4651  1.2857
 5552TIP3    H216621   5.134   0.790   0.061  0.6666 -2.5726 -0.0997
 5553TIP3   OH216622   0.242   2.680   4.220 -0.3741  0.1469  0.2317
 5553TIP3    H116623   0.283   2.693   4.305 -0.4305  2.6239 -0.0329
 5553TIP3    H216624   0.285   2.603   4.183  3.0561  1.7215  0.5716
 5554TIP3   OH216625   2.631   0.898   1.666 -0.1391  0.5296  0.2103
 5554TIP3    H116626   2.649   0.829   1.602 -1.5949  2.3882 -2.3839
 5554TIP3    H216627   2.538   0.886   1.688  0.2190  0.2236  1.6459
 5555TIP3   OH216628   2.601   0.750   0.681 -0.4776 -0.3786 -0.3950
 5555TIP3    H116629   2.694   0.734   0.665  0.3793  0.6292  2.7366
 5555TIP3    H216630   2.585   0.837   0.647 -0.2535 -0.5109 -0.8438
 5556TIP3   OH216631   2.900   4.880   0.830  0.1976  0.3244  0.1612
 5556TIP3    H116632   2.918   4.924   0.747 -1.8441  0.4299 -0.2650
 5556TIP3    H216633   2.888   4.788   0.806  0.2578  0.2430  0.4407
 5557TIP3   OH216634   5.449   1.465   2.366  0.0114 -0.1740  0.4169
 5557TIP3    H116635   5.369   1.421   2.339  1.2101 -0.6644 -2.7880
 5557TIP3    H216636   5.491   1.403   2.426 -1.1151 -0.7239  0.6623
 5558TIP3   OH216637   5.934   0.022   0.028  0.5717 -0.0436 -0.0846
 5558TIP3    H116638   5.903   0.107   0.058  0.9280  0.5364 -1.3229
 5558TIP3    H216639   5.885  -0.041   0.082  0.6523  0.9233  1.1763
 5559TIP3   OH216640   5.304   4.679   5.182  0.5185  0.2704 -0.4668
 5559TIP3    H116641   5.382   4.724   5.215 -0.1671  1.0795  0.1005
 5559TIP3    H216642   5.259   4.649   5.261  0.2773 -0.2234 -0.7911
 5560TIP3   OH216643   0.182   0.517   0.146  0.4529  0.1428  0.3498
 5560TIP3    H116644   0.165   0.523   0.240 -0.6836 -0.9334  0.2358
 5560TIP3    H216645   0.095   0.512   0.106  0.9256  0.4429 -0.7516
 5561TIP3   OH216646   5.165   1.886   3.307 -0.6871 -0.0953 -0.3929
 5561TIP3    H116647   5.255   1.859   3.286 -1.2834 -2.5120 -0.2136
 5561TIP3    H216648   5.110   1.830   3.250 -2.0922  2.1790 -1.4105
 5562TIP3   OH216649   7.144   5.340   5.785  0.4092  0.0906 -0.2492
 5562TIP3    H116650   7.149   5.436   5.785  0.1516  0.1545  2.1468
 5562TIP3    H216651   7.052   5.322   5.765  0.2098  0.3836  0.3880
 5563TIP3   OH216652   3.106   1.586   2.482  0.4158  0.1425  0.0091
 5563TIP3    H116653   3.029   1.574   2.426  0.6848 -1.0816 -0.1261
 5563TIP3    H216654   3.179   1.594   2.421  0.4815  0.6956  0.1531
 5564TIP3   OH216655   0.699   2.105   5.792 -0.3112 -0.1199 -0.3078
 5564TIP3    H116656   0.773   2.067   5.840 -2.2663 -1.4339  1.8306
 5564TIP3    H216657   0.706   2.067   5.704  1.0278 -0.9297  0.1191
 5565TIP3   OH216658   7.119   5.834   2.980 -0.2427 -0.3355  0.4352
 5565TIP3    H116659   7.190   5.880   2.937 -0.5955 -0.9935 -0.9127
 5565TIP3    H216660   7.080   5.781   2.911 -1.6700 -0.4332  1.2791
 5566TIP3   OH216661   1.018   5.305   3.367  0.5316  0.1158 -0.1824
 5566TIP3    H116662   1.018   5.223   3.319  0.7703  0.1150 -0.1841
 5566TIP3    H216663   0.955   5.360   3.321 -0.9340 -0.6398  0.8299
 5567TIP3   OH216664   7.212   5.526   0.727 -0.3690 -0.1779  0.2763
 5567TIP3    H116665   7.256   5.577   0.796  0.0229  0.4674 -0.4368
 5567TIP3    H216666   7.141   5.582   0.698 -0.5083 -0.4342  0.1274
 5568TIP3   OH216667   2.131   5.831   3.091 -0.0915  0.1888 -0.1866
 5568TIP3    H116668   2.041   5.819   3.063 -1.1886  0.6963  2.7329
 5568TIP3    H216669   2.136   5.922   3.119  1.5146  0.3252 -0.7756
 5569TIP3   OH216670   3.495   2.095   4.757 -0.3634  0.6555  0.0256
 5569TIP3    H116671   3.452   2.139   4.830 -0.5252  0.0186  0.3188
 5569TIP3    H216672   3.481   2.153   4.682 -0.6744  1.0418  0.3790
 5570TIP3   OH216673   3.730   5.950   0.074 -0.5515  0.2068 -0.1151
 5570TIP3    H116674   3.763   5.875   0.025  0.6729  0.3534  0.4656
 5570TIP3    H216675   3.636   5.934   0.081 -0.3991 -0.9588 -0.5244
 5571TIP3   OH216676   1.327   2.522   1.545  0.0852  0.2586 -0.4061
 5571TIP3    H116677   1.372   2.492   1.466  0.8099  1.0952 -0.3294
 5571TIP3    H216678   1.385   2.496   1.617  0.3812  1.1892 -0.2945
 5572TIP3   OH216679   1.755   6.690   3.902  0.5148 -0.1528  0.0818
 5572TIP3    H116680   1.775   6.690   3.996 -1.0368 -1.3641  0.4544
 5572TIP3    H216681   1.662   6.669   3.897  0.7437 -0.9437 -1.7581
 5573TIP3   OH216682   5.731   0.993   3.053 -0.1852  0.1519  0.3661
 5573TIP3    H116683   5.776   0.946   3.123  2.7202  2.6782  0.4254
 5573TIP3    H216684   5.662   1.042   3.098 -0.6072 -0.8801  0.8802
 5574TIP3   OH216685   2.849   4.073   0.848 -0.0518 -0.4444 -0.3816
 5574TIP3    H116686   2.759   4.096   0.871 -0.7625 -1.7167 -1.6977
 5574TIP3    H216687   2.865   4.119   0.765  0.8255  0.4282  0.2477
 5575TIP3   OH216688   0.271   2.663   0.398 -0.2784 -0.2268 -0.6462
 5575TIP3    H116689   0.222   2.581   0.387  0.3412 -0.8986  1.1943
 5575TIP3    H216690   0.357   2.644   0.360 -0.0859 -0.5070 -0.0890
 5576TIP3   OH216691   2.118   6.157   1.542 -0.3713 -0.0697 -0.0672
 5576TIP3    H116692   2.189   6.152   1.606  0.2438  0.6560 -0.6765
 5576TIP3    H216693   2.149   6.220   1.477 -1.2102 -0.3991 -0.8014
 5577TIP3   OH216694   6.269   5.579   5.710 -0.1603 -0.9418 -0.2602
 5577TIP3    H116695   6.225   5.653   5.751  0.8293 -1.2816  1.5405
 5577TIP3    H216696   6.207   5.546   5.646 -1.3328  0.3495  0.1659
 5578TIP3   OH216697   0.546   5.896   4.556  0.2345 -0.0948 -0.2492
 5578TIP3    H116698   0.627   5.902   4.506  1.0179  0.7316  1.0434
 5578TIP3    H216699   0.493   5.969   4.524 -0.8173 -1.7177 -2.3966
 5579TIP3   OH216700   2.467   4.033   0.458  0.6084 -0.3343 -0.3347
 5579TIP3    H116701   2.494   4.125   0.459 -0.4947  0.0361  1.6794
 5579TIP3    H216702   2.512   3.995   0.534  1.2275 -1.5390 -1.2752
 5580TIP3   OH216703   2.939   4.477   2.275 -0.1015  0.5171  0.2809
 5580TIP3    H116704   2.903   4.549   2.327 -0.3253 -0.9592  2.2888
 5580TIP3    H216705   2.864   4.423   2.252 -0.0644  1.3284 -2.0211
 5581TIP3   OH216706   1.254   4.796   4.354  0.8402 -0.0212  0.4437
 5581TIP3    H116707   1.237   4.709   4.389  0.0636  0.5625  1.5796
 5581TIP3    H216708   1.336   4.787   4.305  0.0739 -1.6865 -0.6348
 5582TIP3   OH216709   2.500   6.520   3.307 -0.0091  0.0801  0.1612
 5582TIP3    H116710   2.594   6.530   3.292  0.0427 -0.8755 -0.2091
 5582TIP3    H216711   2.459   6.569   3.235  0.2193 -0.5536 -0.4105
 5583TIP3   OH216712   4.313   1.918   1.678 -0.3589 -0.4047  0.0960
 5583TIP3    H116713   4.390   1.873   1.710  0.6311  0.2964 -1.2220
 5583TIP3    H216714   4.254   1.922   1.754  1.0603 -0.5745  1.2402
 5584TIP3   OH216715   5.859   2.093   2.854 -0.0171 -0.3485  0.4481
 5584TIP3    H116716   5.915   2.021   2.882  0.5414 -0.0874  0.0156
 5584TIP3    H216717   5.910   2.139   2.787 -0.8736 -0.2989 -0.1899
 5585TIP3   OH216718   2.301   5.990   0.069  0.2129  0.3144  0.2767
 5585TIP3    H116719   2.386   5.982   0.114 -0.7034 -0.6027  1.9638
 5585TIP3    H216720   2.265   5.901   0.071 -1.1230  0.8347  0.3211
 5586TIP3   OH216721   0.108   1.443   1.639 -0.4850 -0.1424 -0.1766
 5586TIP3    H116722   0.042   1.511   1.636 -1.0197 -0.6492 -0.0204
 5586TIP3    H216723   0.101   1.405   1.726 -0.8384 -1.0257 -0.5814
 5587TIP3   OH216724   0.140   6.726   1.121  0.2144  0.3264  0.2918
 5587TIP3    H116725   0.053   6.690   1.142  0.4039 -0.1507  0.2849
 5587TIP3    H216726   0.130   6.760   1.032 -0.0299  0.4903  0.3790
 5588TIP3   OH216727   5.655   2.067   2.365 -0.7518 -0.2643 -0.1353
 5588TIP3    H116728   5.562   2.083   2.384 -0.3742  1.0406  0.7497
 5588TIP3    H216729   5.667   1.974   2.383 -1.8609 -0.4347 -0.1678
 5589TIP3   OH216730   1.699   0.618   4.864 -0.1669 -0.0905  0.6292
 5589TIP3    H116731   1.722   0.547   4.924 -1.2696  0.0874  1.2914
 5589TIP3    H216732   1.603   0.624   4.870 -0.2649  0.1876 -0.8728
 5590TIP3   OH216733   3.185   5.818   1.248 -0.3760 -0.0879 -0.8315
 5590TIP3    H116734   3.146   5.842   1.164 -1.5596 -0.2430 -0.3584
 5590TIP3    H216735   3.159   5.888   1.308  0.3895 -0.0171 -0.5706
 5591TIP3   OH216736   5.878   2.201   3.994 -0.2931  0.1756 -0.1223
 5591TIP3    H116737   5.874   2.255   3.915 -0.9376 -0.1138 -0.2888
 5591TIP3    H216738   5.961   2.225   4.035 -1.3221  2.5991  0.7392
 5592TIP3   OH216739   4.657   5.559   4.237 -0.1179  0.1832  0.5921
 5592TIP3    H116740   4.724   5.585   4.300 -0.2740 -3.1024  2.3176
 5592TIP3    H216741   4.701   5.566   4.152  1.4679  0.7694  1.4095
 5593TIP3   OH216742   3.735   1.114   3.894  0.0820  0.2146  0.0835
 5593TIP3    H116743   3.775   1.155   3.817  0.0617  1.4923  0.7182
 5593TIP3    H216744   3.661   1.065   3.860  0.0664  0.7689 -0.7151
 5594TIP3   OH216745   5.413   5.481   2.946  0.3573 -0.0495  0.0657
 5594TIP3    H116746   5.359   5.527   2.880 -0.3368 -0.7507  0.1291
 5594TIP3    H216747   5.353   5.417   2.985  0.8780  0.0766  1.1011
 5595TIP3   OH216748   0.885   5.053   4.345 -0.1321  0.5045 -0.7314
 5595TIP3    H116749   0.829   4.977   4.328  0.2152 -0.0735  0.5921
 5595TIP3    H216750   0.962   5.039   4.289 -0.2192  0.0457 -0.7415
 5596TIP3   OH216751   1.623   6.287   0.277 -0.2029 -0.3573  0.3503
 5596TIP3    H116752   1.637   6.192   0.274  0.6609 -0.2393  0.3813
 5596TIP3    H216753   1.584   6.303   0.362 -1.0284 -0.7625  0.0608
 5597TIP3   OH216754   0.807   0.711   0.925 -0.1642 -0.4077  0.2114
 5597TIP3    H116755   0.887   0.658   0.916 -1.1071 -1.8491  0.1116
 5597TIP3    H216756   0.761   0.698   0.843  0.0115  1.3576 -0.2057
 5598TIP3   OH216757   1.588   1.048   1.919 -0.5336  0.0171  0.1023
 5598TIP3    H116758   1.601   1.090   2.003 -0.4914  0.5037 -0.1434
 5598TIP3    H216759   1.504   1.002   1.927 -0.9665  0.7969  0.1137
 5599TIP3   OH216760   0.261   5.895   4.110 -0.2271 -0.0208 -0.0695
 5599TIP3    H116761   0.197   5.857   4.170 -0.1521 -0.2740 -0.1471
 5599TIP3    H216762   0.285   5.823   4.052  0.4572 -0.0459  0.2318
 5600TIP3   OH216763   0.356   2.192   2.027  0.3521  0.1360 -0.4272
 5600TIP3    H116764   0.363   2.140   2.107  2.3775  2.7490  1.2355
 5600TIP3    H216765   0.302   2.139   1.969 -2.1940 -1.3959  3.0350
 5601TIP3   OH216766   6.654   2.081   0.393 -0.0515 -0.2802 -0.5669
 5601TIP3    H116767   6.586   2.087   0.459  0.3073  1.4938 -0.3006
 5601TIP3    H216768   6.617   2.122   0.315  0.8786  1.2414 -0.2422
 5602TIP3   OH216769   6.624   0.879   3.879  0.0778 -0.3481 -1.0996
 5602TIP3    H116770   6.714   0.907   3.862 -0.4300  2.5389  0.3870
 5602TIP3    H216771   6.633   0.792   3.919  2.0411 -0.8853 -2.5674
 5603TIP3   OH216772   3.112   0.651   1.811 -0.2066 -0.3006  0.0316
 5603TIP3    H116773   3.105   0.560   1.840 -1.2164 -0.2258  0.0546
 5603TIP3    H216774   3.185   0.651   1.749 -2.0689 -1.7713 -2.3401
 5604TIP3   OH216775   3.664   3.323   5.670 -0.0442 -0.3609 -0.4223
 5604TIP3    H116776   3.671   3.327   5.575  0.6444 -2.2184 -0.4933
 5604TIP3    H216777   3.739   3.270   5.698 -1.3590 -1.6490  0.9287
 5605TIP3   OH216778   3.001   3.802   0.600 -0.2570 -0.8439 -0.8763
 5605TIP3    H116779   3.056   3.849   0.662 -0.0991 -1.9223 -0.1747
 5605TIP3    H216780   2.980   3.866   0.533  0.0011  0.2022  0.0228
 5606TIP3   OH216781   1.071   2.239   5.787  0.1736 -0.4943  0.2563
 5606TIP3    H116782   1.018   2.252   5.708 -0.0613  0.8039  0.6111
 5606TIP3    H216783   1.158   2.270   5.764 -0.2671  1.3954  0.9507
 5607TIP3   OH216784   3.201   1.402   4.874 -0.4810  0.1016  0.6097
 5607TIP3    H116785   3.261   1.344   4.921  0.0032  0.1129  0.0102
 5607TIP3    H216786   3.132   1.343   4.843 -0.2074 -0.0923  0.3609
 5608TIP3   OH216787   3.764   0.919   1.250  0.5478 -0.2013  0.3760
 5608TIP3    H116788   3.723   0.833   1.247  1.0654 -0.4634 -2.3641
 5608TIP3    H216789   3.694   0.980   1.229  0.6659 -0.2189 -0.0832
 5609TIP3   OH216790   0.509   6.423   2.622  0.3016  0.2498  0.0258
 5609TIP3    H116791   0.447   6.496   2.624  0.4655  0.3907 -0.0744
 5609TIP3    H216792   0.510   6.390   2.711 -0.2703 -0.0466 -0.0685
 5610TIP3   OH216793   4.656   4.694   0.358 -0.2853  0.4341  0.0906
 5610TIP3    H116794   4.586   4.755   0.336  0.5806  1.0510 -1.0430
 5610TIP3    H216795   4.668   4.642   0.279 -0.0018 -0.2283  0.5553
 5611TIP3   OH216796   5.878   0.194   4.077 -0.5133  0.0668 -0.0331
 5611TIP3    H116797   5.889   0.233   3.990  1.7433 -0.3397  0.0086
 5611TIP3    H216798   5.915   0.258   4.137  1.0350 -1.0576  0.2679
 5612TIP3   OH216799   1.041   3.332   0.578  0.7953  0.3248  0.2289
 5612TIP3    H116800   1.044   3.408   0.520  0.2304  0.7317  0.7320
 5612TIP3    H216801   1.021   3.367   0.664 -1.8781 -0.5934  0.0658
 5613TIP3   OH216802   4.904   3.670   3.562 -0.1066 -0.2935 -0.4949
 5613TIP3    H116803   4.814   3.687   3.535 -0.5990  0.6464  1.4975
 5613TIP3    H216804   4.896   3.627   3.647  1.2895  0.8565  0.2788
 5614TIP3   OH216805   1.491   5.634   2.411  0.0607 -0.3564 -0.2171
 5614TIP3    H116806   1.413   5.658   2.459  0.8586 -0.4656  1.2008
 5614TIP3    H216807   1.467   5.643   2.319 -1.9050 -1.3071  0.1475
 5615TIP3   OH216808   2.393   2.730   3.192 -0.4645  0.4326  0.3538
 5615TIP3    H116809   2.305   2.759   3.167 -1.3915 -2.1805  0.2378
 5615TIP3    H216810   2.385   2.635   3.200  2.8353 -0.1718 -1.6561
 5616TIP3   OH216811   1.755   0.418   5.025  0.3073 -0.1340  0.0410
 5616TIP3    H116812   1.704   0.451   5.099 -2.7768 -3.3853 -0.3421
 5616TIP3    H216813   1.835   0.382   5.065 -0.8370 -0.9359  1.7269
 5617TIP3   OH216814   6.076   2.083   0.387 -0.2669 -0.0936 -0.5362
 5617TIP3    H116815   6.059   2.018   0.455  0.0193 -0.3179 -0.6786
 5617TIP3    H216816   6.169   2.075   0.369 -0.4736 -0.5119 -1.4445
 5618TIP3   OH216817   3.992   4.805   1.087 -0.0849  0.1651 -0.1764
 5618TIP3    H116818   4.015   4.833   1.175  0.9187 -0.7738 -0.1122
 5618TIP3    H216819   4.068   4.830   1.033  0.9163 -2.3973 -0.0869
 5619TIP3   OH216820   6.502   5.706   2.456 -0.2441  0.3682  0.0815
 5619TIP3    H116821   6.579   5.650   2.453 -0.5923 -0.1029 -0.1208
 5619TIP3    H216822   6.437   5.656   2.505 -1.9385 -1.2066 -3.4154
 5620TIP3   OH216823   6.090   3.895   5.456 -0.3289  0.1359 -0.1014
 5620TIP3    H116824   6.121   3.818   5.408  0.8083 -0.1914  1.1113
 5620TIP3    H216825   6.002   3.911   5.422 -0.8339 -2.0710  0.0338
 5621TIP3   OH216826   4.084   4.695   4.133  0.3114  0.0482  0.2602
 5621TIP3    H116827   4.051   4.746   4.207  1.9647 -0.1211  1.1482
 5621TIP3    H216828   4.031   4.615   4.134  0.1086  0.1852  1.0626
 5622TIP3   OH216829   6.086   2.794   2.625  0.1123 -0.1114 -0.1623
 5622TIP3    H116830   6.147   2.749   2.567  0.6313 -0.3949  0.5802
 5622TIP3    H216831   6.010   2.735   2.632 -0.3146  0.2999 -1.1867
 5623TIP3   OH216832   0.597   3.422   1.001 -0.1519 -0.4477  0.1048
 5623TIP3    H116833   0.583   3.500   0.947 -0.7325 -1.3799 -1.1494
 5623TIP3    H216834   0.660   3.449   1.067  0.8858  0.6475 -1.2784
 5624TIP3   OH216835   5.733   5.313   1.407 -0.5427  0.4734 -0.1019
 5624TIP3    H116836   5.743   5.370   1.331 -0.2794  0.3679 -0.1452
 5624TIP3    H216837   5.812   5.327   1.459 -0.4541  0.1064 -0.1391
 5625TIP3   OH216838   2.519   3.298   2.762  0.5771 -0.2909  0.1051
 5625TIP3    H116839   2.566   3.375   2.793  0.4962  0.3328 -1.2806
 5625TIP3    H216840   2.573   3.224   2.790  0.7997  0.2634  1.1965
 5626TIP3   OH216841   5.469   4.840   3.304  0.7765  0.1459  0.2742
 5626TIP3    H116842   5.485   4.758   3.351  0.9815  1.4416  2.6396
 5626TIP3    H216843   5.375   4.855   3.312  0.9556  0.8686  1.2164
 5627TIP3   OH216844   5.103   3.540   3.000 -0.0861  0.3346 -0.0333
 5627TIP3    H116845   5.185   3.566   3.041  0.4501 -0.2158 -0.7229
 5627TIP3    H216846   5.121   3.453   2.964 -0.1757  1.1652 -2.2955
 5628TIP3   OH216847   4.266   5.646   4.504 -0.5359 -0.4438  0.6190
 5628TIP3    H116848   4.348   5.676   4.544 -0.6175  0.1891  0.3354
 5628TIP3    H216849   4.198   5.690   4.554 -0.6283  0.6893 -0.4510
 5629TIP3   OH216850   2.405   0.645   4.731  0.1099  0.6041 -0.5729
 5629TIP3    H116851   2.375   0.728   4.695 -0.0862  0.0954 -1.6408
 5629TIP3    H216852   2.468   0.612   4.667  0.9058  0.3768  0.3128
 5630TIP3   OH216853   3.202   6.215   1.925  0.1075 -0.4105 -0.0501
 5630TIP3    H116854   3.290   6.183   1.945  1.2390  1.5165 -1.5804
 5630TIP3    H216855   3.177   6.170   1.844  0.9878  1.1356 -1.2507
 5631TIP3   OH216856   3.534   2.417   2.938  0.4457  0.0552 -0.1369
 5631TIP3    H116857   3.565   2.326   2.941  0.9388  0.1829 -1.0178
 5631TIP3    H216858   3.490   2.425   2.853  2.9473  1.3971 -1.4264
 5632TIP3   OH216859   6.078   1.423   5.298  0.4583 -0.4432 -0.4730
 5632TIP3    H116860   6.062   1.458   5.385  0.9835  0.1216 -0.5989
 5632TIP3    H216861   6.066   1.497   5.239  2.1183 -0.3092 -0.6897
 5633TIP3   OH216862   3.832   3.399   3.088 -0.1918 -0.6930 -0.0802
 5633TIP3    H116863   3.805   3.489   3.071  0.3545 -0.5739 -0.3452
 5633TIP3    H216864   3.764   3.364   3.145 -0.7656 -0.3258 -0.5257
 5634TIP3   OH216865   2.256   0.637   1.996 -0.5005 -0.0781 -0.1087
 5634TIP3    H116866   2.340   0.606   1.959 -0.4178  0.5381 -0.4509
 5634TIP3    H216867   2.247   0.726   1.963 -0.3716  0.5502  1.4806
 5635TIP3   OH216868   4.774   5.135   2.909 -0.0200 -0.6846 -0.2934
 5635TIP3    H116869   4.846   5.078   2.881 -0.1114 -0.9486  0.0071
 5635TIP3    H216870   4.697   5.100   2.864  0.3441  0.7822 -2.1949
 5636TIP3   OH216871   2.914   1.654   2.250 -0.4944 -0.5994 -0.1857
 5636TIP3    H116872   2.869   1.571   2.266  0.5956 -0.8577  2.0065
 5636TIP3    H216873   2.855   1.703   2.192 -1.5314 -2.5648 -0.8722
 5637TIP3   OH216874   5.350   2.345   0.689  0.0302  0.1856  0.5099
 5637TIP3    H116875   5.265   2.323   0.726  0.6094 -0.6000  1.4031
 5637TIP3    H216876   5.388   2.261   0.664 -0.1337  0.6379 -1.4579
 5638TIP3   OH216877   6.681   3.292   5.607  0.3872 -0.6874 -0.0678
 5638TIP3    H116878   6.695   3.310   5.514 -0.4475 -0.6173 -0.1864
 5638TIP3    H216879   6.722   3.365   5.653 -0.2928 -0.0737 -0.4275
 5639TIP3   OH216880   1.065   2.760   4.390 -0.2107  0.2848  0.6473
 5639TIP3    H116881   1.078   2.793   4.479  0.9401  1.1004  0.1932
 5639TIP3    H216882   1.140   2.793   4.341 -1.4829  0.9151 -0.9415
 5640TIP3   OH216883   0.909   6.530   5.843 -0.8047 -0.0493  0.1037
 5640TIP3    H116884   0.858   6.487   5.775 -0.6158 -3.6310  2.0369
 5640TIP3    H216885   0.990   6.555   5.799 -1.5050 -0.3503 -1.4332
 5641TIP3   OH216886   6.291   3.113   2.457  0.9070  0.2937 -0.2975
 5641TIP3    H116887   6.377   3.095   2.420  0.4496 -1.0630 -0.7895
 5641TIP3    H216888   6.230   3.075   2.394  0.0397 -0.7040  1.0896
 5642TIP3   OH216889   6.984   2.031   5.419 -0.0666 -0.5526  0.2294
 5642TIP3    H116890   6.953   2.062   5.504 -1.6773 -0.8767 -0.1976
 5642TIP3    H216891   7.076   2.059   5.415 -0.0126 -0.3700  1.9767
 5643TIP3   OH216892   2.271   1.032   0.791  0.9389  0.0915  0.0024
 5643TIP3    H116893   2.325   1.031   0.712  0.5815 -0.7969 -0.2404
 5643TIP3    H216894   2.279   1.121   0.825  0.7408  0.6097 -1.2781
 5644TIP3   OH216895   1.620   2.968   2.365  0.1190  0.0529  0.2287
 5644TIP3    H116896   1.685   3.036   2.348  0.8370 -0.9194 -1.1798
 5644TIP3    H216897   1.536   3.009   2.345  0.6019  0.3380 -1.3625
 5645TIP3   OH216898   1.720   5.768   3.898  0.2182 -0.2708  0.1415
 5645TIP3    H116899   1.804   5.767   3.945 -0.9984  0.2872  2.4734
 5645TIP3    H216900   1.738   5.817   3.818  2.5062 -1.6761 -0.3053
 5646TIP3   OH216901   0.443   5.870   3.249 -0.6960 -0.1699  0.0058
 5646TIP3    H116902   0.423   5.878   3.156  0.0867 -0.7213 -0.2140
 5646TIP3    H216903   0.358   5.874   3.292 -0.9415  2.5428 -0.5279
 5647TIP3   OH216904   4.595   4.411   5.375 -0.0246 -0.1093 -0.2573
 5647TIP3    H116905   4.520   4.364   5.409 -0.7800  1.6506  0.6534
 5647TIP3    H216906   4.655   4.419   5.449 -0.3882  1.2199 -0.0652
 5648TIP3   OH216907   4.852   5.732   3.261  0.6545 -0.0948 -0.2240
 5648TIP3    H116908   4.798   5.797   3.304  0.9137  0.2795 -0.4590
 5648TIP3    H216909   4.879   5.773   3.179 -0.0901 -0.9099 -0.8996
 5649TIP3   OH216910   5.910   0.620   1.871 -0.0659 -0.2033  0.7930
 5649TIP3    H116911   5.993   0.650   1.834  0.1569 -1.3642  0.3144
 5649TIP3    H216912   5.912   0.649   1.962  1.8991 -2.1712  1.4615
 5650TIP3   OH216913   4.568   0.524   5.204 -0.4401 -0.0949  0.1165
 5650TIP3    H116914   4.581   0.573   5.285 -0.5396 -1.2612  0.8493
 5650TIP3    H216915   4.511   0.580   5.151  0.3565  1.0871  0.4642
 5651TIP3   OH216916   4.355   3.966   0.903 -0.8307  0.1077  0.2989
 5651TIP3    H116917   4.284   4.019   0.866 -1.4656 -1.0132 -0.1247
 5651TIP3    H216918   4.347   3.881   0.861  2.0182  0.4892 -1.2753
 5652TIP3   OH216919   3.105   2.404   4.648  0.2565 -0.2383 -0.0416
 5652TIP3    H116920   3.198   2.421   4.640  0.0026  1.6692  0.4301
 5652TIP3    H216921   3.076   2.461   4.720 -1.4998  0.2506 -1.0675
 5653TIP3   OH216922   2.541   6.066   5.076 -0.3764  0.6095  0.0929
 5653TIP3    H116923   2.468   6.124   5.052 -1.3162 -0.8150 -0.6516
 5653TIP3    H216924   2.596   6.064   4.998 -1.6716 -1.4023 -0.8460
 5654TIP3   OH216925   6.367   5.417   0.050  0.2099 -0.3051 -0.1273
 5654TIP3    H116926   6.381   5.479   0.122  0.5258  3.1333 -2.8933
 5654TIP3    H216927   6.438   5.354   0.060  0.0741 -0.1544  2.6756
 5655TIP3   OH216928   5.956   6.317   4.011 -0.3115 -0.5897  0.1273
 5655TIP3    H116929   6.010   6.292   4.087  0.3322  0.8479  0.1829
 5655TIP3    H216930   5.871   6.278   4.029 -0.0938 -0.5173  1.4588
 5656TIP3   OH216931   3.810   2.938   5.088 -0.3866 -0.1159 -0.3726
 5656TIP3    H116932   3.893   2.961   5.047 -0.0594 -0.6469 -0.0219
 5656TIP3    H216933   3.835   2.898   5.172 -0.9743 -0.6988 -0.4684
 5657TIP3   OH216934   1.489   4.688   1.265  0.3373 -0.1394  0.1314
 5657TIP3    H116935   1.469   4.781   1.273  0.8048  0.1288 -1.3754
 5657TIP3    H216936   1.524   4.679   1.176  0.1518 -1.7810  0.1951
 5658TIP3   OH216937   5.920   1.404  -0.009 -0.2281  0.1583 -0.5515
 5658TIP3    H116938   5.834   1.443  -0.018  0.0218  0.3506 -2.8299
 5658TIP3    H216939   5.968   1.462   0.050 -0.9626  1.3082 -1.0699
 5659TIP3   OH216940   0.126   2.922   0.332  0.4096 -0.4931 -0.2155
 5659TIP3    H116941   0.176   2.841   0.344 -0.2666 -0.7608  0.9719
 5659TIP3    H216942   0.043   2.905   0.377  0.4964  1.0777  0.5942
 5660TIP3   OH216943   1.430   0.399   2.873 -0.0818  0.0757 -0.7280
 5660TIP3    H116944   1.397   0.489   2.872 -0.0190  0.1475  0.8359
 5660TIP3    H216945   1.518   0.405   2.834 -0.1492  0.6621 -0.7986
 5661TIP3   OH216946   2.885   0.422   0.329  0.8861 -0.0523 -0.1475
 5661TIP3    H116947   2.884   0.379   0.244 -3.0563  2.6030 -1.7285
 5661TIP3    H216948   2.951   0.491   0.321  0.8900 -0.1362 -0.8548
 5662TIP3   OH216949   5.315   3.996   0.817  0.0912  0.3439  0.2037
 5662TIP3    H116950   5.232   3.951   0.835 -0.1932  0.2703 -1.2158
 5662TIP3    H216951   5.378   3.925   0.805  0.2900  0.3953  0.8801
 5663TIP3   OH216952   6.336   5.065   2.842 -0.6805  0.1751 -0.4696
 5663TIP3    H116953   6.405   5.012   2.802 -1.5397 -0.1458 -1.5746
 5663TIP3    H216954   6.318   5.022   2.926 -0.0050 -0.1099 -0.4598
 5664TIP3   OH216955   6.357   2.611   4.741 -0.2357 -0.1939  0.3275
 5664TIP3    H116956   6.279   2.611   4.685 -1.6353 -0.2606  2.1958
 5664TIP3    H216957   6.324   2.625   4.830  1.8688 -0.4759  1.2292
 5665TIP3   OH216958   6.487   0.904   1.619  0.0116 -0.8134 -0.4971
 5665TIP3    H116959   6.562   0.867   1.664  2.0329  2.6918 -0.6088
 5665TIP3    H216960   6.433   0.942   1.688 -1.1241 -2.2981 -0.5182
 5666TIP3   OH216961   5.617   3.957   3.585  0.2970 -0.3730 -0.3573
 5666TIP3    H116962   5.607   3.862   3.589 -0.8131 -0.2445  2.8501
 5666TIP3    H216963   5.711   3.972   3.588  0.4543 -1.3552 -0.1280
 5667TIP3   OH216964   0.299   0.143   1.130 -0.6222 -0.3140  0.2167
 5667TIP3    H116965   0.286   0.234   1.157 -0.5871  0.6511 -2.6749
 5667TIP3    H216966   0.389   0.123   1.156  0.1083  1.2442 -0.9323
 5668TIP3   OH216967   3.220   2.367   5.270 -0.0523 -0.0733 -0.8045
 5668TIP3    H116968   3.253   2.286   5.307 -0.0996  0.4576  0.4620
 5668TIP3    H216969   3.126   2.366   5.290  0.1429  0.8045  0.2667
 5669TIP3   OH216970   5.947   2.726   4.295  0.5624  0.3427 -0.2874
 5669TIP3    H116971   5.892   2.787   4.245  0.5170  2.4497  2.0904
 5669TIP3    H216972   5.885   2.674   4.346  0.5932 -1.9979 -2.4411
 5670TIP3   OH216973   4.521   1.455   3.452 -0.2006 -0.0550  0.3073
 5670TIP3    H116974   4.583   1.526   3.469  0.6842 -0.9494  0.9205
 5670TIP3    H216975   4.440   1.499   3.425  0.9994  1.1114 -1.5912
 5671TIP3   OH216976   3.141   3.226   1.889 -0.4736 -0.7738  0.1076
 5671TIP3    H116977   3.223   3.233   1.937 -0.4163 -1.6759  0.1668
 5671TIP3    H216978   3.094   3.154   1.932 -0.5366 -1.4202 -1.0029
 5672TIP3   OH216979   6.727   2.514   3.141  0.1436 -0.6230 -0.2762
 5672TIP3    H116980   6.758   2.485   3.055 -0.2732 -0.1454 -0.5932
 5672TIP3    H216981   6.733   2.436   3.196 -3.3804 -2.1358 -1.7281
 5673TIP3   OH216982   4.366   5.983   4.393  0.6640  0.0898  0.5996
 5673TIP3    H116983   4.321   5.994   4.477 -0.0927 -1.5319  0.4601
 5673TIP3    H216984   4.313   6.032   4.330 -0.9950 -1.7386  0.4506
 5674TIP3   OH216985   3.429   0.853   3.822 -0.1277 -0.2248  0.2805
 5674TIP3    H116986   3.341   0.865   3.859  0.0185  1.3550  0.1971
 5674TIP3    H216987   3.487   0.847   3.898 -0.1532  0.1815  0.3356
 5675TIP3   OH216988   1.622   2.310   4.581  0.1991 -0.3711 -0.3967
 5675TIP3    H116989   1.539   2.267   4.601  0.6059 -0.4903  1.2134
 5675TIP3    H216990   1.686   2.239   4.581  0.7731  0.0860  1.6086
 5676TIP3   OH216991   6.580   3.437   2.669 -0.3839 -0.2565 -0.1617
 5676TIP3    H116992   6.657   3.448   2.726 -0.0043 -0.7465 -0.5704
 5676TIP3    H216993   6.567   3.342   2.663 -0.5807 -0.2020 -0.6735
 5677TIP3   OH216994   6.869   2.099   0.561  0.5635  0.1209 -0.4443
 5677TIP3    H116995   6.797   2.105   0.499  0.3531  1.2050 -0.1200
 5677TIP3    H216996   6.885   2.005   0.571 -0.5226 -0.1177 -0.8419
 5678TIP3   OH216997   6.332   0.857   2.106  0.2931 -0.0359 -0.3383
 5678TIP3    H116998   6.274   0.905   2.166  1.5184  2.4410 -0.9840
 5678TIP3    H216999   6.290   0.772   2.095 -1.6618  0.5979  1.4799
 5679TIP3   OH217000   4.622   3.857   1.635 -0.0522 -0.2332  0.5423
 5679TIP3    H117001   4.598   3.864   1.543  0.7810 -0.5230  0.2961
 5679TIP3    H217002   4.715   3.878   1.637 -0.2424  0.6174  1.4374
 5680TIP3   OH217003   3.355   4.818   0.423 -0.4043 -0.3326 -0.6267
 5680TIP3    H117004   3.446   4.815   0.452 -0.6118 -0.1991  0.0508
 5680TIP3    H217005   3.356   4.881   0.350  0.0635 -0.4253 -0.7074
 5681TIP3   OH217006   5.643   3.438   3.210  0.3802 -0.0492 -0.2971
 5681TIP3    H117007   5.692   3.358   3.229  0.4642 -0.0068 -0.3352
 5681TIP3    H217008   5.675   3.466   3.125 -0.8274 -0.8790 -1.0602
 5682TIP3   OH217009   4.993   0.514   4.374  0.0633 -0.1570  0.0893
 5682TIP3    H117010   4.929   0.556   4.317  0.0633 -1.2099 -0.7214
 5682TIP3    H217011   4.952   0.431   4.400  0.1857  0.1720  1.4047
 5683TIP3   OH217012   5.667   5.343   5.244 -0.2243 -0.0696 -0.5530
 5683TIP3    H117013   5.670   5.257   5.202 -0.7723 -0.6696  0.6040
 5683TIP3    H217014   5.573   5.359   5.258 -0.0195 -0.5753  1.7738
 5684TIP3   OH217015   2.679   3.159   3.493  0.0924 -0.2131  0.0275
 5684TIP3    H117016   2.643   3.247   3.492 -0.0559 -0.2389  1.3067
 5684TIP3    H217017   2.623   3.110   3.553  0.4840 -1.0351 -0.2582
 5685TIP3   OH217018   5.411   4.506   3.233 -0.2771 -0.7857 -0.2825
 5685TIP3    H117019   5.392   4.537   3.145  0.4367 -0.7432 -0.4249
 5685TIP3    H217020   5.442   4.416   3.221 -0.4269 -0.8703 -0.0501
 5686TIP3   OH217021   4.001   0.972   0.095  0.1614  0.1004 -0.2518
 5686TIP3    H117022   4.096   0.982   0.090  0.3880 -0.1134  2.3147
 5686TIP3    H217023   3.972   1.045   0.150 -0.9081 -0.8727  0.5328
 5687TIP3   OH217024   0.571   3.658   0.841  0.5133 -0.6476 -0.4094
 5687TIP3    H117025   0.633   3.666   0.769  2.4348 -2.5390  0.9041
 5687TIP3    H217026   0.585   3.736   0.894  0.9662 -0.5032 -0.7360
 5688TIP3   OH217027   4.700   4.254   2.741  0.0986  0.1859 -0.2461
 5688TIP3    H117028   4.720   4.317   2.810 -1.0133  0.1466  0.1392
 5688TIP3    H217029   4.682   4.173   2.787  0.3922 -0.1199 -0.6631
 5689TIP3   OH217030   5.238   1.357   2.036 -0.2881  0.0147  0.1487
 5689TIP3    H117031   5.151   1.390   2.015 -0.6196 -1.0089 -0.1613
 5689TIP3    H217032   5.244   1.361   2.131 -0.7231 -0.0385  0.1779
 5690TIP3   OH217033   2.780   2.122   0.112  0.0212 -0.6573  0.2317
 5690TIP3    H117034   2.829   2.185   0.165 -0.5268  0.8572 -0.9773
 5690TIP3    H217035   2.842   2.093   0.045 -0.0447 -0.5284  0.1131
 5691TIP3   OH217036   0.986   3.375   4.028  0.1336  0.0373  0.3781
 5691TIP3    H117037   1.077   3.363   4.003  0.3242  2.0143 -0.0811
 5691TIP3    H217038   0.979   3.469   4.046 -1.4341 -0.3284  1.9915
 5692TIP3   OH217039   1.384   2.006   3.905 -0.1083  0.4109  0.1100
 5692TIP3    H117040   1.289   1.994   3.892  0.0622 -1.8468  0.6158
 5692TIP3    H217041   1.391   2.059   3.985 -0.9570 -0.8100  1.0294
 5693TIP3   OH217042   0.762   2.138   0.615  0.4608  0.6339  0.3036
 5693TIP3    H117043   0.793   2.108   0.700  1.6014  2.4287  0.5827
 5693TIP3    H217044   0.811   2.219   0.599  0.7811  0.0113 -2.3772
 5694TIP3   OH217045   6.670   5.920   1.700 -0.4493 -0.2902 -0.5012
 5694TIP3    H117046   6.732   5.990   1.717 -0.8529 -0.2938  1.1579
 5694TIP3    H217047   6.591   5.965   1.669 -0.7834  0.0213  0.7761
 5695TIP3   OH217048   5.031   5.531   0.136 -0.2691 -0.3140 -0.1091
 5695TIP3    H117049   5.121   5.539   0.103 -0.6270  1.5414 -0.7665
 5695TIP3    H217050   4.979   5.510   0.059 -0.6599  0.6547 -0.1181
 5696TIP3   OH217051   4.828   4.642   0.824 -0.2961 -1.1246  0.1786
 5696TIP3    H117052   4.775   4.605   0.753 -2.0763  0.8091  0.4200
 5696TIP3    H217053   4.910   4.669   0.781 -0.9497 -0.8808 -0.9559
 5697TIP3   OH217054   4.194   0.110   5.697 -0.1502 -0.0608  0.2398
 5697TIP3    H117055   4.247   0.105   5.777 -0.6621  0.0985  0.5956
 5697TIP3    H217056   4.250   0.156   5.634 -0.0688  0.5986  0.7860
 5698TIP3   OH217057   3.914   4.503   4.437  0.3558  0.1968  0.4053
 5698TIP3    H117058   3.914   4.597   4.454 -2.5240 -0.2338  4.1109
 5698TIP3    H217059   3.834   4.488   4.386  1.4975 -0.2234 -1.3708
 5699TIP3   OH217060   5.144   0.473   4.044  0.1884  0.2649  0.0896
 5699TIP3    H117061   5.067   0.511   4.002  0.3292  0.0346 -0.3785
 5699TIP3    H217062   5.161   0.392   3.996  0.7853  0.3640  0.1174
 5700TIP3   OH217063   4.099   1.807   3.756  0.2216  0.0987 -0.4472
 5700TIP3    H117064   4.121   1.725   3.801 -1.7317 -0.5925 -0.6367
 5700TIP3    H217065   4.025   1.784   3.700 -1.8105  2.4255  1.0716
 5701TIP3   OH217066   2.944   0.228   0.152 -0.6214 -0.2265  0.0857
 5701TIP3    H117067   3.036   0.213   0.173 -0.1499  2.9339  0.8440
 5701TIP3    H217068   2.937   0.210   0.058  0.4211 -1.7984  0.2802
 5702TIP3   OH217069   7.074   6.280   1.503  0.3481 -0.1177 -0.1428
 5702TIP3    H117070   7.068   6.234   1.420  2.3686 -1.9181  0.6157
 5702TIP3    H217071   7.078   6.372   1.479  0.8752 -0.5880 -2.0446
 5703TIP3   OH217072   5.976   3.348   2.529 -0.4939 -0.2043  0.2361
 5703TIP3    H117073   6.014   3.284   2.589  0.6400 -1.4035 -1.6618
 5703TIP3    H217074   5.896   3.307   2.497  0.5579 -1.0686 -1.4723
 5704TIP3   OH217075   4.968   0.880   3.834  0.3496 -0.4677 -0.7712
 5704TIP3    H117076   5.011   0.849   3.914 -0.9679 -0.5122 -0.0531
 5704TIP3    H217077   4.957   0.974   3.848 -3.0259 -0.9148  0.7634
 5705TIP3   OH217078   5.888   6.621   1.650  0.2570  0.2590 -0.0300
 5705TIP3    H117079   5.909   6.543   1.600 -1.4058 -0.5570  0.4755
 5705TIP3    H217080   5.924   6.605   1.737 -0.6087 -0.2342  0.2480
 5706TIP3   OH217081   5.365   0.805   5.303 -0.1938  0.6242  0.2401
 5706TIP3    H117082   5.440   0.814   5.361 -1.2206 -0.6549  1.8454
 5706TIP3    H217083   5.360   0.711   5.284 -1.3054  0.7011  0.0582
 5707TIP3   OH217084   0.514   5.302   0.891 -0.6097 -0.0082 -0.3516
 5707TIP3    H117085   0.434   5.252   0.909 -0.0318 -0.8403 -0.0621
 5707TIP3    H217086   0.483   5.379   0.844 -1.4941 -0.7507 -1.0281
 5708TIP3   OH217087   5.434   0.211   3.771 -0.4220 -0.3705 -0.4171
 5708TIP3    H117088   5.417   0.169   3.686 -0.1198  0.5055 -0.9220
 5708TIP3    H217089   5.441   0.304   3.750  2.8272 -0.3987  0.0551
 5709TIP3   OH217090   6.437   2.377   4.090 -0.1032 -0.6077 -0.5647
 5709TIP3    H117091   6.470   2.465   4.072 -0.0865 -0.2011  1.2070
 5709TIP3    H217092   6.378   2.358   4.017 -0.3268  0.9926 -0.8489
 5710TIP3   OH217093   3.803   5.345   1.772  1.0279 -0.7060  0.0682
 5710TIP3    H117094   3.838   5.273   1.721  0.6330 -0.3095 -0.7740
 5710TIP3    H217095   3.716   5.361   1.736  1.8429  1.4758 -1.1056
 5711TIP3   OH217096   6.808   1.482   5.016 -0.2216  0.0943 -0.5278
 5711TIP3    H117097   6.853   1.406   5.051 -0.9551 -0.8153 -1.5037
 5711TIP3    H217098   6.774   1.454   4.931 -1.1745  1.2665 -0.5727
 5712TIP3   OH217099   1.906   2.444   4.959 -0.0101 -0.4484  0.1235
 5712TIP3    H117100   1.821   2.418   4.923  0.6011 -0.9643 -0.9840
 5712TIP3    H217101   1.966   2.375   4.931  1.3728  1.3566 -1.6066
 5713TIP3   OH217102   5.647   5.420   1.810 -0.3984  0.1086  0.4047
 5713TIP3    H117103   5.580   5.388   1.750  1.7048 -0.2251 -1.9428
 5713TIP3    H217104   5.668   5.346   1.865  0.5899 -0.9931 -1.3514
 5714TIP3   OH217105   0.423   6.702   2.240  0.1330 -0.2374  0.1952
 5714TIP3    H117106   0.410   6.682   2.147  1.0169 -0.9412  0.2163
 5714TIP3    H217107   0.494   6.644   2.267 -1.1934 -1.2281  1.7129
 5715TIP3   OH217108   4.830   1.918   5.832 -0.5503 -0.3779 -0.0942
 5715TIP3    H117109   4.787   1.861   5.768  2.1583 -1.3170 -1.1954
 5715TIP3    H217110   4.874   1.858   5.892 -1.8862  0.5277  1.9055
 5716TIP3   OH217111   3.221   6.100   0.673  0.3268  0.3313  0.3102
 5716TIP3    H117112   3.257   6.044   0.741  0.8891  1.3723  0.8964
 5716TIP3    H217113   3.188   6.177   0.720  0.8146  1.1185 -0.5930
 5717TIP3   OH217114   0.684   2.062   1.432 -0.1103 -0.3381  0.2903
 5717TIP3    H117115   0.779   2.074   1.438  0.1254 -1.6305 -0.4467
 5717TIP3    H217116   0.668   1.978   1.476 -0.6670 -0.9752 -1.0743
 5718TIP3   OH217117   1.447   4.427   5.502 -0.1535 -0.0736 -0.0971
 5718TIP3    H117118   1.409   4.480   5.573  0.7891  0.9905 -0.3549
 5718TIP3    H217119   1.525   4.388   5.540 -1.1524 -1.8257  0.2676
 5719TIP3   OH217120   0.554   6.496   5.368 -0.0056 -0.0181 -0.5325
 5719TIP3    H117121   0.571   6.589   5.351  0.0652  0.1865  0.5806
 5719TIP3    H217122   0.461   6.493   5.391  0.6478  0.2852  2.4911
 5720TIP3   OH217123   0.147   5.617   2.781  0.3792  0.0742  0.4502
 5720TIP3    H117124   0.157   5.543   2.841  1.0738 -1.3962 -1.3957
 5720TIP3    H217125   0.053   5.625   2.767 -0.0025  1.7465  3.1990
 5721TIP3   OH217126   7.147   0.044   1.516  0.2203 -0.6273 -0.2082
 5721TIP3    H117127   7.206   0.083   1.452 -1.9614  1.1802 -1.2424
 5721TIP3    H217128   7.177   0.079   1.600  1.9296 -1.5022 -0.4228
 5722TIP3   OH217129   4.246   1.269   3.297 -0.3662  0.0562 -0.1286
 5722TIP3    H117130   4.293   1.348   3.268 -1.3738  1.0174  0.7558
 5722TIP3    H217131   4.154   1.287   3.277 -1.4461  1.5680  4.8483
 5723TIP3   OH217132   2.299   3.022   0.975  0.3489  0.6755  0.1292
 5723TIP3    H117133   2.310   3.114   0.948 -3.3529  2.2172  3.0534
 5723TIP3    H217134   2.365   3.009   1.043 -0.8665  2.2303  1.6999
 5724TIP3   OH217135   4.896   4.695   5.547 -0.3861  0.0351  0.5502
 5724TIP3    H117136   4.883   4.689   5.452 -1.3853  2.4569  0.4641
 5724TIP3    H217137   4.841   4.625   5.583  1.3173 -2.0523 -0.6484
 5725TIP3   OH217138   3.706   3.889   1.408  0.2405 -0.2983 -0.5303
 5725TIP3    H117139   3.685   3.851   1.323 -0.8546  0.0180 -0.4167
 5725TIP3    H217140   3.631   3.867   1.463  0.4359  0.4341  0.0490
 5726TIP3   OH217141   2.166   6.501   2.551 -0.4019  0.1217  0.2599
 5726TIP3    H117142   2.218   6.459   2.619  0.7285 -0.3896 -0.8961
 5726TIP3    H217143   2.075   6.481   2.575 -0.0812  0.4528  1.9218
 5727TIP3   OH217144   5.822   1.813   4.978 -0.1337 -0.3596  0.1555
 5727TIP3    H117145   5.897   1.825   5.036  0.0735 -1.3663  0.1199
 5727TIP3    H217146   5.830   1.723   4.947 -0.1417  0.2190 -1.6170
 5728TIP3   OH217147   0.029   2.863   4.226 -0.0360  0.3555 -0.3284
 5728TIP3    H117148   0.069   2.890   4.143  1.6705  2.2352  0.9886
 5728TIP3    H217149   0.029   2.767   4.223 -0.7935  0.3811 -2.8071
 5729TIP3   OH217150   2.600   3.093   0.643  0.0815 -0.3572  1.0968
 5729TIP3    H117151   2.548   3.173   0.654 -1.5441 -0.8734 -1.7553
 5729TIP3    H217152   2.681   3.123   0.600 -1.1021 -0.2686 -1.2441
 5730TIP3   OH217153   0.507   1.244   5.386 -0.1276  0.3127 -0.2778
 5730TIP3    H117154   0.507   1.337   5.406 -1.2429  0.4807 -0.9925
 5730TIP3    H217155   0.462   1.203   5.461 -0.0933  0.4046 -0.2071
 5731TIP3   OH217156   5.029   6.803   4.442 -0.4663  0.0050  0.4068
 5731TIP3    H117157   5.121   6.813   4.467  0.2226  1.9603 -2.4042
 5731TIP3    H217158   5.016   6.708   4.434  1.2457 -0.3084  1.0078
 5732TIP3   OH217159   5.543   2.015   3.698  0.3601 -0.3915 -0.2382
 5732TIP3    H117160   5.624   1.989   3.742 -0.6082  2.4423  3.8651
 5732TIP3    H217161   5.477   1.954   3.732 -0.0001  0.3153  0.3534
 5733TIP3   OH217162   1.423   3.723   3.408 -0.3362  0.0528 -0.8844
 5733TIP3    H117163   1.476   3.649   3.440 -2.7043 -1.6510 -0.6490
 5733TIP3    H217164   1.447   3.732   3.316 -2.7677 -3.8111 -2.1221
 5734TIP3   OH217165   5.475   0.476   3.744  0.2458  0.1676  1.1971
 5734TIP3    H117166   5.384   0.492   3.769 -1.1689  0.0792 -3.1089
 5734TIP3    H217167   5.518   0.453   3.826 -3.5629  0.2206  3.4680
 5735TIP3   OH217168   0.608   0.287   2.225 -0.5915 -0.4704  0.1315
 5735TIP3    H117169   0.601   0.257   2.315 -1.7251 -0.3946  0.0829
 5735TIP3    H217170   0.613   0.207   2.173  2.3899 -0.5514  0.3610
 5736TIP3   OH217171   2.159   6.088   3.142 -0.1866 -0.7768 -0.1340
 5736TIP3    H117172   2.084   6.137   3.175 -0.0231 -1.2704  1.0190
 5736TIP3    H217173   2.235   6.142   3.165 -0.0954 -0.9379 -0.0554
 5737TIP3   OH217174   4.865   1.605   1.367 -0.1251  0.1869  0.2916
 5737TIP3    H117175   4.960   1.613   1.374  0.2133 -1.6437 -1.3167
 5737TIP3    H217176   4.831   1.643   1.448  1.9653  0.8632  0.8915
 5738TIP3   OH217177   7.054   0.661   0.377  0.4540 -0.0658 -0.0375
 5738TIP3    H117178   6.965   0.672   0.345  1.0420  0.3443 -1.6112
 5738TIP3    H217179   7.079   0.572   0.352  0.3859 -0.2835  0.6609
 5739TIP3   OH217180   5.013   6.743   4.112 -0.4488 -0.1144 -0.2207
 5739TIP3    H117181   5.085   6.805   4.118 -0.1022 -0.3558 -1.5521
 5739TIP3    H217182   4.945   6.789   4.064 -1.5086  0.3655  1.6318
 5740TIP3   OH217183   3.424   3.668   4.776 -0.3407 -0.5254 -0.4345
 5740TIP3    H117184   3.400   3.687   4.867 -0.9955 -1.7313 -0.3364
 5740TIP3    H217185   3.340   3.671   4.729 -0.1379 -0.8707 -0.8180
 5741TIP3   OH217186   5.969   5.546   4.807 -0.3154 -0.1615 -0.3181
 5741TIP3    H117187   5.927   5.460   4.802 -1.9250  0.2959  2.7625
 5741TIP3    H217188   6.051   5.530   4.853 -0.5328 -0.1048  0.0983
 5742TIP3   OH217189   2.817   1.338   4.577  0.6492 -0.5662  0.4179
 5742TIP3    H117190   2.736   1.387   4.591 -0.1618 -1.0813 -1.9092
 5742TIP3    H217191   2.874   1.399   4.530  1.1583 -0.6000  0.9793
 5743TIP3   OH217192   4.527   4.469   2.948 -0.1009  0.0143  0.1961
 5743TIP3    H117193   4.537   4.546   2.893 -0.2380 -0.1759 -0.1000
 5743TIP3    H217194   4.603   4.469   3.005 -0.0532  0.3160  0.1315
 5744TIP3   OH217195   4.554   3.646   3.816 -0.3415 -0.7418  0.9246
 5744TIP3    H117196   4.546   3.552   3.832 -2.7120 -0.7917 -0.0839
 5744TIP3    H217197   4.493   3.685   3.878 -2.0340 -0.1923 -0.9838
 5745TIP3   OH217198   1.150   4.192   4.755 -0.0667  0.0816  0.0912
 5745TIP3    H117199   1.078   4.156   4.807  0.7412 -0.4601  0.8630
 5745TIP3    H217200   1.224   4.197   4.816  1.1473 -1.3329 -1.1497
 5746TIP3   OH217201   5.510   3.746   5.794  0.4377  0.0374 -0.2495
 5746TIP3    H117202   5.580   3.765   5.732  1.9368  0.5365  1.5194
 5746TIP3    H217203   5.452   3.686   5.747  1.2701  0.7317 -2.2533
 5747TIP3   OH217204   2.413   0.123   3.843 -0.3005 -0.7054  0.4368
 5747TIP3    H117205   2.495   0.132   3.794 -0.4653 -0.9486  0.1157
 5747TIP3    H217206   2.350   0.177   3.794 -1.0428 -2.7146 -0.9213
 5748TIP3   OH217207   6.353   2.585   4.363 -0.1720 -0.0632 -0.4455
 5748TIP3    H117208   6.360   2.665   4.311 -0.9458  0.3783  0.1031
 5748TIP3    H217209   6.283   2.603   4.425 -1.5728 -1.7796 -1.4179
 5749TIP3   OH217210   5.302   5.280   1.344 -0.3831 -0.5125 -0.0475
 5749TIP3    H117211   5.223   5.261   1.292 -1.8725 -0.2382  1.9967
 5749TIP3    H217212   5.309   5.207   1.405 -0.3289  0.5123  1.2096
 5750TIP3   OH217213   5.127   1.221   0.592  0.0094  0.1246  0.3177
 5750TIP3    H117214   5.077   1.300   0.575  0.2490  0.0597 -0.7430
 5750TIP3    H217215   5.216   1.251   0.609  0.0185  0.1088  0.2983
 5751TIP3   OH217216   0.091   0.778   5.065  0.6108  0.0012  0.8099
 5751TIP3    H117217   0.172   0.728   5.074  0.9673  0.7083  1.6923
 5751TIP3    H217218   0.050   0.772   5.152 -0.9861 -1.4848  0.0281
 5752TIP3   OH217219   5.945   6.448   0.145  0.3047 -0.2316  0.1254
 5752TIP3    H117220   5.979   6.397   0.219  1.9927 -0.3769 -0.6936
 5752TIP3    H217221   5.971   6.538   0.164  1.8284 -0.4336 -0.8179
 5753TIP3   OH217222   6.843   6.037   2.011 -0.3078  0.0197  0.2799
 5753TIP3    H117223   6.926   6.052   2.056  0.0644 -0.6760 -0.1556
 5753TIP3    H217224   6.779   6.090   2.059  0.7540  2.2517 -0.6483
 5754TIP3   OH217225   5.778   0.188   1.233  0.4130  0.6759  0.1833
 5754TIP3    H117226   5.690   0.154   1.218  1.2137 -0.6481 -1.9794
 5754TIP3    H217227   5.801   0.157   1.321 -0.5868 -0.5571  0.0419
 5755TIP3   OH217228   2.641   4.240   0.400 -0.2874  0.0487  0.3002
 5755TIP3    H117229   2.647   4.314   0.460  0.8432  0.3653 -0.1629
 5755TIP3    H217230   2.732   4.224   0.374 -0.7480 -0.0048 -1.3949
 5756TIP3   OH217231   6.077   5.473   5.551 -0.2584 -0.0193 -0.6994
 5756TIP3    H117232   6.056   5.404   5.488 -0.6159 -1.3859  0.8388
 5756TIP3    H217233   5.997   5.482   5.604  1.1402 -1.4966  1.8404
 5757TIP3   OH217234   3.608   1.234   2.552  0.4081  0.3049  0.0523
 5757TIP3    H117235   3.576   1.318   2.587  1.3136  0.2460  1.0551
 5757TIP3    H217236   3.613   1.176   2.628  0.6640 -0.3880 -0.4835
 5758TIP3   OH217237   4.306   2.290   4.027  0.2005 -0.6229  0.0137
 5758TIP3    H117238   4.281   2.381   4.010  1.9506 -0.3775 -1.6065
 5758TIP3    H217239   4.264   2.240   3.957 -0.8771 -1.1021  0.9851
 5759TIP3   OH217240  -0.014   2.571   2.634  0.9970  0.7063 -0.0001
 5759TIP3    H117241   0.015   2.562   2.725 -1.0294 -1.0819  0.5601
 5759TIP3    H217242   0.022   2.494   2.590  0.5540  0.6646 -0.2950
 5760TIP3   OH217243   2.654   1.974   5.778 -0.3546  0.0118 -0.2282
 5760TIP3    H117244   2.697   2.018   5.704 -1.8674 -1.2986 -1.9915
 5760TIP3    H217245   2.562   1.997   5.768 -0.9344 -2.1615 -0.2090
 5761TIP3   OH217246   1.108   2.968   2.160  0.0795  0.1114  0.0490
 5761TIP3    H117247   1.069   2.941   2.077  1.5730  0.1241 -0.6884
 5761TIP3    H217248   1.162   2.893   2.187  0.2418  0.4175  0.6005
 5762TIP3   OH217249   0.787   5.308   4.308 -0.6808  0.0989  0.4980
 5762TIP3    H117250   0.829   5.362   4.375 -0.0467 -1.8496  1.7576
 5762TIP3    H217251   0.816   5.219   4.327 -2.2611 -0.8135 -1.0419
 5763TIP3   OH217252   4.839   4.370   1.884  0.2401 -0.3689 -0.4529
 5763TIP3    H117253   4.854   4.465   1.885  0.0284 -0.3228 -0.9266
 5763TIP3    H217254   4.836   4.345   1.976 -4.1597  0.8146  0.0067
 5764TIP3   OH217255   6.436   3.751   3.850  0.0776  0.2525 -0.4423
 5764TIP3    H117256   6.376   3.812   3.892 -0.2369  0.4769 -1.2047
 5764TIP3    H217257   6.453   3.684   3.916  0.1079  0.9473  0.2628
 5765TIP3   OH217258   6.199   0.494   4.460 -0.3476 -0.3364 -0.0661
 5765TIP3    H117259   6.205   0.454   4.546 -2.6256 -0.9524 -0.1402
 5765TIP3    H217260   6.290   0.503   4.431  0.3704 -4.3498  0.4423
 5766TIP3   OH217261   3.008   2.425   3.892  0.3861  0.0096  0.2915
 5766TIP3    H117262   2.996   2.352   3.953 -2.8425 -0.8820 -1.2046
 5766TIP3    H217263   3.055   2.386   3.818  1.0357  0.1535  0.6231
 5767TIP3   OH217264   2.251   5.498   3.225  0.0074  0.1504  0.1710
 5767TIP3    H117265   2.248   5.582   3.270 -2.3330  0.3357 -0.2231
 5767TIP3    H217266   2.163   5.487   3.188  0.8785 -1.4783 -1.6002
 5768TIP3   OH217267   0.218   2.059   5.716 -0.2074  0.3857 -0.4786
 5768TIP3    H117268   0.209   2.150   5.746 -1.5711  0.5746 -1.4009
 5768TIP3    H217269   0.260   2.067   5.631 -0.8776  0.2048 -0.8314
 5769TIP3   OH217270   1.417   2.633   5.629  0.5798  0.0009 -0.6045
 5769TIP3    H117271   1.507   2.604   5.646  0.3866 -0.1382  0.2156
 5769TIP3    H217272   1.420   2.668   5.539  1.1045 -1.3843 -1.1579
 5770TIP3   OH217273   5.147   1.501   4.255 -0.0435 -0.6395 -0.1151
 5770TIP3    H117274   5.214   1.542   4.201  0.8895 -0.1121  1.3743
 5770TIP3    H217275   5.195   1.455   4.324 -1.1839 -0.4018  0.8880
 5771TIP3   OH217276   5.809   2.098   4.380  0.0033  0.1852 -0.4788
 5771TIP3    H117277   5.815   2.119   4.473 -0.0585  1.7120 -0.8051
 5771TIP3    H217278   5.730   2.044   4.373  0.3287 -0.4322  0.4248
 5772TIP3   OH217279   4.562   1.676   2.324 -0.0533 -0.1923 -0.1717
 5772TIP3    H117280   4.621   1.633   2.262  0.3553  1.0072 -0.6428
 5772TIP3    H217281   4.531   1.605   2.381  2.0329 -0.8191  0.2597
 5773TIP3   OH217282   0.890   3.030   5.874 -0.2500  0.5740  0.2479
 5773TIP3    H117283   0.831   2.963   5.840 -0.1755  0.5656  0.1327
 5773TIP3    H217284   0.922   3.075   5.796  1.4351 -0.7014  0.1317
 5774TIP3   OH217285   2.721   4.977   2.300  0.0129  0.1277 -0.1139
 5774TIP3    H117286   2.717   4.946   2.390  0.6070  0.2481 -0.0357
 5774TIP3    H217287   2.713   4.899   2.246  1.3112 -0.1600  0.0760
 5775TIP3   OH217288   1.766   0.989   0.487  0.1811 -0.5766 -0.4296
 5775TIP3    H117289   1.727   1.043   0.556  0.1166 -0.4323 -0.5783
 5775TIP3    H217290   1.814   1.050   0.432 -0.6914 -0.5237 -1.1531
 5776TIP3   OH217291   4.143   3.394   5.460  0.1568  0.1680  0.4715
 5776TIP3    H117292   4.086   3.323   5.430  1.4917 -0.7679  0.0910
 5776TIP3    H217293   4.085   3.470   5.466 -1.3028 -0.9298  0.8615
 5777TIP3   OH217294   5.125   2.203   3.560 -0.6323  0.8951 -0.0408
 5777TIP3    H117295   5.157   2.177   3.473  0.3334  0.1994  0.4996
 5777TIP3    H217296   5.184   2.273   3.587  1.4821 -1.3055  1.5405
 5778TIP3   OH217297   6.400   6.502   4.172 -0.2202  0.0942  0.5664
 5778TIP3    H117298   6.451   6.580   4.195 -0.8252  0.8885 -0.6778
 5778TIP3    H217299   6.392   6.505   4.077 -2.6898  0.1223  0.6852
 5779TIP3   OH217300   4.556   0.448   0.189 -0.7265  0.7793 -1.1450
 5779TIP3    H117301   4.506   0.516   0.235  0.0959 -1.1867  3.1607
 5779TIP3    H217302   4.647   0.462   0.217 -0.1373 -0.5340 -2.2937
 5780TIP3   OH217303   2.528   3.552   2.026  0.3921 -0.3748 -0.4175
 5780TIP3    H117304   2.564   3.633   1.990  1.3111 -0.9540 -0.8414
 5780TIP3    H217305   2.585   3.531   2.100 -0.8018  0.1974  0.7077
 5781TIP3   OH217306   4.118   0.411   2.973  0.0220 -0.1902  0.1275
 5781TIP3    H117307   4.205   0.373   2.988 -0.0092  0.3404  1.8358
 5781TIP3    H217308   4.133   0.505   2.971 -0.3726 -0.1370 -0.7241
 5782TIP3   OH217309   3.403   5.605   0.621  0.1348 -0.0772 -0.1861
 5782TIP3    H117310   3.461   5.566   0.685 -0.3272  1.7232  1.4101
 5782TIP3    H217311   3.383   5.534   0.560  1.5060 -1.5284  0.9910
 5783TIP3   OH217312   0.075   2.134   0.839 -0.1593 -0.1385  0.6284
 5783TIP3    H117313   0.088   2.202   0.774  1.4270  0.0618  1.1115
 5783TIP3    H217314   0.105   2.173   0.921 -1.2427 -0.7053  1.3254
 5784TIP3   OH217315   3.583   4.599   4.588  0.6290  0.6800 -0.4761
 5784TIP3    H117316   3.504   4.618   4.538  1.2708 -0.3903 -1.9465
 5784TIP3    H217317   3.609   4.511   4.561  1.8963  0.7005  0.5639
 5785TIP3   OH217318   5.185   3.079   1.335  0.2350 -0.3686  0.4706
 5785TIP3    H117319   5.259   3.110   1.389  0.4553  1.6147 -0.8751
 5785TIP3    H217320   5.226   3.033   1.262  0.1042 -0.0622  0.2022
 5786TIP3   OH217321   1.326   5.812   4.333  0.0843 -0.3565  0.1096
 5786TIP3    H117322   1.393   5.880   4.324  1.0470 -1.0681  1.6114
 5786TIP3    H217323   1.376   5.733   4.352 -1.1218 -1.1914 -0.1389
 5787TIP3   OH217324   5.164   3.277   2.999 -0.0540 -0.1941  0.6920
 5787TIP3    H117325   5.217   3.231   2.934  0.2556  0.0457  0.7741
 5787TIP3    H217326   5.078   3.233   2.995  0.1223 -0.5267  0.5010
 5788TIP3   OH217327   7.234   2.042   2.144  0.2934  0.4837  0.2202
 5788TIP3    H117328   7.199   2.060   2.232 -1.5923  1.6374 -0.6994
 5788TIP3    H217329   7.161   2.060   2.085  0.4285 -3.4411 -1.4312
 5789TIP3   OH217330   5.657   2.024   1.337  0.2179 -0.5937  0.1067
 5789TIP3    H117331   5.727   1.959   1.336 -0.9238 -1.8949  0.5534
 5789TIP3    H217332   5.585   1.981   1.290 -1.3707 -0.6321  2.4205
 5790TIP3   OH217333   1.539   5.969   3.629  0.0978  0.0941  0.2926
 5790TIP3    H117334   1.464   5.927   3.586  0.3051 -0.2010  0.2163
 5790TIP3    H217335   1.513   6.061   3.639  0.6508  0.5306 -1.8720
 5791TIP3   OH217336   0.150   5.205   4.723 -0.2849  0.0599 -0.2784
 5791TIP3    H117337   0.203   5.177   4.797  0.0508  0.3331 -0.4138
 5791TIP3    H217338   0.213   5.226   4.655 -0.6320 -1.9036 -1.2750
 5792TIP3   OH217339   3.617   3.347   2.266  0.6028  0.3411  0.4870
 5792TIP3    H117340   3.624   3.262   2.223  3.0983  0.6936  0.0339
 5792TIP3    H217341   3.604   3.409   2.194 -0.2822  0.4686  0.7380
 5793TIP3   OH217342   6.485   3.822   0.981  0.0294  0.1516 -0.6588
 5793TIP3    H117343   6.413   3.806   0.921  1.0420  0.0862 -1.9154
 5793TIP3    H217344   6.468   3.910   1.016 -0.0176  0.6605 -1.9045
 5794TIP3   OH217345   0.662   5.300   4.844 -0.2686  0.7678 -0.5330
 5794TIP3    H117346   0.705   5.378   4.878 -2.4221  1.3535  1.0309
 5794TIP3    H217347   0.678   5.304   4.750  0.8846  2.2874 -0.3247
 5795TIP3   OH217348   6.614   4.675   3.126  0.6054 -0.3143  0.7530
 5795TIP3    H117349   6.675   4.605   3.152  0.0569 -0.4620  1.7007
 5795TIP3    H217350   6.634   4.747   3.186 -0.0767 -0.3252  1.0026
 5796TIP3   OH217351   5.874   5.097   0.471  0.4402  0.0112 -0.7165
 5796TIP3    H117352   5.896   5.056   0.555  0.4022  0.8630 -0.2806
 5796TIP3    H217353   5.843   5.185   0.494 -0.3221 -0.0107 -1.5598
 5797TIP3   OH217354   0.410   5.553   3.064  0.0873 -0.1139 -0.1840
 5797TIP3    H117355   0.345   5.526   3.129 -0.0873  1.3446  0.2687
 5797TIP3    H217356   0.488   5.503   3.087  0.7258  1.9400  2.5859
 5798TIP3   OH217357   6.819   4.851   3.837  0.3782  0.5447  0.2673
 5798TIP3    H117358   6.851   4.785   3.899  0.6931  1.6510  1.3110
 5798TIP3    H217359   6.894   4.867   3.779  0.2867 -0.0243 -0.0214
 5799TIP3   OH217360   1.227   6.276   0.190  0.6775  0.3263  0.4339
 5799TIP3    H117361   1.256   6.185   0.198  0.9132  0.2984 -0.6189
 5799TIP3    H217362   1.268   6.321   0.264 -0.7163 -0.7109  1.9033
 5800TIP3   OH217363   1.469   3.568   4.786 -0.1704  0.3646  0.0786
 5800TIP3    H117364   1.541   3.514   4.754 -0.3647  0.3531 -0.3490
 5800TIP3    H217365   1.445   3.621   4.710 -0.7463  0.2254  0.1660
 5801TIP3   OH217366   4.260   2.323   0.779 -0.1425 -0.2363 -0.3652
 5801TIP3    H117367   4.338   2.320   0.724  0.5037 -0.7871  0.5502
 5801TIP3    H217368   4.285   2.376   0.854  0.2245 -2.4221  1.1608
 5802TIP3   OH217369   0.939   1.897   1.128 -0.4790  0.5930 -0.3090
 5802TIP3    H117370   0.937   1.941   1.043  0.0820  1.0395 -0.0987
 5802TIP3    H217371   0.924   1.967   1.191 -2.0514  0.0873 -0.0844
 5803TIP3   OH217372   1.741   4.080   5.848 -0.2613  0.1677 -0.6144
 5803TIP3    H117373   1.683   4.153   5.824 -0.2396  0.0528 -1.0270
 5803TIP3    H217374   1.713   4.056   5.937 -1.3587 -0.3698 -1.0792
 5804TIP3   OH217375   6.953   3.273   2.159  0.1448 -0.0393 -0.4091
 5804TIP3    H117376   6.995   3.295   2.076  0.8257 -0.7775 -0.2836
 5804TIP3    H217377   7.006   3.318   2.225  0.1769 -0.2169 -0.3127
 5805TIP3   OH217378   6.442   3.006   4.972  0.1101  0.4150 -0.0458
 5805TIP3    H117379   6.500   3.074   5.006 -1.9055  1.5556  1.3178
 5805TIP3    H217380   6.460   2.929   5.026 -1.7682  1.6860  2.6264
 5806TIP3   OH217381   2.905   2.504   4.478  0.3074 -0.2093  0.0395
 5806TIP3    H117382   2.882   2.454   4.399  1.0413 -1.9712  0.8842
 5806TIP3    H217383   2.975   2.453   4.518 -0.4059  0.3630  2.1067
 5807TIP3   OH217384   6.225   5.482   4.930 -0.5278 -0.6154  0.3248
 5807TIP3    H117385   6.305   5.437   4.901 -0.5924 -1.5795  1.5312
 5807TIP3    H217386   6.174   5.414   4.974 -0.8184  0.5313  1.8816
 5808TIP3   OH217387   0.439   1.554   3.005 -0.3637  0.0616  0.0838
 5808TIP3    H117388   0.493   1.609   3.062 -0.4132 -0.4511  0.6293
 5808TIP3    H217389   0.461   1.464   3.029 -0.0122 -0.1727 -1.0612
 5809TIP3   OH217390   0.260   1.849   0.069 -0.5021  0.1028 -0.2593
 5809TIP3    H117391   0.226   1.931   0.103  0.9093  0.0923  1.3520
 5809TIP3    H217392   0.244   1.785   0.138 -0.7284 -0.7706 -1.0905
 5810TIP3   OH217393   4.250   3.038   2.913  0.5252  0.0767  0.5935
 5810TIP3    H117394   4.294   3.033   2.829  0.5311 -0.1911  0.6101
 5810TIP3    H217395   4.303   2.984   2.971 -1.3658 -2.7220 -0.0736
 5811TIP3   OH217396   1.747   0.543   3.915  0.1469 -0.0053  0.2879
 5811TIP3    H117397   1.699   0.489   3.851  2.1877 -2.5701  0.7316
 5811TIP3    H217398   1.688   0.550   3.990 -0.6469 -0.6185 -0.2588
 5812TIP3   OH217399   0.499   0.740   4.438 -0.3036  0.3209  0.5066
 5812TIP3    H117400   0.576   0.792   4.414  1.0270 -0.7591  2.1566
 5812TIP3    H217401   0.429   0.804   4.451  0.8008  1.5271  0.7496
 5813TIP3   OH217402   1.329   5.281   0.995  0.2277  0.5765  0.1751
 5813TIP3    H117403   1.399   5.330   1.038  0.5222 -0.6153  1.1001
 5813TIP3    H217404   1.373   5.207   0.953 -0.5000 -0.4337  1.1403
 5814TIP3   OH217405   5.700   1.402   5.401 -0.0056 -0.0238 -0.4519
 5814TIP3    H117406   5.722   1.445   5.318 -1.2491 -0.7303 -1.1718
 5814TIP3    H217407   5.691   1.473   5.464 -4.4639  1.1929 -2.1173
 5815TIP3   OH217408   0.343   4.417   2.464  0.1759 -0.3410 -0.4015
 5815TIP3    H117409   0.288   4.494   2.471 -0.3493 -0.5317 -2.0041
 5815TIP3    H217410   0.430   4.451   2.440  0.4768 -0.1287  0.9224
 5816TIP3   OH217411   5.315   2.309   1.434  0.0341 -1.0067  0.6338
 5816TIP3    H117412   5.400   2.276   1.464  0.2381 -1.3828 -0.3099
 5816TIP3    H217413   5.335   2.391   1.388 -0.6275  1.4026  4.2599
 5817TIP3   OH217414   1.511   2.532   3.746  0.3201 -0.0349 -0.0144
 5817TIP3    H117415   1.431   2.563   3.788  0.5317 -1.7119  1.7102
 5817TIP3    H217416   1.498   2.439   3.732  1.8508 -0.2936  0.0278
 5818TIP3   OH217417   7.139   4.447   0.786  0.1071 -0.2426  0.4707
 5818TIP3    H117418   7.047   4.440   0.762  0.0443 -1.4161  0.9941
 5818TIP3    H217419   7.177   4.504   0.719 -0.6450 -1.1533 -0.7732
 5819TIP3   OH217420   3.471   1.675   3.733 -0.4818  0.3218 -0.3615
 5819TIP3    H117421   3.463   1.661   3.827  1.8851 -0.2321 -0.1722
 5819TIP3    H217422   3.505   1.764   3.725 -0.6082  0.3421 -0.6958
 5820TIP3   OH217423   5.084   5.706   5.545 -0.1035  0.8142 -0.4448
 5820TIP3    H117424   5.068   5.703   5.639  0.9383  0.3742 -0.2663
 5820TIP3    H217425   5.017   5.648   5.508  0.1035  0.1948  0.1225
 5821TIP3   OH217426   2.546   0.952   4.698  0.2861 -0.0996  0.1219
 5821TIP3    H117427   2.450   0.951   4.695  0.2963 -0.0815 -0.2108
 5821TIP3    H217428   2.570   0.864   4.725  0.2530 -0.8403 -2.0775
 5822TIP3   OH217429   3.643   1.974   0.672 -0.1015 -0.6148  0.1653
 5822TIP3    H117430   3.562   1.993   0.624  0.2680 -0.9083 -0.5904
 5822TIP3    H217431   3.697   1.926   0.609  1.9247  2.2174 -0.4258
 5823TIP3   OH217432   4.733   5.723   5.540  0.1881  0.2541 -0.0357
 5823TIP3    H117433   4.747   5.632   5.569 -0.1836  0.6655  1.5675
 5823TIP3    H217434   4.699   5.767   5.618 -2.7834  1.0419 -1.6304
 5824TIP3   OH217435   1.808   4.689   1.248  0.1076  0.0309 -0.2840
 5824TIP3    H117436   1.837   4.778   1.227 -1.7510  0.5108 -0.9942
 5824TIP3    H217437   1.736   4.672   1.187 -0.6710 -1.3216  0.9453
 5825TIP3   OH217438   0.459   6.356   3.735  0.1770  0.3411 -0.2542
 5825TIP3    H117439   0.467   6.437   3.683 -0.5921  1.1362  0.8130
 5825TIP3    H217440   0.367   6.332   3.727  0.4078 -0.4401 -0.5690
 5826TIP3   OH217441   3.368   6.205   4.906 -0.1884 -0.1706 -0.1478
 5826TIP3    H117442   3.346   6.296   4.886  1.8647  0.1146 -1.4767
 5826TIP3    H217443   3.387   6.166   4.821  2.5048 -0.7645  0.6179
 5827TIP3   OH217444   2.657   4.345   5.816  0.2211 -0.4414  0.5341
 5827TIP3    H117445   2.667   4.394   5.735  0.8467  1.1904  1.5627
 5827TIP3    H217446   2.563   4.352   5.836  0.2521  0.0828  0.5109
 5828TIP3   OH217447   1.817   6.140   3.600  0.6996 -0.4567  0.3272
 5828TIP3    H117448   1.732   6.175   3.626  0.4311 -0.7870 -0.1053
 5828TIP3    H217449   1.849   6.095   3.678 -0.2297 -1.6922  0.0223
 5829TIP3   OH217450   0.205   4.650   2.452  0.5910 -0.2850  0.2805
 5829TIP3    H117451   0.179   4.641   2.360  0.0174 -1.6033  0.5477
 5829TIP3    H217452   0.244   4.737   2.457 -0.3912  0.2617 -0.9658
 5830TIP3   OH217453   6.925   6.658   2.196  0.0518 -0.0587 -0.4505
 5830TIP3    H117454   7.012   6.693   2.212  0.1718  0.7594 -2.5861
 5830TIP3    H217455   6.867   6.707   2.255  0.8593  0.2683  0.0808
 5831TIP3   OH217456   4.647   4.842   0.826 -0.2626  0.7352  0.3732
 5831TIP3    H117457   4.639   4.841   0.731  0.2435  1.7758  0.3061
 5831TIP3    H217458   4.716   4.778   0.845 -1.6434 -0.8682  0.2145
 5832TIP3   OH217459   3.067   5.742   0.426  0.1429  0.0006  0.3263
 5832TIP3    H117460   3.153   5.729   0.468  0.8577  1.3404 -0.6475
 5832TIP3    H217461   3.024   5.807   0.481  0.4454  0.5841 -0.1176
 5833TIP3   OH217462   1.018   4.779   3.253  0.5225 -0.0354 -0.0821
 5833TIP3    H117463   0.932   4.792   3.294  0.8730  0.3843  0.5401
 5833TIP3    H217464   1.026   4.684   3.245  0.2310 -0.1023  0.3653
 5834TIP3   OH217465   0.564   2.436   2.731  0.1258 -0.3032  0.0624
 5834TIP3    H117466   0.541   2.415   2.822 -1.4428 -0.4274 -0.3279
 5834TIP3    H217467   0.480   2.453   2.689  0.9021  0.6161 -1.1670
 5835TIP3   OH217468   6.594   6.499   3.231  0.9028  0.2250 -0.0168
 5835TIP3    H117469   6.688   6.507   3.248  1.0431 -0.6436 -0.3335
 5835TIP3    H217470   6.556   6.577   3.271  1.9913  1.6898 -1.6997
 5836TIP3   OH217471   1.318   0.357   4.230 -0.0696 -0.2327 -0.2357
 5836TIP3    H117472   1.390   0.387   4.286 -1.1447  2.1621 -0.0222
 5836TIP3    H217473   1.343   0.268   4.206  2.3790  0.0802  0.7836
 5837TIP3   OH217474   0.152   3.231   0.536  0.5223  0.2514  0.9716
 5837TIP3    H117475   0.234   3.266   0.501 -0.0522  1.7828  1.0534
 5837TIP3    H217476   0.094   3.307   0.540 -0.6955 -0.6722  1.5332
 5838TIP3   OH217477   2.672   5.071   3.536 -0.2051 -0.0298  0.5076
 5838TIP3    H117478   2.707   4.994   3.492  0.9303  1.3827 -1.1884
 5838TIP3    H217479   2.577   5.059   3.535 -0.0167 -2.1192  1.7427
 5839TIP3   OH217480   6.083   2.675   2.223 -0.3779  0.2309  0.8051
 5839TIP3    H117481   6.016   2.705   2.284 -0.4466  1.0190  0.3564
 5839TIP3    H217482   6.116   2.755   2.182 -0.1672 -0.2578 -0.0083
 5840TIP3   OH217483   6.522   2.003   1.024  0.0479 -0.1318  0.0780
 5840TIP3    H117484   6.451   2.067   1.017 -0.2598 -0.4996 -0.2805
 5840TIP3    H217485   6.501   1.953   1.103 -1.3175 -1.6524 -1.1653
 5841TIP3   OH217486   0.335   1.168   5.630 -0.4569  0.3185 -0.3947
 5841TIP3    H117487   0.315   1.126   5.546  0.8283  1.5601 -1.3668
 5841TIP3    H217488   0.269   1.236   5.640  0.1108  0.9749 -1.0231
 5842TIP3   OH217489   6.899   4.915   4.221 -0.2688  0.2318  0.0594
 5842TIP3    H117490   6.901   4.965   4.139  1.1554  0.2671  0.0849
 5842TIP3    H217491   6.991   4.906   4.245 -0.4767 -2.3137  0.1318
 5843TIP3   OH217492   6.964   1.255   5.106  0.0024 -0.2270 -0.1355
 5843TIP3    H117493   7.000   1.281   5.191 -1.2170  0.8824  0.0601
 5843TIP3    H217494   6.953   1.160   5.113 -2.4625  0.1055  1.9372
 5844TIP3   OH217495   0.356   4.927   0.818  0.1482  0.0586  0.3129
 5844TIP3    H117496   0.375   5.004   0.764  0.5926  0.0555  0.4571
 5844TIP3    H217497   0.314   4.963   0.897 -0.9304  0.0208 -0.2272
 5845TIP3   OH217498   5.764   6.377   3.380 -0.2820 -0.1733  0.3041
 5845TIP3    H117499   5.681   6.393   3.335  0.0377  0.2978 -0.1284
 5845TIP3    H217500   5.802   6.301   3.335  0.4413  0.8165 -0.8220
 5846TIP3   OH217501   6.598   4.251   4.128 -0.2906  0.3049  0.5772
 5846TIP3    H117502   6.537   4.324   4.115 -0.2389  0.0979 -1.0687
 5846TIP3    H217503   6.561   4.180   4.076  1.2538  0.1182 -0.3239
 5847TIP3   OH217504   4.366   0.739   4.684 -0.3571 -0.3888  0.6286
 5847TIP3    H117505   4.301   0.788   4.633  0.9577  1.0557  0.2533
 5847TIP3    H217506   4.345   0.647   4.666 -2.2419  0.0200  0.4878
 5848TIP3   OH217507   5.664   2.527   1.847  0.0432  0.5713  0.3133
 5848TIP3    H117508   5.752   2.550   1.876  0.8032  1.5495 -2.5159
 5848TIP3    H217509   5.613   2.607   1.859  0.5422  1.2065 -1.6053
 5849TIP3   OH217510   0.670   2.400   4.961 -0.8369  0.0175 -0.1130
 5849TIP3    H117511   0.620   2.452   4.899  0.8334  1.3189 -0.4427
 5849TIP3    H217512   0.655   2.309   4.935 -0.9822  0.4997 -1.7963
 5850TIP3   OH217513   1.142   6.199   2.058 -0.0229 -0.0475 -0.3915
 5850TIP3    H117514   1.068   6.225   2.004 -1.8131 -0.6075  1.6777
 5850TIP3    H217515   1.199   6.149   1.999 -1.9257 -0.7278 -1.7227
 5851TIP3   OH217516   3.255   3.974   5.190 -0.2962  0.3182 -0.4524
 5851TIP3    H117517   3.177   4.028   5.181 -0.4781  0.0132 -0.6998
 5851TIP3    H217518   3.232   3.910   5.258 -0.4493 -0.1003 -0.8935
 5852TIP3   OH217519   2.504   1.410   2.811  0.0878  0.2187  0.1773
 5852TIP3    H117520   2.495   1.347   2.739 -0.9289  1.2436 -0.6302
 5852TIP3    H217521   2.584   1.384   2.856  1.7042  0.5448 -2.3345
 5853TIP3   OH217522   7.097   5.907   0.488  0.0467  0.2321  0.0863
 5853TIP3    H117523   7.113   5.924   0.581 -0.6421 -0.9942  0.4587
 5853TIP3    H217524   7.005   5.879   0.484 -0.3758  1.6445 -1.1823
 5854TIP3   OH217525   2.606   3.402   0.926 -1.2512 -0.3129  0.2872
 5854TIP3    H117526   2.653   3.481   0.952 -0.7356 -0.9195  1.2609
 5854TIP3    H217527   2.616   3.399   0.831 -2.0114  1.2398  0.1296
 5855TIP3   OH217528   3.069   3.023   5.099 -0.1124 -0.4320 -0.7162
 5855TIP3    H117529   3.142   3.023   5.036  0.4748 -2.2761 -0.1025
 5855TIP3    H217530   3.110   3.042   5.183 -0.5642 -0.1989 -0.5441
 5856TIP3   OH217531   3.707   1.294   2.057  1.0567  0.2022 -0.3502
 5856TIP3    H117532   3.621   1.251   2.047  1.6997 -1.2009 -0.1693
 5856TIP3    H217533   3.707   1.323   2.148  1.6254 -1.8844  0.3859
 5857TIP3   OH217534   0.316   1.818   1.149 -0.5546  0.4071  0.3805
 5857TIP3    H117535   0.367   1.848   1.074  2.4758  0.7986  2.4259
 5857TIP3    H217536   0.278   1.734   1.120  0.8435  0.3424 -1.4372
 5858TIP3   OH217537   3.987   0.821   3.750 -0.4019 -0.0275 -0.4208
 5858TIP3    H117538   4.035   0.902   3.762  0.2365 -0.3223 -0.9138
 5858TIP3    H217539   4.048   0.752   3.776 -0.8483 -0.3627 -0.2457
 5859TIP3   OH217540   4.124   4.827   1.732 -0.2248 -0.3445 -0.0900
 5859TIP3    H117541   4.170   4.766   1.790  2.2849  1.8444  0.3805
 5859TIP3    H217542   4.190   4.855   1.669 -1.5701  1.1880 -0.8972
 5860TIP3   OH217543   3.403   3.512   4.178 -0.3895 -0.2274  0.0174
 5860TIP3    H117544   3.464   3.585   4.174 -0.3130 -0.3263 -0.6573
 5860TIP3    H217545   3.402   3.486   4.270 -1.2469  1.3248  0.4773
 5861TIP3   OH217546   3.689   3.793   3.905 -0.2415 -0.0563 -0.0023
 5861TIP3    H117547   3.605   3.839   3.901 -0.5255 -0.6662 -1.8922
 5861TIP3    H217548   3.755   3.862   3.898 -0.6579  0.1678 -2.2700
 5862TIP3   OH217549   0.510   0.313   4.665 -0.0777 -0.3597 -0.1774
 5862TIP3    H117550   0.480   0.382   4.606 -0.8000  0.3082  0.9394
 5862TIP3    H217551   0.493   0.347   4.753 -0.9959 -2.1845  0.3979
 5863TIP3   OH217552   1.811   0.768   3.584  0.8353 -0.4792  0.1123
 5863TIP3    H117553   1.870   0.840   3.607 -0.2139  0.0983  1.1225
 5863TIP3    H217554   1.855   0.689   3.617  1.7368 -0.2511 -0.5055
 5864TIP3   OH217555   1.203   5.482   0.066  0.3148  0.1590  0.3172
 5864TIP3    H117556   1.282   5.427   0.065 -0.3531 -0.8323  0.2070
 5864TIP3    H217557   1.133   5.422   0.041 -0.6042  0.8134  1.2544
 5865TIP3   OH217558   0.958   3.730   2.861  0.8071  0.0557  0.0569
 5865TIP3    H117559   0.898   3.757   2.930  0.2872 -1.8029  0.3808
 5865TIP3    H217560   1.043   3.763   2.890  0.4295  0.1664  1.0975
 5866TIP3   OH217561   2.962   6.585   2.964 -0.2453 -0.1152 -0.4348
 5866TIP3    H117562   2.893   6.583   2.898  0.2447  0.8588 -0.9974
 5866TIP3    H217563   2.986   6.493   2.977 -1.0748 -0.3981 -0.8258
 5867TIP3   OH217564   0.295   3.666   2.627 -0.5606  0.3527  0.6311
 5867TIP3    H117565   0.362   3.728   2.654  0.6793 -1.1952  1.2105
 5867TIP3    H217566   0.326   3.632   2.544 -0.6963 -0.2780  0.8361
 5868TIP3   OH217567   0.081   5.593   2.233 -0.4227  0.0554 -0.2906
 5868TIP3    H117568   0.106   5.677   2.194 -0.4781  0.1041 -0.2233
 5868TIP3    H217569   0.160   5.562   2.276 -0.3350 -0.0443 -0.5210
 5869TIP3   OH217570   3.142   2.220   4.907 -0.2918  0.3400 -0.4148
 5869TIP3    H117571   3.118   2.228   4.814 -2.4100  0.2879  0.0808
 5869TIP3    H217572   3.061   2.241   4.954  1.1658  2.0462  1.4972
 5870TIP3   OH217573   1.051   0.630   2.233 -0.1524  0.0715 -0.1957
 5870TIP3    H117574   0.977   0.641   2.292 -0.4526  1.5750 -0.8089
 5870TIP3    H217575   1.046   0.705   2.173 -1.2216 -2.4824 -3.6516
 5871TIP3   OH217576   5.372   5.663   4.801 -0.2189  0.2271 -0.5081
 5871TIP3    H117577   5.311   5.737   4.802 -1.1916 -0.5569 -0.5598
 5871TIP3    H217578   5.318   5.587   4.819  0.8992 -0.3992  0.3796
 5872TIP3   OH217579   6.894   2.584   3.543  0.0817 -0.1783 -0.4906
 5872TIP3    H117580   6.933   2.665   3.508  2.6355 -1.3599 -0.6261
 5872TIP3    H217581   6.878   2.530   3.466 -1.8663  0.2441 -0.4238
 5873TIP3   OH217582   5.578   1.986   5.470 -0.5184  0.3183 -0.1757
 5873TIP3    H117583   5.576   1.902   5.514 -0.3111  0.1899 -0.4063
 5873TIP3    H217584   5.655   1.981   5.413 -0.2691  0.8135  0.1122
 5874TIP3   OH217585   0.477   5.540   1.109  0.3956 -0.5201 -0.1128
 5874TIP3    H117586   0.484   5.563   1.201 -0.6858 -0.1994 -0.1075
 5874TIP3    H217587   0.396   5.490   1.102 -0.5351  1.0744 -1.2028
 5875TIP3   OH217588   0.898   2.464   5.447  0.1272  0.2332  0.0608
 5875TIP3    H117589   0.980   2.510   5.430  0.7475 -0.1406  1.7992
 5875TIP3    H217590   0.856   2.457   5.362  1.5647  1.0745 -0.7552
 5876TIP3   OH217591   1.898   2.406   5.659  0.3945  0.2714 -0.1769
 5876TIP3    H117592   1.991   2.429   5.661  1.0754 -2.1677  0.0247
 5876TIP3    H217593   1.887   2.357   5.578 -0.9610  1.2976 -0.6493
 5877TIP3   OH217594   4.658   1.520   3.779  0.6277  0.1644  0.2663
 5877TIP3    H117595   4.670   1.593   3.839  0.0942  0.7840 -0.3630
 5877TIP3    H217596   4.570   1.532   3.743  1.1702  0.2055 -1.1217
 5878TIP3   OH217597   3.716   1.378   3.139  0.5473  0.7979 -0.0689
 5878TIP3    H117598   3.768   1.359   3.061 -0.8797  1.1863 -1.1708
 5878TIP3    H217599   3.625   1.362   3.111  0.1371 -1.4821  2.2440
 5879TIP3   OH217600   0.664   3.357   4.801 -0.1436 -0.7423  0.1264
 5879TIP3    H117601   0.760   3.353   4.797 -0.1220  0.2592 -2.3614
 5879TIP3    H217602   0.646   3.415   4.874  1.1837 -0.5970  0.3663
 5880TIP3   OH217603   4.761   2.060   4.246  0.0323 -0.5495 -0.3484
 5880TIP3    H117604   4.775   2.151   4.270  1.2453 -0.6557 -0.6055
 5880TIP3    H217605   4.688   2.063   4.184  0.3752  0.3034 -0.7247
 5881TIP3   OH217606   1.107   0.599   5.700 -0.4465 -0.0106  0.2670
 5881TIP3    H117607   1.169   0.655   5.746 -1.1912  1.3186 -0.2849
 5881TIP3    H217608   1.162   0.539   5.649  0.3801 -0.8454  2.0430
 5882TIP3   OH217609   1.455   2.825   0.958  0.3166  0.5503 -0.1779
 5882TIP3    H117610   1.386   2.771   0.921  0.5087 -0.3272  0.6818
 5882TIP3    H217611   1.524   2.826   0.892 -0.1145  0.6243 -0.6311
 5883TIP3   OH217612   5.022   2.588   4.399  0.6934  0.3114 -0.1662
 5883TIP3    H117613   5.084   2.594   4.472  0.7442 -2.3603  0.1385
 5883TIP3    H217614   5.078   2.593   4.321  0.7314  2.3450 -0.0544
 5884TIP3   OH217615   1.447   2.022   3.199 -0.9819  0.1009 -0.6743
 5884TIP3    H117616   1.430   2.049   3.108  1.8162  1.4485 -0.8999
 5884TIP3    H217617   1.541   2.035   3.210 -1.0598 -1.1676  2.0935
 5885TIP3   OH217618   5.522   5.185   5.665  0.5100 -0.3442 -0.3427
 5885TIP3    H117619   5.553   5.141   5.586  0.3354 -1.5975  0.2631
 5885TIP3    H217620   5.601   5.196   5.718  0.6436  0.5860 -0.7111
 5886TIP3   OH217621   2.160   0.877   1.923  0.6124  0.1261 -0.5590
 5886TIP3    H117622   2.166   0.963   1.880  1.0249  0.0339 -0.6917
 5886TIP3    H217623   2.067   0.864   1.939  0.6253  1.0662  0.4038
 5887TIP3   OH217624   4.032   0.468   4.871  0.0253  0.1238  0.8439
 5887TIP3    H117625   3.975   0.509   4.936  0.2394 -0.6557  1.5402
 5887TIP3    H217626   4.120   0.478   4.908  0.1108 -0.6652  0.8597
 5888TIP3   OH217627   3.200   0.983   1.325  0.3471 -0.1322  0.1931
 5888TIP3    H117628   3.234   1.021   1.406  1.8807  0.0081 -0.4853
 5888TIP3    H217629   3.263   0.915   1.302 -0.1703 -0.2975 -0.7806
 5889TIP3   OH217630   0.656   5.871   2.414 -0.4077 -0.1516 -0.6744
 5889TIP3    H117631   0.740   5.865   2.368  1.1701 -0.3154  2.0119
 5889TIP3    H217632   0.633   5.964   2.411  0.3735  0.0513 -0.6395
 5890TIP3   OH217633   3.277   5.915   2.215 -0.0483 -0.0731 -0.0869
 5890TIP3    H117634   3.288   5.820   2.222 -1.3403 -0.1412  1.8852
 5890TIP3    H217635   3.259   5.931   2.123 -0.4134 -1.8229 -0.3552
 5891TIP3   OH217636   4.203   5.935   0.226 -0.3285 -0.1923  0.0722
 5891TIP3    H117637   4.276   5.934   0.165  0.7257 -1.2708  1.3035
 5891TIP3    H217638   4.174   5.844   0.230 -1.1052  0.0573  0.3715
 5892TIP3   OH217639   2.906   6.464   1.717 -0.5689  0.1641  0.1234
 5892TIP3    H117640   2.920   6.373   1.692 -0.3903  0.3431 -0.4610
 5892TIP3    H217641   2.978   6.484   1.777  0.4646  0.4375 -1.1581
 5893TIP3   OH217642   4.518   6.130   5.490  0.0192  0.0444 -0.1555
 5893TIP3    H117643   4.449   6.064   5.495  0.3534 -0.3515 -0.6838
 5893TIP3    H217644   4.471   6.213   5.486 -0.3945 -0.0147  2.1472
 5894TIP3   OH217645   5.783   3.350   3.541 -0.3869 -0.6798 -0.6258
 5894TIP3    H117646   5.830   3.376   3.620  1.4083  0.1847 -1.9143
 5894TIP3    H217647   5.696   3.389   3.551  0.5967  1.5564 -0.1661
 5895TIP3   OH217648   7.112   4.820   1.986 -0.3068 -0.9064 -0.1960
 5895TIP3    H117649   7.087   4.862   1.903 -0.6415 -1.1591 -0.2268
 5895TIP3    H217650   7.029   4.812   2.034  0.2721  2.7105  1.8320
 5896TIP3   OH217651   1.244   0.132   3.515 -0.1251 -0.2985  0.1776
 5896TIP3    H117652   1.209   0.101   3.432 -3.1315  0.4171  1.0482
 5896TIP3    H217653   1.188   0.207   3.538  2.9515  1.9019  1.1044
 5897TIP3   OH217654   6.761   0.497   3.799  0.1590 -0.3673 -0.1383
 5897TIP3    H117655   6.782   0.438   3.872  0.4055  0.5893  0.5876
 5897TIP3    H217656   6.845   0.524   3.764  0.0703  0.1743  0.0541
 5898TIP3   OH217657   0.408   0.521   5.576  0.2037  0.1575  0.2445
 5898TIP3    H117658   0.501   0.499   5.586  0.0371 -0.9959 -0.5207
 5898TIP3    H217659   0.382   0.556   5.661  1.2648  0.1930  0.5634
 5899TIP3   OH217660   3.524   6.754   1.139  0.4810  0.1781 -0.1759
 5899TIP3    H117661   3.563   6.694   1.202 -0.9917  0.1340  0.7409
 5899TIP3    H217662   3.498   6.830   1.191 -1.6014 -0.2426 -0.4978
 5900TIP3   OH217663   7.215   6.700   0.384  0.0252 -0.4856  0.2571
 5900TIP3    H117664   7.164   6.732   0.310 -0.7966  0.4928  1.2245
 5900TIP3    H217665   7.217   6.605   0.372  0.9634 -0.2661 -1.6698
 5901TIP3   OH217666   4.664   5.677   0.804 -0.1873  0.2069  0.5785
 5901TIP3    H117667   4.654   5.712   0.715  0.3115  1.0505  0.8351
 5901TIP3    H217668   4.658   5.754   0.860 -2.8084 -0.5727  1.4777
 5902TIP3   OH217669   3.384   5.493   5.218 -0.2801 -0.1648 -0.3089
 5902TIP3    H117670   3.454   5.517   5.157 -0.8897  1.7074 -0.3437
 5902TIP3    H217671   3.423   5.507   5.304 -0.4757  0.4735 -0.3226
 5903TIP3   OH217672   5.198   2.079   4.166 -0.4688  0.0996 -0.4061
 5903TIP3    H117673   5.163   2.151   4.217  0.4196  1.3373 -1.4649
 5903TIP3    H217674   5.185   2.001   4.220  0.3532  1.3261  1.6272
 5904TIP3   OH217675   4.330   4.681   5.565  0.0421 -0.4420 -0.5061
 5904TIP3    H117676   4.395   4.729   5.514 -0.4062  1.0954  0.3046
 5904TIP3    H217677   4.250   4.684   5.513  0.1531 -0.8109 -0.7045
 5905TIP3   OH217678   7.150   5.856   1.544 -0.2068 -0.5453  0.0265
 5905TIP3    H117679   7.161   5.915   1.618  0.1300 -0.6288  0.0445
 5905TIP3    H217680   7.200   5.895   1.473 -0.9365 -0.2053 -0.3141
 5906TIP3   OH217681   5.027   0.983   2.870  0.1956 -0.0910 -0.7563
 5906TIP3    H117682   5.058   1.067   2.905  2.4856 -1.2968  0.3958
 5906TIP3    H217683   4.946   1.004   2.825 -0.1113  2.4941  0.7708
 5907TIP3   OH217684   6.244   3.114   1.475  0.2185  0.2900  0.2419
 5907TIP3    H117685   6.200   3.191   1.509 -1.1582  0.8839 -2.5854
 5907TIP3    H217686   6.175   3.048   1.467  1.1588 -0.9344  1.5709
 5908TIP3   OH217687   1.359   0.858   1.919  0.2062 -0.0848 -0.7416
 5908TIP3    H117688   1.329   0.917   1.850 -0.3110 -1.2045 -1.5191
 5908TIP3    H217689   1.279   0.813   1.948  0.7571 -1.3452 -1.1167
 5909TIP3   OH217690   0.895   4.536   3.321 -0.3250  0.4090  0.1697
 5909TIP3    H117691   0.844   4.494   3.391 -1.0666  2.3998  0.8778
 5909TIP3    H217692   0.914   4.464   3.260 -1.7767 -0.9041  1.1640
 5910TIP3   OH217693   5.220   4.242   4.325  0.0008 -0.2770 -0.2691
 5910TIP3    H117694   5.205   4.236   4.419  3.0828 -1.2630  0.2742
 5910TIP3    H217695   5.191   4.331   4.302  1.4516  0.9271  2.1498
 5911TIP3   OH217696   4.682   0.572   1.200  0.0700 -0.0410  0.1941
 5911TIP3    H117697   4.730   0.602   1.277  0.8077  0.2772 -0.3837
 5911TIP3    H217698   4.660   0.481   1.219  2.9598 -0.9820 -0.4850
 5912TIP3   OH217699   3.802   6.146   0.941 -0.4968 -0.0507  0.0588
 5912TIP3    H117700   3.815   6.232   0.902 -0.6496  0.5616  1.2989
 5912TIP3    H217701   3.884   6.129   0.988 -0.5194 -0.5263 -0.0691
 5913TIP3   OH217702   5.618   0.263   0.107 -0.6891 -0.5627 -0.0231
 5913TIP3    H117703   5.706   0.285   0.136  0.0580 -3.0855 -0.1491
 5913TIP3    H217704   5.622   0.269   0.011 -1.1365  0.7825  0.0126
 5914TIP3   OH217705   2.100   5.639   3.735  0.4803 -0.1697 -0.2192
 5914TIP3    H117706   2.075   5.569   3.674  0.8819  1.0030 -1.7970
 5914TIP3    H217707   2.186   5.668   3.705  0.5525  0.6448  0.7245
 5915TIP3   OH217708   2.965   4.275   5.458  0.5859 -0.1017  0.4708
 5915TIP3    H117709   2.995   4.196   5.414 -1.6357 -0.3040 -0.7740
 5915TIP3    H217710   2.879   4.253   5.492 -0.6938  2.1365 -1.0764
 5916TIP3   OH217711   2.369   3.202   4.781 -0.1524  0.5114  0.1541
 5916TIP3    H117712   2.404   3.177   4.866 -1.9122 -0.6627  0.5819
 5916TIP3    H217713   2.420   3.151   4.718  0.0840  0.1520  0.6277
 5917TIP3   OH217714  -0.007   1.832   1.979 -0.2437  0.1935 -0.1666
 5917TIP3    H117715   0.035   1.747   1.995 -0.1667 -0.0990 -1.7447
 5917TIP3    H217716   0.009   1.882   2.058 -0.1437 -1.2102  0.7437
 5918TIP3   OH217717   5.913   3.902   3.912  0.4831  0.9496  0.1001
 5918TIP3    H117718   5.873   3.816   3.900 -0.8764  1.4609  0.7246
 5918TIP3    H217719   5.938   3.904   4.004 -0.1573  1.4607  0.2793
 5919TIP3   OH217720   5.569   0.424   2.507 -0.0870  0.7249 -0.6653
 5919TIP3    H117721   5.486   0.408   2.462  0.3092  0.9899 -1.5262
 5919TIP3    H217722   5.562   0.376   2.589 -1.9756  2.4761  0.3159
 5920TIP3   OH217723   3.784   0.002   3.176 -0.4851 -0.5060 -0.0270
 5920TIP3    H117724   3.813   0.092   3.190 -1.3570 -0.0942 -0.7962
 5920TIP3    H217725   3.843  -0.051   3.229  1.0608  0.3821 -0.7980
 5921TIP3   OH217726   6.356   1.263   0.110 -0.0625 -0.0274 -0.3645
 5921TIP3    H117727   6.318   1.177   0.090  0.8196 -0.5930  0.2934
 5921TIP3    H217728   6.327   1.281   0.200 -1.0071  0.8049 -0.8238
 5922TIP3   OH217729   5.514   2.299   3.754  0.0254 -0.5738  0.7476
 5922TIP3    H117730   5.546   2.220   3.710  1.1989 -0.8444  2.0216
 5922TIP3    H217731   5.503   2.273   3.845 -1.0605  0.3368  0.8950
 5923TIP3   OH217732   3.952   5.736   5.336 -0.3437 -0.0618  0.5454
 5923TIP3    H117733   3.958   5.660   5.393  1.0531  0.1025  0.6458
 5923TIP3    H217734   4.040   5.747   5.301 -0.6300  1.2494  0.1872
 5924TIP3   OH217735   2.019   1.851   3.953  0.4290 -0.1798 -0.0639
 5924TIP3    H117736   2.107   1.872   3.985  0.4694 -0.8279  0.2502
 5924TIP3    H217737   1.987   1.784   4.013 -0.3433  0.1666 -0.0852
 5925TIP3   OH217738   3.806   6.050   3.842 -0.1958  0.1704  0.5924
 5925TIP3    H117739   3.809   6.145   3.838 -1.1716  0.1763 -0.5108
 5925TIP3    H217740   3.716   6.027   3.821  0.3640 -1.0438 -0.6657
 5926TIP3   OH217741   1.717   3.351   2.847  0.2021  0.5239 -0.1883
 5926TIP3    H117742   1.677   3.323   2.765  0.5526 -0.2837 -0.0919
 5926TIP3    H217743   1.785   3.286   2.864  1.4752  1.7962 -0.2789
 5927TIP3   OH217744   5.423   3.241   1.366  0.4513 -0.1235  0.2446
 5927TIP3    H117745   5.387   3.225   1.279 -0.8069 -3.1511  1.1728
 5927TIP3    H217746   5.507   3.195   1.366  0.9223  0.7128  0.3590
 5928TIP3   OH217747   0.535   4.195   2.589  0.4429  0.2416 -0.4722
 5928TIP3    H117748   0.484   4.275   2.601 -0.6416 -0.4266 -0.4673
 5928TIP3    H217749   0.626   4.225   2.581 -0.1148  1.6101 -2.3059
 5929TIP3   OH217750   5.518   1.975   0.991  0.0436  0.4533 -0.3488
 5929TIP3    H117751   5.505   1.889   1.032  2.5937 -0.4130 -1.1479
 5929TIP3    H217752   5.501   2.038   1.062  0.9798 -0.8546  1.1151
 5930TIP3   OH217753   2.803   2.518   5.502  0.7639 -0.3451  0.2140
 5930TIP3    H117754   2.813   2.552   5.591 -2.0194  0.1055  0.4445
 5930TIP3    H217755   2.839   2.587   5.446 -2.7033  2.1841  0.7791
 5931TIP3   OH217756   0.452   4.214   3.497  0.4735 -0.3088  0.5805
 5931TIP3    H117757   0.430   4.121   3.500  1.5777 -0.6089 -0.0266
 5931TIP3    H217758   0.381   4.255   3.448  0.4837 -0.9912 -0.0067
 5932TIP3   OH217759   1.200   5.117   1.894 -0.1717 -0.3901 -0.1224
 5932TIP3    H117760   1.222   5.210   1.881 -2.6938  0.4965  1.2663
 5932TIP3    H217761   1.217   5.101   1.987  1.1988 -1.6610 -0.5591
 5933TIP3   OH217762   6.185   3.674   0.516 -0.2437  0.0331 -0.3573
 5933TIP3    H117763   6.219   3.648   0.601 -0.5072  2.0175  0.4277
 5933TIP3    H217764   6.239   3.749   0.491 -0.7528  0.0370 -1.4902
 5934TIP3   OH217765   6.200   5.872   0.022 -0.2318  0.1854  0.2709
 5934TIP3    H117766   6.256   5.804  -0.017  0.4903  0.9281 -0.0218
 5934TIP3    H217767   6.220   5.869   0.116 -0.3244 -0.1067  0.2838
 5935TIP3   OH217768   6.651   2.136   2.668 -0.1308 -0.7653  0.5919
 5935TIP3    H117769   6.675   2.183   2.748 -0.5811  1.0656 -0.2984
 5935TIP3    H217770   6.733   2.095   2.639 -0.1831 -2.3449  2.4987
 5936TIP3   OH217771   1.531   1.972   2.048  0.5029  0.1814 -0.4339
 5936TIP3    H117772   1.616   1.968   2.093  0.7858 -0.7342 -1.0286
 5936TIP3    H217773   1.484   2.043   2.093  0.6016 -0.9675  1.5859
 5937TIP3   OH217774   0.373   4.517   5.835 -0.1500  0.2500  0.0974
 5937TIP3    H117775   0.438   4.531   5.766  0.8123 -0.0291  0.9409
 5937TIP3    H217776   0.290   4.542   5.794  0.3439 -0.3210 -1.3062
 5938TIP3   OH217777   6.892   2.034   2.562  0.2514 -0.1060  0.9189
 5938TIP3    H117778   6.901   1.939   2.562  3.4170  0.0730 -0.2112
 5938TIP3    H217779   6.900   2.058   2.469  0.5157  1.3291  1.2928
 5939TIP3   OH217780   0.194   4.447   0.311 -0.6717  0.7447 -0.5572
 5939TIP3    H117781   0.100   4.445   0.292 -0.6331  2.5000 -1.0288
 5939TIP3    H217782   0.217   4.539   0.310  0.7611  0.4472  1.1622
 5940TIP3   OH217783   3.740   0.705   3.754  0.2172  0.2556 -0.2293
 5940TIP3    H117784   3.698   0.730   3.671 -0.0405  0.3132 -0.0829
 5940TIP3    H217785   3.829   0.739   3.747  0.2386  0.1329 -0.5438
 5941TIP3   OH217786   4.110   4.486   5.317  0.5450 -0.4271  0.1193
 5941TIP3    H117787   4.169   4.415   5.290  1.0949 -1.1652  2.9770
 5941TIP3    H217788   4.054   4.447   5.384 -1.3794  1.0257 -0.5383
 5942TIP3   OH217789   1.513   4.321   3.050  0.3517 -0.5125 -0.0842
 5942TIP3    H117790   1.550   4.234   3.055  0.1365 -0.6975 -1.4225
 5942TIP3    H217791   1.500   4.337   2.956  1.7911  1.5472  0.0041
 5943TIP3   OH217792   6.689   6.377   0.004  0.2188 -0.3349  0.6477
 5943TIP3    H117793   6.784   6.385  -0.007  0.1300 -0.4299 -0.2898
 5943TIP3    H217794   6.676   6.285   0.027  0.1686 -1.0166 -1.8350
 5944TIP3   OH217795   0.202   3.709   0.325 -0.1650  0.2726 -0.0936
 5944TIP3    H117796   0.279   3.655   0.309 -0.1999  0.2633 -0.2317
 5944TIP3    H217797   0.128   3.648   0.328 -0.4582  0.4788 -2.0757
 5945TIP3   OH217798   2.498   4.084   1.851 -0.5612  0.1122 -0.2763
 5945TIP3    H117799   2.424   4.024   1.860 -1.6105  1.3753 -0.1659
 5945TIP3    H217800   2.494   4.113   1.760 -1.8518  2.1862  0.3749
 5946TIP3   OH217801   3.520   6.546   1.747 -0.2464  0.2367 -0.3139
 5946TIP3    H117802   3.529   6.478   1.815 -1.1243 -1.0225 -1.4123
 5946TIP3    H217803   3.610   6.572   1.728 -0.0171  1.9171  2.5426
 5947TIP3   OH217804   0.469   6.635   0.890  0.1010  0.1165 -1.0698
 5947TIP3    H117805   0.483   6.717   0.842  0.5877 -0.4286 -1.8807
 5947TIP3    H217806   0.428   6.662   0.971  1.7839  1.3506 -0.5702
 5948TIP3   OH217807   1.055   3.784   2.405 -0.2213 -0.1144 -0.2751
 5948TIP3    H117808   0.997   3.836   2.460  0.8945  1.6132 -0.6504
 5948TIP3    H217809   1.115   3.741   2.466 -0.7582 -0.4844  0.0003
 5949TIP3   OH217810   0.011   0.489   3.795  0.0142 -0.0643  0.3588
 5949TIP3    H117811   0.079   0.434   3.759  1.1729  1.1529  0.6134
 5949TIP3    H217812  -0.052   0.427   3.834 -0.1114 -1.2888 -1.6416
 5950TIP3   OH217813   1.134   5.649   0.679 -0.0819 -0.1543  0.3585
 5950TIP3    H117814   1.144   5.562   0.717  0.3495 -0.5053 -0.5379
 5950TIP3    H217815   1.061   5.641   0.618  2.0601 -0.8456 -2.3076
 5951TIP3   OH217816   1.761   4.356   1.966  0.3871 -0.0406  0.2899
 5951TIP3    H117817   1.678   4.366   2.013  0.8456 -1.2717  1.4463
 5951TIP3    H217818   1.751   4.274   1.918  0.3228  0.6761 -0.9519
 5952TIP3   OH217819   1.127   0.296   0.998 -0.1557  0.2917 -0.1644
 5952TIP3    H117820   1.184   0.222   0.975 -0.7473 -0.2811  0.1589
 5952TIP3    H217821   1.109   0.339   0.915  2.7825  2.0541 -0.0416
 5953TIP3   OH217822   2.037   2.516   1.266  0.4148 -0.2869 -0.2160
 5953TIP3    H117823   1.996   2.576   1.328  0.2044 -0.2868 -0.3529
 5953TIP3    H217824   2.131   2.536   1.270  0.1693  1.4613 -1.7364
 5954TIP3   OH217825   1.240   2.622   3.854 -0.0529  0.1651 -0.2693
 5954TIP3    H117826   1.179   2.563   3.897  1.4178 -1.6195 -0.4849
 5954TIP3    H217827   1.266   2.684   3.923 -0.2536 -0.5831  0.4963
 5955TIP3   OH217828   0.469   3.769   2.107 -0.4901  0.2854 -0.1265
 5955TIP3    H117829   0.424   3.685   2.095  1.3708 -0.8906  0.7427
 5955TIP3    H217830   0.398   3.834   2.105 -1.6575 -0.8351 -4.4706
 5956TIP3   OH217831   1.829   5.056   0.138  0.0638 -0.2958 -0.7006
 5956TIP3    H117832   1.910   5.093   0.174 -0.5399  0.5067 -0.1174
 5956TIP3    H217833   1.848   4.963   0.127  0.6266 -0.3710  0.7017
 5957TIP3   OH217834   1.462   4.725   2.587 -0.0926  0.1345  0.1391
 5957TIP3    H117835   1.554   4.747   2.579 -0.5876  2.7802  0.5757
 5957TIP3    H217836   1.428   4.788   2.651 -2.3221 -0.3795 -0.4398
 5958TIP3   OH217837   3.190   3.983   1.379 -0.5129 -0.2594 -0.0277
 5958TIP3    H117838   3.117   4.034   1.345 -1.5973 -0.4179  1.8973
 5958TIP3    H217839   3.220   4.031   1.456  2.5004  0.6230 -1.5766
 5959TIP3   OH217840   1.639   0.970   2.776 -0.2457  0.3253  0.4676
 5959TIP3    H117841   1.674   1.028   2.844 -0.3288  0.9956 -0.0475
 5959TIP3    H217842   1.547   0.958   2.799 -0.2771  0.5614  0.4691
 5960TIP3   OH217843   3.393   2.499   3.180  0.1451  0.0266 -0.7004
 5960TIP3    H117844   3.333   2.568   3.151 -0.6805 -0.8102 -1.0377
 5960TIP3    H217845   3.421   2.457   3.099  0.9877  0.2196 -0.5253
 5961TIP3   OH217846   4.479   2.944   0.651 -0.1223 -0.5372  0.4423
 5961TIP3    H117847   4.546   2.901   0.598 -1.0560 -0.7112 -0.6455
 5961TIP3    H217848   4.417   2.979   0.587 -0.5817  0.4333  1.3875
 5962TIP3   OH217849   1.399   3.346   0.639  0.0935 -0.0047  0.3237
 5962TIP3    H117850   1.335   3.412   0.667  0.1927 -0.6959  2.3320
 5962TIP3    H217851   1.484   3.386   0.658  0.2692  0.3555 -1.0605
 5963TIP3   OH217852   2.538   1.750   4.173 -0.0039 -0.4391  0.5982
 5963TIP3    H117853   2.473   1.783   4.111  0.3671 -1.2498 -0.2477
 5963TIP3    H217854   2.553   1.824   4.233 -1.6436 -0.2177  0.7993
 5964TIP3   OH217855   3.786   0.553   2.811 -0.4149 -0.2117 -0.0940
 5964TIP3    H117856   3.696   0.529   2.787 -0.1723 -2.2355  0.8291
 5964TIP3    H217857   3.840   0.519   2.740 -0.0982 -2.2695  1.0654
 5965TIP3   OH217858   2.375   5.167   1.731  0.2500  0.2331 -0.1623
 5965TIP3    H117859   2.414   5.244   1.773  1.5199 -0.4942  0.0516
 5965TIP3    H217860   2.442   5.099   1.739 -0.2209 -0.4648 -1.7011
 5966TIP3   OH217861   4.156   0.306   2.657 -0.1866 -0.4752 -0.0669
 5966TIP3    H117862   4.130   0.386   2.703  0.5577 -0.6629  0.7001
 5966TIP3    H217863   4.225   0.268   2.712  1.1137 -0.4396 -1.6201
 5967TIP3   OH217864   1.129   2.213   4.657  0.0191 -0.0821  0.4772
 5967TIP3    H117865   1.048   2.255   4.686  1.2838  1.6986  1.6297
 5967TIP3    H217866   1.101   2.126   4.628 -2.2820  0.4445  0.8715
 5968TIP3   OH217867   0.902   1.802   3.981 -0.1967 -0.3755  0.9987
 5968TIP3    H117868   0.809   1.784   3.968 -0.3183  0.4631  0.6347
 5968TIP3    H217869   0.939   1.802   3.892  0.1039 -0.4475  1.1226
 5969TIP3   OH217870   1.609   1.766   3.224 -0.2652  0.1292 -0.1798
 5969TIP3    H117871   1.640   1.842   3.272  0.7883 -1.9071  2.6369
 5969TIP3    H217872   1.523   1.792   3.191  0.2007  2.6166  0.3404
 5970TIP3   OH217873   6.660   2.890   5.764  0.1868 -0.3858  0.4420
 5970TIP3    H117874   6.570   2.859   5.771  0.1379 -0.0954  1.2110
 5970TIP3    H217875   6.661   2.972   5.813  0.5641  0.2920 -0.6423
 5971TIP3   OH217876   1.070   3.583   1.014 -0.0478  0.4334 -0.1536
 5971TIP3    H117877   0.979   3.556   1.027  0.2756 -0.8646 -0.3979
 5971TIP3    H217878   1.066   3.679   1.009 -1.5671  0.3502 -1.4008
 5972TIP3   OH217879   5.416   3.225   0.568 -0.2264 -0.4289 -0.0887
 5972TIP3    H117880   5.431   3.288   0.637  1.0060  0.4313 -1.0926
 5972TIP3    H217881   5.337   3.256   0.524  0.0395  0.0816 -0.2100
 5973TIP3   OH217882   5.403   5.840   3.088  0.0803 -0.3163 -0.7628
 5973TIP3    H117883   5.492   5.862   3.115 -0.0340 -1.0899  0.3055
 5973TIP3    H217884   5.386   5.755   3.129 -1.0148 -0.3474 -1.2553
 5974TIP3   OH217885   5.704   0.168   3.024  0.2756 -0.4579  0.1684
 5974TIP3    H117886   5.714   0.146   3.117  2.0831  0.6387  0.2729
 5974TIP3    H217887   5.694   0.083   2.980  0.5695 -1.0657  1.2450
 5975TIP3   OH217888   2.932   6.712   5.455 -0.2346 -0.2086 -0.1325
 5975TIP3    H117889   3.016   6.668   5.460  0.2890  0.9020  2.1977
 5975TIP3    H217890   2.879   6.670   5.522 -0.7783  0.5799 -0.0491
 5976TIP3   OH217891   5.650   4.539   2.149 -0.5255 -0.1394  0.1908
 5976TIP3    H117892   5.563   4.572   2.171  0.0391  1.7250 -0.1589
 5976TIP3    H217893   5.649   4.447   2.175 -2.5875 -0.1531  0.1953
 5977TIP3   OH217894   2.062   4.043   3.742  0.1355 -0.8484 -0.0708
 5977TIP3    H117895   2.109   4.042   3.825  0.6733  2.0482 -0.2348
 5977TIP3    H217896   2.108   3.978   3.688  0.1570 -2.3320  1.6397
 5978TIP3   OH217897   3.523   6.439   3.321 -0.3850  0.1158 -0.1082
 5978TIP3    H117898   3.444   6.422   3.373 -0.6032  0.6347 -0.2643
 5978TIP3    H217899   3.594   6.401   3.373 -0.6467  0.2989  0.3875
 5979TIP3   OH217900   4.196   5.106   1.345  0.0252 -0.0789  0.1404
 5979TIP3    H117901   4.120   5.160   1.323 -0.1227  0.0744  1.0161
 5979TIP3    H217902   4.272   5.161   1.322 -0.1007 -0.4317 -1.2369
 5980TIP3   OH217903   5.747   1.240   1.177  0.1922 -0.2556  0.5310
 5980TIP3    H117904   5.710   1.302   1.114 -0.4241  1.4238  2.4288
 5980TIP3    H217905   5.671   1.202   1.220  0.5309  1.4189  2.7861
 5981TIP3   OH217906   5.994   2.123   5.315  0.8800 -0.1713 -0.2303
 5981TIP3    H117907   5.976   2.188   5.248 -0.5614  1.8432  1.9693
 5981TIP3    H217908   5.973   2.166   5.398  2.7579 -2.4375  1.5976
 5982TIP3   OH217909   7.175   1.786   0.219 -0.2665 -0.3436 -0.1070
 5982TIP3    H117910   7.184   1.823   0.307  3.0396  0.6614 -0.7424
 5982TIP3    H217911   7.157   1.861   0.163 -0.9253 -0.7858 -0.5065
 5983TIP3   OH217912   5.732   6.249   4.382 -0.0282 -0.7077 -0.0033
 5983TIP3    H117913   5.774   6.220   4.463  0.8953  0.6408  0.0426
 5983TIP3    H217914   5.755   6.183   4.317 -2.1723 -2.7164  1.1409
 5984TIP3   OH217915   2.850   5.234   3.906  0.5867  0.2515 -0.1846
 5984TIP3    H117916   2.808   5.313   3.874  0.9996  0.1542 -0.9921
 5984TIP3    H217917   2.815   5.222   3.994 -3.2230 -1.3343 -1.6871
 5985TIP3   OH217918   7.164   6.715   5.059 -0.2355  0.0626 -0.0824
 5985TIP3    H117919   7.157   6.773   4.983 -0.8470 -0.6620 -0.5875
 5985TIP3    H217920   7.150   6.627   5.024 -3.4107 -0.0917  1.2382
 5986TIP3   OH217921   3.104   3.808   3.310 -0.5093 -0.5814 -0.2706
 5986TIP3    H117922   3.030   3.834   3.365  0.3899  1.5140  0.0611
 5986TIP3    H217923   3.065   3.760   3.237 -2.1922  0.3621 -0.0336
 5987TIP3   OH217924   1.461   5.096   1.546 -0.1356 -0.4454 -0.1100
 5987TIP3    H117925   1.531   5.045   1.505 -0.1364  0.2499 -1.0109
 5987TIP3    H217926   1.467   5.075   1.639  1.0951 -0.5983 -0.2135
 5988TIP3   OH217927   0.328   0.599   5.088  0.0275  0.0497 -0.5535
 5988TIP3    H117928   0.370   0.612   5.174  0.5644 -0.4404 -0.7300
 5988TIP3    H217929   0.359   0.513   5.060 -0.9949 -0.2518 -0.7669
 5989TIP3   OH217930   1.537   3.907   2.866  0.5086  0.2173  0.2553
 5989TIP3    H117931   1.572   3.926   2.779 -2.3967  0.7643 -0.8993
 5989TIP3    H217932   1.495   3.822   2.857  1.3954 -0.3884  1.5698
 5990TIP3   OH217933   3.012   2.859   4.079  0.2746 -0.0454  0.9554
 5990TIP3    H117934   3.097   2.817   4.068  0.0946 -0.2075  0.1417
 5990TIP3    H217935   2.969   2.807   4.147  0.9364  0.2260  1.5930
 5991TIP3   OH217936   4.852   1.271   0.403  0.5601 -0.3464  0.1132
 5991TIP3    H117937   4.810   1.198   0.358  0.4049 -1.2636  1.6758
 5991TIP3    H217938   4.795   1.346   0.385 -0.3538 -1.0250  0.0819
 5992TIP3   OH217939   3.065   1.872   0.716 -0.0895 -0.1010 -0.4193
 5992TIP3    H117940   3.015   1.941   0.758 -0.4661 -0.6323  0.0179
 5992TIP3    H217941   3.001   1.827   0.661 -0.5591 -1.8902  1.4700
 5993TIP3   OH217942   4.674   5.870   1.404 -0.1696 -0.9673  0.2404
 5993TIP3    H117943   4.699   5.854   1.495 -1.4780 -0.6338  0.6802
 5993TIP3    H217944   4.727   5.944   1.376 -0.9079 -0.0236  1.2721
 5994TIP3   OH217945   2.909   5.715   5.796  0.4161 -0.1884 -0.2135
 5994TIP3    H117946   2.894   5.643   5.857  0.0207  1.5688  1.8945
 5994TIP3    H217947   2.821   5.741   5.768  0.4821  0.1701 -0.0949
 5995TIP3   OH217948   3.112   4.910   4.368 -0.0141  0.0817  0.0209
 5995TIP3    H117949   3.156   4.961   4.299  2.4140  0.4614  1.6956
 5995TIP3    H217950   3.166   4.831   4.377 -1.0698 -0.5892  0.5838
 5996TIP3   OH217951   4.396   2.744   5.187 -0.2349 -0.4369 -0.0775
 5996TIP3    H117952   4.444   2.802   5.128  2.1277 -2.2650 -0.1156
 5996TIP3    H217953   4.448   2.663   5.188 -0.8818 -0.9604  3.4596
 5997TIP3   OH217954   4.521   6.168   0.227  0.1055 -0.1594 -0.0941
 5997TIP3    H117955   4.489   6.188   0.140  0.9150  2.8971  0.2170
 5997TIP3    H217956   4.442   6.160   0.281 -0.3120  0.4821 -0.6119
 5998TIP3   OH217957   4.206   4.741   0.719  0.3533 -0.4170  1.0669
 5998TIP3    H117958   4.283   4.734   0.775  0.6310  1.3380  0.9646
 5998TIP3    H217959   4.165   4.655   0.723  2.7524 -1.6733  0.4924
 5999TIP3   OH217960   3.487   5.408   2.289  0.3651  0.1503 -0.4418
 5999TIP3    H117961   3.456   5.317   2.299 -0.5536  0.4611 -0.3547
 5999TIP3    H217962   3.423   5.460   2.336  1.1242  0.8237 -0.1366
 6000TIP3   OH217963   4.904   1.621   4.366 -0.0471 -0.5139 -0.4974
 6000TIP3    H117964   4.939   1.605   4.454 -2.0276 -5.2829 -0.2519
 6000TIP3    H217965   4.978   1.606   4.307  0.2791 -2.3378  0.2924
 6001TIP3   OH217966   5.120   1.019   4.156 -0.0955 -0.7305 -0.7226
 6001TIP3    H117967   5.062   1.055   4.088  1.1414  0.2718 -1.3029
 6001TIP3    H217968   5.139   0.931   4.126  1.5636  0.1555 -2.5107
 6002TIP3   OH217969   5.727   1.566   4.829  0.3703 -0.5808  0.0797
 6002TIP3    H117970   5.638   1.543   4.858  0.4502 -0.5195  0.3749
 6002TIP3    H217971   5.747   1.500   4.763 -0.4544  0.2607 -1.0522
 6003TIP3   OH217972   1.429   2.252   3.385 -0.1462 -0.1975 -0.0291
 6003TIP3    H117973   1.430   2.183   3.450 -0.5061 -0.7198 -0.5730
 6003TIP3    H217974   1.460   2.210   3.305  1.8433  0.8045  0.1461
 6004TIP3   OH217975   2.284   5.484   1.298 -0.0004 -0.0543  0.0335
 6004TIP3    H117976   2.299   5.573   1.331 -0.8401  0.1253 -0.0580
 6004TIP3    H217977   2.372   5.450   1.283  0.4071  1.9610 -3.1469
 6005TIP3   OH217978   0.852   0.117   4.483  0.4006  0.2213 -0.7522
 6005TIP3    H117979   0.931   0.068   4.506  0.5943  1.5036  1.6484
 6005TIP3    H217980   0.885   0.202   4.454 -0.0553  0.6348 -0.0892
 6006TIP3   OH217981   2.549   1.052   5.572  0.5854 -0.5598  0.3437
 6006TIP3    H117982   2.457   1.027   5.583  0.9076 -1.7864  0.3969
 6006TIP3    H217983   2.596   0.997   5.634  1.6499 -2.0063 -1.6400
 6007TIP3   OH217984   6.956   0.950   0.819 -0.3327  0.0612 -0.3532
 6007TIP3    H117985   6.990   0.886   0.757  0.3344  0.3762 -0.3178
 6007TIP3    H217986   6.908   1.013   0.765  0.8208  0.7172 -0.6503
 6008TIP3   OH217987   6.814   1.042   1.516 -0.0515  0.1435  0.0543
 6008TIP3    H117988   6.794   1.128   1.552 -0.2827  0.9718 -1.9199
 6008TIP3    H217989   6.796   1.050   1.422  1.3089 -1.6335 -0.4203
 6009TIP3   OH217990   0.565   1.940   3.262  0.2738 -0.9428 -0.1018
 6009TIP3    H117991   0.487   1.985   3.232 -0.0664 -1.3434  0.1734
 6009TIP3    H217992   0.622   2.009   3.295 -0.4350 -0.7570  0.7526
 6010TIP3   OH217993   0.524   3.668   4.830 -0.0914 -0.1982  0.3813
 6010TIP3    H117994   0.481   3.690   4.913  0.5576 -0.5580  0.8217
 6010TIP3    H217995   0.610   3.635   4.855 -0.1439 -0.9745 -0.4008
 6011TIP3   OH217996   7.228   6.453   1.854 -0.1010 -0.2781  0.1046
 6011TIP3    H117997   7.146   6.468   1.902  0.9081  0.8997  1.5605
 6011TIP3    H217998   7.224   6.513   1.780 -0.6023 -0.3216  0.0916
 6012TIP3   OH217999   5.177   4.123   5.523  0.2182 -0.0494  0.5592
 6012TIP3    H118000   5.254   4.088   5.479 -0.4793  0.0601 -0.8154
 6012TIP3    H218001   5.178   4.216   5.500  0.9923  0.4780  2.5667
 6013TIP3   OH218002   0.681   0.924   2.153  0.0013 -0.0947  0.6448
 6013TIP3    H118003   0.664   1.014   2.124 -1.6657  0.0561  1.9457
 6013TIP3    H218004   0.727   0.884   2.080  1.5086  2.0315  0.3216
 6014TIP3   OH218005   3.649   5.644   5.362  0.3344  0.1002 -0.0207
 6014TIP3    H118006   3.740   5.672   5.372  0.7610 -0.6200 -1.5933
 6014TIP3    H218007   3.647   5.598   5.278 -1.4289 -0.1404  0.1157
 6015TIP3   OH218008   6.700   5.703   3.088  0.9161  0.1347  0.6273
 6015TIP3    H118009   6.618   5.678   3.131  0.2171  0.5115 -0.4357
 6015TIP3    H218010   6.741   5.765   3.148  0.0147  0.5598  0.8152
 6016TIP3   OH218011   5.645   3.452   2.736  0.7671 -0.1297 -0.3139
 6016TIP3    H118012   5.658   3.502   2.816  0.0494  1.6690 -1.2566
 6016TIP3    H218013   5.550   3.450   2.725  0.8313 -0.8837 -0.8257
 6017TIP3   OH218014   2.918   1.016   0.081 -0.3572  0.3812  0.9698
 6017TIP3    H118015   2.980   1.086   0.060 -0.1455 -0.3375 -1.1000
 6017TIP3    H218016   2.833   1.050   0.054 -0.2209 -0.1991 -0.2749
 6018TIP3   OH218017   3.500   5.561   3.400  0.3157  1.2451  0.4653
 6018TIP3    H118018   3.528   5.643   3.360 -0.3169  1.0334 -0.4426
 6018TIP3    H218019   3.576   5.503   3.394  0.4177  1.4147  0.1213
 6019TIP3   OH218020   0.873   4.895   0.434  0.2165 -0.1754  0.2362
 6019TIP3    H118021   0.917   4.911   0.351 -0.2373  0.8678  0.1665
 6019TIP3    H218022   0.786   4.935   0.422 -0.4199 -1.3881  0.6724
 6020TIP3   OH218023   2.232   4.230   2.015  0.2493  0.2137 -0.0874
 6020TIP3    H118024   2.202   4.230   2.106 -1.2289 -1.9436 -0.4802
 6020TIP3    H218025   2.151   4.234   1.964  0.9770  0.0395 -1.2949
 6021TIP3   OH218026   6.921   1.355   0.820 -0.1599 -0.2553  0.2336
 6021TIP3    H118027   6.969   1.325   0.743  0.1058  1.2089 -0.1977
 6021TIP3    H218028   6.846   1.295   0.826  0.2042 -0.8339 -0.7298
 6022TIP3   OH218029   0.024   5.758   5.242 -0.4651  0.0493  0.1316
 6022TIP3    H118030   0.096   5.711   5.199 -0.0177  0.4548  0.4234
 6022TIP3    H218031  -0.038   5.777   5.172 -0.7382 -1.1187  0.0341
 6023TIP3   OH218032   0.198   6.206   5.037 -0.1161  0.2525  0.4142
 6023TIP3    H118033   0.268   6.143   5.055 -1.4998 -1.2801  0.7001
 6023TIP3    H218034   0.134   6.191   5.106 -1.1761  0.9233 -0.3911
 6024TIP3   OH218035   0.999   1.176   2.673 -0.3776  0.4978  0.3654
 6024TIP3    H118036   1.019   1.268   2.658 -0.0244  0.4168  0.3504
 6024TIP3    H218037   1.083   1.131   2.673 -0.3218  0.4718  2.4711
 6025TIP3   OH218038   6.456   0.339   5.131  0.0520 -0.4345  0.0104
 6025TIP3    H118039   6.543   0.371   5.155 -0.5287  0.2965  1.2002
 6025TIP3    H218040   6.444   0.371   5.041  0.2897  1.0557  0.4699
 6026TIP3   OH218041   5.071   6.817   1.741 -0.8998 -0.1199  0.0968
 6026TIP3    H118042   5.132   6.799   1.813 -2.6356 -1.2021  1.3997
 6026TIP3    H218043   5.015   6.739   1.738 -3.1874  1.4493  0.0401
 6027TIP3   OH218044   3.187   3.127   3.424  0.3458  0.9070  0.0142
 6027TIP3    H118045   3.111   3.144   3.480  0.2050 -0.8116  0.3853
 6027TIP3    H218046   3.196   3.032   3.423  2.0481  1.0379 -0.6471
 6028TIP3   OH218047   5.842   0.843   4.017 -0.4697  0.6110  0.0372
 6028TIP3    H118048   5.913   0.853   4.081  0.3987  0.5907 -0.9054
 6028TIP3    H218049   5.835   0.928   3.974 -1.0050  0.6047  0.1057
 6029TIP3   OH218050   6.122   2.436   4.266 -0.1869 -0.1555  0.2276
 6029TIP3    H118051   6.081   2.424   4.352 -1.5681 -0.9240 -0.5124
 6029TIP3    H218052   6.195   2.496   4.283 -1.2179  0.7467  1.7022
 6030TIP3   OH218053   0.495   3.267   3.628  1.0525  0.0233  0.2248
 6030TIP3    H118054   0.566   3.218   3.587  1.3568  0.7830 -0.1680
 6030TIP3    H218055   0.451   3.312   3.556 -0.2698 -0.9558  0.3691
 6031TIP3   OH218056   4.014   3.266   0.914 -0.1718  0.5092  0.3106
 6031TIP3    H118057   4.109   3.262   0.919 -0.1868 -0.3330  0.1076
 6031TIP3    H218058   3.995   3.350   0.872  0.5026  0.3483 -0.3169
 6032TIP3   OH218059   4.081   3.672   5.758 -0.1651  0.1161  0.0586
 6032TIP3    H118060   4.079   3.686   5.663 -0.4161 -0.3975 -0.0137
 6032TIP3    H218061   4.036   3.589   5.771  0.8048 -0.3610  0.5230
 6033TIP3   OH218062   0.374   4.222   5.181 -0.1927 -0.2082  0.3514
 6033TIP3    H118063   0.285   4.245   5.154  0.6039  1.0514 -1.3062
 6033TIP3    H218064   0.428   4.296   5.156  1.8140 -2.0945 -1.3720
 6034TIP3   OH218065   1.498   1.676   5.298 -0.5713 -0.3596 -0.2677
 6034TIP3    H118066   1.576   1.623   5.289 -1.5137 -1.7369 -0.6709
 6034TIP3    H218067   1.465   1.687   5.209 -0.9223  0.0772 -0.0889
 6035TIP3   OH218068   1.684   2.991   1.764  0.0985 -0.2925 -0.1274
 6035TIP3    H118069   1.626   3.064   1.785 -0.0914 -0.7502  1.0294
 6035TIP3    H218070   1.730   2.972   1.845  0.3644 -1.2649 -0.4817
 6036TIP3   OH218071   5.762   4.728   5.311  0.3135  0.5036 -0.0208
 6036TIP3    H118072   5.729   4.724   5.400  2.8741  0.8297  1.0508
 6036TIP3    H218073   5.777   4.636   5.287 -1.0344  0.3711 -0.4249
 6037TIP3   OH218074   6.211   1.400   1.894  0.9915  0.2534 -0.0154
 6037TIP3    H118075   6.154   1.457   1.946 -0.9088 -1.8590  0.3553
 6037TIP3    H218076   6.212   1.317   1.941  0.2719 -1.3310 -2.6256
 6038TIP3   OH218077   3.218   1.464   2.778 -0.0320  0.5401 -0.2804
 6038TIP3    H118078   3.287   1.509   2.827 -1.6280  1.3830  1.3060
 6038TIP3    H218079   3.161   1.428   2.846 -0.8830 -0.5878 -1.5493
 6039TIP3   OH218080   2.754   0.758   2.111  0.5391 -0.2178  0.0088
 6039TIP3    H118081   2.752   0.671   2.072  0.6635 -1.4537  2.5454
 6039TIP3    H218082   2.675   0.801   2.077  0.0853 -1.5718 -0.7257
 6040TIP3   OH218083   7.206   4.870   0.204  0.3432 -0.4807  0.3814
 6040TIP3    H118084   7.183   4.839   0.292 -3.7340  0.0666 -0.2971
 6040TIP3    H218085   7.124   4.868   0.156  1.8739  1.8337 -2.6706
 6041TIP3   OH218086   2.861   0.083   5.478  0.6076  0.1154 -0.5226
 6041TIP3    H118087   2.862   0.178   5.467 -0.2870  0.1147 -0.7042
 6041TIP3    H218088   2.896   0.049   5.395  0.4953  0.2767 -0.6373
 6042TIP3   OH218089   6.122   3.185   5.062  0.4086 -0.2990  0.0971
 6042TIP3    H118090   6.078   3.265   5.091 -0.0176 -0.1703 -0.8785
 6042TIP3    H218091   6.203   3.184   5.112  0.2498  0.5514  0.3984
 6043TIP3   OH218092   6.663   5.573   3.991 -0.5752  0.3755  0.1640
 6043TIP3    H118093   6.695   5.639   4.052  0.2454  0.1004  0.0494
 6043TIP3    H218094   6.666   5.615   3.905 -1.1285  0.5550  0.2291
 6044TIP3   OH218095   0.730   5.374   1.784 -0.2033 -0.4402  0.3887
 6044TIP3    H118096   0.662   5.383   1.717  1.0559 -0.4276 -0.9395
 6044TIP3    H218097   0.717   5.449   1.842 -0.6688  0.1509 -0.4596
 6045TIP3   OH218098   5.817   3.067   0.213 -0.3121  0.0035  1.1586
 6045TIP3    H118099   5.817   3.068   0.117 -1.0427 -1.3402  1.1342
 6045TIP3    H218100   5.756   3.136   0.238  2.8183  3.2088  0.7769
 6046TIP3   OH218101   7.065   1.317   4.681  0.2757  0.1078  0.3052
 6046TIP3    H118102   7.018   1.327   4.599 -2.0039 -0.3515  1.4857
 6046TIP3    H218103   7.054   1.401   4.726  0.6485  0.0230  0.5650
 6047TIP3   OH218104   6.872   5.973   2.300  0.2534 -0.3941  0.5937
 6047TIP3    H118105   6.796   5.935   2.345  0.1584  1.8420  2.5071
 6047TIP3    H218106   6.864   6.067   2.315  1.8167  0.2019 -1.7799
 6048TIP3   OH218107   3.884   6.586   2.087  0.7265  0.0108 -0.2418
 6048TIP3    H118108   3.890   6.550   1.998 -0.2141 -0.6765 -0.0406
 6048TIP3    H218109   3.963   6.554   2.130 -0.4557 -2.6074  0.1801
 6049TIP3   OH218110   4.688   2.640   2.619 -0.4910  0.3482  0.1615
 6049TIP3    H118111   4.729   2.554   2.608 -0.5025  0.4912 -1.1420
 6049TIP3    H218112   4.756   2.693   2.661 -0.4009 -0.2200  0.7541
 6050TIP3   OH218113   0.555   2.210   3.396 -0.1596 -0.0779  0.5051
 6050TIP3    H118114   0.565   2.299   3.362  1.4841 -1.1694 -2.1862
 6050TIP3    H218115   0.627   2.200   3.458  0.3643  0.1325 -0.0537
 6051TIP3   OH218116   6.909   2.098   5.666  0.4245 -0.5441 -0.0789
 6051TIP3    H118117   6.885   2.057   5.750  1.7552  0.9780  1.0988
 6051TIP3    H218118   6.878   2.188   5.673 -1.0023 -0.8214 -1.9782
 6052TIP3   OH218119   4.770   6.415   2.771 -0.3813 -0.4428  0.4515
 6052TIP3    H118120   4.744   6.433   2.861 -1.4653  0.0185  0.0621
 6052TIP3    H218121   4.839   6.479   2.752 -1.2672  0.5243  0.4422
 6053TIP3   OH218122   5.382   1.379   3.212 -0.3669 -0.3168 -0.3638
 6053TIP3    H118123   5.340   1.458   3.176  0.6201 -0.1356 -1.1619
 6053TIP3    H218124   5.361   1.311   3.148  0.9925 -0.1006 -1.0680
 6054TIP3   OH218125   5.031   1.211   1.165 -0.2739  0.5037 -0.0405
 6054TIP3    H118126   4.951   1.196   1.114 -0.7586 -3.0916  1.4672
 6054TIP3    H218127   5.000   1.228   1.254  0.4723 -2.8327  0.9909
 6055TIP3   OH218128   4.269   4.249   5.778  0.3089  0.5350 -0.5475
 6055TIP3    H118129   4.215   4.169   5.777  1.4459 -0.2766  0.2022
 6055TIP3    H218130   4.245   4.294   5.858 -2.1145  2.2825 -2.1178
 6056TIP3   OH218131   3.986   4.648   2.016  0.1695 -0.0214  0.3896
 6056TIP3    H118132   3.999   4.691   2.101 -1.5927  1.0866  0.1550
 6056TIP3    H218133   3.931   4.573   2.035 -0.7033  0.5528  0.1670
 6057TIP3   OH218134   4.503   2.530   0.022  0.1107  0.3570 -0.2395
 6057TIP3    H118135   4.585   2.573  -0.002  1.0635 -0.6884  1.0376
 6057TIP3    H218136   4.530   2.449   0.065 -1.5830  0.2896  0.7777
 6058TIP3   OH218137   5.302   1.696   1.040 -0.0334  0.3552 -0.2430
 6058TIP3    H118138   5.217   1.729   1.011  1.0419  2.6695 -0.9775
 6058TIP3    H218139   5.322   1.626   0.977 -1.4957 -0.4933  0.1624
 6059TIP3   OH218140   5.694   2.006   0.789 -0.2536 -0.0081 -0.1229
 6059TIP3    H118141   5.633   1.994   0.863  1.6221 -1.5721  1.2817
 6059TIP3    H218142   5.704   1.918   0.752  1.0890  0.2215 -0.3414
 6060TIP3   OH218143   6.148   6.744   2.020  0.7060  0.3783  0.2290
 6060TIP3    H118144   6.230   6.783   2.051  1.1483  0.9476 -1.5416
 6060TIP3    H218145   6.129   6.789   1.938 -1.1265 -0.1044  0.3377
 6061TIP3   OH218146   5.309   5.623   2.479  0.1245  0.4086 -0.1151
 6061TIP3    H118147   5.360   5.542   2.480 -1.2965 -0.5223 -0.2217
 6061TIP3    H218148   5.307   5.648   2.386 -0.0144  0.1888 -0.1712
 6062TIP3   OH218149   4.678   4.572   5.626 -0.0366 -0.2122  0.2290
 6062TIP3    H118150   4.729   4.602   5.701 -0.8427  0.3110  0.5855
 6062TIP3    H218151   4.602   4.529   5.665 -1.2793  1.4372 -0.2327
 6063TIP3   OH218152   2.970   2.348   5.342  0.4454  0.3477  0.1713
 6063TIP3    H118153   2.942   2.258   5.354  0.0569  0.7398  2.8572
 6063TIP3    H218154   2.906   2.400   5.391 -0.0619  2.2662 -2.2775
 6064TIP3   OH218155   5.079   3.689   4.714  0.0808 -0.0197  0.8016
 6064TIP3    H118156   5.000   3.703   4.766 -0.4683 -0.5560  0.1220
 6064TIP3    H218157   5.102   3.597   4.730  1.2847  0.4458  1.9624
 6065TIP3   OH218158   4.880   1.390   5.461 -0.3678  0.0058 -0.2626
 6065TIP3    H118159   4.806   1.332   5.479  0.4908 -0.7056  1.2066
 6065TIP3    H218160   4.931   1.344   5.394 -1.2981  0.5708 -1.3907
 6066TIP3   OH218161   5.630   2.625   1.457 -0.5233  0.4339 -0.3381
 6066TIP3    H118162   5.598   2.587   1.376  0.5334 -0.3207 -0.4209
 6066TIP3    H218163   5.572   2.590   1.525 -2.4832  2.3774 -0.8916
 6067TIP3   OH218164   0.614   6.335   1.512  0.0019 -0.0130  0.7403
 6067TIP3    H118165   0.684   6.350   1.576  0.6579 -1.2613  0.3458
 6067TIP3    H218166   0.649   6.269   1.453 -1.0700  0.2133 -0.1892
 6068TIP3   OH218167   4.163   4.262   3.528  0.3848  0.3704 -0.1276
 6068TIP3    H118168   4.079   4.238   3.489  0.7811  0.4585 -1.0497
 6068TIP3    H218169   4.228   4.225   3.470  1.0608 -2.0115  1.9538
 6069TIP3   OH218170   4.359   3.181   3.397 -0.4039 -0.4735 -0.2046
 6069TIP3    H118171   4.319   3.265   3.375  1.2683  0.4002 -0.1075
 6069TIP3    H218172   4.286   3.125   3.423 -1.3901  1.7616  2.3621
 6070TIP3   OH218173   5.124   1.696   3.559  0.2268 -0.4137 -0.4860
 6070TIP3    H118174   5.134   1.788   3.580  0.8696 -0.5278 -0.2866
 6070TIP3    H218175   5.088   1.695   3.470  1.4136  0.0186 -0.9906
 6071TIP3   OH218176   2.870   3.008   0.483 -0.4883  0.5092  0.2123
 6071TIP3    H118177   2.850   3.099   0.460  0.1078  0.3863 -0.8585
 6071TIP3    H218178   2.855   2.959   0.403  0.9154 -0.0686  0.2805
 6072TIP3   OH218179   6.315   4.134   3.654 -0.0500 -0.0957 -0.1123
 6072TIP3    H118180   6.356   4.111   3.570  1.9703  0.7986  0.5703
 6072TIP3    H218181   6.265   4.056   3.678 -0.7287 -0.3427 -2.1552
 6073TIP3   OH218182   2.555   1.977   0.127 -0.1914  0.2134  0.1008
 6073TIP3    H118183   2.487   2.036   0.160 -1.4281 -0.7795 -0.5628
 6073TIP3    H218184   2.635   2.029   0.127 -0.9486  1.4256  0.9061
 6074TIP3   OH218185   4.370   5.160   2.933  0.1217  0.5756 -0.0869
 6074TIP3    H118186   4.414   5.183   2.852  0.7119  1.0186  0.3558
 6074TIP3    H218187   4.303   5.097   2.906  0.7750  0.1734 -0.8177
 6075TIP3   OH218188   2.561   2.421   0.557  0.3982 -0.2659  0.2102
 6075TIP3    H118189   2.527   2.332   0.553  1.1846 -0.5860  0.5856
 6075TIP3    H218190   2.501   2.466   0.617 -0.0459 -0.5101 -0.0388
 6076TIP3   OH218191   4.424   5.264   1.209 -0.3168  0.1250 -0.6087
 6076TIP3    H118192   4.485   5.215   1.263 -1.7777  1.4027  2.4120
 6076TIP3    H218193   4.481   5.316   1.150  1.5180  0.5262  1.3788
 6077TIP3   OH218194   4.793   4.302   3.995 -0.2598  0.2152 -0.1157
 6077TIP3    H118195   4.809   4.249   3.917  1.0489 -0.0325  0.2977
 6077TIP3    H218196   4.847   4.261   4.063 -1.0764  0.6601  0.8184
 6078TIP3   OH218197   0.152   6.300   2.890  0.6686  0.0140  0.5596
 6078TIP3    H118198   0.207   6.286   2.812 -1.4133  3.2570 -1.7382
 6078TIP3    H218199   0.215   6.316   2.960  2.6680 -0.5819 -0.9921
 6079TIP3   OH218200   4.825   1.020   5.265 -1.1018 -0.4718  0.1827
 6079TIP3    H118201   4.807   1.078   5.191 -0.4753 -1.2026 -0.5602
 6079TIP3    H218202   4.882   1.071   5.323 -0.4744 -0.3829 -0.5117
 6080TIP3   OH218203   4.231   1.880   5.455 -0.1057  0.6052 -0.4401
 6080TIP3    H118204   4.159   1.929   5.416 -0.2073 -0.1595 -1.2413
 6080TIP3    H218205   4.189   1.822   5.519 -0.1509  0.4426 -0.6195
 6081TIP3   OH218206   1.359   4.244   1.547  0.0661 -0.1342 -0.7758
 6081TIP3    H118207   1.297   4.275   1.481 -0.3203  1.7215  0.3783
 6081TIP3    H218208   1.444   4.280   1.519  0.0649 -0.0992 -0.7338
 6082TIP3   OH218209   3.695   2.225   5.195 -0.0357  0.1587 -0.1438
 6082TIP3    H118210   3.642   2.147   5.178 -0.0304  0.2769 -0.7274
 6082TIP3    H218211   3.713   2.261   5.108 -0.0647  0.8285  0.1225
 6083TIP3   OH218212   6.754   3.991   3.129  0.2551  0.4453  0.5475
 6083TIP3    H118213   6.673   4.004   3.080  0.5100 -0.1493 -0.0352
 6083TIP3    H218214   6.726   3.961   3.215 -0.2114  1.8041  0.8978
 6084TIP3   OH218215   6.858   0.810   3.434  0.1048 -0.1801 -0.4989
 6084TIP3    H118216   6.791   0.757   3.477 -0.3990  1.6693  1.1592
 6084TIP3    H218217   6.903   0.855   3.505  0.0027  2.1520 -1.7927
 6085TIP3   OH218218   1.088   4.642   5.276  0.3387 -0.1170  0.0223
 6085TIP3    H118219   1.086   4.547   5.268  0.5321 -0.0383 -1.1606
 6085TIP3    H218220   1.018   4.663   5.338 -0.9712 -0.9048 -1.1397
 6086TIP3   OH218221   5.888   2.153   1.681  0.2061 -0.0775  0.4787
 6086TIP3    H118222   5.886   2.166   1.776 -0.6902 -0.8219  0.5814
 6086TIP3    H218223   5.972   2.189   1.653 -0.0434  1.2560  1.3806
 6087TIP3   OH218224   2.939   2.914   5.599  0.7294 -0.0815  0.0267
 6087TIP3    H118225   2.859   2.882   5.641  1.6375 -0.4975  1.5023
 6087TIP3    H218226   2.958   2.850   5.531  0.2977 -0.4641  0.2603
 6088TIP3   OH218227   1.466   0.337   4.930 -0.1266  0.0213  0.0354
 6088TIP3    H118228   1.468   0.433   4.935  0.9212  0.1493 -2.0645
 6088TIP3    H218229   1.555   0.312   4.903 -0.3449 -1.5638  0.6852
 6089TIP3   OH218230   6.313   1.053   5.356 -0.3688  0.4430  0.4529
 6089TIP3    H118231   6.226   1.074   5.321  0.0191 -0.0874 -0.8699
 6089TIP3    H218232   6.366   1.034   5.279  1.0569  1.1916  1.2036
 6090TIP3   OH218233   1.646   4.347   5.807 -0.4969 -0.3370 -0.4448
 6090TIP3    H118234   1.575   4.377   5.865 -1.2777  0.6505 -1.8324
 6090TIP3    H218235   1.715   4.412   5.818 -1.2939  0.7851 -1.7795
 6091TIP3   OH218236   1.032   3.481   4.735  0.1507  0.3423 -0.2565
 6091TIP3    H118237   1.116   3.455   4.772 -0.2489  0.1926  0.5463
 6091TIP3    H218238   1.017   3.569   4.769 -0.4997 -0.0264  0.4451
 6092TIP3   OH218239   6.571   5.172   5.056  0.1828 -0.4250  0.4204
 6092TIP3    H118240   6.487   5.151   5.096 -0.1162 -1.3118 -0.6282
 6092TIP3    H218241   6.607   5.088   5.029  1.3246 -0.0415  0.6853
 6093TIP3   OH218242   0.925   0.461   5.481  0.0086 -0.0494 -0.3049
 6093TIP3    H118243   1.020   0.448   5.486  0.1782  0.4401 -1.7962
 6093TIP3    H218244   0.895   0.394   5.420 -0.5911 -0.0763  0.0113
 6094TIP3   OH218245   0.374   5.401   4.603  0.1084 -0.2072  0.1575
 6094TIP3    H118246   0.324   5.477   4.575  3.5575  2.1801 -0.1644
 6094TIP3    H218247   0.414   5.368   4.523  0.4309 -0.9750  0.6235
 6095TIP3   OH218248   0.653   2.042   2.177  0.0801 -0.3474  0.6974
 6095TIP3    H118249   0.619   2.052   2.266 -1.4088 -0.4412  0.1625
 6095TIP3    H218250   0.648   2.130   2.140 -0.2200 -0.4964  0.3858
 6096TIP3   OH218251   0.104   3.508   5.470 -0.3799  0.1783 -0.0634
 6096TIP3    H118252   0.019   3.551   5.467 -1.3571 -1.5412  0.9563
 6096TIP3    H218253   0.083   3.416   5.490  1.5791 -0.8030 -2.1456
 6097TIP3   OH218254   1.880   6.161   1.677  0.2572 -0.5400 -0.2350
 6097TIP3    H118255   1.907   6.113   1.756 -0.9231 -0.6056  0.1596
 6097TIP3    H218256   1.958   6.165   1.622  0.6233 -2.1167  0.1360
 6098TIP3   OH218257   2.576   2.970   3.865 -0.0930  0.0850 -0.3388
 6098TIP3    H118258   2.565   2.878   3.890 -0.5201 -0.1242 -1.2427
 6098TIP3    H218259   2.600   2.966   3.772  0.1848  0.8762 -0.3050
 6099TIP3   OH218260   7.066   3.581   2.143  0.6238  0.1896  0.6186
 6099TIP3    H118261   7.068   3.500   2.091  1.6601  0.0017  0.9244
 6099TIP3    H218262   7.157   3.594   2.170  0.4549  1.4094  0.6586
 6100TIP3   OH218263   1.672   5.663   4.547 -0.1192 -0.0292 -0.7845
 6100TIP3    H118264   1.705   5.752   4.551  0.1493 -0.1032 -1.2116
 6100TIP3    H218265   1.631   5.657   4.460  0.7977 -0.6321 -1.1906
 6101TIP3   OH218266   4.829   5.147   1.543  0.2157 -0.5590 -0.1094
 6101TIP3    H118267   4.805   5.170   1.633  2.2328  3.5970 -0.4060
 6101TIP3    H218268   4.901   5.085   1.553 -1.0248 -1.9270  0.9871
 6102TIP3   OH218269   1.491   1.769   1.153  0.0585  0.4241 -0.0800
 6102TIP3    H118270   1.565   1.731   1.200 -0.2409  1.2821  1.1297
 6102TIP3    H218271   1.423   1.702   1.158  0.2088  0.2944  0.2388
 6103TIP3   OH218272   2.952   4.549   3.708 -0.1292 -0.5882  0.0297
 6103TIP3    H118273   2.862   4.562   3.679 -0.5406 -1.2827  0.9627
 6103TIP3    H218274   2.951   4.568   3.802  0.8960  0.2639 -0.1020
 6104TIP3   OH218275   1.276   3.817   2.653 -0.3059 -0.1101 -0.1929
 6104TIP3    H118276   1.244   3.727   2.662  0.3876 -0.2233  1.4160
 6104TIP3    H218277   1.271   3.854   2.741  1.8163  0.5917 -0.3165
 6105TIP3   OH218278   3.324   1.410   1.414  0.3202  0.2418 -0.0985
 6105TIP3    H118279   3.236   1.449   1.409 -0.3879 -1.3564 -1.2067
 6105TIP3    H218280   3.359   1.442   1.497 -1.5973  0.3716  0.7373
 6106TIP3   OH218281   6.181   3.254   5.741  0.2932  0.0644  0.0924
 6106TIP3    H118282   6.252   3.299   5.697  0.0839 -0.8960 -1.2945
 6106TIP3    H218283   6.144   3.319   5.801  0.1294  1.6874 -1.6797
 6107TIP3   OH218284   2.987   1.233   4.768 -0.0193 -0.4837 -0.0877
 6107TIP3    H118285   2.961   1.312   4.721  0.1460  0.1037  0.7906
 6107TIP3    H218286   2.911   1.176   4.763  0.0454 -0.4942 -1.1832
 6108TIP3   OH218287   5.703   2.645   4.445 -0.2303 -0.7509  0.0032
 6108TIP3    H118288   5.611   2.667   4.458  0.2140  1.5204 -0.3198
 6108TIP3    H218289   5.730   2.607   4.529 -1.0999 -0.0956  0.6034
 6109TIP3   OH218290   6.187   3.387   0.968 -0.0289  0.4078 -0.1784
 6109TIP3    H118291   6.210   3.455   1.032  1.5949  0.0428 -0.3294
 6109TIP3    H218292   6.209   3.305   1.011 -1.4997 -0.0239 -0.1968
 6110TIP3   OH218293   5.405   5.847   2.597  0.2946  0.1557 -0.4346
 6110TIP3    H118294   5.367   5.849   2.685  1.8635 -0.3290  0.3000
 6110TIP3    H218295   5.368   5.769   2.556 -0.4473  0.3853 -0.2125
 6111TIP3   OH218296   2.969   2.796   4.995 -0.1939  0.0717 -0.5187
 6111TIP3    H118297   2.989   2.883   5.029  1.4985 -1.7881  4.2147
 6111TIP3    H218298   2.878   2.781   5.019  0.3365 -0.3792  1.3987
 6112TIP3   OH218299   1.034   1.747   3.743 -0.3767 -0.5133  0.4382
 6112TIP3    H118300   1.127   1.723   3.734  0.0776  1.3609 -0.2032
 6112TIP3    H218301   0.990   1.695   3.676  0.5171  0.0316 -0.6229
 6113TIP3   OH218302   5.199   0.062   4.397 -0.5689  0.3654 -1.1056
 6113TIP3    H118303   5.154   0.104   4.470  1.6041 -0.5425  0.8893
 6113TIP3    H218304   5.188   0.123   4.324 -1.6892  1.9757  0.3292
 6114TIP3   OH218305   2.070   3.770   0.091  0.1393  0.2851 -0.3152
 6114TIP3    H118306   1.990   3.741   0.047 -0.5738 -0.9553  1.6341
 6114TIP3    H218307   2.040   3.811   0.172  1.4358 -0.7714  0.7692
 6115TIP3   OH218308   4.034   1.505   1.111  0.1345  0.0285  0.5320
 6115TIP3    H118309   3.971   1.433   1.118 -0.8813  0.4391 -2.6089
 6115TIP3    H218310   3.987   1.582   1.142  0.0062 -0.0888  0.6294
 6116TIP3   OH218311   5.873   6.150   3.213 -0.0981  0.5574 -0.0251
 6116TIP3    H118312   5.940   6.136   3.146  0.1374  0.3674  0.2487
 6116TIP3    H218313   5.922   6.159   3.294 -0.2195  2.8318 -0.1256
 6117TIP3   OH218314   0.460   4.237   5.807 -0.3787 -0.1045 -0.2359
 6117TIP3    H118315   0.397   4.309   5.817 -0.6696 -0.5382  1.2751
 6117TIP3    H218316   0.536   4.277   5.765 -1.2414  0.6662 -1.1041
 6118TIP3   OH218317   3.573   4.254   1.615 -0.4794  0.0570  0.9262
 6118TIP3    H118318   3.513   4.261   1.689 -0.2577  0.0226  1.1106
 6118TIP3    H218319   3.521   4.280   1.539 -1.3477 -1.9082  0.7641
 6119TIP3   OH218320   7.046   3.689   1.867 -0.2543 -0.4898  0.3824
 6119TIP3    H118321   7.043   3.707   1.962  0.0063  1.5628  0.0511
 6119TIP3    H218322   7.132   3.650   1.853 -1.0244 -2.6032  1.2350
 6120TIP3   OH218323   0.975   2.117   2.940 -0.4105 -0.2406 -0.3123
 6120TIP3    H118324   1.023   2.034   2.937 -0.5658 -0.4666  1.9969
 6120TIP3    H218325   0.995   2.159   2.856  4.5086  0.0779  0.7214
 6121TIP3   OH218326   4.674   5.568   1.832  0.0124 -0.3342  0.4059
 6121TIP3    H118327   4.741   5.520   1.783  0.4198 -1.3334  1.8691
 6121TIP3    H218328   4.611   5.501   1.857 -2.7329  0.8708 -2.6548
 6122TIP3   OH218329   3.664   3.125   2.149  0.3175  1.0690 -0.2168
 6122TIP3    H118330   3.600   3.087   2.209  1.7223 -1.0187  0.0642
 6122TIP3    H218331   3.653   3.075   2.067 -0.0351  2.3364 -0.9651
 6123TIP3   OH218332   5.459   4.143   0.075 -0.6865  0.2380  0.6678
 6123TIP3    H118333   5.490   4.223   0.119 -1.3401  0.8167  0.1015
 6123TIP3    H218334   5.539   4.101   0.043 -0.4157  1.5214 -0.4511
 6124TIP3   OH218335   5.179   0.521   3.372  0.1036 -0.3622  0.3396
 6124TIP3    H118336   5.128   0.561   3.301 -0.3253 -0.1214  0.7747
 6124TIP3    H218337   5.149   0.567   3.451  0.3131 -0.8798  0.7203
 6125TIP3   OH218338   0.016   6.251   4.532  0.2585  0.3912 -0.2600
 6125TIP3    H118339   0.035   6.182   4.595 -0.8233  0.0350 -0.2939
 6125TIP3    H218340   0.061   6.225   4.452  0.4142  0.0817 -0.0712
 6126TIP3   OH218341   0.103   2.900   5.159  0.0392  1.0556 -0.5139
 6126TIP3    H118342   0.016   2.939   5.155 -0.4818 -0.1878 -2.3033
 6126TIP3    H218343   0.088   2.806   5.149  1.5279  0.7207  0.1058
 6127TIP3   OH218344   0.295   2.723   2.643  0.0123  0.9161 -0.0992
 6127TIP3    H118345   0.214   2.675   2.626 -0.0179  1.2415 -0.9321
 6127TIP3    H218346   0.266   2.806   2.682 -0.0516  1.0003 -0.3259
 6128TIP3   OH218347   2.321   2.762   5.368 -0.2753 -0.5459 -0.5079
 6128TIP3    H118348   2.255   2.694   5.380  0.0363 -0.4990  1.9226
 6128TIP3    H218349   2.283   2.840   5.409  1.1131 -0.4462  0.6799
 6129TIP3   OH218350   6.570   5.164   2.245 -0.7773 -0.4661  0.4760
 6129TIP3    H118351   6.501   5.115   2.201 -1.1685  0.3477  0.1812
 6129TIP3    H218352   6.649   5.144   2.195 -1.1182  0.0013 -0.2578
 6130TIP3   OH218353   4.842   0.747   5.186 -0.0587  0.4897 -0.0693
 6130TIP3    H118354   4.764   0.742   5.130 -0.1044  0.6114 -0.0188
 6130TIP3    H218355   4.837   0.835   5.224 -0.6804 -0.0151  1.0641
 6131TIP3   OH218356   6.751   1.917   3.381 -0.2084 -0.2147  0.1680
 6131TIP3    H118357   6.790   1.946   3.299 -0.7819  2.5268  0.7413
 6131TIP3    H218358   6.780   1.982   3.445 -1.1706 -1.2970  1.7598
 6132TIP3   OH218359   5.809   2.404   4.203  0.1612 -0.4487 -0.3896
 6132TIP3    H118360   5.831   2.487   4.160  0.9535  0.2731  1.3176
 6132TIP3    H218361   5.776   2.348   4.132  2.3820  0.2832 -2.1261
 6133TIP3   OH218362   4.996   6.433   4.707  0.2445 -0.6371  0.2447
 6133TIP3    H118363   4.944   6.511   4.727 -1.1907 -1.1436 -1.2795
 6133TIP3    H218364   5.087   6.465   4.706  0.0350  0.2607  2.9941
 6134TIP3   OH218365   1.992   5.045   4.998  0.2809 -0.0299 -1.0564
 6134TIP3    H118366   1.943   5.125   5.016  1.0826  0.1118  0.7734
 6134TIP3    H218367   2.081   5.064   5.029  1.3422 -0.5431 -3.5459
 6135TIP3   OH218368   6.927   5.349   0.250 -0.4538  0.0637  0.1265
 6135TIP3    H118369   6.838   5.385   0.260  0.5049  1.9393  3.6192
 6135TIP3    H218370   6.968   5.407   0.185 -1.4762 -0.2634 -0.8486
 6136TIP3   OH218371   6.371   5.530   0.328  0.2280 -0.1476  0.1682
 6136TIP3    H118372   6.367   5.436   0.316  0.8452 -0.2085  0.3890
 6136TIP3    H218373   6.279   5.558   0.332  0.0436 -0.7807  0.4523
 6137TIP3   OH218374   3.891   5.522   4.158  0.3273  0.3896  0.3478
 6137TIP3    H118375   3.959   5.572   4.204 -0.0841  1.2138  0.0803
 6137TIP3    H218376   3.810   5.548   4.202  0.1942 -0.7248  0.7847
 6138TIP3   OH218377   4.912   0.306   4.210 -0.6502  0.2022 -0.3244
 6138TIP3    H118378   4.895   0.400   4.219  2.5557  0.8868 -0.2452
 6138TIP3    H218379   4.958   0.298   4.127 -0.2531 -1.1911  0.0146
 6139TIP3   OH218380   2.899   0.180   2.020 -0.5105 -0.0197  0.3606
 6139TIP3    H118381   2.892   0.179   2.115  0.5957 -0.5565  0.4523
 6139TIP3    H218382   2.986   0.144   2.002 -0.6440  0.2197 -0.8457
 6140TIP3   OH218383   0.160   3.901   3.005  0.1912 -0.1457  0.1876
 6140TIP3    H118384   0.155   3.813   2.968  1.1120 -0.4190  0.7026
 6140TIP3    H218385   0.068   3.927   3.016 -0.0906 -0.8118 -0.4928
 6141TIP3   OH218386   0.640   3.718   3.644 -0.1333 -0.1343 -0.2881
 6141TIP3    H118387   0.733   3.730   3.664 -0.5884  2.0488  0.8532
 6141TIP3    H218388   0.602   3.684   3.725 -0.5633  0.3801 -0.2671
 6142TIP3   OH218389   1.461   0.377   0.034  0.1416  0.0791  0.2178
 6142TIP3    H118390   1.492   0.455   0.080  0.2914  0.8793 -1.1903
 6142TIP3    H218391   1.535   0.351  -0.021 -0.6181  0.1909 -0.8838
 6143TIP3   OH218392   3.595   3.321   1.621  0.8392  0.2150  0.1789
 6143TIP3    H118393   3.616   3.265   1.696  1.1670 -0.5710 -0.4799
 6143TIP3    H218394   3.663   3.302   1.556 -1.4645 -2.0482 -1.8306
 6144TIP3   OH218395   2.315   3.029   0.082 -0.1749  0.9194  0.0620
 6144TIP3    H118396   2.377   3.100   0.066  1.8924 -0.8781 -0.3313
 6144TIP3    H218397   2.297   2.993  -0.005 -1.0759  0.8282  0.2742
 6145TIP3   OH218398   4.693   1.367   4.635 -0.0414 -0.2332  0.3896
 6145TIP3    H118399   4.788   1.373   4.644 -0.0043  2.1512 -0.8895
 6145TIP3    H218400   4.680   1.295   4.574  1.0637  0.2875 -0.5142
 6146TIP3   OH218401   3.659   0.574   4.243  0.2104  0.2472 -0.4196
 6146TIP3    H118402   3.673   0.669   4.241 -1.5856  0.5794  0.3730
 6146TIP3    H218403   3.737   0.539   4.287  0.4617  1.4627  0.1444
 6147TIP3   OH218404   5.924   0.102   5.031  0.4364  0.0444 -0.4383
 6147TIP3    H118405   5.963   0.174   4.980 -0.3554  0.5703 -0.3156
 6147TIP3    H218406   5.835   0.095   4.999  1.1002 -2.3645 -1.9912
 6148TIP3   OH218407   6.101   3.174   3.474  0.1431  0.6268  0.0420
 6148TIP3    H118408   6.104   3.247   3.535  1.0749  0.9468 -0.3620
 6148TIP3    H218409   6.178   3.186   3.418  0.3340 -0.6844 -0.0134
 6149TIP3   OH218410   6.173   0.446   1.447 -0.0996 -0.4519  0.0809
 6149TIP3    H118411   6.158   0.537   1.472 -3.6881 -0.9079  0.1423
 6149TIP3    H218412   6.188   0.400   1.530 -0.5896 -0.2622  0.2747
 6150TIP3   OH218413   6.459   5.227   5.905 -0.3428  0.1527 -0.1099
 6150TIP3    H118414   6.395   5.296   5.922 -0.4061 -0.3140  1.7556
 6150TIP3    H218415   6.470   5.227   5.810  0.4711  3.4482 -0.1457
 6151TIP3   OH218416   6.602   4.926   2.803 -0.0427 -0.0151  0.1002
 6151TIP3    H118417   6.573   4.880   2.882 -1.8269  0.4715 -0.2205
 6151TIP3    H218418   6.652   4.860   2.754 -1.5149 -1.2924  0.2111
 6152TIP3   OH218419   2.017   3.072   3.107 -0.2873 -0.0816 -0.0597
 6152TIP3    H118420   2.068   3.080   3.027 -0.6075 -0.3084 -0.2898
 6152TIP3    H218421   2.056   3.135   3.167  1.7839 -1.8490  0.5823
 6153TIP3   OH218422   1.285   5.449   4.050  0.0640 -0.1080 -0.1785
 6153TIP3    H118423   1.364   5.496   4.021  0.6392 -0.5473  0.6277
 6153TIP3    H218424   1.215   5.514   4.044  0.7463  0.7161  0.4069
 6154TIP3   OH218425   5.446   4.434   1.049  0.8049 -0.3406 -0.3673
 6154TIP3    H118426   5.502   4.439   1.126  1.6016 -0.4653 -0.9223
 6154TIP3    H218427   5.457   4.344   1.017  0.0371 -0.4673 -0.3073
 6155TIP3   OH218428   5.911   2.809   4.611  0.4208 -0.1343  0.6485
 6155TIP3    H118429   5.869   2.895   4.620  2.2180  0.7882  0.8269
 6155TIP3    H218430   5.848   2.747   4.646 -0.5065  1.2435  1.5216
 6156TIP3   OH218431   2.224   0.329   4.561 -0.2891  0.4589 -0.2503
 6156TIP3    H118432   2.264   0.403   4.515  0.5536 -0.4090 -0.9543
 6156TIP3    H218433   2.298   0.286   4.604 -0.5314 -0.7954 -1.0355
 6157TIP3   OH218434   6.205   5.162   3.146 -0.0655 -0.6819 -0.0044
 6157TIP3    H118435   6.282   5.130   3.192  0.1508 -0.3974 -0.1617
 6157TIP3    H218436   6.203   5.256   3.164  0.3081 -0.4754 -0.9683
 6158TIP3   OH218437   6.136   0.806   2.707 -0.6255 -0.2915 -0.0369
 6158TIP3    H118438   6.076   0.854   2.765 -0.4821 -0.8228  0.5632
 6158TIP3    H218439   6.120   0.714   2.728  0.1655 -0.4452 -0.1087
 6159TIP3   OH218440   3.846   0.343   3.494 -0.3155 -0.3446 -0.2062
 6159TIP3    H118441   3.806   0.356   3.408  0.3026 -1.7678 -0.7406
 6159TIP3    H218442   3.911   0.412   3.501 -0.3025 -0.2801 -0.9240
 6160TIP3   OH218443   6.608   5.354   2.433  0.6567 -0.1819  0.3177
 6160TIP3    H118444   6.535   5.350   2.495  0.7065  0.3270  0.4161
 6160TIP3    H218445   6.595   5.279   2.375  0.1820 -0.2238  0.4741
 6161TIP3   OH218446   2.184   1.329   3.904 -0.1445 -0.1176  0.2098
 6161TIP3    H118447   2.140   1.411   3.923 -0.6108 -0.4759  0.7045
 6161TIP3    H218448   2.246   1.317   3.977 -0.9151 -0.7813  0.7722
 6162TIP3   OH218449   0.247   1.308   1.458 -0.2554 -0.4331  0.0760
 6162TIP3    H118450   0.199   1.371   1.511  0.6009  0.0278  0.3262
 6162TIP3    H218451   0.211   1.223   1.483 -2.1782 -0.0192 -1.0412
 6163TIP3   OH218452   6.251   4.022   0.675  0.0197 -0.2582  0.0530
 6163TIP3    H118453   6.305   3.970   0.616 -0.1680 -1.7760  1.1579
 6163TIP3    H218454   6.314   4.077   0.723  0.8934 -2.9642  2.3019
 6164TIP3   OH218455   1.307   1.820   0.570 -0.7253 -0.3397  0.1628
 6164TIP3    H118456   1.402   1.827   0.572 -0.3572 -0.5199 -4.5063
 6164TIP3    H218457   1.290   1.726   0.576 -0.5277 -0.3716  0.2304
 6165TIP3   OH218458   4.919   3.949   2.071 -0.1029 -0.7355 -0.2288
 6165TIP3    H118459   4.978   3.948   2.146 -0.1660 -0.2419 -0.1656
 6165TIP3    H218460   4.966   3.903   2.001  0.5917  0.1462 -0.3551
 6166TIP3   OH218461   4.404   0.143   5.501 -0.2772  0.3038 -0.4435
 6166TIP3    H118462   4.370   0.093   5.427 -3.4029  3.8569 -1.7775
 6166TIP3    H218463   4.478   0.191   5.464  0.3988 -0.5608 -0.2230
 6167TIP3   OH218464   5.268   0.857   3.155 -0.1507 -0.7817  0.1432
 6167TIP3    H118465   5.339   0.836   3.216  3.4331  5.2072 -1.1404
 6167TIP3    H218466   5.213   0.919   3.203  1.5770  2.4510 -1.6946
 6168TIP3   OH218467   6.214   6.115   3.232  0.1245  0.1503 -0.5434
 6168TIP3    H118468   6.230   6.203   3.268  0.1270  1.0890 -2.6685
 6168TIP3    H218469   6.271   6.058   3.283 -1.3988  0.9850  2.2962
 6169TIP3   OH218470   3.070   2.625   3.574 -0.0857  0.1726 -0.5690
 6169TIP3    H118471   3.108   2.543   3.605 -0.4576 -0.1896 -1.0403
 6169TIP3    H218472   3.042   2.605   3.485 -2.0150  0.1881 -0.0129
 6170TIP3   OH218473   4.653   0.025   1.836  0.4938 -0.2003 -0.1521
 6170TIP3    H118474   4.576   0.035   1.893  0.5848  1.3301 -0.2554
 6170TIP3    H218475   4.721  -0.009   1.894 -0.2038 -1.4487 -0.0316
 6171TIP3   OH218476   0.175   2.190   3.514 -0.1041 -0.3375 -0.3854
 6171TIP3    H118477   0.234   2.116   3.527 -0.3597 -0.3041  1.1819
 6171TIP3    H218478   0.230   2.267   3.525 -0.1527 -0.2942 -0.4428
 6172TIP3   OH218479   7.157   2.107   1.368 -0.2549  0.1268  0.2459
 6172TIP3    H118480   7.105   2.027   1.375 -1.4268  0.8111 -0.2668
 6172TIP3    H218481   7.102   2.167   1.318  0.8916  1.0202  0.0075
 6173TIP3   OH218482   4.932   3.337   3.720  0.2779 -0.2522  0.1757
 6173TIP3    H118483   4.927   3.361   3.628 -1.3520  0.9776  0.5468
 6173TIP3    H218484   4.881   3.257   3.727  1.7380 -1.2676 -0.2239
 6174TIP3   OH218485   5.247   5.505   2.195  0.2420  0.6528  0.0058
 6174TIP3    H118486   5.271   5.445   2.125 -0.7900  0.3332 -0.0865
 6174TIP3    H218487   5.200   5.451   2.258  0.2924  1.1411  0.4683
 6175TIP3   OH218488   5.850   4.393   1.398 -0.0468  0.1543  0.8322
 6175TIP3    H118489   5.799   4.343   1.334 -1.2217  2.2738  0.0310
 6175TIP3    H218490   5.941   4.368   1.381 -0.3967  0.1326 -1.2157
 6176TIP3   OH218491   5.466   4.956   0.740 -0.4274  0.7092 -0.1354
 6176TIP3    H118492   5.430   4.874   0.774  1.8837  0.5285  2.2481
 6176TIP3    H218493   5.434   5.022   0.801 -0.4091  1.2256 -0.6824
 6177TIP3   OH218494   3.076   5.074   5.189 -0.2724  0.0073  0.5113
 6177TIP3    H118495   3.060   4.991   5.234  0.2809 -0.3454  0.0756
 6177TIP3    H218496   3.086   5.138   5.259  1.2825 -0.6579  0.9409
 6178TIP3   OH218497   1.113   0.793   0.868  0.3199 -0.5035  0.1353
 6178TIP3    H118498   1.068   0.867   0.910 -0.9159 -0.8717 -0.4810
 6178TIP3    H218499   1.111   0.724   0.934 -0.2977 -0.6052  0.0238
 6179TIP3   OH218500   0.400   2.059   5.498 -0.4028 -0.5511 -1.0695
 6179TIP3    H118501   0.428   2.149   5.480 -0.4758 -0.7012 -1.9751
 6179TIP3    H218502   0.482   2.009   5.499  0.1729  0.0324  3.2319
 6180TIP3   OH218503   0.786   6.185   1.304  0.2801  0.1723  0.6641
 6180TIP3    H118504   0.867   6.213   1.346  1.6554 -2.0403 -0.3407
 6180TIP3    H218505   0.799   6.202   1.211 -0.2273 -0.5384  0.4514
 6181TIP3   OH218506   2.878   6.046   1.969 -0.2369 -0.3672 -0.4485
 6181TIP3    H118507   2.951   6.102   1.997 -0.9831  1.4310 -1.9737
 6181TIP3    H218508   2.921   5.967   1.936  0.8399 -0.7514  1.6842
 6182TIP3   OH218509   2.305   0.553   4.402 -0.4805 -0.7364  0.2057
 6182TIP3    H118510   2.395   0.585   4.413 -0.4761  0.0430 -1.6906
 6182TIP3    H218511   2.253   0.633   4.390 -1.1982 -1.2485 -0.1217
 6183TIP3   OH218512   3.227   1.249   4.532 -0.4818 -0.1232 -0.0032
 6183TIP3    H118513   3.206   1.298   4.452 -1.9448 -1.1894 -0.3272
 6183TIP3    H218514   3.174   1.290   4.600 -1.0175 -0.6732 -0.0838
 6184TIP3   OH218515   2.417   5.843   5.170 -0.1255  0.1545  0.2073
 6184TIP3    H118516   2.342   5.846   5.110  0.9552  0.1628 -1.1887
 6184TIP3    H218517   2.464   5.925   5.153 -0.1281  0.4417  1.5170
 6185TIP3   OH218518   1.395   4.913   2.770  0.2943 -0.1509 -0.1387
 6185TIP3    H118519   1.460   4.973   2.806 -1.3642 -0.3605  3.7110
 6185TIP3    H218520   1.314   4.964   2.768 -0.9510 -1.7983  2.3598
 6186TIP3   OH218521   4.042   2.185   2.590 -0.0071  0.0740  0.2084
 6186TIP3    H118522   4.122   2.228   2.620  0.0922  0.0392 -0.0037
 6186TIP3    H218523   4.012   2.240   2.518  0.5357 -0.6229 -0.5662
 6187TIP3   OH218524   3.578   3.611   0.346  0.0022  0.1524  0.3843
 6187TIP3    H118525   3.628   3.668   0.404 -0.1191  0.1554  0.4843
 6187TIP3    H218526   3.542   3.670   0.280  1.1389  0.0014 -0.4046
 6188TIP3   OH218527   4.528   6.212   5.039  0.8318  0.6782  0.0810
 6188TIP3    H118528   4.512   6.143   5.103 -0.3016  1.2147  0.4146
 6188TIP3    H218529   4.547   6.166   4.958  1.1535 -0.0133  0.5387
 6189TIP3   OH218530   4.946   0.780   3.125  0.2993  0.6678 -0.9274
 6189TIP3    H118531   5.029   0.736   3.104  0.2055  0.1126 -0.1806
 6189TIP3    H218532   4.879   0.714   3.106  0.1276  0.6200 -0.1806
 6190TIP3   OH218533   1.329   2.810   4.833  0.5774 -0.1391 -0.4730
 6190TIP3    H118534   1.338   2.905   4.824 -0.6410  0.1110  0.7157
 6190TIP3    H218535   1.361   2.792   4.921 -0.3983 -0.6517 -0.2174
 6191TIP3   OH218536   4.847   2.580   0.261 -0.0218  0.5681  0.1621
 6191TIP3    H118537   4.920   2.628   0.222  0.0614 -0.7587 -1.4747
 6191TIP3    H218538   4.778   2.583   0.194 -0.0642 -1.3841  0.0551
 6192TIP3   OH218539   6.132   4.328   1.349 -0.0991 -0.6625 -0.1666
 6192TIP3    H118540   6.170   4.268   1.413  0.7373  0.1959  0.1671
 6192TIP3    H218541   6.198   4.397   1.338 -1.4144  0.6945  0.1666
 6193TIP3   OH218542   5.140   4.704   2.924 -0.3418 -0.3404 -0.1709
 6193TIP3    H118543   5.196   4.776   2.893  1.0739 -1.6686 -0.8134
 6193TIP3    H218544   5.060   4.713   2.872 -0.4389  1.1021  0.1745
 6194TIP3   OH218545   4.055   5.177   0.461  0.0795  0.0432 -0.1217
 6194TIP3    H118546   4.057   5.106   0.525 -1.2209  0.6917  0.6892
 6194TIP3    H218547   4.038   5.134   0.378 -1.1647 -0.5730  0.4324
 6195TIP3   OH218548   2.543   0.560   5.598 -0.5461  0.1572 -0.3398
 6195TIP3    H118549   2.551   0.624   5.528  0.8624 -0.3588 -0.6756
 6195TIP3    H218550   2.629   0.559   5.640 -0.9058 -0.6687  0.4104
 6196TIP3   OH218551   7.088   6.549   1.449  0.9716  0.4148  0.5400
 6196TIP3    H118552   7.124   6.575   1.534 -0.0609  3.1291  0.2557
 6196TIP3    H218553   7.064   6.632   1.407 -0.6233 -0.9632 -1.4669
 6197TIP3   OH218554   0.537   4.713   5.358 -0.3438  0.0393 -0.4594
 6197TIP3    H118555   0.501   4.659   5.288  1.9154 -0.7480 -1.0841
 6197TIP3    H218556   0.554   4.798   5.317  0.3053 -0.1945 -0.6754
 6198TIP3   OH218557   6.343   5.599   3.451 -0.5368 -0.0915 -0.2588
 6198TIP3    H118558   6.269   5.546   3.481  0.2751 -2.2303 -1.7592
 6198TIP3    H218559   6.418   5.539   3.453  1.2479  1.9989  1.2523
 6199TIP3   OH218560   7.028   4.964   5.436  0.2754 -0.1921 -0.4332
 6199TIP3    H118561   6.936   4.989   5.431  0.6273  0.9955 -1.4215
 6199TIP3    H218562   7.026   4.869   5.450 -1.0839  0.0615  1.5330
 6200TIP3   OH218563   1.973   2.605   0.770  0.2823  0.0127  0.0338
 6200TIP3    H118564   1.990   2.596   0.676 -0.5958 -2.7551  0.0637
 6200TIP3    H218565   2.048   2.564   0.813  0.7960  1.4687  0.6183
 6201TIP3   OH218566   0.887   2.111   3.640  0.1576  0.8743  0.1118
 6201TIP3    H118567   0.910   2.115   3.733  1.0551  0.6368 -0.0908
 6201TIP3    H218568   0.834   2.189   3.625 -0.2889  0.7363  0.8987
 6202TIP3   OH218569   2.512   1.180   2.655 -0.0370  0.2217  0.5308
 6202TIP3    H118570   2.566   1.139   2.588 -0.0634  1.3159 -0.1838
 6202TIP3    H218571   2.499   1.112   2.721 -0.9149 -1.2654 -1.0844
 6203TIP3   OH218572   4.250   5.647   0.171  0.1640  0.1502  0.3020
 6203TIP3    H118573   4.246   5.586   0.244  0.2417  0.9187  0.9557
 6203TIP3    H218574   4.343   5.658   0.153  0.2024  1.0003  0.9787
 6204TIP3   OH218575   5.360   4.882   3.721 -0.4598 -0.5976  0.1479
 6204TIP3    H118576   5.359   4.970   3.683 -2.5941 -1.2243 -1.4798
 6204TIP3    H218577   5.439   4.879   3.774  0.2624  1.9142 -0.6656
 6205TIP3   OH218578   6.208   3.860   1.745 -0.5885 -0.0674  0.4311
 6205TIP3    H118579   6.286   3.820   1.707 -0.9747  1.2294 -1.8886
 6205TIP3    H218580   6.231   3.952   1.756 -1.8936  0.4199 -0.6861
 6206TIP3   OH218581   6.661   3.221   4.579  0.0565  0.4567  0.4017
 6206TIP3    H118582   6.626   3.157   4.517 -0.4425  0.3228  0.8208
 6206TIP3    H218583   6.744   3.249   4.540  0.4290 -0.6673  0.3727
 6207TIP3   OH218584   1.764   5.640   5.090  0.7666 -0.0689  0.4408
 6207TIP3    H118585   1.716   5.675   5.014  0.7452  1.8615  1.2735
 6207TIP3    H218586   1.704   5.653   5.164  1.3265 -0.6333  1.0070
 6208TIP3   OH218587   6.784   2.601   4.102 -0.1302  0.5684  0.1521
 6208TIP3    H118588   6.866   2.629   4.143  0.3505 -1.6178  0.7860
 6208TIP3    H218589   6.794   2.627   4.010  1.4191  0.1050  0.1532
 6209TIP3   OH218590   4.221   2.243   3.455 -0.2656 -0.1750  0.2401
 6209TIP3    H118591   4.261   2.268   3.539  0.5826 -0.8446  0.0464
 6209TIP3    H218592   4.184   2.156   3.472 -1.2139  0.2171  0.2658
 6210TIP3   OH218593   0.480   4.712   0.913  0.4529 -0.5241 -0.1887
 6210TIP3    H118594   0.497   4.655   0.838  0.0786 -1.2657  0.2844
 6210TIP3    H218595   0.462   4.798   0.873  1.9297 -0.4864 -0.8556
 6211TIP3   OH218596   5.385   1.413   4.146 -0.1844  0.1976  0.5044
 6211TIP3    H118597   5.334   1.435   4.068 -0.1670  0.8836  0.6799
 6211TIP3    H218598   5.466   1.464   4.137  1.4125 -2.3471 -0.7729
 6212TIP3   OH218599   1.926   1.505   0.552  0.5059  0.0330  0.2599
 6212TIP3    H118600   1.934   1.590   0.508  0.5297 -0.8467 -1.5538
 6212TIP3    H218601   2.010   1.494   0.597  0.1641  1.3356  1.2951
 6213TIP3   OH218602   2.527   2.845   0.545 -0.3232  0.0042 -0.2323
 6213TIP3    H118603   2.550   2.931   0.578  0.6383 -0.1162 -0.5600
 6213TIP3    H218604   2.505   2.859   0.453  1.3106 -0.3036 -0.6966
 6214TIP3   OH218605   1.675   4.940   4.015 -0.3905 -0.1194  0.8043
 6214TIP3    H118606   1.739   4.871   3.997 -2.0742 -2.2722  2.6158
 6214TIP3    H218607   1.621   4.944   3.936  0.3933 -0.0527  0.2578
 6215TIP3   OH218608   3.590   4.613   5.148  0.9917 -0.6009 -0.2226
 6215TIP3    H118609   3.537   4.689   5.173  1.5163 -0.6577  1.1826
 6215TIP3    H218610   3.546   4.577   5.071  1.2645  1.6585 -1.5238
 6216TIP3   OH218611   3.217   0.279   2.898 -0.4297 -0.0310  0.3452
 6216TIP3    H118612   3.142   0.328   2.865  0.0781  0.3247 -0.2916
 6216TIP3    H218613   3.180   0.196   2.928 -0.9470 -0.2563 -0.8686
 6217TIP3   OH218614   6.680   3.614   3.777  0.8340 -0.0101  0.6369
 6217TIP3    H118615   6.599   3.665   3.775  0.7373 -0.1784  0.1630
 6217TIP3    H218616   6.747   3.675   3.744  0.8262 -0.0032  0.6338
 6218TIP3   OH218617   1.429   6.382   3.071  0.0786 -0.0047 -0.4134
 6218TIP3    H118618   1.399   6.299   3.107  0.8752  0.1708  0.7073
 6218TIP3    H218619   1.360   6.445   3.094  0.4528  0.0510  0.6265
 6219TIP3   OH218620   0.202   4.889   4.378 -0.2363 -0.0968 -0.8011
 6219TIP3    H118621   0.232   4.977   4.353  0.8625  0.0497  0.8793
 6219TIP3    H218622   0.283   4.841   4.397 -0.9243 -0.2575  2.1151
 6220TIP3   OH218623   4.250   5.944   4.925  0.0475 -0.0855  0.6299
 6220TIP3    H118624   4.157   5.948   4.900 -0.4932 -1.4658  2.1844
 6220TIP3    H218625   4.276   6.036   4.934 -1.8417  0.3576  2.3511
 6221TIP3   OH218626   2.904   3.914   1.076  0.5415  0.1056 -0.0607
 6221TIP3    H118627   2.996   3.892   1.093  0.5049 -0.6783 -0.8266
 6221TIP3    H218628   2.907   3.983   1.009  0.5585 -1.1944 -1.4536
 6222TIP3   OH218629   1.997   3.310   2.923  0.0426  0.2280 -0.0385
 6222TIP3    H118630   1.996   3.328   3.017 -0.0089  0.9884 -0.1836
 6222TIP3    H218631   2.032   3.389   2.883 -1.0897  0.3832 -0.7684
 6223TIP3   OH218632   5.547   4.506   5.549 -0.0329  0.1928  0.1100
 6223TIP3    H118633   5.571   4.490   5.641  1.0310 -0.0717 -0.2054
 6223TIP3    H218634   5.451   4.509   5.550 -0.0987 -1.2053  1.0222
 6224TIP3   OH218635   5.606   3.800   2.195  0.3035 -0.1279 -0.7442
 6224TIP3    H118636   5.652   3.752   2.263 -0.0141  1.0135  0.3176
 6224TIP3    H218637   5.514   3.797   2.221  0.1381  0.0525 -1.2858
 6225TIP3   OH218638   3.159   4.877   2.194 -0.0514 -0.3519  0.3412
 6225TIP3    H118639   3.166   4.870   2.099 -0.5443 -0.7838  0.3329
 6225TIP3    H218640   3.219   4.811   2.228  1.0820  0.6555  0.3540
 6226TIP3   OH218641   4.016   4.785   4.850  0.2339 -0.3310  0.2280
 6226TIP3    H118642   4.111   4.779   4.847  0.2296 -0.5184  0.4911
 6226TIP3    H218643   3.993   4.771   4.941 -0.0503 -0.3293  0.1593
 6227TIP3   OH218644   0.850   3.048   2.727 -0.0559 -0.3512 -0.0624
 6227TIP3    H118645   0.930   3.097   2.709  0.3533 -1.1205 -0.3993
 6227TIP3    H218646   0.858   3.021   2.819 -1.1653  1.7729  0.7561
 6228TIP3   OH218647   3.404   1.476   5.533 -0.4191 -0.1253 -0.0696
 6228TIP3    H118648   3.422   1.448   5.623 -0.7798 -2.0250 -0.5361
 6228TIP3    H218649   3.387   1.570   5.539  0.1373 -0.1133  1.7532
 6229TIP3   OH218650   0.905   4.362   4.477  0.1224  0.1394  0.5172
 6229TIP3    H118651   0.847   4.285   4.480 -1.1298  0.9564 -0.9455
 6229TIP3    H218652   0.989   4.327   4.449 -0.7487 -0.5852 -1.3625
 6230TIP3   OH218653   2.076   5.629   0.990  0.1788  0.1124 -0.0502
 6230TIP3    H118654   2.076   5.663   1.079  0.4749 -0.4140  0.1577
 6230TIP3    H218655   2.168   5.618   0.968  0.1349  0.9048 -0.6930
 6231TIP3   OH218656   3.104   4.828   5.294  0.1967 -0.2695  0.5667
 6231TIP3    H118657   3.053   4.749   5.312  0.8465 -0.8081  0.1071
 6231TIP3    H218658   3.168   4.800   5.228 -0.8365  1.1234 -1.0965
 6232TIP3   OH218659   5.141   5.035   5.531 -0.8955  0.2971  0.0416
 6232TIP3    H118660   5.057   5.008   5.568 -0.1783 -1.9351  0.1836
 6232TIP3    H218661   5.180   5.090   5.599 -1.3376 -0.4180  0.8937
 6233TIP3   OH218662   2.551   3.745   4.178 -1.0788 -0.0237  0.0633
 6233TIP3    H118663   2.599   3.668   4.210  0.4326  0.8798  0.0922
 6233TIP3    H218664   2.541   3.730   4.084 -2.8395 -1.2887  0.4152
 6234TIP3   OH218665   0.826   1.758   4.310  0.3392  0.5462 -0.0252
 6234TIP3    H118666   0.804   1.771   4.218  1.8908 -1.9395 -0.8490
 6234TIP3    H218667   0.743   1.765   4.357 -0.5117  1.5878 -1.6001
 6235TIP3   OH218668   1.775   0.208   4.440 -0.2278  0.3505  0.1318
 6235TIP3    H118669   1.755   0.247   4.355 -2.2397  1.6018  1.0789
 6235TIP3    H218670   1.754   0.116   4.429 -0.9361  0.5841 -0.6222
 6236TIP3   OH218671   5.651   4.101   1.162  0.2274 -0.1533  0.4960
 6236TIP3    H118672   5.650   4.073   1.070  2.4697 -1.2758  0.7364
 6236TIP3    H218673   5.657   4.196   1.159  1.3038 -0.2372 -0.5672
 6237TIP3   OH218674   4.579   2.046   4.480  0.1815 -0.2753 -0.0775
 6237TIP3    H118675   4.490   2.038   4.446  0.6990  0.3388 -1.6681
 6237TIP3    H218676   4.635   2.040   4.403  1.5433 -0.7118  0.8948
 6238TIP3   OH218677   3.249   6.235   1.344 -0.1865  0.4533  0.1374
 6238TIP3    H118678   3.289   6.319   1.323 -0.2245  0.4123 -0.1099
 6238TIP3    H218679   3.292   6.207   1.424  0.2297  0.4459 -0.0821
 6239TIP3   OH218680   2.095   6.578   3.140  0.2026  0.1519 -0.1948
 6239TIP3    H118681   2.095   6.564   3.235  0.3907  2.2264  0.1391
 6239TIP3    H218682   2.077   6.671   3.129  1.8459  0.3062 -2.1370
 6240TIP3   OH218683   0.153   2.986   1.317 -0.2947 -0.1029 -0.2967
 6240TIP3    H118684   0.217   2.932   1.363  0.7335  0.7000 -0.7461
 6240TIP3    H218685   0.201   3.021   1.242 -1.2650  0.5327 -0.6346
 6241TIP3   OH218686   2.668   4.250   2.045  0.0690  0.1823 -0.2783
 6241TIP3    H118687   2.664   4.211   2.132  3.6369  1.1200  0.4820
 6241TIP3    H218688   2.598   4.206   1.996 -2.4290  0.0046  3.1088
 6242TIP3   OH218689   4.872   4.520   3.341  0.3722 -0.1406  0.5753
 6242TIP3    H118690   4.964   4.542   3.352  0.5833 -0.6422 -0.1160
 6242TIP3    H218691   4.873   4.433   3.300 -0.4137 -0.6196  1.5213
 6243TIP3   OH218692   0.556   4.319   1.767 -0.1603  0.2876 -0.0991
 6243TIP3    H118693   0.596   4.346   1.849 -0.1190  1.5601 -0.5250
 6243TIP3    H218694   0.631   4.302   1.709 -0.1813  2.2684 -0.7679
 6244TIP3   OH218695   6.927   2.395   5.380  0.2385  0.1545 -0.2641
 6244TIP3    H118696   6.871   2.317   5.374 -0.4533  0.6710 -0.8071
 6244TIP3    H218697   6.868   2.468   5.360  0.8702  0.8242  0.2631
 6245TIP3   OH218698   5.648   5.391   4.115 -0.5115 -0.0578  0.4041
 6245TIP3    H118699   5.742   5.374   4.122 -0.4146  1.1007  3.4976
 6245TIP3    H218700   5.608   5.304   4.112  0.5988 -0.6051  0.9618
 6246TIP3   OH218701   1.456   1.693   2.167 -0.1498  0.3787  0.1834
 6246TIP3    H118702   1.491   1.606   2.183  1.7760  1.1264  0.3621
 6246TIP3    H218703   1.532   1.751   2.172 -1.5732  2.2757  1.5816
 6247TIP3   OH218704   6.524   6.412   5.859 -0.4084  0.2986  1.1789
 6247TIP3    H118705   6.597   6.369   5.903  0.6410 -0.2367 -0.9757
 6247TIP3    H218706   6.549   6.415   5.767 -2.4323  1.5238  0.5954
 6248TIP3   OH218707   2.642   1.610   4.922 -0.0738 -0.1722  0.3708
 6248TIP3    H118708   2.640   1.702   4.894  2.9016 -0.2723 -0.5361
 6248TIP3    H218709   2.725   1.601   4.970  1.7679 -3.1557 -2.9055
 6249TIP3   OH218710   5.379   6.161   5.775  0.2029 -0.4505 -0.0586
 6249TIP3    H118711   5.405   6.100   5.844 -0.1183 -0.7415 -0.1916
 6249TIP3    H218712   5.373   6.107   5.697 -0.0998 -0.2501 -0.1726
 6250TIP3   OH218713   0.542   4.200   1.385  0.3543 -0.0670  0.0039
 6250TIP3    H118714   0.572   4.257   1.314 -2.1343  0.2877 -0.8400
 6250TIP3    H218715   0.608   4.212   1.454  2.3927  0.2164 -1.8728
 6251TIP3   OH218716   5.201   6.417   2.170  0.4555 -0.4017 -0.5087
 6251TIP3    H118717   5.257   6.489   2.199  1.1101 -0.1641 -2.2163
 6251TIP3    H218718   5.243   6.338   2.204 -1.0066  0.0183  2.5492
 6252TIP3   OH218719   0.952   6.181   3.131  0.6632  0.4533  0.2203
 6252TIP3    H118720   0.965   6.124   3.055 -1.7496 -1.1346  0.8959
 6252TIP3    H218721   0.910   6.126   3.196  1.8872  2.0098  2.4519
 6253TIP3   OH218722   1.916   4.825   1.749 -0.7871  0.2137 -0.3072
 6253TIP3    H118723   1.865   4.751   1.782 -1.6535  1.3347  0.9771
 6253TIP3    H218724   2.001   4.787   1.726 -0.6855 -0.9531  1.7324
 6254TIP3   OH218725   1.146   2.853   4.632  0.6880 -0.0563 -0.2732
 6254TIP3    H118726   1.187   2.935   4.603  1.7593 -1.1831 -2.1231
 6254TIP3    H218727   1.208   2.816   4.695  0.7030  0.0518 -0.2243
 6255TIP3   OH218728   0.387   2.841   1.229  0.7641 -0.3320  0.0942
 6255TIP3    H118729   0.454   2.846   1.161  0.1472  1.1883 -0.4503
 6255TIP3    H218730   0.340   2.760   1.211  1.7890 -0.8974 -0.1338
 6256TIP3   OH218731   2.705   4.014   5.339  0.9093  0.5818 -0.6835
 6256TIP3    H118732   2.720   4.099   5.381 -0.0520  1.0607 -1.2809
 6256TIP3    H218733   2.617   3.990   5.366  0.9306  0.0752 -1.0565
 6257TIP3   OH218734   2.997   1.279   0.118  0.2285  0.6586  0.3592
 6257TIP3    H118735   2.930   1.314   0.177 -0.6955 -0.0694 -0.2190
 6257TIP3    H218736   2.992   1.334   0.040 -0.0076  0.3399  0.1444
 6258TIP3   OH218737   5.051   5.417   0.838  0.4133  0.4425 -0.2799
 6258TIP3    H118738   4.959   5.407   0.862  0.7145 -1.8795  0.1351
 6258TIP3    H218739   5.049   5.434   0.744 -0.4271 -0.8094 -0.5147
 6259TIP3   OH218740   2.733   0.564   0.889 -0.0600  0.4676 -0.0379
 6259TIP3    H118741   2.797   0.632   0.907  0.7093 -0.3574  0.4421
 6259TIP3    H218742   2.784   0.490   0.857 -0.6912 -0.3709  0.7897
 6260TIP3   OH218743   1.479   4.762   4.195 -0.2393 -0.1761  0.6489
 6260TIP3    H118744   1.427   4.744   4.117 -0.3718  1.6682  0.2704
 6260TIP3    H218745   1.553   4.702   4.189  0.0423  0.3093 -1.1908
 6261TIP3   OH218746   1.424   0.683   2.787  0.4262 -0.9003  0.2192
 6261TIP3    H118747   1.406   0.775   2.808  1.2491 -0.7298  0.1968
 6261TIP3    H218748   1.513   0.683   2.753  1.0478 -1.9440  1.7303
 6262TIP3   OH218749   4.459   3.659   4.809 -0.3118  0.7908  0.9706
 6262TIP3    H118750   4.428   3.572   4.782  2.2867  0.0714  0.0303
 6262TIP3    H218751   4.435   3.716   4.736 -0.5708  0.5288  0.8448
 6263TIP3   OH218752   3.632   4.845   3.587  0.3781  0.1288  0.1350
 6263TIP3    H118753   3.716   4.825   3.629  1.4240  0.0536 -1.8399
 6263TIP3    H218754   3.638   4.938   3.565 -0.1368  0.1644  0.1339
 6264TIP3   OH218755   5.937   5.532   1.781 -0.3041 -0.3693 -0.3951
 6264TIP3    H118756   5.850   5.502   1.805 -0.4364 -0.0138 -0.4304
 6264TIP3    H218757   5.964   5.588   1.854 -0.0622 -0.5625 -0.3342
 6265TIP3   OH218758   2.894   4.534   5.261  0.4059  0.1101  0.6840
 6265TIP3    H118759   2.846   4.451   5.260 -0.5061  0.5907  1.7219
 6265TIP3    H218760   2.930   4.540   5.349  0.8765  0.5801  0.4638
 6266TIP3   OH218761   4.219   1.366   4.639  0.0322  0.4076  0.1944
 6266TIP3    H118762   4.265   1.417   4.705  0.4649 -0.6605  0.7369
 6266TIP3    H218763   4.287   1.336   4.579 -0.3127  1.0818 -0.5631
 6267TIP3   OH218764   4.883   4.375   4.293 -0.0571 -0.7068 -0.1834
 6267TIP3    H118765   4.857   4.286   4.270  0.3472 -0.4898 -1.5739
 6267TIP3    H218766   4.957   4.394   4.236  1.6759 -0.4488  2.0186
 6268TIP3   OH218767   2.494   3.169   5.462 -0.7703  0.3069  0.0758
 6268TIP3    H118768   2.490   3.259   5.430  0.8048  0.5479  0.4499
 6268TIP3    H218769   2.587   3.153   5.477 -0.5938 -2.4543 -2.9475
 6269TIP3   OH218770   2.914   4.621   1.801  0.3478  0.4136  0.2207
 6269TIP3    H118771   2.848   4.573   1.750  0.7436  0.3427 -0.2335
 6269TIP3    H218772   2.892   4.713   1.786  0.8102  0.4026 -0.5530
 6270TIP3   OH218773   1.869   5.594   3.360 -0.0211  0.4420 -0.2139
 6270TIP3    H118774   1.774   5.583   3.371  0.0926 -0.4864 -0.0257
 6270TIP3    H218775   1.888   5.678   3.402 -0.0762 -1.5497  4.4332
 6271TIP3   OH218776   5.302   2.091   5.109  0.5998 -0.6813  0.1746
 6271TIP3    H118777   5.210   2.107   5.092  0.9482  1.8868  0.3981
 6271TIP3    H218778   5.307   2.079   5.204  0.6636  0.8203  0.3844
 6272TIP3   OH218779   1.768   0.721   5.795 -0.4092 -0.2170 -0.0215
 6272TIP3    H118780   1.817   0.802   5.782  0.0615  0.0766  2.9040
 6272TIP3    H218781   1.836   0.654   5.804 -0.7414 -0.6682 -0.8690
 6273TIP3   OH218782   4.066   1.875   0.302  0.7435 -0.2733 -0.2663
 6273TIP3    H118783   4.160   1.857   0.305  0.4474 -2.2698 -1.3129
 6273TIP3    H218784   4.043   1.872   0.209 -0.5765 -1.1960  0.0523
 6274TIP3   OH218785   6.387   2.347   5.044  0.0651  0.0240  0.3939
 6274TIP3    H118786   6.355   2.364   5.132 -1.7860  0.8609 -0.3909
 6274TIP3    H218787   6.443   2.422   5.024 -1.0548  0.8288  0.1818
 6275TIP3   OH218788   6.686   3.458   5.105  0.2286  0.5449 -0.2868
 6275TIP3    H118789   6.603   3.504   5.115 -1.3146 -2.2078  0.6107
 6275TIP3    H218790   6.733   3.507   5.038 -1.9696  2.3776 -0.5973
 6276TIP3   OH218791   4.458   6.475   0.515  0.1365 -0.2372  0.2723
 6276TIP3    H118792   4.468   6.539   0.586  0.3091 -1.0134  0.9597
 6276TIP3    H218793   4.439   6.392   0.560  0.9884 -0.8944 -0.5583
 6277TIP3   OH218794   5.768   2.367   5.386 -0.7118  0.1801  0.2610
 6277TIP3    H118795   5.836   2.434   5.394 -0.7472  0.2415  0.0525
 6277TIP3    H218796   5.797   2.312   5.313 -1.8698  1.3754 -1.1535
 6278TIP3   OH218797   5.363   4.206   0.373 -0.3470  0.0687 -0.4131
 6278TIP3    H118798   5.282   4.159   0.389 -1.9180  2.7377  0.0773
 6278TIP3    H218799   5.404   4.214   0.459 -1.0618  1.2327 -0.1708
 6279TIP3   OH218800   3.669   0.087   3.441  0.1805 -0.1109 -0.0007
 6279TIP3    H118801   3.703   0.176   3.432  0.4286 -0.2038  0.0136
 6279TIP3    H218802   3.700   0.041   3.363 -0.6067  0.0264 -0.3952
 6280TIP3   OH218803   3.900   3.946   3.755  0.1536  0.1753 -0.2018
 6280TIP3    H118804   3.940   4.032   3.768  2.0489 -0.5959 -0.6676
 6280TIP3    H218805   3.863   3.950   3.666 -0.5652  0.7775  0.1086
 6281TIP3   OH218806   4.501   0.133   2.622  0.3624  0.3002  0.0010
 6281TIP3    H118807   4.471   0.077   2.550 -0.6304 -0.5092  0.9928
 6281TIP3    H218808   4.438   0.116   2.692  1.1571  1.2551  0.9717
 6282TIP3   OH218809   2.230   0.020   1.363  0.3577  0.4695 -0.0804
 6282TIP3    H118810   2.222   0.025   1.268 -0.4333 -0.0070 -0.0444
 6282TIP3    H218811   2.172   0.088   1.396  0.4796  0.5019  0.0702
 6283TIP3   OH218812   1.440   2.649   1.175  0.3951 -0.3934 -0.1007
 6283TIP3    H118813   1.459   2.718   1.111 -1.1503 -0.4893 -0.7328
 6283TIP3    H218814   1.444   2.568   1.124  1.5928 -0.7176  0.4978
 6284TIP3   OH218815   3.308   6.124   5.159 -0.1382  0.0017 -0.4320
 6284TIP3    H118816   3.329   6.126   5.066  0.4289 -0.0836 -0.3120
 6284TIP3    H218817   3.313   6.031   5.182 -1.4695 -0.1248 -0.5699
 6285TIP3   OH218818   0.449   3.765   0.015  0.2712 -0.4943 -0.5618
 6285TIP3    H118819   0.366   3.726  -0.015  0.3426 -0.5697 -0.6632
 6285TIP3    H218820   0.425   3.853   0.043  0.1169 -0.5939 -0.3791
 6286TIP3   OH218821   4.704   4.856   5.115 -0.0725 -0.4975 -0.3638
 6286TIP3    H118822   4.619   4.901   5.119 -0.5760 -1.4880  0.7265
 6286TIP3    H218823   4.762   4.918   5.072 -1.0785  0.6505 -0.1148
 6287TIP3   OH218824   2.237   3.751   3.948 -0.1123  0.4617 -0.0788
 6287TIP3    H118825   2.260   3.705   4.028  0.6991  0.7987 -0.1063
 6287TIP3    H218826   2.321   3.770   3.906 -0.4134  1.9283 -0.0754
 6288TIP3   OH218827   6.530   0.218   0.926  0.3039 -0.0224 -0.0111
 6288TIP3    H118828   6.608   0.163   0.920  0.4997  0.3737 -3.6129
 6288TIP3    H218829   6.563   0.306   0.943  0.4328 -0.2212  0.7660
 6289TIP3   OH218830   6.030   6.034   0.266  0.0366 -0.1807  0.1878
 6289TIP3    H118831   6.053   6.101   0.202  0.9505 -0.9942 -0.3736
 6289TIP3    H218832   5.988   5.965   0.215  0.9526 -0.9263  0.4015
 6290TIP3   OH218833   0.978   2.822   5.572  0.1737 -0.1614 -0.4871
 6290TIP3    H118834   1.029   2.806   5.493  0.8419 -0.6219  0.0348
 6290TIP3    H218835   0.995   2.913   5.594 -0.7693  0.2594 -1.4005
 6291TIP3   OH218836   5.844   4.519   4.714 -0.4201 -0.3242 -0.4691
 6291TIP3    H118837   5.915   4.532   4.777  1.6256  2.0082 -2.9682
 6291TIP3    H218838   5.814   4.429   4.728  1.0788 -0.4571  2.5697
 6292TIP3   OH218839   0.575   4.953   5.232 -0.4168 -0.1150  0.3348
 6292TIP3    H118840   0.664   4.963   5.200 -0.1188 -1.5424  0.6410
 6292TIP3    H218841   0.519   4.986   5.161  0.3427  0.6845  0.1016
 6293TIP3   OH218842   3.948   5.814   3.669 -0.3488  0.3083 -0.4199
 6293TIP3    H118843   4.043   5.802   3.669 -0.4727 -0.8198  0.4395
 6293TIP3    H218844   3.920   5.781   3.584 -0.0017  0.3713 -0.5614
 6294TIP3   OH218845   2.996   5.390   4.434  0.4326 -0.2823  0.6315
 6294TIP3    H118846   2.966   5.475   4.401  0.0880  0.0554  1.7617
 6294TIP3    H218847   2.916   5.342   4.452  0.5815 -0.1414  1.7449
 6295TIP3   OH218848   0.359   2.388   4.610 -0.5967  0.0160  0.4595
 6295TIP3    H118849   0.319   2.313   4.566  0.2882  0.4186 -1.0964
 6295TIP3    H218850   0.361   2.457   4.544  0.6632  0.6757  1.1451
 6296TIP3   OH218851   3.924   5.757   5.074  0.2460 -0.5620 -0.5749
 6296TIP3    H118852   3.972   5.675   5.065 -1.2812 -1.9179  2.0906
 6296TIP3    H218853   3.930   5.777   5.168 -1.4373  1.0612 -0.7663
 6297TIP3   OH218854   6.114   5.125   3.711  0.2098 -0.7338 -0.2845
 6297TIP3    H118855   6.105   5.065   3.637  0.6846  0.9609 -1.7681
 6297TIP3    H218856   6.208   5.129   3.729  0.3627  0.6819 -1.2123
 6298TIP3   OH218857   6.867   4.506   0.780  0.8191 -0.0574  0.2322
 6298TIP3    H118858   6.811   4.480   0.852  1.6154 -0.3867  0.7519
 6298TIP3    H218859   6.856   4.601   0.772 -0.6405 -0.2638 -0.4065
 6299TIP3   OH218860   6.737   6.221   0.665 -0.0864  0.1392  0.1496
 6299TIP3    H118861   6.690   6.211   0.582 -0.1738  0.8481  0.1038
 6299TIP3    H218862   6.777   6.308   0.659  0.0349  0.1301  0.7893
 6300TIP3   OH218863   4.632   6.793   0.936  0.6903  0.9184  0.3453
 6300TIP3    H118864   4.711   6.844   0.950  2.6586 -1.1133 -2.2850
 6300TIP3    H218865   4.658   6.703   0.955  0.0163 -0.2341 -3.3373
 6301TIP3   OH218866   6.948   0.596   3.262  0.0302 -0.1985  0.0447
 6301TIP3    H118867   6.992   0.611   3.179  1.3262  1.4567  0.9497
 6301TIP3    H218868   6.919   0.683   3.290 -3.1243 -1.0729 -0.0487
 6302TIP3   OH218869   3.489   6.584   5.061  0.4228  0.3816  0.1539
 6302TIP3    H118870   3.445   6.544   4.985  1.3454  0.3663 -0.3887
 6302TIP3    H218871   3.513   6.671   5.031 -0.8144  1.0632  1.0531
 6303TIP3   OH218872   2.434   1.855   1.572  0.2035 -0.3588  0.1161
 6303TIP3    H118873   2.448   1.843   1.666 -2.7393  1.0429  0.8306
 6303TIP3    H218874   2.366   1.792   1.549  1.6559 -1.4629 -1.3918
 6304TIP3   OH218875   4.025   3.202   2.982  0.6004 -0.0794  0.5425
 6304TIP3    H118876   4.057   3.231   3.067  1.3791  0.4198  0.0950
 6304TIP3    H218877   4.083   3.129   2.958  1.4005  0.7818 -0.2408
 6305TIP3   OH218878   1.844   3.701   1.884 -0.3769 -0.0663  0.1147
 6305TIP3    H118879   1.810   3.613   1.899 -0.5597 -0.0823 -0.3938
 6305TIP3    H218880   1.876   3.700   1.794  0.3513  0.1528  0.3649
 6306TIP3   OH218881   0.273   6.228   5.455 -0.2845 -0.0505 -0.2552
 6306TIP3    H118882   0.229   6.158   5.406 -0.9685  1.1780 -1.4392
 6306TIP3    H218883   0.366   6.205   5.449 -0.5276 -1.1485 -0.1489
 6307TIP3   OH218884   5.426   4.064   2.433 -0.0246  0.0327  0.4841
 6307TIP3    H118885   5.350   4.010   2.453 -0.3706 -0.4008 -1.7976
 6307TIP3    H218886   5.400   4.118   2.359  2.1938 -0.9771 -1.1751
 6308TIP3   OH218887   1.838   0.814   5.267 -0.7152  0.2014 -0.2555
 6308TIP3    H118888   1.881   0.826   5.351  1.4685 -0.8800 -1.1476
 6308TIP3    H218889   1.887   0.871   5.207 -1.3706 -0.0465 -1.0439
 6309TIP3   OH218890   0.302   5.506   5.073 -0.5891 -0.1241  0.2178
 6309TIP3    H118891   0.347   5.431   5.033  0.8069  0.9542 -0.3058
 6309TIP3    H218892   0.233   5.528   5.010 -0.9668 -0.9139  0.3430
 6310TIP3   OH218893   4.671   0.409   3.978  0.1430 -0.5382 -0.0672
 6310TIP3    H118894   4.668   0.426   3.884 -0.9052  0.4974  0.1318
 6310TIP3    H218895   4.653   0.315   3.986 -1.3065 -0.3451 -0.8339
 6311TIP3   OH218896   7.019   4.516   4.340 -0.2193  0.1449  0.1602
 6311TIP3    H118897   6.980   4.477   4.419 -0.9665  1.3362  0.3993
 6311TIP3    H218898   6.986   4.605   4.338  0.4589  0.3937 -1.0647
 6312TIP3   OH218899   1.147   5.076   0.453  0.2047 -0.1550 -0.0187
 6312TIP3    H118900   1.196   4.994   0.458  0.4400  0.0337  1.4677
 6312TIP3    H218901   1.058   5.052   0.481  0.1156 -0.0190 -0.1874
 6313TIP3   OH218902   3.896   1.862   4.909 -0.3720 -0.2937 -0.6463
 6313TIP3    H118903   3.879   1.844   5.002  2.8944  0.5938  0.2615
 6313TIP3    H218904   3.810   1.864   4.869 -2.0405  0.6504  2.6354
 6314TIP3   OH218905   2.125   4.273   3.349  0.2709  0.1631 -0.0955
 6314TIP3    H118906   2.207   4.270   3.299 -0.6730 -2.0033 -1.6811
 6314TIP3    H218907   2.149   4.244   3.437  1.3472  0.3909 -0.3003
 6315TIP3   OH218908   1.423   6.359   2.442 -0.6425  0.4174 -0.0633
 6315TIP3    H118909   1.392   6.318   2.361 -0.2755 -0.1031  0.0598
 6315TIP3    H218910   1.487   6.298   2.477 -1.1113  0.4371  0.8465
 6316TIP3   OH218911   2.417   3.131   2.511 -0.6941 -0.5047  0.0086
 6316TIP3    H118912   2.477   3.205   2.503 -0.0305 -0.9842  0.3808
 6316TIP3    H218913   2.460   3.073   2.574 -2.7007  0.2343  2.1834
 6317TIP3   OH218914   3.234   4.039   2.615 -0.0479 -0.2206 -0.6344
 6317TIP3    H118915   3.260   3.961   2.664 -1.7661  0.1490  0.9666
 6317TIP3    H218916   3.172   4.006   2.550 -0.3326 -0.2706 -0.3383
 6318TIP3   OH218917   0.224   1.330   3.318  0.4940  0.2750  0.4826
 6318TIP3    H118918   0.266   1.249   3.348  2.2775  0.8069 -0.4382
 6318TIP3    H218919   0.229   1.389   3.393  1.9545  0.5108  0.2331
 6319TIP3   OH218920   3.496   3.780   1.570 -0.1104 -0.4472 -0.2777
 6319TIP3    H118921   3.435   3.743   1.506  0.3631 -0.0051 -0.9936
 6319TIP3    H218922   3.445   3.847   1.615 -0.7011 -1.3351  0.4112
 6320TIP3   OH218923   6.428   0.429   4.848  0.6056  0.5062  0.1058
 6320TIP3    H118924   6.401   0.359   4.790  0.2753 -0.1273  1.0120
 6320TIP3    H218925   6.516   0.453   4.817  1.0006 -0.7568  0.1838
 6321TIP3   OH218926   3.754   4.298   3.766  0.1212 -0.3718 -0.4064
 6321TIP3    H118927   3.839   4.255   3.756 -0.0979 -1.3425  1.5454
 6321TIP3    H218928   3.761   4.346   3.849 -0.5685  1.2403 -1.2181
 6322TIP3   OH218929   4.496   4.128   4.728  0.4647  0.3953  0.3127
 6322TIP3    H118930   4.519   4.188   4.799  0.4073  1.6147 -0.6735
 6322TIP3    H218931   4.581   4.101   4.692  0.4752  0.2728  0.4260
 6323TIP3   OH218932   5.791   6.738   3.118 -0.3501 -0.2936 -0.2562
 6323TIP3    H118933   5.731   6.809   3.143  0.0283 -1.3727  4.7753
 6323TIP3    H218934   5.734   6.666   3.094 -1.0369 -0.2008  0.9842
 6324TIP3   OH218935   3.879   5.586   1.615 -0.2972 -0.1765  0.6509
 6324TIP3    H118936   3.843   5.500   1.635 -0.4476 -0.3229 -0.2426
 6324TIP3    H218937   3.829   5.646   1.671 -0.5444 -0.6037  0.8934
 6325TIP3   OH218938   0.513   3.720   1.156 -0.0176  0.3349 -0.0663
 6325TIP3    H118939   0.467   3.788   1.204 -0.0409 -0.1298  0.5897
 6325TIP3    H218940   0.457   3.701   1.081 -1.1358 -0.5173  0.9403
 6326TIP3   OH218941   0.961   3.368   1.600 -0.2448 -0.1393 -0.1493
 6326TIP3    H118942   0.947   3.277   1.576  3.5735 -1.8324  2.9425
 6326TIP3    H218943   0.933   3.373   1.691 -0.6497  1.8982 -0.3388
 6327TIP3   OH218944   6.219   4.877   4.978  0.7972  0.5986  0.4554
 6327TIP3    H118945   6.202   4.785   4.956  2.2089  0.1070  1.3296
 6327TIP3    H218946   6.185   4.925   4.903 -0.9332 -0.5374  0.4327
 6328TIP3   OH218947   6.198   3.957   2.983  0.1279  0.4839  0.0507
 6328TIP3    H118948   6.203   4.012   2.905  1.9288  0.0511 -0.1746
 6328TIP3    H218949   6.177   3.870   2.950  0.9488  0.2882  0.0243
 6329TIP3   OH218950   2.149   5.012   3.718 -0.4921 -0.2160 -0.0782
 6329TIP3    H118951   2.209   5.021   3.792  0.6926  1.0861 -1.1305
 6329TIP3    H218952   2.202   4.970   3.650 -0.7311  1.0080 -1.0444
 6330TIP3   OH218953   0.849   2.972   3.453  0.2430 -0.0495  0.1964
 6330TIP3    H118954   0.837   2.879   3.434  0.9147  0.3588 -2.7905
 6330TIP3    H218955   0.933   2.976   3.498  0.8128 -0.8138 -0.7491
 6331TIP3   OH218956   1.491   1.489   1.325  0.4771  0.5101  0.3583
 6331TIP3    H118957   1.406   1.529   1.341 -0.1632 -1.4916  2.3039
 6331TIP3    H218958   1.551   1.564   1.320 -1.2354  1.9164 -0.3445
 6332TIP3   OH218959   3.724   0.509   1.008 -0.9444 -0.5461 -0.1381
 6332TIP3    H118960   3.728   0.442   1.076 -2.3934 -1.3064 -0.7487
 6332TIP3    H218961   3.809   0.552   1.011 -0.8909 -0.6843  2.0151
 6333TIP3   OH218962   5.962   5.318   1.112 -0.1464 -0.5274 -0.2536
 6333TIP3    H118963   5.990   5.367   1.190  0.1807 -1.6716  0.3739
 6333TIP3    H218964   5.872   5.347   1.096 -0.3594 -0.5708  0.8028
 6334TIP3   OH218965   3.621   1.408   1.097 -0.5542 -0.1472 -0.9232
 6334TIP3    H118966   3.526   1.420   1.091 -0.4605  0.0592 -2.2882
 6334TIP3    H218967   3.645   1.453   1.178 -1.6259 -0.2580 -0.5229
 6335TIP3   OH218968   4.557   4.015   1.860 -0.3673  0.7802  0.2421
 6335TIP3    H118969   4.502   4.087   1.831  1.1671  2.4068  1.1045
 6335TIP3    H218970   4.582   3.969   1.780 -0.0892  2.2099 -0.5282
 6336TIP3   OH218971   6.059   0.080   2.383 -0.4179  0.1449  0.3584
 6336TIP3    H118972   6.153   0.066   2.393  0.1731  1.5367 -2.2911
 6336TIP3    H218973   6.033   0.020   2.312 -1.0118  1.3119 -0.4493
 6337TIP3   OH218974   6.945   0.368   4.695 -0.0603 -0.3914 -0.4360
 6337TIP3    H118975   6.858   0.372   4.735 -0.3614  0.1404 -1.1261
 6337TIP3    H218976   6.961   0.457   4.663 -0.5838 -1.1442 -3.0345
 6338TIP3   OH218977   3.196   2.354   0.065  0.3970 -0.3793  0.3904
 6338TIP3    H118978   3.251   2.369  -0.011  0.6680  1.6133  0.9083
 6338TIP3    H218979   3.176   2.261   0.063 -1.6747 -0.0675 -3.5347
 6339TIP3   OH218980   0.494   0.608   5.326  0.6796  0.1321  0.3973
 6339TIP3    H118981   0.479   0.522   5.365 -0.4473 -0.4615 -1.2463
 6339TIP3    H218982   0.500   0.667   5.401  2.2580 -1.4448  1.6209
 6340TIP3   OH218983   1.435   2.912   0.199 -0.2820 -0.8031 -0.0255
 6340TIP3    H118984   1.412   2.853   0.272 -0.1812  0.2474  0.8816
 6340TIP3    H218985   1.528   2.894   0.183  0.4301  0.8013  1.9198
 6341TIP3   OH218986   2.204   4.407   0.996 -0.1267  0.6301  0.4927
 6341TIP3    H118987   2.222   4.335   1.057  2.0943  0.6848 -0.0200
 6341TIP3    H218988   2.162   4.365   0.921  0.7553 -0.1032  0.3883
 6342TIP3   OH218989   0.697   1.978   5.126  0.0874  0.3069  0.6195
 6342TIP3    H118990   0.667   1.935   5.206 -0.1297 -3.0121 -1.0661
 6342TIP3    H218991   0.621   1.979   5.069  1.0278 -0.5519 -0.7272
 6343TIP3   OH218992   0.074   2.221   3.118  0.2719  0.3902  0.0537
 6343TIP3    H118993  -0.003   2.237   3.174 -0.9874 -1.5927 -0.9951
 6343TIP3    H218994   0.052   2.262   3.035  1.8925  2.8187  0.7456
 6344TIP3   OH218995   5.564   0.455   4.059  0.1750  0.1747 -0.0557
 6344TIP3    H118996   5.529   0.405   4.132  0.8964 -0.3380 -0.0600
 6344TIP3    H218997   5.581   0.542   4.096  1.5510 -0.3736  0.6911
 6345TIP3   OH218998   4.800   3.535   4.479  0.0067  0.0457  0.2169
 6345TIP3    H118999   4.757   3.464   4.430 -1.2999  1.2086 -0.3745
 6345TIP3    H219000   4.811   3.605   4.416 -0.5977  1.1295  1.2725
 6346TIP3   OH219001   6.631   1.288   2.999 -0.2383 -0.0365  0.1209
 6346TIP3    H119002   6.653   1.198   2.975 -2.4999 -0.3839 -0.8428
 6346TIP3    H219003   6.587   1.323   2.922  0.1277  1.7404  0.6811
 6347TIP3   OH219004   6.699   5.288   3.966 -0.6675  0.0098  0.3089
 6347TIP3    H119005   6.629   5.354   3.972 -2.6963 -1.9063 -0.8078
 6347TIP3    H219006   6.752   5.317   3.892 -1.0543  0.8071  0.3243
 6348TIP3   OH219007   2.264   3.830   4.422  0.3851  0.0164 -0.3148
 6348TIP3    H119008   2.276   3.776   4.501  1.8336 -1.7574 -1.6610
 6348TIP3    H219009   2.330   3.898   4.429 -0.3857  0.6910  0.6244
 6349TIP3   OH219010   3.928   1.748   2.107  0.0491  0.4410  0.6094
 6349TIP3    H119011   3.895   1.661   2.084  1.7490 -0.3395  0.9825
 6349TIP3    H219012   3.850   1.803   2.111 -0.8268 -0.2403 -3.0457
 6350TIP3   OH219013   0.066   1.406   4.162 -0.3027  0.2713 -0.3720
 6350TIP3    H119014  -0.030   1.410   4.155 -0.3346  0.6191  0.1132
 6350TIP3    H219015   0.081   1.374   4.251  0.0323  0.2547 -0.4354
 6351TIP3   OH219016   4.138   0.671   1.883  0.2144 -0.2674  0.0814
 6351TIP3    H119017   4.185   0.684   1.801 -0.6171  1.4913 -0.1754
 6351TIP3    H219018   4.088   0.752   1.895 -0.5458 -0.9290  1.7638
 6352TIP3   OH219019   5.935   4.895   5.195  0.0434 -0.2712  0.4001
 6352TIP3    H119020   5.966   4.956   5.262 -0.2441 -1.0052  1.2240
 6352TIP3    H219021   5.881   4.832   5.243 -0.3767 -0.6660 -0.5669
 6353TIP3   OH219022   2.745   4.267   4.749 -0.4200  0.4645 -0.0346
 6353TIP3    H119023   2.769   4.343   4.801 -1.5103  1.5849 -1.0707
 6353TIP3    H219024   2.664   4.294   4.704  0.1752 -0.6188 -1.8586
 6354TIP3   OH219025   4.351   3.027   1.022 -0.1581 -0.3750  0.5097
 6354TIP3    H119026   4.317   3.101   0.973 -0.4857 -0.3767  0.7348
 6354TIP3    H219027   4.439   3.055   1.050 -0.2938 -0.0596  0.6224
 6355TIP3   OH219028   1.160   5.759   0.108 -0.5797 -0.2776  0.2075
 6355TIP3    H119029   1.069   5.784   0.123 -0.3689 -0.5812  2.3844
 6355TIP3    H219030   1.163   5.665   0.124 -0.0387 -0.4326 -0.7278
 6356TIP3   OH219031   3.441   6.131   4.080 -0.0749  0.4870 -0.2216
 6356TIP3    H119032   3.503   6.192   4.040  2.0791  0.2630  2.4739
 6356TIP3    H219033   3.409   6.078   4.007  1.9148  1.4633 -1.9080
 6357TIP3   OH219034   2.395   5.534   4.718  0.4473 -0.2071  0.4154
 6357TIP3    H119035   2.394   5.627   4.698  0.4876  0.3766  2.7945
 6357TIP3    H219036   2.308   5.516   4.752 -0.0985 -1.4607 -1.4802
 6358TIP3   OH219037   4.195   4.198   1.378  0.0949  0.4255 -0.1476
 6358TIP3    H119038   4.152   4.284   1.376 -0.0065  0.3608 -1.4461
 6358TIP3    H219039   4.142   4.143   1.320 -0.2475 -0.7365  1.2033
 6359TIP3   OH219040   3.554   5.363   3.025  0.0171  0.4599  0.6643
 6359TIP3    H119041   3.649   5.356   3.020 -0.1227 -0.6836 -1.4545
 6359TIP3    H219042   3.529   5.304   3.096  0.7569 -1.3035 -0.4627
 6360TIP3   OH219043   5.235   2.232   0.972  0.3925 -0.6809 -0.4961
 6360TIP3    H119044   5.194   2.180   1.041  1.7852 -0.5970  0.4204
 6360TIP3    H219045   5.173   2.226   0.898 -1.0159 -0.9371  0.6637
 6361TIP3   OH219046   4.015   2.734   3.583 -0.2551 -0.4316  0.4072
 6361TIP3    H119047   3.999   2.646   3.549  1.3503 -1.0428  1.1197
 6361TIP3    H219048   4.063   2.779   3.514 -0.2251 -0.4443  0.4195
 6362TIP3   OH219049   0.863   4.451   1.014 -0.4075 -0.0755 -0.2558
 6362TIP3    H119050   0.858   4.541   1.049 -1.4716  0.3309 -1.4079
 6362TIP3    H219051   0.841   4.460   0.922 -0.5886 -1.5476 -0.3690
 6363TIP3   OH219052   3.261   5.822   4.117  0.1004 -0.4093  0.2036
 6363TIP3    H119053   3.265   5.898   4.059  0.1071  0.2545  1.0689
 6363TIP3    H219054   3.180   5.834   4.166  0.3545 -0.7051  0.6996
 6364TIP3   OH219055   4.362   5.367   4.707  0.0192  0.4782  0.2288
 6364TIP3    H119056   4.446   5.356   4.753  1.5279  2.3852 -1.8749
 6364TIP3    H219057   4.379   5.335   4.619 -1.1632  1.8007 -0.5066
 6365TIP3   OH219058   0.191   2.801   1.689 -0.3997 -0.0601 -0.3519
 6365TIP3    H119059   0.100   2.826   1.708 -0.9201 -3.0836  2.0001
 6365TIP3    H219060   0.183   2.717   1.644  1.2265 -0.1085 -0.5925
 6366TIP3   OH219061   2.406   0.959   3.477  0.4580 -0.1203 -0.6581
 6366TIP3    H119062   2.355   1.040   3.475  2.0665  0.9509 -0.4192
 6366TIP3    H219063   2.343   0.890   3.455 -0.6817  1.3301 -2.2014
 6367TIP3   OH219064   2.999   3.615   5.417 -0.6777  0.3110 -0.4008
 6367TIP3    H119065   2.961   3.676   5.354  1.2159  0.7492 -1.1757
 6367TIP3    H219066   2.935   3.611   5.488 -1.1803  2.6849 -0.6348
 6368TIP3   OH219067   1.798   2.925   1.290 -0.1177 -0.2953 -0.3126
 6368TIP3    H119068   1.725   2.979   1.318  0.4257 -1.1807  3.2782
 6368TIP3    H219069   1.874   2.983   1.294 -0.0810 -0.3434 -0.3029
 6369TIP3   OH219070   6.221   3.632   5.417  0.1966 -0.1904  0.0433
 6369TIP3    H119071   6.158   3.576   5.461 -0.6163 -0.8858 -1.8922
 6369TIP3    H219072   6.303   3.583   5.420  0.0360 -0.4414  0.3432
 6370TIP3   OH219073   7.021   5.413   3.029  0.8368 -0.2927  0.1368
 6370TIP3    H119074   6.955   5.353   3.063 -0.2485  0.3567 -0.7401
 6370TIP3    H219075   6.981   5.452   2.951  2.0498  0.5268 -0.1191
 6371TIP3   OH219076   3.345   4.797   1.939  0.3941  0.1161  0.2643
 6371TIP3    H119077   3.324   4.730   2.004  0.9780  1.2851  1.7168
 6371TIP3    H219078   3.437   4.818   1.954  0.1837  1.3604 -0.0310
 6372TIP3   OH219079   6.067   4.597   0.005  0.4747 -0.3638 -0.4153
 6372TIP3    H119080   6.056   4.580   0.098 -0.5407 -0.5866 -0.5629
 6372TIP3    H219081   5.997   4.547  -0.037  0.8517 -0.1839 -1.2915
 6373TIP3   OH219082   0.224   1.044   1.639  0.3432 -0.0714 -0.2213
 6373TIP3    H119083   0.171   1.086   1.707  0.2869 -0.7592  0.1721
 6373TIP3    H219084   0.164   0.984   1.595  0.6749 -0.5162 -0.0780
 6374TIP3   OH219085   0.838   0.673   2.414 -0.0763  0.2402  0.4456
 6374TIP3    H119086   0.836   0.593   2.465  1.3512 -0.1973 -0.1355
 6374TIP3    H219087   0.746   0.693   2.396 -0.4407 -1.5755  0.1305
 6375TIP3   OH219088   3.375   5.463   0.959 -0.0067  0.1007 -0.4405
 6375TIP3    H119089   3.366   5.552   0.994 -0.8680  0.0230 -0.4508
 6375TIP3    H219090   3.384   5.408   1.036 -2.4670 -0.1367 -0.2680
 6376TIP3   OH219091   5.157   0.611   2.744 -0.0459 -0.2368  0.1443
 6376TIP3    H119092   5.094   0.642   2.679  0.5200 -1.8127 -1.2363
 6376TIP3    H219093   5.182   0.690   2.792 -1.9467  0.6662 -0.2372
 6377TIP3   OH219094   3.936   5.324   2.019  0.0855  0.4792  0.1795
 6377TIP3    H119095   3.849   5.300   2.051  0.2049  0.4692  0.4991
 6377TIP3    H219096   3.927   5.322   1.923 -0.3560  0.8229  0.2095
 6378TIP3   OH219097   6.557   6.343   3.460  0.0536  0.4089 -0.1389
 6378TIP3    H119098   6.587   6.389   3.382  1.8495  1.0499  0.8709
 6378TIP3    H219099   6.601   6.387   3.533 -0.5187 -1.0016  1.1258
 6379TIP3   OH219100   0.281   6.713   5.113 -0.4957  0.6709 -0.6181
 6379TIP3    H119101   0.195   6.683   5.085 -0.9388  0.8949  0.4793
 6379TIP3    H219102   0.286   6.804   5.081 -0.5516  0.5683 -0.9211
 6380TIP3   OH219103   4.207   5.541   3.481 -0.8487 -0.5403  0.8749
 6380TIP3    H119104   4.292   5.584   3.492 -0.4822 -0.8305 -0.6757
 6380TIP3    H219105   4.204   5.478   3.553 -0.4613  0.5667  1.8967
 6381TIP3   OH219106   5.743   3.059   3.603  0.3296  0.3176  0.4916
 6381TIP3    H119107   5.782   3.145   3.589 -0.7836  0.6079 -1.0967
 6381TIP3    H219108   5.710   3.061   3.693 -0.2739  1.7842  0.2506
 6382TIP3   OH219109   3.659   2.457   2.321 -0.6630 -0.1683  0.0588
 6382TIP3    H119110   3.573   2.471   2.282 -0.7582  0.8346  0.6113
 6382TIP3    H219111   3.693   2.545   2.337 -0.7861 -0.5049  2.5874
 6383TIP3   OH219112   7.090   2.427   0.808 -0.0574  0.2998  0.4747
 6383TIP3    H119113   7.043   2.412   0.726 -0.2772 -0.6572  0.7616
 6383TIP3    H219114   7.043   2.499   0.850 -1.1688 -0.5181  0.6724
 6384TIP3   OH219115   1.868   1.692   0.338  0.1737 -0.0313  0.4127
 6384TIP3    H119116   1.924   1.647   0.275 -0.7809  0.1467 -0.6045
 6384TIP3    H219117   1.798   1.731   0.285 -0.0630  1.0562  1.4736
 6385TIP3   OH219118   4.122   0.835   5.657  0.1610  0.2609 -0.3047
 6385TIP3    H119119   4.095   0.751   5.620  0.6802  0.4302 -1.0803
 6385TIP3    H219120   4.078   0.901   5.603  1.0404  0.5094 -0.7351
 6386TIP3   OH219121   1.120   2.298   1.321  0.1206 -0.1144 -0.2485
 6386TIP3    H119122   1.199   2.273   1.369 -0.6586 -1.7558  0.2544
 6386TIP3    H219123   1.142   2.383   1.282  0.8399  1.2904  2.8913
 6387TIP3   OH219124   6.786   2.331   5.669  0.2939 -0.1038 -0.2719
 6387TIP3    H119125   6.704   2.330   5.619  0.3981 -0.1135 -0.4421
 6387TIP3    H219126   6.789   2.418   5.709 -1.2154 -1.0180  2.0693
 6388TIP3   OH219127   1.609   3.677   2.538  0.1345 -0.0109  0.3904
 6388TIP3    H119128   1.529   3.630   2.563  0.2532 -0.1650  0.4849
 6388TIP3    H219129   1.676   3.642   2.597  0.9696 -2.1411 -1.6348
 6389TIP3   OH219130   4.787   2.973   4.726  0.0613 -0.2918 -0.6143
 6389TIP3    H119131   4.772   2.978   4.820  1.2429 -2.2439 -0.2650
 6389TIP3    H219132   4.711   2.927   4.692  0.7690 -1.8300 -0.2064
 6390TIP3   OH219133   4.560   0.391   0.500  0.0817 -0.4622 -0.3157
 6390TIP3    H119134   4.603   0.466   0.461  1.1293 -1.6729 -1.6087
 6390TIP3    H219135   4.629   0.325   0.507 -0.8856 -1.4342  0.4231
 6391TIP3   OH219136   1.268   1.825   2.652 -0.1316 -0.0342 -0.1630
 6391TIP3    H119137   1.261   1.813   2.557  0.6412  1.0822 -0.3776
 6391TIP3    H219138   1.184   1.859   2.679 -0.2109  0.0489 -0.5131
 6392TIP3   OH219139   4.293   0.399   5.299 -0.2906  0.0615 -0.1977
 6392TIP3    H119140   4.274   0.352   5.380  0.8951 -1.0692 -0.5548
 6392TIP3    H219141   4.316   0.488   5.328  0.0020 -0.2930  0.6877
 6393TIP3   OH219142   0.196   3.735   3.536  0.0594  0.5999 -0.0687
 6393TIP3    H119143   0.195   3.742   3.632 -1.6153  1.8270 -0.1402
 6393TIP3    H219144   0.122   3.678   3.516  0.1904  0.6365 -0.6549
 6394TIP3   OH219145   2.202   2.716   0.384  0.3750 -0.8136 -0.4337
 6394TIP3    H119146   2.149   2.689   0.309  1.0676 -2.9395 -0.2339
 6394TIP3    H219147   2.154   2.789   0.422  0.2397  0.6499 -3.1717
 6395TIP3   OH219148   0.828   2.934   2.327  0.0773 -0.3607  0.2194
 6395TIP3    H119149   0.904   2.890   2.290 -1.9832 -2.1258 -2.3371
 6395TIP3    H219150   0.808   2.883   2.406  0.7049 -0.7899  0.1122
 6396TIP3   OH219151   3.424   6.047   1.226  0.6526  0.5200 -0.4400
 6396TIP3    H119152   3.502   6.101   1.212  0.8884 -0.2770 -2.4108
 6396TIP3    H219153   3.353   6.110   1.233  1.3152  1.2105  0.4029
 6397TIP3   OH219154   0.189   0.232   3.370  0.5487  0.1453  0.3447
 6397TIP3    H119155   0.145   0.147   3.382 -0.3488  0.8251  2.1902
 6397TIP3    H219156   0.281   0.208   3.352 -0.0647 -1.2319 -1.3252
 6398TIP3   OH219157   0.301   2.066   3.215 -0.3277  0.1654  0.2180
 6398TIP3    H119158   0.231   2.104   3.163  1.2076  4.0179  0.6060
 6398TIP3    H219159   0.259   1.996   3.265 -3.2174  0.4932 -1.5226
 6399TIP3   OH219160   6.764   1.092   4.659 -0.4050 -0.6279 -0.2409
 6399TIP3    H119161   6.762   1.157   4.588  0.3979 -0.4129 -0.0805
 6399TIP3    H219162   6.674   1.063   4.668 -1.0718  1.5551  0.6985
 6400TIP3   OH219163   5.055   2.719   1.222 -0.2208  0.4460 -0.2417
 6400TIP3    H119164   5.021   2.760   1.301  1.1599  1.0987  0.0490
 6400TIP3    H219165   5.023   2.774   1.150 -0.7361  0.3713 -0.0692
 6401TIP3   OH219166   0.107   2.179   4.930 -0.0051 -0.0158  0.4138
 6401TIP3    H119167   0.115   2.201   5.023 -0.4797  0.2052  0.4074
 6401TIP3    H219168   0.127   2.261   4.884 -1.5363  0.3561  0.3800
 6402TIP3   OH219169   3.434   0.995   0.885  0.5797 -0.4067 -0.2947
 6402TIP3    H119170   3.344   0.969   0.902  0.1355  0.3754 -1.3304
 6402TIP3    H219171   3.459   0.946   0.806  1.0792 -0.6443  0.0054
 6403TIP3   OH219172   2.080   6.340   0.657  0.1587 -0.3464  0.8833
 6403TIP3    H119173   2.149   6.394   0.617  0.5387  1.1089  3.3204
 6403TIP3    H219174   2.128   6.278   0.712 -0.4000 -1.3073  0.3006
 6404TIP3   OH219175   4.834   1.435   2.263 -0.1724  0.3426  0.2281
 6404TIP3    H119176   4.876   1.476   2.188  0.4640  1.1200  0.9926
 6404TIP3    H219177   4.832   1.342   2.241  0.0055  0.5546 -0.7409
 6405TIP3   OH219178   6.733   0.057   2.980 -0.2241  0.0474 -0.3142
 6405TIP3    H119179   6.812   0.049   2.926 -0.2539  0.8725 -0.4890
 6405TIP3    H219180   6.661   0.066   2.917 -0.2831  0.7980 -0.1473
 6406TIP3   OH219181   0.617   5.757   5.373 -0.4900 -0.0779  0.0565
 6406TIP3    H119182   0.570   5.763   5.290  1.0177  0.6917 -0.7945
 6406TIP3    H219183   0.641   5.847   5.394  1.5916 -0.5228 -0.1798
 6407TIP3   OH219184   5.270   6.381   4.576 -0.0286  0.1154  0.4487
 6407TIP3    H119185   5.298   6.435   4.650 -2.9810 -0.6737  2.3023
 6407TIP3    H219186   5.351   6.358   4.531  1.7935  1.5420  2.7861
 6408TIP3   OH219187   1.736   2.096   4.321 -0.2619  0.3369  0.1314
 6408TIP3    H119188   1.713   2.054   4.403  0.7877  0.2392  0.3831
 6408TIP3    H219189   1.799   2.164   4.345  1.6725 -1.0187 -0.7897
 6409TIP3   OH219190   3.369   2.416   3.931  0.3114 -0.0679 -0.0372
 6409TIP3    H119191   3.406   2.471   4.000 -3.0722  0.3990  1.5683
 6409TIP3    H219192   3.369   2.472   3.854  0.5385  0.7982  0.5711
 6410TIP3   OH219193   5.302   4.685   0.071 -0.2188 -0.2018 -0.7469
 6410TIP3    H119194   5.353   4.709   0.149 -0.4072 -1.0389 -0.3591
 6410TIP3    H219195   5.367   4.677   0.002 -0.1654  1.6998 -0.9876
 6411TIP3   OH219196   2.443   0.638   2.555  0.4743  0.6032  0.1375
 6411TIP3    H119197   2.448   0.698   2.629 -2.5025 -0.4271  1.3106
 6411TIP3    H219198   2.378   0.573   2.581 -0.0974 -0.2776 -3.0720
 6412TIP3   OH219199   2.326   5.026   2.234 -0.0190  0.0933 -0.0050
 6412TIP3    H119200   2.316   5.092   2.303  0.3818  0.2567 -0.0996
 6412TIP3    H219201   2.351   4.946   2.281 -2.7346 -0.6479  0.3716
 6413TIP3   OH219202   0.667   5.366   3.813  0.1642 -0.1197 -0.4575
 6413TIP3    H119203   0.713   5.373   3.730 -0.0507 -0.1403 -0.5789
 6413TIP3    H219204   0.655   5.272   3.827  0.2668 -0.1199 -0.3655
 6414TIP3   OH219205   5.454   0.865   0.178 -0.0816 -0.1600  0.0735
 6414TIP3    H119206   5.413   0.834   0.098 -4.4212  2.8691  0.7486
 6414TIP3    H219207   5.452   0.789   0.237 -0.7606 -1.3295 -1.3891
 6415TIP3   OH219208   1.218   5.189   3.826  0.1800  0.2166  0.3834
 6415TIP3    H119209   1.140   5.134   3.835  1.9621 -2.6986 -0.5795
 6415TIP3    H219210   1.210   5.226   3.738 -0.0027 -0.2813  0.1862
 6416TIP3   OH219211   5.034   5.156   1.823  0.1850  0.4056  0.2722
 6416TIP3    H119212   5.065   5.205   1.747  0.4767 -0.3505 -0.1037
 6416TIP3    H219213   5.110   5.104   1.851 -0.6240 -1.3041 -0.5277
 6417TIP3   OH219214   4.986   3.037   3.409  0.1541  0.5117 -0.7512
 6417TIP3    H119215   5.052   3.099   3.439  0.1119  0.3343 -0.2965
 6417TIP3    H219216   5.033   2.955   3.398  0.2893  0.6997 -1.7072
 6418TIP3   OH219217   7.035   0.359   2.337  0.3493  0.0396 -0.1083
 6418TIP3    H119218   7.001   0.437   2.380  0.2724  0.4701 -0.9294
 6418TIP3    H219219   6.994   0.360   2.250 -0.2759 -1.3368  0.1450
 6419TIP3   OH219220   5.918   5.521   2.667 -0.3551  0.2552  0.0455
 6419TIP3    H119221   5.965   5.596   2.705  1.9572 -0.9880 -0.1353
 6419TIP3    H219222   5.839   5.512   2.720  0.5369  1.3604  1.6334
 6420TIP3   OH219223   4.404   4.366   0.816 -0.5903  0.0084  0.1563
 6420TIP3    H119224   4.324   4.406   0.784  0.6886  2.4092 -0.2630
 6420TIP3    H219225   4.448   4.333   0.737  0.4855  1.9699 -0.1222
 6421TIP3   OH219226   0.522   2.466   3.294  0.2354  0.3120 -0.4352
 6421TIP3    H119227   0.501   2.548   3.338  1.1244  0.0299  0.5341
 6421TIP3    H219228   0.617   2.468   3.282  0.1879 -0.2812 -1.0148
 6422TIP3   OH219229   0.618   6.016   3.822 -0.4148 -0.0368 -0.0424
 6422TIP3    H119230   0.673   5.943   3.851 -2.7596 -1.1750  1.8905
 6422TIP3    H219231   0.598   6.064   3.902  0.1183  2.1271 -1.1281
 6423TIP3   OH219232   2.808   1.368   5.160 -0.3458 -0.2811 -0.1411
 6423TIP3    H119233   2.880   1.357   5.222 -0.0014  1.2675 -0.2203
 6423TIP3    H219234   2.731   1.381   5.214 -0.6224 -1.9904 -0.0553
 6424TIP3   OH219235   1.560   5.552   3.611 -0.4824 -0.6663 -0.1896
 6424TIP3    H119236   1.494   5.621   3.603  0.3600  0.3073  0.9050
 6424TIP3    H219237   1.568   5.516   3.522 -1.4477  0.1601 -0.6341
 6425TIP3   OH219238   4.485   4.334   0.279 -0.4798 -0.8454 -0.3098
 6425TIP3    H119239   4.495   4.242   0.255 -0.0295 -2.0960  3.9460
 6425TIP3    H219240   4.391   4.350   0.275 -0.6602 -1.7899 -0.1193
 6426TIP3   OH219241   7.081   6.470   4.932 -0.0824  0.0374 -0.5239
 6426TIP3    H119242   7.175   6.487   4.923 -0.1019  0.8498  0.6148
 6426TIP3    H219243   7.073   6.375   4.924  0.7877 -0.0089 -0.9751
 6427TIP3   OH219244   5.458   4.987   1.132  0.9592 -0.1293 -0.0002
 6427TIP3    H119245   5.529   5.020   1.187  1.8632 -1.7447 -0.1288
 6427TIP3    H219246   5.404   4.934   1.190 -0.3866  1.3558  0.1708
 6428TIP3   OH219247   7.024   1.826   4.200 -0.3868 -0.2671  0.4146
 6428TIP3    H119248   6.942   1.829   4.250 -0.2192  1.2575  0.6493
 6428TIP3    H219249   7.063   1.913   4.213 -0.1434  0.0556 -2.0401
 6429TIP3   OH219250   1.160   6.544   2.831 -0.5487 -0.2378  0.0525
 6429TIP3    H119251   1.238   6.581   2.791 -1.1265  1.7580  0.6613
 6429TIP3    H219252   1.180   6.541   2.925 -1.1330  0.1933  0.2004
 6430TIP3   OH219253   5.470   3.714   3.693 -0.2036 -0.0367 -0.0197
 6430TIP3    H119254   5.425   3.630   3.684  0.0780 -0.4391  1.8740
 6430TIP3    H219255   5.538   3.698   3.759 -0.4398  1.7830  0.7177
 6431TIP3   OH219256   0.290   5.639   4.449 -0.5672  0.4607  0.2955
 6431TIP3    H119257   0.361   5.623   4.387 -1.0541 -0.2233 -0.1012
 6431TIP3    H219258   0.221   5.577   4.423 -1.4866  1.4167  0.3794
 6432TIP3   OH219259   0.510   0.792   1.279  0.3105  0.0079 -0.1328
 6432TIP3    H119260   0.564   0.801   1.358 -0.0136 -0.5678  0.1682
 6432TIP3    H219261   0.421   0.815   1.308  0.0363 -1.0178 -0.1075
 6433TIP3   OH219262   2.040   3.740   0.678 -0.3718  0.3835 -0.5703
 6433TIP3    H119263   1.971   3.681   0.647  0.3039 -0.5144 -0.3947
 6433TIP3    H219264   2.110   3.731   0.614  0.4433 -0.3651  0.3949
 6434TIP3   OH219265   4.666   0.928   2.977  0.3925  0.6075 -0.1374
 6434TIP3    H119266   4.657   1.023   2.987  0.3301  0.8180 -1.9066
 6434TIP3    H219267   4.759   0.912   2.990  0.5168  1.0094 -0.4995
 6435TIP3   OH219268   3.932   5.482   0.851  0.4299 -0.2709  0.5419
 6435TIP3    H119269   3.887   5.490   0.935  0.5176  0.1616  0.5499
 6435TIP3    H219270   3.965   5.392   0.850 -0.1494 -0.4899  0.6769
 6436TIP3   OH219271   6.525   2.658   4.037 -0.5334 -0.4317  0.5432
 6436TIP3    H119272   6.533   2.741   3.990 -1.4831 -0.8756 -0.4506
 6436TIP3    H219273   6.601   2.656   4.095 -0.9759  1.5568  1.2902
 6437TIP3   OH219274   6.769   2.953   4.959  0.1261  0.5204 -0.1043
 6437TIP3    H119275   6.775   2.970   5.053  1.3402  3.5184 -0.6019
 6437TIP3    H219276   6.836   2.886   4.942 -0.9955 -1.0394  1.2706
 6438TIP3   OH219277   2.880   5.626   4.327 -0.2765  0.3357 -0.2668
 6438TIP3    H119278   2.939   5.678   4.272 -0.7106 -0.2123 -1.2700
 6438TIP3    H219279   2.860   5.684   4.401 -0.3677  1.4286 -1.1179
 6439TIP3   OH219280   5.842   3.157   5.596  0.0207  0.0136  0.1804
 6439TIP3    H119281   5.908   3.113   5.649 -0.4317 -0.1197  0.6492
 6439TIP3    H219282   5.888   3.184   5.517  1.2166  1.9174  1.4349
 6440TIP3   OH219283   5.153   6.301   3.011  0.3649  0.1408  0.0773
 6440TIP3    H119284   5.195   6.382   2.985  1.3827 -0.7089 -1.0315
 6440TIP3    H219285   5.215   6.260   3.072 -0.4365  0.4745  1.1584
 6441TIP3   OH219286   5.922   4.625   2.046  0.2695  0.1330 -0.5248
 6441TIP3    H119287   5.941   4.531   2.042 -0.4249  0.0385 -2.3093
 6441TIP3    H219288   5.841   4.631   2.097 -0.4633 -0.3810 -1.6033
 6442TIP3   OH219289   6.075   3.894   0.051 -0.0606  0.1284  0.2464
 6442TIP3    H119290   6.067   3.989   0.055  0.9283  0.2605 -0.4517
 6442TIP3    H219291   6.049   3.864   0.138  0.4699  1.1123  0.7606
 6443TIP3   OH219292   1.581   5.455   4.745 -0.8311 -0.9264 -0.1536
 6443TIP3    H119293   1.643   5.397   4.789 -2.6345 -2.9895 -0.1779
 6443TIP3    H219294   1.603   5.449   4.652  0.9557  0.9735  0.0563
 6444TIP3   OH219295   2.906   4.127   3.701 -0.0431  0.1258  0.1298
 6444TIP3    H119296   2.874   4.047   3.660  2.2202 -0.3973 -0.7744
 6444TIP3    H219297   2.905   4.192   3.631  1.0748  0.0151 -0.0066
 6445TIP3   OH219298   6.156   2.392   3.009  0.2162 -0.2807 -0.4592
 6445TIP3    H119299   6.074   2.390   2.960 -0.0933 -1.1151  0.0738
 6445TIP3    H219300   6.155   2.478   3.053 -0.6261 -0.4887 -0.0471
 6446TIP3   OH219301   6.413   5.323   1.138  0.0461  0.0820 -0.1955
 6446TIP3    H119302   6.355   5.393   1.107 -0.7708 -0.9489 -1.0873
 6446TIP3    H219303   6.395   5.250   1.079  0.1556 -1.1961  1.2956
 6447TIP3   OH219304   6.474   6.038   3.451 -0.0312 -0.3881  0.4851
 6447TIP3    H119305   6.511   6.039   3.539  1.3313 -0.0588 -0.0618
 6447TIP3    H219306   6.507   6.118   3.410 -2.2967  0.5393  0.2940
 6448TIP3   OH219307   1.714   2.098   0.459  0.4223  0.0417 -0.4769
 6448TIP3    H119308   1.658   2.162   0.503 -1.4466 -1.8943  0.1491
 6448TIP3    H219309   1.661   2.066   0.385  0.5880 -1.9254  0.1902
 6449TIP3   OH219310   4.025   6.076   1.050  0.1505 -0.5412 -0.4433
 6449TIP3    H119311   4.067   6.008   1.103  0.3289 -1.3927 -1.6438
 6449TIP3    H219312   4.092   6.103   0.988 -0.1191  0.3038 -0.3810
 6450TIP3   OH219313   6.918   5.861   3.275 -0.1465 -0.1112  0.1877
 6450TIP3    H119314   6.909   5.879   3.368  0.3610 -1.5520  0.5462
 6450TIP3    H219315   6.992   5.801   3.269  0.0195  0.1750 -1.1845
 6451TIP3   OH219316   5.088   3.150   4.330 -0.4854 -0.3747 -0.0407
 6451TIP3    H119317   5.087   3.061   4.365 -2.0706 -0.0790  0.7833
 6451TIP3    H219318   5.034   3.200   4.391  1.1728  1.3966  0.0600
 6452TIP3   OH219319   2.935   6.064   5.593 -0.5351  0.1002  0.4232
 6452TIP3    H119320   2.920   6.029   5.680 -0.6795  0.4737  0.5495
 6452TIP3    H219321   3.030   6.065   5.583 -0.5146  0.2364  0.6469
 6453TIP3   OH219322   2.704   0.041   1.884  0.4580  0.4148  0.3763
 6453TIP3    H119323   2.760   0.106   1.927 -0.4085  0.8100  0.9584
 6453TIP3    H219324   2.757   0.007   1.813  1.8504 -0.0520  1.5806
 6454TIP3   OH219325   1.241   5.961   3.278  0.4055  0.2293 -0.1717
 6454TIP3    H119326   1.155   5.929   3.306 -0.2526  0.1494 -2.1281
 6454TIP3    H219327   1.263   5.906   3.203  2.0742  0.4311  0.1263
 6455TIP3   OH219328   3.830   5.023   4.355  0.1970 -0.4120  0.4774
 6455TIP3    H119329   3.740   4.999   4.378 -0.5512 -0.2249 -2.0362
 6455TIP3    H219330   3.837   5.116   4.377 -0.2415 -0.4036  0.5768
 6456TIP3   OH219331   6.779   6.724   0.120 -0.5327  0.0230 -0.2280
 6456TIP3    H119332   6.834   6.680   0.184 -0.6254  0.3524  0.0834
 6456TIP3    H219333   6.692   6.725   0.160 -0.2036  2.0216  0.5709
 6457TIP3   OH219334   5.279   3.321   0.126  0.4158  0.5275 -0.2748
 6457TIP3    H119335   5.223   3.398   0.133  0.0864  0.3945 -1.2513
 6457TIP3    H219336   5.316   3.326   0.038  0.4593 -0.3807 -0.3171
 6458TIP3   OH219337   3.492   0.664   5.533 -0.2299 -0.1787  0.1215
 6458TIP3    H119338   3.492   0.608   5.611  0.2081 -1.5588 -0.8333
 6458TIP3    H219339   3.429   0.623   5.473  1.2931 -0.6450 -1.2404
 6459TIP3   OH219340   2.960   3.117   1.049 -0.3771 -0.0983  0.9065
 6459TIP3    H119341   2.933   3.048   0.988 -0.3753  0.6212  0.0584
 6459TIP3    H219342   2.879   3.143   1.093 -0.7088  0.5109 -0.0111
 6460TIP3   OH219343   4.641   3.854   5.257 -0.0858 -0.2570 -0.2096
 6460TIP3    H119344   4.647   3.842   5.163 -0.9261  1.2333 -0.4872
 6460TIP3    H219345   4.598   3.939   5.268 -0.4873 -0.6353  1.5156
 6461TIP3   OH219346   4.063   5.960   3.917  0.4942  0.3506 -0.1590
 6461TIP3    H119347   4.062   5.866   3.897  0.6783  0.0339  1.2199
 6461TIP3    H219348   3.992   5.996   3.864  0.4992 -0.5537 -0.7978
 6462TIP3   OH219349   2.613   5.018   1.756 -0.0676 -0.4646 -0.3112
 6462TIP3    H119350   2.574   4.934   1.781  0.5119 -0.3331  1.1231
 6462TIP3    H219351   2.697   5.020   1.803 -0.1185  0.9522 -0.2582
 6463TIP3   OH219352   3.841   2.026   2.442 -0.5067  0.0017 -0.1865
 6463TIP3    H119353   3.873   2.110   2.411 -0.0181 -0.0533  0.1676
 6463TIP3    H219354   3.881   2.015   2.528 -0.4968 -0.6324 -0.2698
 6464TIP3   OH219355   5.647   4.783   2.616  0.9163  0.1664 -0.6764
 6464TIP3    H119356   5.736   4.819   2.621  0.6566  0.7499 -0.0215
 6464TIP3    H219357   5.598   4.831   2.683 -0.5912  1.8724 -2.8382
 6465TIP3   OH219358   0.766   6.312   1.026 -0.1484 -0.2108 -0.2043
 6465TIP3    H119359   0.670   6.309   1.026 -0.1499 -0.1717 -0.1702
 6465TIP3    H219360   0.787   6.391   1.076 -0.1339  0.9273 -1.9238
 6466TIP3   OH219361   4.497   2.907   3.074  0.0470 -0.2305 -0.3572
 6466TIP3    H119362   4.523   2.906   3.166 -2.6323  2.9784  0.6492
 6466TIP3    H219363   4.577   2.925   3.026  1.2644 -0.4592  1.5079
 6467TIP3   OH219364   3.145   0.786   4.190  0.2698 -0.2505  0.1046
 6467TIP3    H119365   3.216   0.740   4.234  0.1569  0.2311  0.8114
 6467TIP3    H219366   3.161   0.879   4.210 -0.0625 -0.0652 -0.4627
 6468TIP3   OH219367   3.700   6.635   4.369 -0.3196  0.0683 -0.1290
 6468TIP3    H119368   3.758   6.707   4.343 -0.0536 -0.1872 -0.2408
 6468TIP3    H219369   3.614   6.662   4.337 -0.1746  0.2209 -0.4004
 6469TIP3   OH219370   1.872   0.311   1.806  0.7436 -0.2104  0.0331
 6469TIP3    H119371   1.810   0.370   1.849  0.5959 -0.0012 -0.4490
 6469TIP3    H219372   1.902   0.361   1.730  0.3790 -0.8749 -0.5573
 6470TIP3   OH219373   0.983   3.415   5.377  0.4192 -0.0983 -0.2047
 6470TIP3    H119374   0.933   3.496   5.384  1.0939  0.3298 -0.2310
 6470TIP3    H219375   0.921   3.346   5.399  0.1854  0.5295  1.1970
 6471TIP3   OH219376   0.035   3.480   4.025  0.7116  0.1943 -0.2018
 6471TIP3    H119377   0.070   3.422   4.092  0.9806 -0.1570 -0.6437
 6471TIP3    H219378  -0.035   3.528   4.070  1.0995  0.1928  0.4112
 6472TIP3   OH219379   7.159   6.423   0.339 -0.0316  0.2541 -0.6399
 6472TIP3    H119380   7.242   6.424   0.388 -0.0603 -0.5518 -0.5634
 6472TIP3    H219381   7.111   6.348   0.375  0.0220 -0.4667 -2.0219
 6473TIP3   OH219382   0.688   3.370   3.062 -0.1725 -0.1343 -0.1040
 6473TIP3    H119383   0.778   3.403   3.059 -0.0235 -0.3160 -4.5929
 6473TIP3    H219384   0.698   3.276   3.077  0.4720 -0.1924 -0.7956
 6474TIP3   OH219385   6.462   1.932   1.293  0.0195  0.2083  0.0191
 6474TIP3    H119386   6.430   1.954   1.380 -0.0979  0.9405 -0.2083
 6474TIP3    H219387   6.528   1.864   1.309 -0.5552 -0.2289  0.6080
 6475TIP3   OH219388   1.965   4.290   2.650 -0.2497 -0.1390 -0.2212
 6475TIP3    H119389   1.956   4.337   2.733 -0.0923  0.7624 -0.7043
 6475TIP3    H219390   1.884   4.309   2.603 -1.1705 -2.1364  0.4308
 6476TIP3   OH219391   5.908   0.629   2.153  0.2932  0.3842 -0.1094
 6476TIP3    H119392   5.821   0.589   2.148  1.1070 -1.4201 -0.7491
 6476TIP3    H219393   5.956   0.574   2.215  0.8151  1.7573  0.7618
 6477TIP3   OH219394   0.707   2.857   4.901  0.4851  0.0809 -0.0187
 6477TIP3    H119395   0.738   2.831   4.987  2.1322 -1.9036 -1.1291
 6477TIP3    H219396   0.768   2.926   4.874  1.1868 -0.6633 -0.3655
 6478TIP3   OH219397   2.809   2.701   3.624  0.1198 -0.2351 -0.1574
 6478TIP3    H119398   2.896   2.691   3.586  0.5109  0.7101  0.4527
 6478TIP3    H219399   2.815   2.663   3.711 -0.1429 -0.3741 -0.1979
 6479TIP3   OH219400   2.533   0.307   4.498  0.4920 -0.3313 -0.1126
 6479TIP3    H119401   2.573   0.318   4.585  0.0337 -0.8046  0.1629
 6479TIP3    H219402   2.582   0.367   4.442  0.2921  0.5780  0.6355
 6480TIP3   OH219403   2.932   2.614   0.918 -0.4602 -0.0700 -0.2745
 6480TIP3    H119404   2.943   2.691   0.862 -2.2402  0.5055  0.0971
 6480TIP3    H219405   2.877   2.555   0.866 -1.7083  0.2552  0.6325
 6481TIP3   OH219406   2.255   1.308   1.252 -0.1360 -0.3336  0.3082
 6481TIP3    H119407   2.315   1.368   1.208 -2.7903  1.3477 -1.2865
 6481TIP3    H219408   2.302   1.280   1.331  2.1691  1.9361 -0.1563
 6482TIP3   OH219409   1.738   2.241   2.297  0.0455  0.1206  0.7785
 6482TIP3    H119410   1.758   2.245   2.391  0.5845  0.2402  0.6594
 6482TIP3    H219411   1.769   2.325   2.262 -0.5045  0.2326  0.5600
 6483TIP3   OH219412   2.615   4.826   3.279 -0.0415  0.1693 -0.3604
 6483TIP3    H119413   2.682   4.830   3.347 -0.4542  0.5413  0.0275
 6483TIP3    H219414   2.588   4.734   3.277  1.1774 -0.2092 -1.2164
 6484TIP3   OH219415   5.174   0.660   4.522 -0.3532 -0.1154  0.2957
 6484TIP3    H119416   5.119   0.602   4.469 -1.5151 -0.9613  2.2892
 6484TIP3    H219417   5.156   0.748   4.488 -0.1315 -0.7041 -1.4555
 6485TIP3   OH219418   6.596   5.861   5.144 -0.2012  0.1132 -0.2449
 6485TIP3    H119419   6.661   5.792   5.136  0.7197  1.0271 -0.8645
 6485TIP3    H219420   6.525   5.822   5.195  1.6408 -0.3308  2.1446
 6486TIP3   OH219421   0.483   0.916   0.078 -0.2880 -0.1151 -0.0824
 6486TIP3    H119422   0.504   1.010   0.083  1.8089 -0.4937 -0.7026
 6486TIP3    H219423   0.435   0.907  -0.004  2.8062 -0.0405 -2.0620
 6487TIP3   OH219424   6.738   0.328   2.609 -0.3684  0.0981 -0.2521
 6487TIP3    H119425   6.769   0.251   2.561 -1.9669 -0.5345 -0.3428
 6487TIP3    H219426   6.809   0.391   2.601  1.6606 -1.8716  1.1245
 6488TIP3   OH219427   3.658   5.664   1.221  0.0856  0.3529 -0.3641
 6488TIP3    H119428   3.634   5.688   1.310 -1.4177  0.7173 -0.8475
 6488TIP3    H219429   3.678   5.748   1.178 -0.9589  0.3596 -0.8590
 6489TIP3   OH219430   1.726   2.040   3.265 -0.2240  0.1633 -0.4986
 6489TIP3    H119431   1.742   2.135   3.263 -0.4949  0.2581  1.1658
 6489TIP3    H219432   1.801   2.004   3.312 -1.2381 -0.1875  0.9048
 6490TIP3   OH219433   5.164   4.467   2.154  0.3946  0.6324  0.0460
 6490TIP3    H119434   5.197   4.418   2.078 -0.8550 -2.1878  1.1553
 6490TIP3    H219435   5.236   4.525   2.178  1.5581  0.2107 -2.1157
 6491TIP3   OH219436   3.930   1.257   3.333  0.4704 -0.0186 -0.3530
 6491TIP3    H119437   3.888   1.305   3.404 -1.2845 -2.0974  0.1150
 6491TIP3    H219438   3.863   1.250   3.265  0.5673 -1.8906 -0.3155
 6492TIP3   OH219439   5.432   0.082   2.595  0.5708  0.4218  0.7592
 6492TIP3    H119440   5.492   0.124   2.656  0.0704  0.7852  1.0086
 6492TIP3    H219441   5.387   0.015   2.647  0.5451  0.3501  0.6453
 6493TIP3   OH219442   4.288   4.945   5.822  0.1970 -0.3209 -0.1306
 6493TIP3    H119443   4.197   4.942   5.792  0.0110  0.7390  0.2803
 6493TIP3    H219444   4.316   5.035   5.803  1.5651 -0.9695 -1.3873
 6494TIP3   OH219445   0.310   4.139   2.379 -0.2885  0.0997  0.0207
 6494TIP3    H119446   0.302   4.235   2.379 -1.9274  0.0387  2.0752
 6494TIP3    H219447   0.393   4.122   2.424 -0.7869  0.5699  1.1631
 6495TIP3   OH219448   6.150   6.524   4.013  0.0671  0.0062 -0.2819
 6495TIP3    H119449   6.212   6.456   4.042  0.5825  0.4075 -0.4330
 6495TIP3    H219450   6.075   6.475   3.981  0.2072 -0.4861  0.1201
 6496TIP3   OH219451   5.945   3.186   4.093  0.5136 -0.1344 -0.1985
 6496TIP3    H119452   6.014   3.186   4.158 -0.3193 -0.4231  0.7140
 6496TIP3    H219453   5.981   3.139   4.018  2.0572  1.5744 -0.6039
 6497TIP3   OH219454   7.122   6.113   4.261  0.4842  0.2796  0.3280
 6497TIP3    H119455   7.086   6.199   4.238 -0.4675  0.0322  0.8303
 6497TIP3    H219456   7.217   6.125   4.258  0.4306  0.5271 -2.6262
 6498TIP3   OH219457   5.678   5.184   0.954  0.1473 -0.3011  0.2522
 6498TIP3    H119458   5.584   5.175   0.939  0.5029 -3.2802 -0.8239
 6498TIP3    H219459   5.690   5.154   1.044  0.3903 -3.8636 -0.8240
 6499TIP3   OH219460   6.609   0.667   5.574 -0.0698 -0.6652  0.1583
 6499TIP3    H119461   6.597   0.572   5.569 -1.7307 -0.5072  0.3912
 6499TIP3    H219462   6.535   0.703   5.525  0.3145  0.5189  0.4056
 6500TIP3   OH219463   1.243   1.198   0.210  0.0679  0.3536  0.5255
 6500TIP3    H119464   1.241   1.226   0.119 -0.0761  0.5064  0.5765
 6500TIP3    H219465   1.304   1.258   0.252  0.7959 -0.2523  0.3487
 6501TIP3   OH219466   3.331   3.141   3.708 -0.0445 -0.1060 -0.3433
 6501TIP3    H119467   3.293   3.224   3.737 -1.0826 -0.7269  0.1330
 6501TIP3    H219468   3.282   3.118   3.629 -0.6624 -0.8988  0.2562
 6502TIP3   OH219469   6.787   0.044   0.426 -0.6519  0.0728 -0.2699
 6502TIP3    H119470   6.727  -0.005   0.482 -0.2791  0.8663  0.8546
 6502TIP3    H219471   6.869   0.048   0.476 -0.5057  1.3524 -0.5707
 6503TIP3   OH219472   1.461   3.662   4.061  0.4403 -0.2352  0.0835
 6503TIP3    H119473   1.482   3.625   4.147  1.3837  0.6187  0.2498
 6503TIP3    H219474   1.386   3.719   4.077 -1.4883 -2.5419 -0.3141
 6504TIP3   OH219475   5.435   1.007   5.122  0.2939 -0.2202  0.6397
 6504TIP3    H119476   5.419   0.944   5.193  0.8377  0.5231  1.4451
 6504TIP3    H219477   5.520   1.046   5.144  1.3566 -1.2320 -1.3921
 6505TIP3   OH219478   3.828   5.089   3.021 -0.7416  0.2108  0.3804
 6505TIP3    H119479   3.837   5.015   2.961 -0.6866 -0.7524  1.5459
 6505TIP3    H219480   3.840   5.051   3.108  2.6222  2.1025  0.9074
 6506TIP3   OH219481   4.001   0.251   0.865 -0.3633 -0.2136  0.0508
 6506TIP3    H119482   3.943   0.269   0.791 -0.4385 -0.8872 -0.0594
 6506TIP3    H219483   4.089   0.267   0.831 -0.3400 -1.2790 -0.4306
 6507TIP3   OH219484   3.757   6.295   0.450  0.2003 -0.1962 -0.1070
 6507TIP3    H119485   3.727   6.205   0.443 -0.3881 -0.1249  1.1467
 6507TIP3    H219486   3.695   6.336   0.510  1.8131  0.4075  1.2273
 6508TIP3   OH219487   7.226   4.806   3.910  0.3087 -0.0090 -0.2681
 6508TIP3    H119488   7.178   4.791   3.828  0.6213 -0.1384 -0.4300
 6508TIP3    H219489   7.165   4.780   3.979  0.1814 -0.2633 -0.4761
 6509TIP3   OH219490   3.402   5.468   4.375 -0.0840  1.0181 -0.2979
 6509TIP3    H119491   3.353   5.442   4.453  0.0855 -0.2316 -0.5734
 6509TIP3    H219492   3.334   5.481   4.308 -0.1269  0.3258 -0.3993
 6510TIP3   OH219493   0.384   0.014   2.969 -0.3005  0.0525  0.6643
 6510TIP3    H119494   0.432   0.078   3.022  1.8458 -0.5772 -0.4100
 6510TIP3    H219495   0.304  -0.001   3.018  0.9634  0.5054  3.0505
 6511TIP3   OH219496   1.734   4.759   2.611  0.1325 -0.1202 -0.4275
 6511TIP3    H119497   1.820   4.745   2.649 -0.1041  0.1473  0.2145
 6511TIP3    H219498   1.751   4.778   2.519  0.6223 -2.4273 -0.8908
 6512TIP3   OH219499   4.598   1.008   5.694 -0.2028  0.2202  0.4727
 6512TIP3    H119500   4.670   0.976   5.748 -0.1560 -0.0183  0.2711
 6512TIP3    H219501   4.545   0.931   5.676 -1.2940  0.6297  1.7885
 6513TIP3   OH219502   2.117   2.632   4.582 -0.1498  0.0026 -0.0848
 6513TIP3    H119503   2.141   2.625   4.490  1.0970 -2.0933  0.3174
 6513TIP3    H219504   2.191   2.676   4.623 -0.6154  0.7586 -0.0428
 6514TIP3   OH219505   2.999   3.180   4.724 -0.0638  0.0577 -0.4796
 6514TIP3    H119506   2.956   3.106   4.768 -0.3693  2.3757  3.5840
 6514TIP3    H219507   2.930   3.221   4.673 -0.7771 -0.4799  0.0289
 6515TIP3   OH219508   1.984   2.795   2.323  0.3433 -0.8391 -0.2680
 6515TIP3    H119509   1.972   2.738   2.399  2.1186  0.2944  0.9455
 6515TIP3    H219510   2.069   2.769   2.287 -0.2623 -1.0321 -1.6121
 6516TIP3   OH219511   0.859   2.116   1.795  0.2734 -0.1823  0.1015
 6516TIP3    H119512   0.799   2.056   1.838  1.5967 -0.9689  0.9095
 6516TIP3    H219513   0.803   2.189   1.766 -1.0143 -0.7786  0.9948
 6517TIP3   OH219514   4.840   0.516   5.362  0.1072  0.7800 -0.0444
 6517TIP3    H119515   4.882   0.530   5.447 -0.1642  1.5149 -0.0255
 6517TIP3    H219516   4.836   0.603   5.323 -0.3383  0.5384 -0.5440
 6518TIP3   OH219517   1.082   0.026   4.084  0.0865 -0.5898 -0.6453
 6518TIP3    H119518   1.090  -0.038   4.154  1.1581 -0.6609 -0.8144
 6518TIP3    H219519   1.131   0.103   4.115 -1.5791  0.3567 -0.2404
 6519TIP3   OH219520   5.604   2.450   2.126  0.9217 -0.6470  0.3296
 6519TIP3    H119521   5.690   2.433   2.088  1.0087  0.8457 -0.2128
 6519TIP3    H219522   5.544   2.445   2.052  0.8083  0.1290  0.3556
 6520TIP3   OH219523   4.040   0.453   1.686  0.1539  0.8007 -0.4980
 6520TIP3    H119524   3.979   0.393   1.728 -0.5122  0.6386 -1.6648
 6520TIP3    H219525   4.007   0.540   1.709  2.0627  0.8693  2.6065
 6521TIP3   OH219526   5.249   5.209   1.678  0.0017 -0.9519  0.4441
 6521TIP3    H119527   5.311   5.153   1.725 -0.6260 -2.9939 -1.0499
 6521TIP3    H219528   5.222   5.157   1.603 -0.9652  1.2331 -0.7895
 6522TIP3   OH219529   5.092   4.520   2.542  0.6588 -0.0070  0.3601
 6522TIP3    H119530   5.022   4.457   2.525  1.5093 -1.0922  0.7140
 6522TIP3    H219531   5.159   4.469   2.587  1.3578  1.1837  0.7111
 6523TIP3   OH219532   1.688   4.834   3.089  0.0157  0.3514  0.7894
 6523TIP3    H119533   1.693   4.791   3.004  2.0580  0.9905  0.5276
 6523TIP3    H219534   1.671   4.762   3.151  0.2232 -0.3684  0.0237
 6524TIP3   OH219535   2.629   2.635   4.054  0.7781  0.7581  0.1519
 6524TIP3    H119536   2.565   2.657   3.986  0.4268  1.6577  0.7480
 6524TIP3    H219537   2.712   2.625   4.008  0.3602  0.3478 -0.5290
 6525TIP3   OH219538   1.020   0.609   2.660 -0.2991  0.0045  0.3489
 6525TIP3    H119539   1.019   0.541   2.593 -2.2268 -0.3250  0.6783
 6525TIP3    H219540   1.017   0.562   2.743  0.8686  0.4530  0.6807
 6526TIP3   OH219541   4.417   0.286   2.022  0.4826  0.4437  0.1878
 6526TIP3    H119542   4.377   0.249   1.944  0.5976  0.5228  0.0901
 6526TIP3    H219543   4.349   0.342   2.060  0.2375 -0.0268  0.4516
 6527TIP3   OH219544   6.090   4.406   3.391 -0.4099 -0.2134 -0.3254
 6527TIP3    H119545   6.092   4.366   3.478 -2.8117 -0.2837 -0.2157
 6527TIP3    H219546   6.151   4.355   3.339 -0.3615 -1.3958  0.8388
 6528TIP3   OH219547   7.043   1.494   5.347  0.0186  0.0252  0.7462
 6528TIP3    H119548   7.037   1.578   5.393 -1.5842  0.2554  0.1732
 6528TIP3    H219549   6.986   1.436   5.397  1.5435 -0.9145  1.4602
 6529TIP3   OH219550   5.239   1.548   2.574  0.0539 -0.0579  0.1324
 6529TIP3    H119551   5.288   1.511   2.501  1.3997 -0.1794  1.0586
 6529TIP3    H219552   5.154   1.571   2.537  1.1874  1.2274 -1.8332
 6530TIP3   OH219553   3.614   0.742   3.508  0.3244  0.1070 -0.3443
 6530TIP3    H119554   3.569   0.668   3.468  0.2405  0.3322 -0.6689
 6530TIP3    H219555   3.664   0.782   3.437 -0.1234  0.7329 -0.3174
 6531TIP3   OH219556   4.122   1.146   4.783 -0.0226 -0.5417  0.2844
 6531TIP3    H119557   4.169   1.146   4.866  1.4427  0.2179 -0.5028
 6531TIP3    H219558   4.138   1.233   4.747 -0.8676 -0.7657 -0.6788
 6532TIP3   OH219559   0.022   6.661   1.641  0.1437 -0.1791 -0.4972
 6532TIP3    H119560   0.093   6.663   1.578  0.2385  1.4113 -0.3799
 6532TIP3    H219561   0.025   6.747   1.683 -0.1143 -1.0553  1.4498
 6533TIP3   OH219562   2.826   2.934   4.579  0.1514  0.2016 -0.2430
 6533TIP3    H119563   2.759   2.872   4.551  1.4139 -0.3621 -2.2398
 6533TIP3    H219564   2.908   2.884   4.574  1.0115  1.5701 -0.3764
 6534TIP3   OH219565   0.913   5.810   0.126  0.4546  0.1810  0.2957
 6534TIP3    H119566   0.859   5.733   0.145  1.8186 -0.7847  0.4447
 6534TIP3    H219567   0.870   5.852   0.051  0.3227 -1.4229 -0.5703
 6535TIP3   OH219568   6.039   3.351   4.690 -0.2623  0.0527  0.2454
 6535TIP3    H119569   6.033   3.447   4.693  0.5824  0.0934  1.3692
 6535TIP3    H219570   6.123   3.334   4.648 -0.4574 -0.2039 -0.0454
 6536TIP3   OH219571   2.454   6.730   2.814 -0.0928 -0.4105  0.8109
 6536TIP3    H119572   2.545   6.750   2.794  0.1322 -1.3575  0.8885
 6536TIP3    H219573   2.408   6.813   2.798  0.1912 -0.7904 -2.7363
 6537TIP3   OH219574   4.153   1.305   4.195 -0.0890  0.0300 -0.0226
 6537TIP3    H119575   4.183   1.386   4.236 -0.0533  0.7150 -1.3343
 6537TIP3    H219576   4.164   1.321   4.101 -0.3614 -1.3929 -0.3106
 6538TIP3   OH219577   1.262   3.487   5.467  0.6400  0.0258 -0.4291
 6538TIP3    H119578   1.173   3.455   5.457  0.5463 -0.6089  1.9417
 6538TIP3    H219579   1.298   3.438   5.540  2.4055  1.3782 -0.3084
 6539TIP3   OH219580   4.470   0.239   5.134 -1.1734  0.0171 -0.3855
 6539TIP3    H119581   4.428   0.313   5.180  0.4323  1.5975 -1.3353
 6539TIP3    H219582   4.479   0.269   5.044 -0.9585 -1.5925 -0.9310
 6540TIP3   OH219583   6.880   3.312   2.597 -0.3895  0.5517 -0.2304
 6540TIP3    H119584   6.938   3.321   2.673  0.9282 -0.6499 -1.0404
 6540TIP3    H219585   6.929   3.353   2.526 -0.1657 -1.1050 -1.0840
 6541TIP3   OH219586   6.099   0.072   1.714  0.1973 -0.6782  0.5296
 6541TIP3    H119587   6.011   0.074   1.752 -1.0340 -0.8965 -2.0899
 6541TIP3    H219588   6.120   0.164   1.700  0.9894 -0.5465  2.2963
 6542TIP3   OH219589   5.357   5.504   0.832 -0.0348 -0.3704  0.1058
 6542TIP3    H119590   5.262   5.512   0.832 -0.0032  0.5627  1.7309
 6542TIP3    H219591   5.377   5.458   0.913  0.8933 -0.6693 -0.2861
 6543TIP3   OH219592   0.285   3.713   1.010 -0.5121 -0.2282 -0.0004
 6543TIP3    H119593   0.284   3.619   1.030  0.1028 -0.1727  0.3269
 6543TIP3    H219594   0.198   3.731   0.976 -0.7064 -0.8796  0.1303
 6544TIP3   OH219595   1.939   2.360   2.788 -0.5982  0.2174 -0.0864
 6544TIP3    H119596   1.868   2.423   2.780 -1.4655 -0.7159  0.0814
 6544TIP3    H219597   1.908   2.297   2.853  0.0218 -0.6601 -0.6200
 6545TIP3   OH219598   6.483   2.233   2.449  0.4666 -0.0249 -0.3146
 6545TIP3    H119599   6.534   2.190   2.518  1.5602 -1.3665 -1.8903
 6545TIP3    H219600   6.549   2.278   2.396 -0.1257 -0.5521 -1.5313
 6546TIP3   OH219601   0.225   4.714   0.358 -0.1662 -0.1780  0.1774
 6546TIP3    H119602   0.294   4.714   0.425  1.0163  1.8137 -0.9127
 6546TIP3    H219603   0.204   4.807   0.347 -0.5945 -0.4845 -1.9093
 6547TIP3   OH219604   6.792   6.699   3.950  0.1326 -0.2870 -0.3031
 6547TIP3    H119605   6.855   6.765   3.977  0.2595 -0.6535  0.3102
 6547TIP3    H219606   6.843   6.618   3.944 -0.2837 -0.6036  0.2679
 6548TIP3   OH219607   7.076   3.235   5.756 -0.1348  0.2066  0.3172
 6548TIP3    H119608   7.091   3.142   5.769 -1.4799  0.0622  1.0061
 6548TIP3    H219609   7.096   3.250   5.664 -0.2517 -0.8281  0.1105
 6549TIP3   OH219610   6.490   0.434   4.426 -0.1653  0.0004 -0.1677
 6549TIP3    H119611   6.556   0.497   4.454  0.9334 -0.9028 -0.6491
 6549TIP3    H219612   6.480   0.375   4.501 -0.6543  0.3083  0.0135
 6550TIP3   OH219613   0.620   4.587   4.837 -0.0890 -0.0170 -0.1981
 6550TIP3    H119614   0.704   4.598   4.882  1.2262  0.3825 -2.5441
 6550TIP3    H219615   0.555   4.621   4.898  1.4456 -0.3113  1.7030
 6551TIP3   OH219616   6.664   4.611   5.585 -0.4251 -0.7374 -0.6199
 6551TIP3    H119617   6.658   4.649   5.497 -1.1724  1.4190  0.2912
 6551TIP3    H219618   6.574   4.592   5.610 -0.2097 -1.4242 -0.3575
 6552TIP3   OH219619   5.569   6.651   0.425 -0.0315 -0.1985  0.3425
 6552TIP3    H119620   5.662   6.628   0.420  0.3633  1.0582  1.4740
 6552TIP3    H219621   5.560   6.724   0.364  0.2061  1.0866  1.8055
 6553TIP3   OH219622   6.280   0.400   4.098  0.2427 -0.0187 -0.3109
 6553TIP3    H119623   6.256   0.478   4.047  1.6522  0.0461 -0.9221
 6553TIP3    H219624   6.371   0.415   4.124  0.2680 -1.0859  0.2849
 6554TIP3   OH219625   4.522   4.761   5.862 -0.5294  0.1536  0.0510
 6554TIP3    H119626   4.454   4.814   5.820  1.4478 -0.3602 -4.2727
 6554TIP3    H219627   4.485   4.673   5.867 -0.6276  0.1054 -1.2628
 6555TIP3   OH219628   3.705   2.457   3.636 -0.2912  0.0012  0.0453
 6555TIP3    H119629   3.670   2.370   3.655 -1.2192  0.4995  0.7483
 6555TIP3    H219630   3.788   2.441   3.592  0.0091 -1.2402  1.0069
 6556TIP3   OH219631   2.008   6.717   2.467  0.2021  0.0911 -0.3759
 6556TIP3    H119632   2.036   6.696   2.378  0.1661  0.0606 -0.3797
 6556TIP3    H219633   2.034   6.642   2.519 -0.1172 -0.0598 -0.4272
 6557TIP3   OH219634   1.633   4.072   3.119  0.1731  0.9939  0.0441
 6557TIP3    H119635   1.604   4.009   3.052  1.4384  0.7943 -0.3388
 6557TIP3    H219636   1.726   4.082   3.104  0.8184 -0.1423  2.6718
 6558TIP3   OH219637   4.023   6.249   2.792  0.0924 -0.3494 -0.3019
 6558TIP3    H119638   3.994   6.232   2.881 -0.3861  1.6225 -0.0317
 6558TIP3    H219639   4.116   6.226   2.792  0.9464  2.5210  1.6851
 6559TIP3   OH219640   2.855   1.083   2.755  0.3129  0.2673 -0.0163
 6559TIP3    H119641   2.900   1.003   2.728  1.1982  0.0062  2.0332
 6559TIP3    H219642   2.864   1.142   2.680  1.1313 -0.9629 -0.9336
 6560TIP3   OH219643   0.276   2.862   0.944 -0.3384 -0.2513 -0.3416
 6560TIP3    H119644   0.255   2.925   0.875  0.5536  0.0423 -0.3680
 6560TIP3    H219645   0.287   2.916   1.022 -0.5965 -0.4969 -0.1371
 6561TIP3   OH219646   2.510   6.495   1.246 -0.0589  0.4128 -0.2867
 6561TIP3    H119647   2.596   6.533   1.261  0.2219 -0.1056 -0.5485
 6561TIP3    H219648   2.511   6.469   1.154 -0.1119 -0.5504 -0.0219
 6562TIP3   OH219649   6.638   5.966   2.535 -0.4260 -0.4894  0.3607
 6562TIP3    H119650   6.570   5.914   2.491 -0.5614 -2.1017  2.3334
 6562TIP3    H219651   6.689   5.902   2.584  0.1155  1.1317  2.0040
 6563TIP3   OH219652   4.658   5.220   1.039  0.4014  0.3593  0.1242
 6563TIP3    H119653   4.676   5.297   0.985  2.3955 -1.0804 -1.4340
 6563TIP3    H219654   4.596   5.169   0.987 -0.3296  0.5437  0.8064
 6564TIP3   OH219655   2.570   1.233   5.362  0.2123  0.0813 -0.8707
 6564TIP3    H119656   2.520   1.287   5.424  1.9658  0.1932  0.5402
 6564TIP3    H219657   2.629   1.183   5.418  3.1726  1.4956 -2.5029
 6565TIP3   OH219658   0.230   2.030   1.336 -0.4469 -0.4193 -0.1148
 6565TIP3    H119659   0.257   1.964   1.273  0.9636  1.5260 -1.6849
 6565TIP3    H219660   0.136   2.042   1.319 -0.1817 -0.2217 -1.6410
 6566TIP3   OH219661   6.096   0.268   3.546  0.4132  0.2854  0.5436
 6566TIP3    H119662   6.116   0.181   3.512  0.1961  0.4921 -0.1286
 6566TIP3    H219663   6.001   0.267   3.561  0.2368  0.7259 -0.4393
 6567TIP3   OH219664   4.584   3.808   0.397  0.3939  0.0429  0.2042
 6567TIP3    H119665   4.677   3.791   0.380  1.0893  1.3147  2.3641
 6567TIP3    H219666   4.580   3.901   0.420 -1.3165 -0.1357  0.7651
 6568TIP3   OH219667   2.709   2.857   0.237  0.1564  0.1497  0.2849
 6568TIP3    H119668   2.618   2.854   0.267  0.3452 -0.4406  0.8140
 6568TIP3    H219669   2.720   2.947   0.205 -0.1005  0.7978  1.8866
 6569TIP3   OH219670   3.526   0.461   4.035  0.8384 -0.1761  0.5375
 6569TIP3    H119671   3.591   0.523   4.069  1.4261 -1.0153  0.9567
 6569TIP3    H219672   3.561   0.433   3.950 -0.8433  2.2665 -1.1139
 6570TIP3   OH219673   2.455   2.161   0.583  0.2179 -0.3947  0.4392
 6570TIP3    H119674   2.372   2.191   0.547  0.1103 -0.4888  0.6048
 6570TIP3    H219675   2.433   2.131   0.671  0.8536  1.8782  1.4399
 6571TIP3   OH219676   0.964   5.635   3.853 -0.1135 -0.4581 -0.4925
 6571TIP3    H119677   0.926   5.548   3.865  0.4694 -0.6827 -0.2425
 6571TIP3    H219678   1.040   5.620   3.796  0.7285 -0.3102  0.5711
 6572TIP3   OH219679   5.661   3.089   4.677 -0.3098  0.3273 -0.1808
 6572TIP3    H119680   5.741   3.141   4.687 -1.1047  1.7364 -0.8870
 6572TIP3    H219681   5.684   3.023   4.611  0.6596 -0.1460  0.6011
 6573TIP3   OH219682   3.070   5.009   2.651  0.3129 -0.1156 -0.1566
 6573TIP3    H119683   3.087   5.059   2.572  0.8618 -0.9018 -0.5500
 6573TIP3    H219684   3.151   4.960   2.667 -0.3409 -1.1871 -0.0218
 6574TIP3   OH219685   4.986   4.388   2.945 -0.3177  0.0324 -0.0558
 6574TIP3    H119686   5.055   4.396   3.011 -0.7188  1.6652  0.2228
 6574TIP3    H219687   5.031   4.357   2.866  1.1489  2.6155 -0.3740
 6575TIP3   OH219688   1.473   0.039   0.674  0.1968  0.1998  0.2135
 6575TIP3    H119689   1.529   0.063   0.748 -0.6616  2.0762  0.3187
 6575TIP3    H219690   1.534   0.025   0.601  0.8743  1.8708  0.4075
 6576TIP3   OH219691   5.740   0.829   2.837 -0.5249  0.2016 -0.4918
 6576TIP3    H119692   5.757   0.880   2.916 -1.1534 -1.2773  0.6670
 6576TIP3    H219693   5.746   0.892   2.765  0.5844  1.4940  0.6771
 6577TIP3   OH219694   4.091   1.055   3.015 -0.0566  0.8542 -0.3149
 6577TIP3    H119695   4.073   0.976   3.065  0.3619  0.1252 -1.2705
 6577TIP3    H219696   4.179   1.081   3.042 -0.7800  1.8895  1.1226
 6578TIP3   OH219697   3.342   1.158   1.498 -0.1095  0.1026  0.2566
 6578TIP3    H119698   3.301   1.222   1.439 -0.6400 -0.4393  0.0194
 6578TIP3    H219699   3.435   1.160   1.475 -0.2588  0.1357 -0.3807
 6579TIP3   OH219700   5.037   2.179   2.001  0.0433  0.1064 -0.3048
 6579TIP3    H119701   5.069   2.185   2.091  1.6656 -1.4608 -0.7283
 6579TIP3    H219702   5.087   2.244   1.953  1.4142 -1.1181 -0.6140
 6580TIP3   OH219703   6.856   3.450   0.986  0.2895 -0.3940 -0.0745
 6580TIP3    H119704   6.853   3.517   1.054  2.6877 -0.1710 -0.0871
 6580TIP3    H219705   6.807   3.376   1.022 -0.2220  0.4585  1.0142
 6581TIP3   OH219706   6.851   1.976   0.867  0.2896  0.9159 -0.1479
 6581TIP3    H119707   6.788   1.904   0.870  0.5704  0.6772  0.0770
 6581TIP3    H219708   6.844   2.010   0.777  1.3714 -0.4878 -0.7974
 6582TIP3   OH219709   6.966   0.447   3.515  0.7102 -0.5497  0.1564
 6582TIP3    H119710   6.935   0.519   3.569 -2.3448 -1.7897  0.2844
 6582TIP3    H219711   6.959   0.478   3.425  1.7762  0.0950  0.2808
 6583TIP3   OH219712   1.837   1.491   5.799  0.1644 -0.5877 -0.1727
 6583TIP3    H119713   1.894   1.416   5.818  1.8146  0.7923  0.6340
 6583TIP3    H219714   1.808   1.521   5.885  0.3795  0.3214 -0.4117
 6584TIP3   OH219715   6.418   3.647   3.021 -0.5961  0.2640 -0.3415
 6584TIP3    H119716   6.475   3.706   2.972 -1.3112  0.2444 -1.2277
 6584TIP3    H219717   6.364   3.605   2.954 -0.4303 -1.0335  0.3248
 6585TIP3   OH219718   0.187   3.626   0.011 -0.6411  0.1298  0.0879
 6585TIP3    H119719   0.109   3.679  -0.003 -0.8632 -0.4294 -0.8732
 6585TIP3    H219720   0.161   3.562   0.078 -0.0633  1.8036  2.0307
 6586TIP3   OH219721   0.240   5.859   0.722 -0.3454  0.4973 -0.1384
 6586TIP3    H119722   0.263   5.913   0.646 -0.6829  1.8896  0.7109
 6586TIP3    H219723   0.296   5.781   0.715  0.1672  0.9649 -1.3917
 6587TIP3   OH219724   3.707   1.062   4.678  0.2131  0.0867  0.5137
 6587TIP3    H119725   3.691   1.040   4.770  0.6672 -0.0366  0.5642
 6587TIP3    H219726   3.620   1.065   4.639 -0.1129  1.6730  1.2869
 6588TIP3   OH219727   1.459   3.201   4.023 -0.1740  0.2108 -0.0159
 6588TIP3    H119728   1.500   3.285   4.005  0.6142 -0.1942 -0.1459
 6588TIP3    H219729   1.479   3.184   4.115 -0.8560  0.4432  0.1838
 6589TIP3   OH219730   4.713   5.517   4.548  0.1688 -0.4632 -0.3922
 6589TIP3    H119731   4.802   5.537   4.575 -0.4036 -0.1735  1.4327
 6589TIP3    H219732   4.722   5.454   4.477  1.8188 -0.0497 -0.5783
 6590TIP3   OH219733   6.573   1.059   4.299 -0.0502  0.4106  0.7505
 6590TIP3    H119734   6.584   1.152   4.319  1.0492  0.0506  1.9420
 6590TIP3    H219735   6.495   1.033   4.348 -1.0008  0.8988 -0.4217
 6591TIP3   OH219736   0.652   5.963   0.589 -0.0412 -0.6126 -0.0081
 6591TIP3    H119737   0.580   6.023   0.606 -0.0342 -0.6048 -0.0061
 6591TIP3    H219738   0.731   6.012   0.614 -0.0901 -0.8801  0.6977
 6592TIP3   OH219739   0.590   5.291   5.558  0.0485  0.0297 -0.0873
 6592TIP3    H119740   0.494   5.299   5.563  0.0746  1.7133 -1.5422
 6592TIP3    H219741   0.621   5.339   5.635 -0.2634 -0.9732  0.6872
 6593TIP3   OH219742   6.567   5.561   3.702 -0.3023  0.1635 -0.4745
 6593TIP3    H119743   6.490   5.525   3.747  0.6620 -1.7124 -0.2056
 6593TIP3    H219744   6.571   5.514   3.619 -0.1429  1.1794 -1.0651
 6594TIP3   OH219745   2.794   3.503   4.883  0.0946 -0.2319  0.0669
 6594TIP3    H119746   2.823   3.489   4.792  3.0117  0.3156  0.8026
 6594TIP3    H219747   2.809   3.419   4.925 -1.5858 -0.5857  0.0154
 6595TIP3   OH219748   3.648   3.834   4.721  0.7995 -0.6441 -0.2966
 6595TIP3    H119749   3.576   3.786   4.761  2.0022 -1.1310  1.3751
 6595TIP3    H219750   3.624   3.926   4.732  0.1904 -0.8021 -0.2493
 6596TIP3   OH219751   5.930   4.768   0.802 -0.0746 -0.3222 -0.9646
 6596TIP3    H119752   5.983   4.688   0.800  0.7052  0.1653 -0.3927
 6596TIP3    H219753   5.950   4.808   0.886 -0.7963  0.2593 -1.0564
 6597TIP3   OH219754   5.811   1.507   3.109 -0.0616  0.3192 -0.0299
 6597TIP3    H119755   5.741   1.502   3.175  0.3533 -0.3568  0.3781
 6597TIP3    H219756   5.772   1.555   3.037 -0.6882  0.6638  0.5194
 6598TIP3   OH219757   5.417   3.016   0.031 -0.2595  0.0805 -0.3758
 6598TIP3    H119758   5.426   3.065   0.113 -1.3068 -0.9035  0.3505
 6598TIP3    H219759   5.325   3.028   0.006  0.2810  1.2525 -2.0082
 6599TIP3   OH219760   7.008   1.558   4.132  0.0917  0.0294  0.3231
 6599TIP3    H119761   6.919   1.528   4.111  0.8075 -1.2794 -0.9376
 6599TIP3    H219762   6.995   1.648   4.164 -1.7695 -0.4450  1.0552
 6600TIP3   OH219763   0.532   5.854   1.090 -0.0630 -0.4726  0.1495
 6600TIP3    H119764   0.546   5.764   1.062  0.0847 -0.1621 -0.8252
 6600TIP3    H219765   0.593   5.906   1.037 -0.3247  0.2248  0.5122
 6601TIP3   OH219766   5.570   5.574   1.345 -0.3241 -0.1204 -0.8114
 6601TIP3    H119767   5.602   5.499   1.294  1.0157  0.3970 -0.7888
 6601TIP3    H219768   5.635   5.643   1.328 -1.6247  1.1072 -0.9840
 6602TIP3   OH219769   4.412   4.453   2.022 -0.2984  0.1970 -0.0661
 6602TIP3    H119770   4.433   4.379   2.078 -1.0391 -0.5741 -0.7850
 6602TIP3    H219771   4.441   4.427   1.935  0.9205  1.4182 -0.0662
 6603TIP3   OH219772   0.850   6.607   5.075  0.2051  0.1437 -0.2507
 6603TIP3    H119773   0.821   6.592   5.165  1.1742 -0.1648  0.0195
 6603TIP3    H219774   0.877   6.699   5.073  0.3238  0.1094 -0.1907
 6604TIP3   OH219775   2.590   0.356   4.121 -0.2244 -0.3794  0.1514
 6604TIP3    H119776   2.498   0.377   4.139  0.1505  1.7776 -0.2855
 6604TIP3    H219777   2.633   0.361   4.206 -0.6567 -2.6072  0.5806
 6605TIP3   OH219778   6.701   4.272   1.691  0.4678 -0.6988 -0.0978
 6605TIP3    H119779   6.754   4.201   1.728  0.6154 -0.8974 -0.6823
 6605TIP3    H219780   6.756   4.350   1.698  0.5815 -0.7785 -0.0976
 6606TIP3   OH219781   2.415   1.263   4.476  0.7841 -0.6872  0.2214
 6606TIP3    H119782   2.458   1.346   4.455 -0.5048 -0.5619 -2.4022
 6606TIP3    H219783   2.438   1.246   4.567  3.5726  1.0051 -0.0477
 6607TIP3   OH219784   6.978   5.659   4.837  0.4470 -0.3330 -0.1927
 6607TIP3    H119785   6.956   5.733   4.781  1.8290 -0.2060 -0.6105
 6607TIP3    H219786   7.016   5.594   4.779 -0.7685 -1.4197  0.1685
 6608TIP3   OH219787   2.320   0.426   4.871 -0.1965 -0.0472  0.1678
 6608TIP3    H119788   2.343   0.495   4.809 -0.8460  0.5622  0.5964
 6608TIP3    H219789   2.387   0.358   4.857  0.1260  0.4232 -0.6363
 6609TIP3   OH219790   3.290   0.496   4.493 -0.3071 -0.1888 -0.2557
 6609TIP3    H119791   3.203   0.535   4.486 -0.5561 -0.6048  0.4120
 6609TIP3    H219792   3.339   0.534   4.421 -1.3344 -0.7043 -1.2520
 6610TIP3   OH219793   4.164   3.341   0.497 -0.7569  0.2977 -0.1248
 6610TIP3    H119794   4.190   3.319   0.408 -0.2168  2.2989 -0.5061
 6610TIP3    H219795   4.246   3.349   0.545 -1.0667 -2.1269  0.9798
 6611TIP3   OH219796   0.928   4.009   5.232 -0.3541 -0.2755  0.3109
 6611TIP3    H119797   0.891   4.061   5.303 -0.3475  0.3501 -0.1272
 6611TIP3    H219798   1.015   4.047   5.217  0.4419 -1.6483  1.2458
 6612TIP3   OH219799   1.796   6.785   2.238  0.3222  0.8462 -0.3290
 6612TIP3    H119800   1.843   6.851   2.290  0.6753  1.7024 -1.6901
 6612TIP3    H219801   1.762   6.724   2.303  0.8668  1.8019  0.9037
 6613TIP3   OH219802   1.918   5.620   4.649 -0.6877 -0.0254  0.0753
 6613TIP3    H119803   1.833   5.633   4.608 -0.0980  1.6792 -0.6618
 6613TIP3    H219804   1.945   5.707   4.678  0.6930 -0.5818  0.5486
 6614TIP3   OH219805   5.688   4.152   3.386 -0.1480 -0.2175 -0.1256
 6614TIP3    H119806   5.668   4.084   3.450  2.6596 -0.5308  0.5658
 6614TIP3    H219807   5.762   4.118   3.336  0.9822  2.0441 -0.1434
 6615TIP3   OH219808   3.503   4.005   2.496 -0.0432 -0.0757  0.2996
 6615TIP3    H119809   3.521   4.057   2.574  2.5630 -0.9607  0.3628
 6615TIP3    H219810   3.485   3.917   2.529 -0.5155 -0.1130 -0.0385
 6616TIP3   OH219811   5.226   1.974   0.799  0.0465  0.0883  0.0384
 6616TIP3    H119812   5.317   2.003   0.806  0.2181 -0.4383  0.0332
 6616TIP3    H219813   5.213   1.917   0.875 -0.3117  0.2533  0.1007
 6617TIP3   OH219814   4.845   1.325   5.043  0.0858 -0.0415  0.3797
 6617TIP3    H119815   4.864   1.234   5.021  1.3406  0.4082 -0.5347
 6617TIP3    H219816   4.931   1.364   5.062 -0.5446  0.6857  1.8750
 6618TIP3   OH219817   6.409   2.866   3.507  0.1050 -0.0879 -0.3737
 6618TIP3    H119818   6.500   2.893   3.493 -0.0389 -0.0230 -1.2382
 6618TIP3    H219819   6.381   2.914   3.585  0.7827 -0.0433 -0.1546
 6619TIP3   OH219820   4.323   0.352   2.409  0.0265  0.1547  0.2319
 6619TIP3    H119821   4.257   0.343   2.479 -0.1829  0.1482  0.0338
 6619TIP3    H219822   4.302   0.435   2.367  0.3178  0.2874  0.3443
 6620TIP3   OH219823   6.124   3.738   2.862 -0.2886 -0.0051  0.4352
 6620TIP3    H119824   6.148   3.646   2.853 -0.6837 -0.1260  0.6066
 6620TIP3    H219825   6.095   3.764   2.775 -0.3588 -0.0972  0.4303
 6621TIP3   OH219826   1.307   1.084   1.745 -0.2278  0.5621 -0.5586
 6621TIP3    H119827   1.334   1.008   1.693 -0.1965  0.4108 -0.3236
 6621TIP3    H219828   1.214   1.071   1.760  0.2057 -0.6642  1.4721
 6622TIP3   OH219829   5.066   1.334   3.430  0.1608  0.5645 -0.7621
 6622TIP3    H119830   5.041   1.243   3.415  2.3494  0.0636 -1.7260
 6622TIP3    H219831   5.010   1.363   3.502 -0.3626 -1.6461 -0.2153
 6623TIP3   OH219832   5.438   1.591   4.532  0.5639 -0.1779 -0.1866
 6623TIP3    H119833   5.444   1.606   4.626  1.1685 -2.5428  0.2312
 6623TIP3    H219834   5.529   1.590   4.502  0.4354 -0.4375 -0.5810
 6624TIP3   OH219835   4.794   2.861   5.616  0.0827  0.1712 -0.4815
 6624TIP3    H119836   4.830   2.948   5.630 -0.1617  0.3862 -1.1704
 6624TIP3    H219837   4.710   2.876   5.572 -0.2718 -0.3805 -0.0010
 6625TIP3   OH219838   2.101   5.008   4.473 -0.2134 -0.1776 -0.6237
 6625TIP3    H119839   2.048   4.940   4.516 -1.3037  0.3379 -1.0955
 6625TIP3    H219840   2.171   4.960   4.430 -1.0212 -1.0357 -1.0236
 6626TIP3   OH219841   3.975   5.892   0.693 -0.3229  0.3550 -0.0710
 6626TIP3    H119842   4.001   5.978   0.659 -2.4742  1.1049  0.0393
 6626TIP3    H219843   3.917   5.856   0.626 -1.0430 -0.1184  0.7770
 6627TIP3   OH219844   6.952   4.581   2.152  0.4038 -0.1908  0.7275
 6627TIP3    H119845   6.925   4.637   2.225 -0.6142 -0.3558  0.4978
 6627TIP3    H219846   6.897   4.503   2.160 -0.8631  0.4444 -1.0884
 6628TIP3   OH219847   2.964   2.254   0.955 -0.6685  0.1204  0.1906
 6628TIP3    H119848   3.037   2.280   1.011 -1.8327  0.3596  1.6266
 6628TIP3    H219849   2.963   2.320   0.885 -1.2929  1.8494  1.7647
 6629TIP3   OH219850   6.987   6.138   0.708  0.0644 -0.0099 -0.5730
 6629TIP3    H119851   6.892   6.130   0.702  0.0228  0.1095 -0.1412
 6629TIP3    H219852   7.000   6.212   0.768  0.4273 -0.1279 -0.5074
 6630TIP3   OH219853   0.726   1.080   1.824  0.4112 -0.0832  0.2416
 6630TIP3    H119854   0.788   1.006   1.823 -0.4330 -0.9249  2.7803
 6630TIP3    H219855   0.651   1.048   1.774  0.8259 -0.1732 -0.3409
 6631TIP3   OH219856   0.166   5.905   1.342 -0.0709  0.4076 -0.4062
 6631TIP3    H119857   0.207   5.821   1.363  0.1446  0.6537  0.1895
 6631TIP3    H219858   0.134   5.895   1.252 -2.8252 -1.3964  0.6577
 6632TIP3   OH219859   5.790   6.064   1.900  0.3159  0.0738 -0.9343
 6632TIP3    H119860   5.728   6.130   1.930  0.7064 -0.3009  0.8295
 6632TIP3    H219861   5.835   6.104   1.826 -3.4955 -0.4629 -3.7885
 6633TIP3   OH219862   2.063   0.315   4.926  0.1326  0.5420  0.1594
 6633TIP3    H119863   2.040   0.260   4.851  1.1703 -0.7846  0.7763
 6633TIP3    H219864   2.151   0.346   4.906  0.2972  0.4190  0.6928
 6634TIP3   OH219865   2.241   5.110   4.992 -0.4817 -0.0875  0.2663
 6634TIP3    H119866   2.256   5.201   5.018  2.3151 -0.5173  0.5290
 6634TIP3    H219867   2.294   5.059   5.053  1.2063 -1.5806 -2.2447
 6635TIP3   OH219868   6.916   1.908   2.081  0.1893 -0.1754  0.2118
 6635TIP3    H119869   6.908   2.003   2.079 -1.8098 -0.3039 -0.7329
 6635TIP3    H219870   6.955   1.885   1.997 -0.4951 -0.2493 -0.0921
 6636TIP3   OH219871   3.339   3.705   1.889 -0.0529 -0.2608  0.1074
 6636TIP3    H119872   3.253   3.683   1.854  0.5682 -2.0699 -0.3614
 6636TIP3    H219873   3.391   3.727   1.811  0.5068 -1.3521  0.1620
 6637TIP3   OH219874   0.906   0.809   0.155 -0.3726  0.3440 -0.1209
 6637TIP3    H119875   0.957   0.739   0.196 -0.6839  0.2614  0.1283
 6637TIP3    H219876   0.868   0.856   0.229 -1.3464 -0.1091 -0.3262
 6638TIP3   OH219877   5.272   1.369   5.302 -0.6916  0.3387 -0.4287
 6638TIP3    H119878   5.299   1.422   5.376 -1.0318 -1.6242  1.2018
 6638TIP3    H219879   5.332   1.393   5.231  0.0993  1.7687  0.6862
 6639TIP3   OH219880   6.157   4.482   4.557 -0.2239  0.3886 -0.1162
 6639TIP3    H119881   6.115   4.477   4.471 -1.5761  1.6281  0.4192
 6639TIP3    H219882   6.165   4.576   4.574 -1.2596  0.2011  1.6754
 6640TIP3   OH219883   6.018   2.248   4.911  0.0158  0.0290 -0.1060
 6640TIP3    H119884   6.072   2.289   4.844  0.2177  0.3733  0.2614
 6640TIP3    H219885   5.978   2.173   4.867 -0.8264  0.9483 -0.9756
 6641TIP3   OH219886   0.379   5.307   4.892  0.5498 -0.5513 -0.5049
 6641TIP3    H119887   0.473   5.312   4.910  0.6412 -0.4675 -0.9798
 6641TIP3    H219888   0.370   5.343   4.803  0.0112 -0.1100 -0.2785
 6642TIP3   OH219889   0.762   4.826   4.241  0.3002 -0.8793 -0.1479
 6642TIP3    H119890   0.679   4.779   4.235  0.4025 -0.9917 -0.8494
 6642TIP3    H219891   0.829   4.757   4.246  0.2963 -0.7871  1.5747
 6643TIP3   OH219892   6.104   1.915   5.569 -0.0897 -0.2876 -0.2338
 6643TIP3    H119893   6.058   1.852   5.514  0.3432 -0.5847 -0.2604
 6643TIP3    H219894   6.149   1.861   5.635  1.2548 -0.1178 -0.9677
 6644TIP3   OH219895   0.785   5.360   3.573  0.8052  0.2210 -0.2477
 6644TIP3    H119896   0.827   5.410   3.504 -1.6155 -0.9430 -2.7417
 6644TIP3    H219897   0.812   5.269   3.556  1.4178  0.0592  1.3656
 6645TIP3   OH219898   1.972   0.553   3.658 -0.3534  0.0432 -0.0020
 6645TIP3    H119899   1.940   0.478   3.708 -0.8575 -1.7857 -2.8313
 6645TIP3    H219900   2.047   0.585   3.707 -0.4545 -1.9729  1.5990
 6646TIP3   OH219901   6.929   1.220   2.906 -0.4040 -0.0101  0.0414
 6646TIP3    H119902   7.006   1.180   2.866  0.8585 -1.6320  3.6342
 6646TIP3    H219903   6.859   1.211   2.841  1.3882 -2.4694 -1.6836
 6647TIP3   OH219904   1.924   5.424   4.921  0.2897  0.4613  0.2647
 6647TIP3    H119905   1.862   5.467   4.980 -1.0475 -0.8964 -0.0952
 6647TIP3    H219906   1.891   5.443   4.834  2.1078  2.2338 -0.1222
 6648TIP3   OH219907   6.394   3.850   3.581 -0.9580 -0.7708 -0.6290
 6648TIP3    H119908   6.467   3.809   3.535 -1.7978 -1.4122 -1.4401
 6648TIP3    H219909   6.405   3.824   3.672  0.9386  0.8213 -0.3437
 6649TIP3   OH219910   3.194   2.244   3.079  0.2313 -0.5219  0.3212
 6649TIP3    H119911   3.263   2.183   3.052 -0.8549 -1.0909 -1.3477
 6649TIP3    H219912   3.212   2.324   3.029  0.4816 -0.1701  0.9628
 6650TIP3   OH219913   1.108   3.108   0.211 -0.1142 -0.7145 -0.0529
 6650TIP3    H119914   1.045   3.151   0.268 -0.3646  2.1788 -2.2425
 6650TIP3    H219915   1.193   3.138   0.243 -0.2509  0.8305 -1.0088
 6651TIP3   OH219916   6.584   1.900   2.400 -0.7240 -0.5289 -0.1437
 6651TIP3    H119917   6.634   1.867   2.475  1.3065  0.3844 -1.0101
 6651TIP3    H219918   6.575   1.824   2.342  2.2519 -0.1642 -1.2592
 6652TIP3   OH219919   3.803   6.648   1.818  0.3681  0.4493  0.1521
 6652TIP3    H119920   3.764   6.733   1.801  0.7445  0.7464  0.7423
 6652TIP3    H219921   3.834   6.617   1.733 -3.1901 -0.8505 -0.8515
 6653TIP3   OH219922   4.102   4.489   4.940 -0.3587  0.1738 -0.0462
 6653TIP3    H119923   4.148   4.572   4.927 -2.7059  1.6809  0.5765
 6653TIP3    H219924   4.090   4.454   4.852  0.5254  0.5615 -0.3338
 6654TIP3   OH219925   2.020   1.055   3.491  0.3920 -0.3529 -0.1939
 6654TIP3    H119926   2.073   1.131   3.515  0.0514 -0.3720  0.6380
 6654TIP3    H219927   1.959   1.088   3.425  0.9336 -0.1559 -0.6044
 6655TIP3   OH219928   4.953   6.002   3.599  0.1797  0.3755 -0.6299
 6655TIP3    H119929   4.879   6.006   3.538 -0.5091 -2.6981 -0.1655
 6655TIP3    H219930   5.022   5.958   3.551  0.8172  0.9179 -0.2256
 6656TIP3   OH219931   3.194   4.906   0.164 -0.0174  0.4125 -0.7815
 6656TIP3    H119932   3.142   4.876   0.238  0.9638  0.1779 -0.1715
 6656TIP3    H219933   3.198   4.830   0.105 -1.7750  0.9589 -1.6523
 6657TIP3   OH219934   0.550   4.340   0.550 -0.3439 -0.6788  0.0194
 6657TIP3    H119935   0.519   4.405   0.613  2.6726 -0.4571  1.4510
 6657TIP3    H219936   0.598   4.392   0.484 -0.6459 -1.1978 -0.6206
 6658TIP3   OH219937   4.774   2.347   1.148 -0.4970  0.2561  0.6956
 6658TIP3    H119938   4.776   2.406   1.072 -0.3845 -0.2431  0.3031
 6658TIP3    H219939   4.769   2.405   1.223 -4.8023  0.8163  0.2328
 6659TIP3   OH219940   4.523   5.081   0.855 -0.0162 -0.2381 -0.2253
 6659TIP3    H119941   4.472   5.102   0.777 -1.5072 -0.9437  0.5092
 6659TIP3    H219942   4.550   4.990   0.843  0.2276 -0.1735 -0.1694
 6660TIP3   OH219943   1.361   0.466   3.871  0.2891 -0.0490  0.0226
 6660TIP3    H119944   1.303   0.479   3.796  0.9158 -0.9202 -0.6280
 6660TIP3    H219945   1.323   0.391   3.917 -0.0824  0.4711  0.5785
 6661TIP3   OH219946   2.474   0.423   5.211 -0.3698 -0.9665 -0.1111
 6661TIP3    H119947   2.395   0.412   5.265  0.2636 -0.2439  1.0046
 6661TIP3    H219948   2.543   0.379   5.261  0.5394  1.0136  0.4522
 6662TIP3   OH219949   1.355   3.123   1.991  0.3306 -0.2289  0.6369
 6662TIP3    H119950   1.278   3.172   1.961  0.7438 -0.0527 -0.1582
 6662TIP3    H219951   1.326   3.079   2.071 -0.7414 -0.5389  0.0966
 6663TIP3   OH219952   5.931   6.427   1.440 -0.4841 -0.1402 -0.3251
 6663TIP3    H119953   5.887   6.472   1.367 -1.7658 -2.8289 -1.3759
 6663TIP3    H219954   5.962   6.345   1.401 -1.2267 -1.6945  2.1461
 6664TIP3   OH219955   0.470   2.131   0.157 -0.2775 -0.0340  0.2571
 6664TIP3    H119956   0.407   2.074   0.112  1.3973 -1.4939 -0.3614
 6664TIP3    H219957   0.532   2.071   0.197  0.2835  1.3487  1.5433
 6665TIP3   OH219958   4.655   0.244   5.351  0.7031 -0.0960  0.3720
 6665TIP3    H119959   4.717   0.315   5.335 -1.3194  1.8264  0.5846
 6665TIP3    H219960   4.607   0.235   5.268 -0.5323  0.3510  1.0160
 6666TIP3   OH219961   2.691   2.848   2.080  0.1263  0.0472 -0.5965
 6666TIP3    H119962   2.715   2.755   2.071 -1.4081 -0.3467 -1.0704
 6666TIP3    H219963   2.595   2.847   2.083  0.1263  1.4381  1.8594
 6667TIP3   OH219964   1.484   5.452   1.223  0.3154  0.0592  0.3032
 6667TIP3    H119965   1.579   5.441   1.214  0.1255 -1.0585 -0.4563
 6667TIP3    H219966   1.465   5.423   1.312  0.6179 -0.2534  0.2687
 6668TIP3   OH219967   4.324   4.867   2.960  0.3070 -0.1658 -0.2878
 6668TIP3    H119968   4.245   4.874   3.013  0.7194  0.9188  0.2142
 6668TIP3    H219969   4.302   4.802   2.893 -0.8709 -0.1732  0.0785
 6669TIP3   OH219970   3.627   4.646   1.715 -0.5670 -0.1138 -0.0543
 6669TIP3    H119971   3.674   4.596   1.783 -1.9855  0.1158  1.1416
 6669TIP3    H219972   3.540   4.608   1.713 -0.4696 -0.2982 -1.9972
 6670TIP3   OH219973   2.813   3.600   0.976 -0.0996 -0.3410  0.0178
 6670TIP3    H119974   2.806   3.644   0.891  0.9607 -1.3983 -0.6398
 6670TIP3    H219975   2.798   3.670   1.040 -2.6101  0.1712 -1.0220
 6671TIP3   OH219976   1.055   2.150   1.052  0.6244  0.1923 -0.5134
 6671TIP3    H119977   1.136   2.101   1.064 -0.4661 -1.4261  0.7015
 6671TIP3    H219978   1.049   2.207   1.129  0.0449 -0.5877  0.0385
 6672TIP3   OH219979   6.398   5.140   0.947  0.4258  0.4921 -0.1466
 6672TIP3    H119980   6.437   5.147   0.860 -1.0570  2.3352 -0.7262
 6672TIP3    H219981   6.437   5.061   0.984  2.6767  0.8053 -1.6515
 6673TIP3   OH219982   5.209   2.211   5.739  0.0670  0.1682 -0.4508
 6673TIP3    H119983   5.295   2.183   5.706  0.9065  1.0540  0.9231
 6673TIP3    H219984   5.219   2.304   5.757 -0.7385 -0.0221  1.1246
 6674TIP3   OH219985   0.713   5.051   5.494  0.1709  0.4803 -0.1699
 6674TIP3    H119986   0.630   5.021   5.456  0.0887  0.8912 -0.3196
 6674TIP3    H219987   0.690   5.131   5.541  0.3134  0.1010  0.5550
 6675TIP3   OH219988   4.391   5.715   4.886 -0.0534  0.1691 -0.6892
 6675TIP3    H119989   4.454   5.714   4.814  1.4706  0.1879  0.5892
 6675TIP3    H219990   4.359   5.806   4.889  0.7377  0.4490 -0.6322
 6676TIP3   OH219991   2.703   1.729   3.255 -0.2219  0.1272 -0.5081
 6676TIP3    H119992   2.756   1.751   3.179  0.2688 -0.4522 -0.3462
 6676TIP3    H219993   2.633   1.674   3.221  1.6262 -2.6174 -0.2072
 6677TIP3   OH219994   6.473   6.610   5.186 -0.0618  0.3477 -0.1084
 6677TIP3    H119995   6.514   6.534   5.146  1.0101  1.4503 -1.1697
 6677TIP3    H219996   6.473   6.590   5.280  0.6886 -0.7234 -0.3152
 6678TIP3   OH219997   1.145   0.619   3.229 -0.3224  0.0852 -0.4856
 6678TIP3    H119998   1.189   0.670   3.160 -0.0547 -0.0936 -0.4478
 6678TIP3    H219999   1.179   0.655   3.311 -0.5075  0.1783 -0.4498
 6679TIP3   OH220000   4.953   5.936   3.071 -0.2560 -0.3889  0.2815
 6679TIP3    H120001   4.988   5.938   2.982 -1.4979 -0.8952 -0.2411
 6679TIP3    H220002   4.877   5.995   3.068  0.3421  0.4716  1.3167
 6680TIP3   OH220003   6.123   5.209   0.066  0.1580  0.3549 -0.0209
 6680TIP3    H120004   6.034   5.221   0.100  0.8641 -0.1979  2.2305
 6680TIP3    H220005   6.151   5.298   0.042 -1.1524  0.4643 -1.2378
 6681TIP3   OH220006   6.340   2.555   5.546 -0.4321  0.5458 -0.1248
 6681TIP3    H120007   6.363   2.646   5.530 -0.3813  0.8430  1.4742
 6681TIP3    H220008   6.250   2.557   5.579 -1.0275 -0.1541 -1.6199
 6682TIP3   OH220009   4.205   0.682   2.990 -0.0611 -0.1491  0.2145
 6682TIP3    H120010   4.281   0.704   3.044  0.5057  0.0782 -0.6484
 6682TIP3    H220011   4.232   0.706   2.901 -1.3356  0.4373 -0.0318
 6683TIP3   OH220012   2.165   5.534   4.498 -0.2019  0.7030  0.5466
 6683TIP3    H120013   2.114   5.511   4.576  0.5426  0.9955  1.1310
 6683TIP3    H220014   2.151   5.628   4.486  0.5568  0.8813  0.9882
 6684TIP3   OH220015   2.705   4.025   3.098 -0.0509 -0.4179 -0.5038
 6684TIP3    H120016   2.673   4.007   3.186  1.7348 -1.1518  0.0321
 6684TIP3    H220017   2.674   3.951   3.046  1.6689 -1.7622  0.2709
 6685TIP3   OH220018   2.950   4.919   4.581  0.3245  0.5180  0.2799
 6685TIP3    H120019   3.000   4.915   4.500  0.8165 -0.7149  0.6315
 6685TIP3    H220020   2.899   5.000   4.573  0.5870  0.5758 -1.1186
 6686TIP3   OH220021   4.193   6.758   4.258  0.0677 -0.3763  0.1625
 6686TIP3    H120022   4.149   6.728   4.179  0.7400 -1.2911  0.1289
 6686TIP3    H220023   4.142   6.717   4.329  0.2153 -0.5674  0.1589
 6687TIP3   OH220024   0.070   2.154   3.876 -0.0352  0.1423 -0.4329
 6687TIP3    H120025   0.087   2.217   3.806  1.2984  0.6939  0.3558
 6687TIP3    H220026   0.144   2.164   3.936 -1.9549  0.9255  1.9680
 6688TIP3   OH220027   3.382   6.380   2.583 -0.1315  0.4339  0.2792
 6688TIP3    H120028   3.442   6.415   2.518 -0.4275 -0.2183 -0.3607
 6688TIP3    H220029   3.413   6.415   2.667  2.9713 -2.2120  0.4177
 6689TIP3   OH220030   4.750   4.404   3.093  0.4071  0.2332  0.0627
 6689TIP3    H120031   4.804   4.396   3.014  1.1913 -0.3388  0.6458
 6689TIP3    H220032   4.797   4.355   3.160 -0.3040  0.6223  0.8702
 6690TIP3   OH220033   3.291   2.884   3.759 -0.2360 -0.1016  0.4356
 6690TIP3    H120034   3.294   2.980   3.768 -1.0461 -0.0313  0.0573
 6690TIP3    H220035   3.251   2.869   3.673 -0.6802 -0.7822  0.7529
 6691TIP3   OH220036   5.857   6.419   1.168  0.5477  1.0131  0.4380
 6691TIP3    H120037   5.903   6.369   1.099 -1.2252 -0.1167  0.0169
 6691TIP3    H220038   5.884   6.510   1.153  1.4580  0.5839 -0.7287
 6692TIP3   OH220039   3.308   1.805   2.023 -0.1438 -0.2339 -0.0554
 6692TIP3    H120040   3.230   1.754   2.000 -1.2404  1.3221  0.0691
 6692TIP3    H220041   3.369   1.789   1.951 -0.9897 -0.6265 -0.7060
 6693TIP3   OH220042   6.807   6.498   2.426 -0.5686 -0.0217  0.0552
 6693TIP3    H120043   6.816   6.593   2.416 -0.4590 -0.0990 -0.6282
 6693TIP3    H220044   6.872   6.476   2.492 -0.9765  0.4522  0.6262
 6694TIP3   OH220045   3.056   0.882   1.689  0.4982  0.7811  0.0239
 6694TIP3    H120046   3.061   0.809   1.750  0.0245  0.9894  0.3166
 6694TIP3    H220047   3.051   0.841   1.603 -3.3071  0.2875  0.3111
 6695TIP3   OH220048   0.043   3.323   2.901  0.0712 -0.5004  0.0001
 6695TIP3    H120049   0.048   3.335   2.806 -0.0226  1.7967  0.2223
 6695TIP3    H220050  -0.051   3.314   2.919  0.0290 -0.2105 -0.0691
 6696TIP3   OH220051   5.161   4.093   0.128 -0.2980  0.5302 -0.0533
 6696TIP3    H120052   5.254   4.117   0.128  0.2227 -1.2511 -1.3989
 6696TIP3    H220053   5.140   4.080   0.221  0.2774  2.6545  0.4279
 6697TIP3   OH220054   2.942   4.924   4.095 -0.7256 -0.4730  0.3163
 6697TIP3    H120055   2.861   4.958   4.132 -0.8331 -0.8419  0.4309
 6697TIP3    H220056   2.999   5.000   4.087 -1.5199  0.0244 -0.9500
 6698TIP3   OH220057   5.502   3.188   4.375  0.1230 -0.7088  0.3072
 6698TIP3    H120058   5.575   3.163   4.431  0.2378 -1.2526 -0.0802
 6698TIP3    H220059   5.424   3.155   4.420  0.1315 -0.3344  0.6030
 6699TIP3   OH220060   5.361   5.722   1.667  0.7545  0.3135  0.5878
 6699TIP3    H120061   5.308   5.800   1.653  1.0619  0.4589  0.2131
 6699TIP3    H220062   5.339   5.664   1.594  0.3935 -0.0336  0.9603
 6700TIP3   OH220063   7.128   5.300   4.869  0.5040 -0.2661 -0.1206
 6700TIP3    H120064   7.185   5.266   4.800  0.3764 -2.4740  0.7780
 6700TIP3    H220065   7.173   5.379   4.900  0.3388  1.0852 -2.9512
 6701TIP3   OH220066   2.641   5.779   5.743 -0.1155  0.3006 -0.2155
 6701TIP3    H120067   2.599   5.813   5.664 -1.0668 -0.3035  0.0085
 6701TIP3    H220068   2.609   5.836   5.813  1.2926  1.2884 -0.3323
 6702TIP3   OH220069   3.042   4.468   1.987  0.1283  0.4327 -0.0420
 6702TIP3    H120070   3.011   4.538   1.930  0.6620 -0.3173 -1.2899
 6702TIP3    H220071   2.997   4.483   2.070 -1.5993  0.8742 -1.0098
 6703TIP3   OH220072   3.499   4.186   1.128 -0.1337 -0.2268  0.5592
 6703TIP3    H120073   3.539   4.216   1.046 -2.1756 -0.5117 -0.5940
 6703TIP3    H220074   3.424   4.244   1.141  0.7272  0.4620  2.8082
 6704TIP3   OH220075   6.489   5.612   1.934  0.5042  0.1338 -0.0190
 6704TIP3    H120076   6.562   5.673   1.943 -0.0628  0.7743  0.3586
 6704TIP3    H220077   6.504   5.545   2.001 -0.6538  1.7405  1.9498
 6705TIP3   OH220078   1.383   3.366   2.802 -0.5065  0.1885  0.3209
 6705TIP3    H120079   1.450   3.315   2.846 -1.3563 -0.0519  1.3728
 6705TIP3    H220080   1.367   3.320   2.720 -0.8629 -0.9465  1.0060
 6706TIP3   OH220081   6.190   1.526   2.811  0.2419  0.4822 -0.2141
 6706TIP3    H120082   6.208   1.583   2.886 -0.0412  0.1017  0.1426
 6706TIP3    H220083   6.208   1.438   2.843  1.6023  0.4216 -1.0384
 6707TIP3   OH220084   1.291   2.641   3.249 -0.1763  0.8145  0.3826
 6707TIP3    H120085   1.359   2.668   3.187  0.8284 -0.1929  1.0102
 6707TIP3    H220086   1.242   2.572   3.203 -1.5393  2.2924 -0.4966
 6708TIP3   OH220087   3.588   0.859   2.344  0.2391 -0.0084 -0.9304
 6708TIP3    H120088   3.622   0.862   2.433 -0.0161 -2.1242 -0.7041
 6708TIP3    H220089   3.629   0.781   2.306  0.3884  0.8904 -2.6945
 6709TIP3   OH220090   7.104   4.355   4.119 -0.4065 -0.6009  0.0539
 6709TIP3    H120091   7.112   4.270   4.162  0.3119 -0.0522  1.0422
 6709TIP3    H220092   7.063   4.411   4.185 -0.5242 -0.0760 -0.4590
 6710TIP3   OH220093   5.444   0.105   5.723  0.2082 -0.4148 -0.4583
 6710TIP3    H120094   5.461   0.105   5.818 -0.1968  1.5938 -0.3543
 6710TIP3    H220095   5.505   0.040   5.689  0.4830 -1.0654  1.1612
 6711TIP3   OH220096   3.634   3.864   0.108 -0.3895 -0.5774 -0.8641
 6711TIP3    H120097   3.709   3.867   0.168 -0.3152  1.1806 -0.9935
 6711TIP3    H220098   3.664   3.808   0.036  0.9168  0.2890 -1.0249
 6712TIP3   OH220099   5.878   2.278   1.932 -0.1363  0.3885  0.0007
 6712TIP3    H120100   5.940   2.278   2.005  0.9974 -0.0824 -0.9102
 6712TIP3    H220101   5.864   2.371   1.913 -0.0584  0.5062  0.5029
 6713TIP3   OH220102   2.693   6.816   4.982  0.0484 -0.4271 -0.4888
 6713TIP3    H120103   2.748   6.756   5.032 -0.4766  0.9629  1.9315
 6713TIP3    H220104   2.604   6.791   5.005 -0.1849  0.8230  0.0760
 6714TIP3   OH220105   0.464   0.523   3.301 -0.7422 -0.1765 -0.3790
 6714TIP3    H120106   0.496   0.584   3.367  1.5440 -0.0703 -1.4785
 6714TIP3    H220107   0.390   0.568   3.260  0.5320  1.6562 -0.7699
 6715TIP3   OH220108   3.078   3.526   1.635 -1.1436  0.5679 -0.1387
 6715TIP3    H120109   3.008   3.470   1.604 -0.7765  0.8040 -1.4717
 6715TIP3    H220110   3.157   3.471   1.629 -1.2933  0.0323  2.1281
 6716TIP3   OH220111   5.231   2.694   4.576 -0.2096 -0.1436  0.2945
 6716TIP3    H120112   5.306   2.638   4.595 -0.1325 -0.0284  0.3331
 6716TIP3    H220113   5.213   2.739   4.658 -3.2582 -3.5615  1.7667
 6717TIP3   OH220114   0.909   1.283   1.788  0.2216 -0.0176  0.4687
 6717TIP3    H120115   0.850   1.215   1.757  0.3114  0.1443 -0.0676
 6717TIP3    H220116   0.964   1.240   1.854  0.3985 -0.5094  0.0022
 6718TIP3   OH220117   2.148   4.003   5.421 -0.2568  0.1466  0.9695
 6718TIP3    H120118   2.110   3.941   5.359  0.4318 -1.3435  1.9856
 6718TIP3    H220119   2.102   3.988   5.503  0.0826  0.8168  1.2956
 6719TIP3   OH220120   2.000   0.563   5.838 -0.1729  0.2090  0.3024
 6719TIP3    H120121   1.991   0.488   5.896 -0.5580  0.9542  1.2462
 6719TIP3    H220122   2.086   0.600   5.860 -0.6072  0.8924  0.9206
 6720TIP3   OH220123   4.243   6.072   3.168  0.2957  0.4773 -0.0244
 6720TIP3    H120124   4.238   5.994   3.224  1.6874  0.4520  0.0874
 6720TIP3    H220125   4.242   6.145   3.230 -0.1400  0.5256 -0.0842
 6721TIP3   OH220126   2.227   0.307   5.797  0.1571  0.2849 -0.2613
 6721TIP3    H120127   2.197   0.262   5.718  1.4020 -1.6606  0.2896
 6721TIP3    H220128   2.290   0.371   5.765  0.0835  0.0462 -0.9089
 6722TIP3   OH220129   2.181   5.194   5.732  0.2292 -0.1688  0.0124
 6722TIP3    H120130   2.232   5.151   5.663 -0.1302  0.7428 -0.8422
 6722TIP3    H220131   2.234   5.269   5.758  0.0054 -0.0666  0.1732
 6723TIP3   OH220132   0.720   0.653   4.868  0.3279  0.0832  0.0234
 6723TIP3    H120133   0.628   0.680   4.864  0.3309  0.2240  0.7126
 6723TIP3    H220134   0.769   0.735   4.869  0.4495  0.0118 -0.1127
 6724TIP3   OH220135   2.791   0.764   1.131 -0.0181 -0.0759 -0.2895
 6724TIP3    H120136   2.791   0.859   1.146 -1.2406  0.0641 -1.0335
 6724TIP3    H220137   2.883   0.739   1.138  0.2418  1.0264  0.7040
 6725TIP3   OH220138   4.294   6.572   0.944  0.0495  0.6322 -0.7008
 6725TIP3    H120139   4.215   6.576   0.890  0.8192  0.7248 -1.8401
 6725TIP3    H220140   4.298   6.658   0.987 -1.1794  0.1609  0.4300
 6726TIP3   OH220141   1.439   6.061   2.879 -0.0458 -0.1605 -0.0717
 6726TIP3    H120142   1.504   6.088   2.944 -0.8386  0.3182  0.5375
 6726TIP3    H220143   1.378   6.134   2.874  0.5500  0.2738 -2.1316
 6727TIP3   OH220144   2.619   3.429   0.645 -0.5658  0.1580 -0.9078
 6727TIP3    H120145   2.537   3.439   0.596 -0.6795  1.6114 -0.4654
 6727TIP3    H220146   2.661   3.515   0.638  0.8937 -0.5402 -1.0495
 6728TIP3   OH220147   1.417   5.743   1.782  0.3655 -0.4179 -0.2309
 6728TIP3    H120148   1.497   5.762   1.832 -0.3570  3.9965 -0.3974
 6728TIP3    H220149   1.347   5.742   1.847  0.1180 -0.8918 -0.4928
 6729TIP3   OH220150   6.243   2.089   4.969  0.1628 -0.6259  0.5298
 6729TIP3    H120151   6.310   2.148   5.003 -0.0304 -0.1971  0.1745
 6729TIP3    H220152   6.180   2.146   4.926  0.1890 -1.1170 -0.1832
 6730TIP3   OH220153   2.787   4.803   2.054  0.5362  0.0925  0.0913
 6730TIP3    H120154   2.834   4.726   2.084  0.2146  0.4922  1.6962
 6730TIP3    H220155   2.714   4.768   2.002  2.3043 -0.5316 -2.0996
 6731TIP3   OH220156   2.515   2.785   2.394  0.0781  0.1854 -0.0717
 6731TIP3    H120157   2.427   2.798   2.430 -0.2267 -0.8110 -0.4144
 6731TIP3    H220158   2.506   2.708   2.337  1.1223  0.2157 -0.2921
 6732TIP3   OH220159   5.668   1.090   5.644  0.0043  0.1825 -0.2447
 6732TIP3    H120160   5.756   1.086   5.606 -1.4831 -2.9431 -4.1091
 6732TIP3    H220161   5.622   1.154   5.591 -0.5695  0.3449  0.4387
 6733TIP3   OH220162   6.590   1.925   0.777 -0.2510 -0.3474  0.0157
 6733TIP3    H120163   6.530   1.975   0.721  0.1906 -0.8897 -0.9719
 6733TIP3    H220164   6.573   1.958   0.865 -0.4725  1.0327 -0.5150
 6734TIP3   OH220165   6.163   5.463   3.584  0.5477 -0.9898  0.1385
 6734TIP3    H120166   6.071   5.445   3.566  0.5008 -0.7500  0.1376
 6734TIP3    H220167   6.167   5.478   3.679  0.4887 -0.4303  0.0558
 6735TIP3   OH220168   0.931   2.635   0.714 -0.5097  0.3365 -0.4551
 6735TIP3    H120169   0.980   2.703   0.668  0.3758  1.1920  1.6096
 6735TIP3    H220170   0.842   2.670   0.721 -0.1852  1.0939  0.1366
 6736TIP3   OH220171   2.041   6.213   3.987  0.0897 -0.2539 -0.1576
 6736TIP3    H120172   1.970   6.267   3.953 -1.3855 -2.2567 -0.4577
 6736TIP3    H220173   2.073   6.261   4.063 -0.3228  1.5933 -1.0816
 6737TIP3   OH220174   1.082   6.571   1.841 -0.2055 -0.1427  0.0875
 6737TIP3    H120175   1.094   6.500   1.904 -0.5012  0.5248  0.9143
 6737TIP3    H220176   1.024   6.633   1.885 -0.4963  0.3025 -0.8813
 6738TIP3   OH220177   2.399   0.559   3.950 -0.6348  0.0969  0.0359
 6738TIP3    H120178   2.307   0.572   3.924 -0.2967 -0.2887 -1.4344
 6738TIP3    H220179   2.450   0.606   3.884  0.2688 -0.8608  0.0290
 6739TIP3   OH220180   2.781   6.028   4.380 -0.3023  0.3228  0.1636
 6739TIP3    H120181   2.798   6.122   4.377  1.6475  0.0400  0.8390
 6739TIP3    H220182   2.783   6.005   4.473  1.7093 -0.7255 -0.0682
 6740TIP3   OH220183   5.298   2.797   1.287  0.2174  0.0801  0.1627
 6740TIP3    H120184   5.373   2.738   1.291  0.8414  0.7230 -1.3346
 6740TIP3    H220185   5.223   2.740   1.271  0.5087 -0.4665  0.6787
 6741TIP3   OH220186   2.263   6.129   0.371 -0.1768  0.1156  0.2443
 6741TIP3    H120187   2.334   6.155   0.429 -0.3702 -0.7103  0.8610
 6741TIP3    H220188   2.183   6.145   0.421 -0.3832  0.1195 -0.0790
 6742TIP3   OH220189   3.455   1.901   5.461 -0.3908 -0.3352  0.1325
 6742TIP3    H120190   3.454   1.986   5.417  0.4435 -0.6256 -0.4633
 6742TIP3    H220191   3.510   1.915   5.538  0.1994 -0.4628 -0.2554
 6743TIP3   OH220192   4.619   0.031   0.053  0.0062 -0.0466  0.2571
 6743TIP3    H120193   4.678   0.022   0.128 -0.9549 -0.7477  0.9610
 6743TIP3    H220194   4.649  -0.036  -0.009 -0.9178 -1.4281  1.2358
 6744TIP3   OH220195   1.224   5.777   1.988 -0.0292 -0.5185  0.6377
 6744TIP3    H120196   1.159   5.708   1.970 -0.5939 -0.0943  1.0342
 6744TIP3    H220197   1.221   5.789   2.082  0.3887 -0.2609  0.6176
 6745TIP3   OH220198   3.318   5.949   1.461 -0.2302  0.6119  0.4836
 6745TIP3    H120199   3.357   5.868   1.493  0.8248  0.6316 -0.6690
 6745TIP3    H220200   3.354   5.960   1.373 -1.2792  1.7182  0.1696
 6746TIP3   OH220201   4.954   4.709   4.482 -0.0528  0.5674 -0.1309
 6746TIP3    H120202   4.968   4.764   4.559 -0.3542 -1.6428  1.5761
 6746TIP3    H220203   4.859   4.693   4.481  0.2597 -1.4768  0.5513
 6747TIP3   OH220204   3.866   6.466   0.691 -0.4232  0.3546  0.0768
 6747TIP3    H120205   3.897   6.507   0.610 -1.9263 -0.5204 -1.0030
 6747TIP3    H220206   3.779   6.434   0.669 -0.4355 -0.8599  1.7327
 6748TIP3   OH220207   0.816   1.190   3.119  0.0372 -0.4720  0.3499
 6748TIP3    H120208   0.741   1.191   3.178 -0.1098  1.0995  0.1811
 6748TIP3    H220209   0.796   1.122   3.055 -0.7503 -0.7955  0.9326
 6749TIP3   OH220210   6.345   0.982   1.853  0.2604  0.7427  0.0338
 6749TIP3    H120211   6.368   1.074   1.866  0.4224  0.5947  0.8902
 6749TIP3    H220212   6.369   0.940   1.936  0.0590 -0.0451 -0.2983
 6750TIP3   OH220213   1.300   3.218   3.686  0.2327  0.5830  0.0162
 6750TIP3    H120214   1.321   3.140   3.736  0.7660  0.3296 -0.5849
 6750TIP3    H220215   1.383   3.265   3.680 -0.6007  2.6983  2.8426
 6751TIP3   OH220216   2.813   2.874   3.329 -0.7653  0.0990  0.4508
 6751TIP3    H120217   2.778   2.823   3.255  0.9950 -0.2459 -0.1982
 6751TIP3    H220218   2.866   2.811   3.378 -0.3397  0.7980  0.9017
 6752TIP3   OH220219   1.185   1.755   1.693  0.1030 -0.3157  0.1531
 6752TIP3    H120220   1.121   1.698   1.737 -0.8741  2.3104  2.4507
 6752TIP3    H220221   1.244   1.781   1.763  0.7848  1.1172 -0.9179
 6753TIP3   OH220222   7.191   4.096   3.331 -0.6466 -0.3660  0.0847
 6753TIP3    H120223   7.223   4.010   3.306  0.9938  0.1961  0.1626
 6753TIP3    H220224   7.197   4.097   3.427 -0.5078 -0.1127  0.0757
 6754TIP3   OH220225   0.172   5.093   2.902 -0.1678  0.0840  0.0095
 6754TIP3    H120226   0.176   5.158   2.833 -0.8231 -0.0309 -0.1411
 6754TIP3    H220227   0.263   5.084   2.932 -0.1320  1.3882  0.3383
 6755TIP3   OH220228   3.501   6.569   2.764 -0.4254 -0.4781 -0.6262
 6755TIP3    H120229   3.517   6.579   2.858 -3.4537 -1.4087  0.1079
 6755TIP3    H220230   3.567   6.624   2.722 -0.6726  2.1908  2.1314
 6756TIP3   OH220231   4.090   6.319   2.502  0.6437  0.1220 -0.0336
 6756TIP3    H120232   4.164   6.260   2.488  0.8534  0.3377  0.1530
 6756TIP3    H220233   4.017   6.261   2.525  0.6605 -0.1191 -0.5891
 6757TIP3   OH220234   0.487   5.714   5.129  0.6728 -0.0255 -0.4505
 6757TIP3    H120235   0.415   5.652   5.114 -1.0354  1.6042  0.5784
 6757TIP3    H220236   0.559   5.680   5.075 -1.3327 -0.8942 -2.7909
 6758TIP3   OH220237   3.440   4.031   3.593 -0.4665 -0.4750  0.2576
 6758TIP3    H120238   3.469   4.120   3.572 -0.1182 -0.9413 -1.3494
 6758TIP3    H220239   3.345   4.038   3.599 -0.3289  0.3778  2.1654
 6759TIP3   OH220240   3.425   0.233   3.255  0.2056 -0.5679 -0.4591
 6759TIP3    H120241   3.339   0.266   3.229  0.0251 -2.7848 -3.1132
 6759TIP3    H220242   3.406   0.159   3.311  0.5142  0.6411  1.3168
 6760TIP3   OH220243   2.202   3.763   2.172 -0.1134 -0.1643  0.2977
 6760TIP3    H120244   2.108   3.781   2.176 -0.1976 -0.6527  0.6240
 6760TIP3    H220245   2.228   3.753   2.264  0.2513 -0.0820  0.2055
 6761TIP3   OH220246   6.819   6.226   3.701  0.3923  0.3710 -0.0660
 6761TIP3    H120247   6.796   6.203   3.791 -3.4671 -0.3838 -1.0508
 6761TIP3    H220248   6.815   6.321   3.699  0.8196  0.4089  0.6199
 6762TIP3   OH220249   1.977   2.230   3.474  0.1533  0.4415 -0.1032
 6762TIP3    H120250   1.954   2.164   3.409 -1.6385 -0.7733  1.6452
 6762TIP3    H220251   1.950   2.313   3.434  1.1710  0.0106 -1.7784
 6763TIP3   OH220252   1.973   4.675   4.859 -0.2333 -0.1323 -0.0052
 6763TIP3    H120253   1.895   4.723   4.833 -1.0853 -0.5469  1.6436
 6763TIP3    H220254   1.940   4.601   4.911  1.1698 -1.1889 -0.5336
 6764TIP3   OH220255   0.796   4.418   0.735 -0.1322 -0.0853 -0.2789
 6764TIP3    H120256   0.723   4.358   0.752 -0.6768  0.9695  1.3728
 6764TIP3    H220257   0.795   4.431   0.641 -1.5514 -0.7516 -0.3811
 6765TIP3   OH220258   5.781   1.181   3.433 -0.5645  0.3602 -0.2838
 6765TIP3    H120259   5.782   1.265   3.479  1.6346  0.2214  0.0331
 6765TIP3    H220260   5.793   1.204   3.341 -0.1636  0.4090 -0.2203
 6766TIP3   OH220261   6.718   2.731   0.950  0.1289  0.1239  0.1600
 6766TIP3    H120262   6.743   2.820   0.977  0.5916  0.5350 -1.5212
 6766TIP3    H220263   6.652   2.744   0.882  2.1396 -0.6819 -2.0591
 6767TIP3   OH220264   4.517   2.537   1.909 -0.3632  0.0857  0.6057
 6767TIP3    H120265   4.585   2.508   1.849  0.6085  0.2255  1.6255
 6767TIP3    H220266   4.441   2.483   1.887  0.5333 -1.1672  0.5020
 6768TIP3   OH220267   4.646   3.525   5.082  0.3025  0.4709 -0.4674
 6768TIP3    H120268   4.577   3.467   5.050 -0.9762 -0.5199  3.5428
 6768TIP3    H220269   4.604   3.611   5.089 -0.4363  0.0076  1.3456
 6769TIP3   OH220270   3.101   6.425   2.265 -0.0535 -0.1424 -0.1944
 6769TIP3    H120271   3.187   6.425   2.223  0.5906 -1.3137  1.0307
 6769TIP3    H220272   3.120   6.415   2.359 -1.4951  0.5423  0.2044
 6770TIP3   OH220273   1.561   3.011   3.629  0.2855 -0.2861 -0.0847
 6770TIP3    H120274   1.484   2.975   3.586  1.2551 -0.9726 -1.2988
 6770TIP3    H220275   1.590   2.941   3.688 -0.0611  0.0033  0.4326
 6771TIP3   OH220276   5.231   5.251   4.382 -0.1236  0.1114 -0.3356
 6771TIP3    H120277   5.308   5.212   4.422  0.4808  1.7364  0.1754
 6771TIP3    H220278   5.164   5.183   4.384  0.8683 -0.8526  0.5246
 6772TIP3   OH220279   2.291   4.720   1.202  0.0170 -0.1040 -0.4854
 6772TIP3    H120280   2.221   4.733   1.137  0.5144  2.1448 -0.6507
 6772TIP3    H220281   2.247   4.723   1.286 -0.0910  1.7654 -0.5699
 6773TIP3   OH220282   4.562   0.413   2.601  0.3421  0.1216 -0.0836
 6773TIP3    H120283   4.551   0.318   2.599 -1.4211  0.2806  0.5206
 6773TIP3    H220284   4.557   0.441   2.510  0.2418 -0.2932 -0.2050
 6774TIP3   OH220285   2.540   3.991   0.746  0.0020 -0.0857  0.3290
 6774TIP3    H120286   2.507   4.079   0.763  0.8857 -0.2357  3.3829
 6774TIP3    H220287   2.511   3.939   0.820  1.8234 -1.7060  0.0113
 6775TIP3   OH220288   3.206   6.725   1.677 -0.1706 -0.1635  0.4304
 6775TIP3    H120289   3.211   6.811   1.719 -0.4405  0.2603 -0.3819
 6775TIP3    H220290   3.171   6.668   1.745  0.1686  0.3255  1.0368
 6776TIP3   OH220291   6.453   0.842   5.809  0.1891  0.4108  0.4398
 6776TIP3    H120292   6.388   0.773   5.823  0.0255  0.5077  0.1593
 6776TIP3    H220293   6.407   0.922   5.835  0.6073  0.3364  1.4390
 6777TIP3   OH220294   1.552   3.481   5.017 -0.1425  0.5871  0.5101
 6777TIP3    H120295   1.641   3.479   4.982  0.2943  0.6208  1.5652
 6777TIP3    H220296   1.499   3.517   4.946  0.4448 -0.6835 -0.6209
 6778TIP3   OH220297   0.422   2.292   0.352 -0.1488 -0.1907 -0.3710
 6778TIP3    H120298   0.432   2.217   0.411  0.0217  0.0629 -0.0747
 6778TIP3    H220299   0.436   2.256   0.264 -1.1766 -0.7265 -0.3372
 6779TIP3   OH220300   3.157   3.783   3.693 -0.4564 -0.3094 -0.4723
 6779TIP3    H120301   3.069   3.772   3.728 -0.3877 -0.4608 -0.3448
 6779TIP3    H220302   3.211   3.721   3.743 -0.0727  0.5492  0.2061
 6780TIP3   OH220303   1.223   1.266   5.507  0.2055 -0.1836  0.3487
 6780TIP3    H120304   1.258   1.352   5.486  0.0121 -0.3217 -0.5582
 6780TIP3    H220305   1.232   1.215   5.427 -1.3073 -0.4665  0.3157
 6781TIP3   OH220306   0.398   2.026   3.527  0.3577 -0.2925 -0.0183
 6781TIP3    H120307   0.373   1.970   3.453  0.9488 -0.0764 -0.3909
 6781TIP3    H220308   0.463   2.086   3.490 -0.5554  0.9174  0.2832
 6782TIP3   OH220309   3.235   0.085   4.811  0.3180  0.9840  0.3156
 6782TIP3    H120310   3.328   0.088   4.791  0.3829  3.6881  0.7375
 6782TIP3    H220311   3.195   0.148   4.751 -1.4280 -0.7653 -0.5021
 6783TIP3   OH220312   3.478   0.145   5.461  0.2605  0.6751  0.1577
 6783TIP3    H120313   3.406   0.203   5.434  0.5887  0.0934 -2.0798
 6783TIP3    H220314   3.434   0.068   5.496 -0.1913  0.9356  0.1746
 6784TIP3   OH220315   6.915   2.752   2.492 -0.0664  0.0945 -0.1472
 6784TIP3    H120316   6.946   2.729   2.405 -0.9391  0.5103 -0.5851
 6784TIP3    H220317   6.985   2.805   2.530  0.1484  0.2446 -0.7540
 6785TIP3   OH220318   4.048   4.962   0.712  0.0806 -0.2497 -0.0821
 6785TIP3    H120319   4.113   4.893   0.716  0.0445 -0.2469  1.0657
 6785TIP3    H220320   4.044   4.997   0.802 -1.2042  0.0062 -0.2084
 6786TIP3   OH220321   6.813   3.555   3.467 -0.0965 -0.3748  0.1954
 6786TIP3    H120322   6.846   3.499   3.537  2.3657  0.9171  0.1681
 6786TIP3    H220323   6.824   3.503   3.387  2.0927 -0.0018  0.1798
 6787TIP3   OH220324   0.680   2.785   4.040  0.5559  0.1984  0.0297
 6787TIP3    H120325   0.752   2.764   4.100 -1.0381  1.2365  2.4849
 6787TIP3    H220326   0.689   2.879   4.024  1.5836 -0.2405 -2.3652
 6788TIP3   OH220327   2.458   2.463   3.215  0.3558  0.2157  0.2068
 6788TIP3    H120328   2.523   2.432   3.278  0.7712  0.7210  0.0325
 6788TIP3    H220329   2.427   2.383   3.173  0.7802 -0.0441  0.3734
 6789TIP3   OH220330   6.841   4.105   0.248 -0.0586  0.1552 -0.1831
 6789TIP3    H120331   6.827   4.196   0.224 -2.4785 -0.1452 -0.1182
 6789TIP3    H220332   6.921   4.106   0.301  0.1568  2.1720 -0.4939
 6790TIP3   OH220333   5.162   6.756   0.332 -0.1729 -0.5000  0.3573
 6790TIP3    H120334   5.181   6.682   0.390  0.3162  0.8176  1.9537
 6790TIP3    H220335   5.199   6.831   0.377  0.5625  0.5465 -1.8915
 6791TIP3   OH220336   5.489   4.053   4.800 -0.1092  0.5896  0.5077
 6791TIP3    H120337   5.578   4.073   4.826  0.6449 -1.5001 -0.1891
 6791TIP3    H220338   5.469   4.116   4.730  1.2329  0.4273 -0.0540
 6792TIP3   OH220339   5.990   5.503   2.985 -0.3108 -0.2938  0.1827
 6792TIP3    H120340   6.023   5.584   2.947  1.5864 -0.6389  0.9672
 6792TIP3    H220341   5.912   5.529   3.034 -0.6324  0.7653 -0.8632
 6793TIP3   OH220342   4.820   0.668   1.414  0.0419  0.4762 -0.7106
 6793TIP3    H120343   4.851   0.738   1.472 -0.0152 -1.0012  1.2161
 6793TIP3    H220344   4.881   0.596   1.429 -1.1117 -0.6057 -1.0207
 6794TIP3   OH220345   2.261   4.674   0.492 -0.4229  0.3019  0.3491
 6794TIP3    H120346   2.205   4.730   0.438 -1.3628  0.0093  0.9791
 6794TIP3    H220347   2.254   4.588   0.451 -0.2143  0.3266  0.2644
 6795TIP3   OH220348   2.715   6.237   3.215 -0.2963  0.3762  0.3292
 6795TIP3    H120349   2.662   6.157   3.208  2.1571 -1.3670  0.2006
 6795TIP3    H220350   2.700   6.283   3.133 -1.5365 -0.0675  0.2820
 6796TIP3   OH220351   6.698   0.448   1.285 -1.0918  0.3172  0.1775
 6796TIP3    H120352   6.735   0.368   1.249 -2.9594 -0.8023  0.5657
 6796TIP3    H220353   6.761   0.516   1.264 -0.0989 -1.0135 -1.3913
 6797TIP3   OH220354   3.549   3.547   3.814 -0.1040  0.2782  0.0454
 6797TIP3    H120355   3.622   3.491   3.790 -0.0538  1.0649 -1.8192
 6797TIP3    H220356   3.518   3.583   3.730 -2.0187  0.6918  0.8824
 6798TIP3   OH220357   0.243   5.448   3.538 -0.0661  0.1214 -0.2814
 6798TIP3    H120358   0.249   5.393   3.615  1.0346  0.8316  0.1613
 6798TIP3    H220359   0.231   5.537   3.572  0.3042  0.4247 -0.9197
 6799TIP3   OH220360   6.489   2.430   4.554  0.3828 -0.4189 -0.4049
 6799TIP3    H120361   6.475   2.485   4.478  1.3031 -0.6518 -0.7556
 6799TIP3    H220362   6.444   2.475   4.625  1.0152  0.7355 -0.7044
 6800TIP3   OH220363   0.859   4.176   5.737  0.8823 -0.1983 -0.1233
 6800TIP3    H120364   0.842   4.092   5.781  0.6190 -1.1484 -1.9215
 6800TIP3    H220365   0.870   4.152   5.645  1.4237  1.6976 -0.5875
 6801TIP3   OH220366   5.340   6.631   2.278 -0.2639 -0.1722 -0.7244
 6801TIP3    H120367   5.356   6.698   2.345 -1.2875 -2.1819  1.6583
 6801TIP3    H220368   5.427   6.597   2.257 -0.0675 -0.9841  1.2326
 6802TIP3   OH220369   6.549   6.252   4.907  0.1280 -0.4179  0.8901
 6802TIP3    H120370   6.603   6.278   4.833 -2.0804 -1.1904 -1.1242
 6802TIP3    H220371   6.469   6.305   4.898 -0.3336 -0.7551  2.5571
 6803TIP3   OH220372   1.080   6.046   2.912 -0.1536  0.8856  0.4406
 6803TIP3    H120373   1.136   5.984   2.958  0.0601  1.3010  0.7492
 6803TIP3    H220374   1.139   6.091   2.851 -0.4892  0.1332 -0.4738
 6804TIP3   OH220375   6.970   0.971   5.033  0.5182  0.9033  0.2277
 6804TIP3    H120376   6.877   0.971   5.014  0.4603 -0.8702  0.3136
 6804TIP3    H220377   7.010   1.021   4.961 -0.2536 -0.7356 -1.4323
 6805TIP3   OH220378   5.060   5.394   2.951  0.2935 -0.1337 -0.3473
 6805TIP3    H120379   5.008   5.469   2.980  1.5697  0.8363 -0.4771
 6805TIP3    H220380   4.999   5.342   2.897 -1.0964 -0.1235  1.1327
 6806TIP3   OH220381   2.164   2.876   2.717 -0.2371  0.1780 -0.3279
 6806TIP3    H120382   2.138   2.968   2.726 -1.2715 -0.1619  0.2856
 6806TIP3    H220383   2.104   2.828   2.774  1.3388 -0.7195  0.6525
 6807TIP3   OH220384   4.951   4.677   0.175 -0.0931 -0.7884  0.2057
 6807TIP3    H120385   4.935   4.674   0.270 -0.1998 -1.9885  0.1695
 6807TIP3    H220386   5.016   4.608   0.160 -0.7001 -1.1786 -0.7014
 6808TIP3   OH220387   7.039   2.614   1.434 -0.0317  0.0354  0.2103
 6808TIP3    H120388   7.055   2.550   1.364  1.0704 -0.9914  1.3611
 6808TIP3    H220389   7.027   2.697   1.387 -0.1389 -0.7535 -1.2380
 6809TIP3   OH220390   0.525   0.819   3.265 -0.3189 -0.4713 -0.2642
 6809TIP3    H120391   0.485   0.890   3.214  2.1753  0.1186 -1.5621
 6809TIP3    H220392   0.539   0.858   3.352 -0.7273 -0.0292 -0.3893
 6810TIP3   OH220393   6.067   0.261   5.514  0.5329 -0.2193 -0.4020
 6810TIP3    H120394   6.142   0.234   5.568 -0.6162  0.5741  1.6828
 6810TIP3    H220395   6.081   0.216   5.431  1.8874 -2.2832  0.8504
 6811TIP3   OH220396   2.061   1.824   1.757  0.0251  0.2017 -0.5778
 6811TIP3    H120397   2.152   1.845   1.738 -0.4211  1.3244 -1.5920
 6811TIP3    H220398   2.066   1.753   1.822  1.6045 -0.3301 -1.2307
 6812TIP3   OH220399   0.754   0.720   4.161  0.4165 -0.0812  0.2138
 6812TIP3    H120400   0.712   0.786   4.216  2.3524  1.8614 -0.5097
 6812TIP3    H220401   0.756   0.759   4.074  0.4496 -1.6576 -0.5180
 6813TIP3   OH220402   2.176   4.939   1.682  0.0120 -0.1649 -0.1540
 6813TIP3    H120403   2.221   5.019   1.656  1.1321 -0.5465  0.5381
 6813TIP3    H220404   2.216   4.915   1.765 -0.9989 -0.9127  0.1375
 6814TIP3   OH220405   4.667   0.436   1.973 -0.5186  0.5700 -0.2264
 6814TIP3    H120406   4.588   0.393   2.007 -0.1006 -0.9183 -1.0400
 6814TIP3    H220407   4.639   0.478   1.892 -0.3091 -0.7832 -1.0330
 6815TIP3   OH220408   4.661   1.030   1.480  0.6856  0.5246  0.4634
 6815TIP3    H120409   4.746   0.989   1.493  0.0507 -0.7587  0.7039
 6815TIP3    H220410   4.598   0.958   1.488 -0.4342  1.4801  0.4739
 6816TIP3   OH220411   5.075   0.599   5.192  0.7312 -0.1962 -0.3386
 6816TIP3    H120412   4.985   0.629   5.199  0.5208 -0.6816 -0.8998
 6816TIP3    H220413   5.110   0.644   5.115  1.8470  2.1480  1.4082
 6817TIP3   OH220414   6.820   0.981   4.203  0.2328  0.0765 -0.3442
 6817TIP3    H120415   6.733   0.987   4.241  0.6256 -0.7452  0.7070
 6817TIP3    H220416   6.829   1.062   4.152 -1.7158 -0.5180 -1.7482
 6818TIP3   OH220417   4.672   2.232   1.387 -0.0980 -0.1572  0.0510
 6818TIP3    H120418   4.608   2.241   1.458 -0.2849  1.9241 -0.3111
 6818TIP3    H220419   4.757   2.250   1.428  0.3008 -2.5933  0.4601
 6819TIP3   OH220420   4.091   4.215   1.047  0.3107  0.6977  0.0819
 6819TIP3    H120421   4.042   4.166   1.112  0.9753 -2.6250 -1.7109
 6819TIP3    H220422   4.037   4.293   1.030 -1.2538  0.2350  2.4469
 6820TIP3   OH220423   6.198   4.700   2.466  0.5881  0.2367 -0.3271
 6820TIP3    H120424   6.219   4.690   2.559  0.7177 -0.0590 -0.3887
 6820TIP3    H220425   6.210   4.613   2.428 -1.1507 -0.0413 -0.2904
 6821TIP3   OH220426   5.796   3.595   4.440  0.1750  0.2260 -0.5192
 6821TIP3    H120427   5.878   3.623   4.399  1.8680 -1.3530  1.5759
 6821TIP3    H220428   5.759   3.532   4.378  2.1244 -1.3135 -0.2176
 6822TIP3   OH220429   4.698   3.219   5.876  0.8855  0.3665  0.4863
 6822TIP3    H120430   4.603   3.210   5.885  0.5642  1.7581 -1.0491
 6822TIP3    H220431   4.711   3.308   5.843  2.7709  0.3589  1.0840
 6823TIP3   OH220432   2.480   5.700   1.859  0.1101  0.4897  0.4913
 6823TIP3    H120433   2.527   5.691   1.777  2.0177 -0.9849  1.6635
 6823TIP3    H220434   2.388   5.692   1.835  0.6627 -0.9713 -1.3785
 6824TIP3   OH220435   6.434   0.780   4.311  0.1951 -0.3857  0.2370
 6824TIP3    H120436   6.529   0.767   4.306  0.2383  0.3253 -1.4415
 6824TIP3    H220437   6.423   0.858   4.364  0.4821 -0.9430  1.1494
 6825TIP3   OH220438   2.557   2.982   1.173 -0.4964 -0.5200  0.1701
 6825TIP3    H120439   2.596   2.951   1.255  1.8587 -0.9946 -1.0437
 6825TIP3    H220440   2.626   2.972   1.108 -1.4449  2.1486 -1.4254
 6826TIP3   OH220441   6.249   6.366   3.327  0.0057  0.0155 -0.7196
 6826TIP3    H120442   6.286   6.426   3.393  0.3993 -0.5674 -0.4070
 6826TIP3    H220443   6.178   6.417   3.287  0.7151  0.9163 -0.8803
 6827TIP3   OH220444   3.195   0.163   1.675  0.3360 -0.5160  0.0641
 6827TIP3    H120445   3.280   0.172   1.632  1.0065 -0.7112  1.2972
 6827TIP3    H220446   3.133   0.201   1.613  0.9614 -2.6013 -1.9742
 6828TIP3   OH220447   6.526   2.063   5.331  0.5404  0.0169 -0.0591
 6828TIP3    H120448   6.465   2.001   5.290  1.3266  0.2948 -1.7290
 6828TIP3    H220449   6.480   2.093   5.409 -1.0997 -0.4437 -0.7969
 6829TIP3   OH220450   7.031   4.052   1.036 -0.4476  0.4181 -0.4976
 6829TIP3    H120451   7.044   3.962   1.066  0.4979 -0.0104 -2.0560
 6829TIP3    H220452   6.957   4.047   0.976  0.5229  0.3574 -1.7388
 6830TIP3   OH220453   4.169   5.074   4.358 -0.0545  0.0278  0.0199
 6830TIP3    H120454   4.169   5.164   4.327  0.5449 -0.4631 -1.4537
 6830TIP3    H220455   4.170   5.020   4.279 -1.6147 -1.3028  0.8414
 6831TIP3   OH220456   1.541   2.681   3.122 -0.0332  0.3033 -0.7283
 6831TIP3    H120457   1.579   2.593   3.126 -1.1559 -0.1875 -0.0698
 6831TIP3    H220458   1.601   2.736   3.171  0.3908 -0.2137 -0.6579
 6832TIP3   OH220459   0.604   2.821   1.024 -0.2988 -0.1276  0.0488
 6832TIP3    H120460   0.573   2.730   1.027 -0.3516 -0.1313 -0.5536
 6832TIP3    H220461   0.666   2.823   0.951  0.8567 -0.0275  1.0062
 6833TIP3   OH220462   4.250   0.507   4.614  0.0194  0.6522  0.1733
 6833TIP3    H120463   4.189   0.464   4.674  1.5670 -1.2749  0.4600
 6833TIP3    H220464   4.293   0.435   4.568  0.9985  2.0066 -1.1207
 6834TIP3   OH220465   7.060   4.932   5.844  0.0631 -0.9997  0.3452
 6834TIP3    H120466   7.104   5.015   5.859  1.7524 -1.6519 -0.7557
 6834TIP3    H220467   7.020   4.941   5.757  0.9103 -1.5912 -0.1164
 6835TIP3   OH220468   6.872   5.698   4.477  0.0473 -0.0095  0.0060
 6835TIP3    H120469   6.834   5.649   4.550 -1.0320  2.1759  1.0068
 6835TIP3    H220470   6.956   5.729   4.510 -0.2771  0.6666  0.2265
 6836TIP3   OH220471   3.403   5.738   5.481  0.1527  0.1528 -0.3663
 6836TIP3    H120472   3.483   5.691   5.458 -0.4347 -0.9594 -0.1868
 6836TIP3    H220473   3.361   5.684   5.548 -0.4406  1.0409  0.0030
 6837TIP3   OH220474   3.277   0.051   5.661 -0.5538 -0.4313 -0.3160
 6837TIP3    H120475   3.285  -0.044   5.653  0.2768 -0.2767 -1.7658
 6837TIP3    H220476   3.238   0.078   5.578  0.2303  0.5812 -0.3698
 6838TIP3   OH220477   2.742   2.735   1.605  0.6322  0.1380 -0.2433
 6838TIP3    H120478   2.685   2.798   1.649 -1.4328 -0.3348 -2.0956
 6838TIP3    H220479   2.712   2.649   1.635  0.8122 -0.0975 -0.7231
 6839TIP3   OH220480   0.460   3.596   0.240 -0.0904  0.5230 -0.0113
 6839TIP3    H120481   0.524   3.525   0.230 -0.8240 -0.5230  2.0668
 6839TIP3    H220482   0.456   3.638   0.154  2.5590 -0.0690 -0.4966
 6840TIP3   OH220483   0.920   2.261   5.221 -0.4816  0.3458  0.0361
 6840TIP3    H120484   0.933   2.229   5.132  0.0086  0.6611 -0.0066
 6840TIP3    H220485   0.852   2.329   5.212 -0.7017  0.1185 -0.0389
 6841TIP3   OH220486   4.562   6.027   4.821 -0.3154  0.3008  0.3703
 6841TIP3    H120487   4.532   6.062   4.737  1.2386  0.3725 -0.1971
 6841TIP3    H220488   4.646   5.986   4.801  0.4342  0.9403  2.0206
 6842TIP3   OH220489   2.644   4.679   1.877  0.1898 -0.2959  0.4876
 6842TIP3    H120490   2.644   4.590   1.913 -0.1306 -0.3648  0.3195
 6842TIP3    H220491   2.586   4.674   1.801 -1.3122  0.4666  1.5122
 6843TIP3   OH220492   1.589   0.394   5.506  0.2851 -0.2859 -0.2132
 6843TIP3    H120493   1.538   0.314   5.494  0.3062 -0.1656 -1.1757
 6843TIP3    H220494   1.678   0.363   5.523  0.4251 -0.4635 -1.2433
 6844TIP3   OH220495   3.236   2.687   5.054  0.0202  0.0431 -0.4243
 6844TIP3    H120496   3.215   2.683   5.148  0.4530  2.7829 -0.1282
 6844TIP3    H220497   3.157   2.722   5.013  0.1682 -0.2237 -0.9411
 6845TIP3   OH220498   6.824   6.394   1.199 -0.0129  0.0546  0.1641
 6845TIP3    H120499   6.789   6.361   1.281 -0.2749  0.1719  0.1025
 6845TIP3    H220500   6.833   6.489   1.213  2.6620 -0.2753  1.0476
 6846TIP3   OH220501   0.149   1.643   1.397  0.2726  0.7041 -0.5261
 6846TIP3    H120502   0.081   1.679   1.339 -1.2179 -0.5958  0.3185
 6846TIP3    H220503   0.176   1.562   1.355 -1.0898 -0.4426  0.6891
 6847TIP3   OH220504   6.615   4.173   0.968  0.0764 -0.1454 -0.0810
 6847TIP3    H120505   6.561   4.119   1.026 -0.7135 -0.3102 -0.9435
 6847TIP3    H220506   6.680   4.113   0.932  0.7931  0.0269  0.8642
 6848TIP3   OH220507   5.974   3.745   0.855 -0.0143 -0.1670 -0.3293
 6848TIP3    H120508   5.954   3.654   0.881 -0.2472 -0.3867 -1.2496
 6848TIP3    H220509   5.961   3.795   0.936 -0.0071 -0.9295  0.1659
 6849TIP3   OH220510   5.054   1.683   3.154 -0.1878 -0.1783  0.1995
 6849TIP3    H120511   5.105   1.618   3.106 -0.9104  0.1141 -1.0132
 6849TIP3    H220512   4.989   1.632   3.202 -0.3383 -0.3829 -0.2233
 6850TIP3   OH220513   5.052   5.243   3.779 -0.7057 -0.5121  0.3707
 6850TIP3    H120514   4.978   5.249   3.839 -0.5456 -0.5680  0.5768
 6850TIP3    H220515   5.013   5.226   3.693 -0.9717  0.2092  0.3454
 6851TIP3   OH220516   0.560   0.507   4.137  0.2449 -0.1571 -0.2108
 6851TIP3    H120517   0.631   0.568   4.156 -2.4099  3.4119 -0.8203
 6851TIP3    H220518   0.536   0.471   4.223  1.2411  0.4262  0.3230
 6852TIP3   OH220519   5.471   1.254   5.541 -0.4381 -0.4148 -0.1062
 6852TIP3    H120520   5.484   1.318   5.611 -0.0816 -0.2455 -0.3244
 6852TIP3    H220521   5.468   1.307   5.461 -0.4340 -0.6427 -0.2581
 6853TIP3   OH220522   2.575   0.904   0.192  0.2544 -0.3173  0.4144
 6853TIP3    H120523   2.490   0.881   0.229  0.7494  0.2790  1.9971
 6853TIP3    H220524   2.633   0.833   0.218  0.5854  0.0539  0.7134
 6854TIP3   OH220525   4.782   3.174   4.929 -0.8032  0.0621 -0.1336
 6854TIP3    H120526   4.721   3.219   4.987  0.4478 -1.4599  2.5530
 6854TIP3    H220527   4.847   3.240   4.907  0.9673 -0.1414  3.6749
 6855TIP3   OH220528   6.723   4.875   0.377  0.2078  0.1281  0.0895
 6855TIP3    H120529   6.683   4.842   0.458  0.5786  0.8432  0.5742
 6855TIP3    H220530   6.664   4.844   0.308 -1.6480  1.7649  0.8317
 6856TIP3   OH220531   4.979   3.550   0.516 -0.4522  0.3284  0.3339
 6856TIP3    H120532   4.943   3.592   0.438  1.1983  1.9307  0.3537
 6856TIP3    H220533   4.913   3.564   0.584 -1.1163  0.4972 -0.3315
 6857TIP3   OH220534   3.738   0.433   5.653  0.0571  0.2058  0.0001
 6857TIP3    H120535   3.748   0.338   5.646  0.5178  0.1477  1.1470
 6857TIP3    H220536   3.738   0.450   5.747  2.0203  1.5302 -0.1650
 6858TIP3   OH220537   6.867   3.621   3.057  0.0173 -0.5886  1.3315
 6858TIP3    H120538   6.946   3.667   3.084 -0.6424 -0.6225  3.5158
 6858TIP3    H220539   6.798   3.688   3.058  0.0132 -0.4731 -0.9088
 6859TIP3   OH220540   1.335   5.273   4.523  0.5394 -0.2290 -0.3020
 6859TIP3    H120541   1.429   5.265   4.504  0.2876 -1.4501 -1.1580
 6859TIP3    H220542   1.309   5.184   4.549 -0.4942 -0.0468 -0.6849
 6860TIP3   OH220543   1.987   0.369   4.143  0.3786 -0.4771 -0.0383
 6860TIP3    H120544   2.010   0.462   4.135 -0.1648 -0.2623  0.8117
 6860TIP3    H220545   2.072   0.324   4.142  0.6467  0.0205 -0.4404
 6861TIP3   OH220546   6.569   6.238   0.430  0.0805  0.1018 -0.3759
 6861TIP3    H120547   6.526   6.323   0.441 -0.5155 -0.3557  1.1431
 6861TIP3    H220548   6.497   6.175   0.425  0.5162 -0.5173  0.7248
 6862TIP3   OH220549   1.397   6.228   2.208  0.0004  0.1760 -0.1185
 6862TIP3    H120550   1.461   6.177   2.158 -0.2322 -1.1501  0.8797
 6862TIP3    H220551   1.312   6.196   2.178 -0.2194  1.3171 -0.8049
 6863TIP3   OH220552   4.120   0.655   2.539 -0.0796  0.0089  0.4647
 6863TIP3    H120553   4.050   0.591   2.541  0.1263 -0.2281  0.1714
 6863TIP3    H220554   4.150   0.655   2.448 -0.5660  1.0507  0.2863
 6864TIP3   OH220555   4.198   1.736   3.087  0.1560  0.1055 -0.1523
 6864TIP3    H120556   4.184   1.781   3.003 -0.5981 -0.1092 -0.1500
 6864TIP3    H220557   4.251   1.796   3.138 -0.6780  0.9276 -0.2178
 6865TIP3   OH220558   3.924   5.781   0.942 -0.6359  0.1807 -0.1519
 6865TIP3    H120559   3.967   5.699   0.914 -0.3941  0.5682 -0.9731
 6865TIP3    H220560   3.956   5.846   0.879 -0.0082  1.1342  1.1055
 6866TIP3   OH220561   6.602   5.703   0.383 -0.3953 -0.1243 -0.4851
 6866TIP3    H120562   6.529   5.647   0.355 -1.1252  1.1198 -1.1724
 6866TIP3    H220563   6.561   5.770   0.437  0.4998 -0.3294  0.4960
 6867TIP3   OH220564   3.773   6.584   0.928  0.3057 -0.5225  0.3727
 6867TIP3    H120565   3.802   6.533   0.852 -1.6621 -3.1235  1.2128
 6867TIP3    H220566   3.751   6.670   0.892  1.4471 -0.9902 -1.5918
 6868TIP3   OH220567   6.766   1.783   1.877 -0.4024 -0.0654  0.4044
 6868TIP3    H120568   6.801   1.793   1.965 -1.2297 -0.5871  0.7974
 6868TIP3    H220569   6.737   1.871   1.852  1.1524  0.3942  0.0582
 6869TIP3   OH220570   2.960   5.450   5.641 -0.6381 -0.4379  0.4463
 6869TIP3    H120571   2.949   5.359   5.614 -0.6645 -0.0867 -0.7996
 6869TIP3    H220572   3.041   5.478   5.598 -2.0352  0.9029 -1.4960
 6870TIP3   OH220573   6.256   0.116   3.837  0.2357 -0.3666 -0.5188
 6870TIP3    H120574   6.203   0.040   3.860  0.3758 -0.4366 -0.4287
 6870TIP3    H220575   6.197   0.191   3.848  0.2118 -0.4286 -0.2371
 6871TIP3   OH220576   7.047   0.107   4.624  0.0859 -0.0850  0.5284
 6871TIP3    H120577   7.039   0.196   4.661 -0.7225  0.4360 -0.8380
 6871TIP3    H220578   6.969   0.097   4.569  0.0486 -1.7505  0.8467
 6872TIP3   OH220579   3.379   3.983   1.792 -0.5586 -0.2729  0.1160
 6872TIP3    H120580   3.451   3.934   1.833  2.1588  1.5171 -2.1079
 6872TIP3    H220581   3.380   4.067   1.837 -0.9446 -0.0624 -0.2673
 6873TIP3   OH220582   2.032   4.861   2.012 -0.2282 -0.0591 -0.6674
 6873TIP3    H120583   2.001   4.855   1.922 -1.3510  1.0788 -0.3913
 6873TIP3    H220584   2.124   4.833   2.009 -0.2846 -0.1165 -2.1397
 6874TIP3   OH220585   2.775   3.630   0.555 -0.4026  0.5206 -0.5280
 6874TIP3    H120586   2.746   3.685   0.482  0.5362  0.0180 -1.2988
 6874TIP3    H220587   2.853   3.675   0.590  0.3364 -0.2619 -1.1252
 6875TIP3   OH220588   7.118   0.344   4.082  0.1643  0.0449 -0.3825
 6875TIP3    H120589   7.149   0.254   4.077 -1.9918 -0.8184  0.6207
 6875TIP3    H220590   7.030   0.337   4.118 -0.5666  2.4611 -1.5059
 6876TIP3   OH220591   2.918   1.030   2.043  0.2649 -0.1749 -0.0507
 6876TIP3    H120592   2.938   0.937   2.042  0.9494 -0.0887 -2.8342
 6876TIP3    H220593   2.985   1.068   2.099 -0.6604 -1.4091  1.9983
 6877TIP3   OH220594   1.231   4.730   0.995 -0.0316  0.4803 -0.3630
 6877TIP3    H120595   1.197   4.687   1.073  0.2678  0.6264 -0.1530
 6877TIP3    H220596   1.241   4.822   1.020 -1.4482  0.8508 -1.0598
 6878TIP3   OH220597   6.865   5.255   4.650  0.3737 -1.0802  0.3451
 6878TIP3    H120598   6.806   5.330   4.656 -0.1757 -1.5886  1.5312
 6878TIP3    H220599   6.839   5.210   4.569 -0.2621 -0.8116  0.3944
 6879TIP3   OH220600   0.812   0.532   3.472  0.5387 -0.3255 -0.2502
 6879TIP3    H120601   0.889   0.475   3.467  0.5105 -0.3747 -0.1240
 6879TIP3    H220602   0.738   0.471   3.483  0.7320 -0.1995  2.5539
 6880TIP3   OH220603   1.158   2.263   3.920  0.1065  0.1636 -0.2437
 6880TIP3    H120604   1.149   2.172   3.893  0.1702 -0.1955  0.8792
 6880TIP3    H220605   1.155   2.313   3.839 -0.5885 -0.7865 -0.8220
 6881TIP3   OH220606   0.737   3.674   1.383  0.5380 -0.6945  0.0332
 6881TIP3    H120607   0.732   3.758   1.340 -0.7364 -0.3552  0.7806
 6881TIP3    H220608   0.694   3.688   1.468 -0.4431 -2.2684 -0.1508
 6882TIP3   OH220609   1.458   4.970   1.784  0.7000 -0.2120  0.5796
 6882TIP3    H120610   1.432   4.889   1.740 -0.8573  0.7977 -0.4876
 6882TIP3    H220611   1.376   5.003   1.822  1.3198  0.8425  1.0362
 6883TIP3   OH220612   7.035   6.527   4.669 -0.4493 -0.2362 -0.7843
 6883TIP3    H120613   6.998   6.503   4.754 -0.6137  3.9490  0.5134
 6883TIP3    H220614   7.110   6.467   4.658 -1.0059 -1.5430  1.8110
 6884TIP3   OH220615   5.601   4.305   5.096 -0.3583  0.2133 -0.7554
 6884TIP3    H120616   5.637   4.283   5.010  0.6591  0.1217 -0.3187
 6884TIP3    H220617   5.541   4.377   5.079 -0.8576 -0.4075 -1.6713
 6885TIP3   OH220618   3.691   0.383   1.244 -0.8371 -0.1569 -0.1966
 6885TIP3    H120619   3.743   0.315   1.200  0.7756 -0.8843  2.6005
 6885TIP3    H220620   3.611   0.338   1.270 -1.3969  0.0414 -1.4983
 6886TIP3   OH220621   6.414   2.982   0.129 -0.5240 -0.1578  0.7455
 6886TIP3    H120622   6.356   2.978   0.205 -2.0175  0.7608 -0.3000
 6886TIP3    H220623   6.379   3.052   0.075  0.2324 -1.0682 -1.0238
 6887TIP3   OH220624   5.315   3.006   4.970 -0.5601 -0.5721 -0.3252
 6887TIP3    H120625   5.377   3.074   4.945 -1.7456  0.5722 -0.2677
 6887TIP3    H220626   5.332   2.935   4.908  2.3383 -1.2976  1.1152
 6888TIP3   OH220627   2.403   4.361   5.774  0.1287  0.1577  0.0166
 6888TIP3    H120628   2.344   4.286   5.775  1.3346 -0.8300  0.9199
 6888TIP3    H220629   2.367   4.422   5.838 -1.3094  0.7523 -1.3071
 6889TIP3   OH220630   4.842   4.195   5.144  0.2264 -0.0514 -0.2481
 6889TIP3    H120631   4.822   4.120   5.088  1.2111 -0.6363  0.1492
 6889TIP3    H220632   4.897   4.159   5.214  0.5006  0.9886  0.1006
 6890TIP3   OH220633   2.982   6.464   0.166  0.3197  0.3073 -0.0949
 6890TIP3    H120634   3.057   6.504   0.210 -0.7102  2.1017  0.1242
 6890TIP3    H220635   2.926   6.433   0.238  0.2621  0.1148 -0.2232
 6891TIP3   OH220636   1.619   1.354   4.499 -0.1127 -0.2196  0.1200
 6891TIP3    H120637   1.673   1.411   4.444  0.3185 -0.2733  0.4791
 6891TIP3    H220638   1.595   1.281   4.442  0.5043 -0.3782  0.0602
 6892TIP3   OH220639   7.158   1.960   5.744 -0.0532 -0.2071 -0.3785
 6892TIP3    H120640   7.245   1.996   5.724 -0.0979 -0.1728 -0.5159
 6892TIP3    H220641   7.099   2.034   5.732  0.2038  0.6092  2.6671
 6893TIP3   OH220642   5.275   6.747   4.014  0.8190 -0.4642 -0.4064
 6893TIP3    H120643   5.311   6.815   4.072  0.8985 -0.0277 -0.9514
 6893TIP3    H220644   5.337   6.675   4.020 -0.1678 -1.2054  1.5231
 6894TIP3   OH220645   6.861   4.955   3.036 -0.4726 -0.5028  0.4639
 6894TIP3    H120646   6.936   5.011   3.014 -0.1818 -1.3108 -0.6404
 6894TIP3    H220647   6.784   5.006   3.009 -0.1939 -0.7531 -0.8374
 6895TIP3   OH220648   1.347   4.688   3.950 -0.5372  0.5000 -0.5042
 6895TIP3    H120649   1.355   4.675   3.855  0.6986 -1.6288 -0.1703
 6895TIP3    H220650   1.257   4.663   3.970 -1.1358  1.9416 -1.2002
 6896TIP3   OH220651   4.324   6.653   3.911  0.1842  0.2681 -0.0863
 6896TIP3    H120652   4.322   6.665   3.816  0.2559 -0.5639 -0.2009
 6896TIP3    H220653   4.343   6.740   3.946  1.1206  0.3969 -0.8805
 6897TIP3   OH220654   6.607   5.980   4.220 -0.0542  0.4633 -0.5262
 6897TIP3    H120655   6.618   6.075   4.223  1.9801  0.2606  0.1391
 6897TIP3    H220656   6.521   5.967   4.181  0.7619  2.5326 -3.3755
 6898TIP3   OH220657   0.640   0.859   1.522 -0.3894 -0.7871  0.0486
 6898TIP3    H120658   0.667   0.807   1.597  1.9982  1.1785  0.6934
 6898TIP3    H220659   0.718   0.909   1.498 -1.9878  1.0544 -1.6971
 6899TIP3   OH220660   4.302   0.152   1.111  0.1232  0.4935  0.2532
 6899TIP3    H120661   4.385   0.138   1.155 -0.0001  1.1063  0.7084
 6899TIP3    H220662   4.296   0.248   1.101 -0.1488  0.4071 -0.5153
 6900TIP3   OH220663   5.494   4.431   2.391  0.7993 -0.6770  0.9023
 6900TIP3    H120664   5.521   4.516   2.425  1.0494  0.1774 -1.2685
 6900TIP3    H220665   5.417   4.407   2.443  0.4423  1.0837  1.2453
 6901TIP3   OH220666   0.628   1.702   1.829 -0.2630  0.6043  0.0292
 6901TIP3    H120667   0.659   1.622   1.786  1.8637  0.2971  1.8889
 6901TIP3    H220668   0.586   1.671   1.909  1.9851  1.2726  1.5853
 6902TIP3   OH220669   3.708   0.300   3.254  0.3939  0.0757  0.5526
 6902TIP3    H120670   3.616   0.277   3.245  0.2985  0.7382 -0.2368
 6902TIP3    H220671   3.730   0.346   3.173  1.3863  0.0301  0.7813
 6903TIP3   OH220672   6.987   6.791   3.384 -0.1681  0.0636 -0.0510
 6903TIP3    H120673   7.082   6.787   3.377 -0.2271 -0.3441 -0.8265
 6903TIP3    H220674   6.956   6.722   3.324 -0.9252 -0.3925  0.8426
 6904TIP3   OH220675   4.186   5.695   2.302  0.1720 -0.3662  0.3638
 6904TIP3    H120676   4.129   5.618   2.312 -1.4006  0.9643  2.5263
 6904TIP3    H220677   4.214   5.716   2.391  2.1688  0.4401 -0.4156
 6905TIP3   OH220678   6.544   3.735   2.800 -0.0706  0.1985 -0.5655
 6905TIP3    H120679   6.616   3.771   2.748 -1.1308  0.6486 -1.7673
 6905TIP3    H220680   6.467   3.745   2.744 -0.9998 -0.6696  0.5231
 6906TIP3   OH220681   0.890   3.043   4.763 -0.3570 -0.1140  0.1404
 6906TIP3    H120682   0.983   3.066   4.770 -0.3198 -0.2675  0.1565
 6906TIP3    H220683   0.857   3.097   4.691  0.5710 -2.6352 -2.3656
 6907TIP3   OH220684   6.210   4.095   2.750 -0.2136 -0.2476  0.4398
 6907TIP3    H120685   6.281   4.152   2.719 -0.7914  0.9706  1.2764
 6907TIP3    H220686   6.138   4.110   2.688 -0.7483  0.8129  1.2874
 6908TIP3   OH220687   5.518   6.571   5.096 -0.4373 -0.2871 -0.4171
 6908TIP3    H120688   5.549   6.530   5.015 -0.8204 -2.4219  0.4233
 6908TIP3    H220689   5.424   6.552   5.097 -0.4933  0.0104  0.3477
 6909TIP3   OH220690   1.739   3.896   1.025  0.0944  0.3515 -0.3743
 6909TIP3    H120691   1.771   3.955   0.957  2.8011  0.1780  0.6217
 6909TIP3    H220692   1.701   3.954   1.091 -0.1581  0.7306 -0.8501
 6910TIP3   OH220693   1.959   6.767   0.098  0.5508  0.0645  0.1552
 6910TIP3    H120694   2.047   6.756   0.061 -0.6719  1.8934 -3.8674
 6910TIP3    H220695   1.956   6.859   0.125 -0.2915  0.1873 -0.3206
 6911TIP3   OH220696   3.457   5.037   3.516  0.3939 -0.3000  0.5378
 6911TIP3    H120697   3.368   5.057   3.486  0.5272 -0.5597 -0.0576
 6911TIP3    H220698   3.503   5.010   3.437  0.9320 -0.4291  0.8886
 6912TIP3   OH220699   3.716   5.483   3.912 -0.6991  0.3767 -0.0100
 6912TIP3    H120700   3.680   5.567   3.883  1.3513  0.3636 -3.1103
 6912TIP3    H220701   3.773   5.506   3.986 -1.6494  1.3676  0.4490
 6913TIP3   OH220702   4.109   2.289   1.452  0.4630 -0.5705 -0.4903
 6913TIP3    H120703   4.097   2.194   1.459  2.6040 -1.0120 -1.9268
 6913TIP3    H220704   4.200   2.303   1.478  0.1438  1.1150 -0.2226
 6914TIP3   OH220705   1.076   3.589   0.459  0.2615  0.4864  0.1544
 6914TIP3    H120706   1.090   3.682   0.476 -1.9336  0.8666  0.1568
 6914TIP3    H220707   0.996   3.586   0.406  1.8993 -1.2407 -2.4311
 6915TIP3   OH220708   3.715   5.050   3.942 -0.2714  0.0606  0.3797
 6915TIP3    H120709   3.744   5.106   4.014 -1.0790 -0.2239  0.9394
 6915TIP3    H220710   3.784   4.984   3.934 -0.6301 -0.4803  1.5469
 6916TIP3   OH220711   2.993   0.708   0.844  0.2991  0.4675  0.0010
 6916TIP3    H120712   3.018   0.623   0.807  1.3538  0.3439  0.9440
 6916TIP3    H220713   3.018   0.702   0.936 -0.7644  1.3636  0.3682
 6917TIP3   OH220714   3.592   3.253   0.664  0.4836 -0.1540 -0.3563
 6917TIP3    H120715   3.524   3.311   0.630  1.4959  0.9697 -0.5010
 6917TIP3    H220716   3.628   3.299   0.739  0.3186 -1.2674  0.4407
 6918TIP3   OH220717   2.480   4.010   3.807  0.9106  0.5176 -0.0779
 6918TIP3    H120718   2.545   4.032   3.874  0.9595 -2.9513  1.1991
 6918TIP3    H220719   2.514   3.932   3.764 -1.9419 -0.9466  0.0485
 6919TIP3   OH220720   4.777   4.303   1.048  0.1414 -0.2123 -0.4999
 6919TIP3    H120721   4.741   4.385   1.082  1.0165  0.1070 -0.3006
 6919TIP3    H220722   4.723   4.235   1.087  0.2287  0.2151  0.4142
 6920TIP3   OH220723   0.113   6.534   5.790  0.4122 -0.1234  0.0518
 6920TIP3    H120724   0.099   6.594   5.716 -0.1260 -0.3120 -0.0059
 6920TIP3    H220725   0.208   6.530   5.800  0.4561  0.8498  0.1454
 6921TIP3   OH220726   1.206   0.815   3.033 -0.9479 -0.4297  0.6468
 6921TIP3    H120727   1.186   0.826   2.940 -1.2304 -0.3460  0.7148
 6921TIP3    H220728   1.151   0.881   3.077 -0.1215  0.1714  0.8049
 6922TIP3   OH220729   2.016   2.557   0.206  0.0613  0.0110 -0.4965
 6922TIP3    H120730   1.999   2.595   0.120 -0.2026  0.4780 -0.2415
 6922TIP3    H220731   1.944   2.494   0.219 -0.2902  0.4487 -0.3201
 6923TIP3   OH220732   0.645   2.677   1.580  0.0570 -0.5696 -0.2686
 6923TIP3    H120733   0.621   2.589   1.549 -1.9832 -0.0867 -0.1920
 6923TIP3    H220734   0.692   2.716   1.506  1.7084 -1.9687 -0.0207
 6924TIP3   OH220735   0.595   0.399   3.570  0.1896 -0.0657 -0.2741
 6924TIP3    H120736   0.548   0.462   3.625 -0.7273  0.4990 -1.6436
 6924TIP3    H220737   0.628   0.333   3.632 -1.9845 -0.2068  0.8394
 6925TIP3   OH220738   1.521   6.397   1.599 -0.2726  0.0091 -0.5801
 6925TIP3    H120739   1.610   6.371   1.575 -0.4273  0.4609 -1.7429
 6925TIP3    H220740   1.532   6.466   1.664  0.1880 -0.8497  0.2699
 6926TIP3   OH220741   2.164   1.539   0.955 -0.2685  0.2172  0.4798
 6926TIP3    H120742   2.084   1.497   0.925  0.5547  0.0310 -1.6385
 6926TIP3    H220743   2.135   1.622   0.994 -1.4805  0.2102 -0.3588
 6927TIP3   OH220744   3.289   3.836   5.726  0.0671  0.0169 -0.0669
 6927TIP3    H120745   3.352   3.906   5.710 -1.2633  1.7715  1.8096
 6927TIP3    H220746   3.301   3.813   5.818 -2.0194  0.4972  0.3894
 6928TIP3   OH220747   2.081   4.018   1.055 -0.3082 -0.5964 -0.3236
 6928TIP3    H120748   2.159   4.055   1.096 -0.5721  0.2028 -0.5260
 6928TIP3    H220749   2.010   4.076   1.081 -1.2178 -2.4314  1.5150
 6929TIP3   OH220750   3.964   3.022   1.911 -0.1725 -0.3963 -0.4817
 6929TIP3    H120751   3.889   2.987   1.863 -0.7659 -0.4416  0.4604
 6929TIP3    H220752   3.970   2.968   1.990  0.1376  0.3391  0.0122
 6930TIP3   OH220753   4.474   3.358   4.921  0.1319  0.5180  0.5006
 6930TIP3    H120754   4.526   3.279   4.905  1.5182  1.1358  1.6647
 6930TIP3    H220755   4.407   3.358   4.853  1.0338 -0.8732 -0.4262
 6931TIP3   OH220756   1.715   1.277   4.045 -0.2392  0.5394  0.1744
 6931TIP3    H120757   1.761   1.242   4.121 -0.1716  1.2615  0.4695
 6931TIP3    H220758   1.706   1.202   3.986  2.4083  0.6174 -0.4376
 6932TIP3   OH220759   0.535   2.681   3.854 -0.3063  0.3179  0.6291
 6932TIP3    H120760   0.606   2.697   3.916 -0.2249  1.3603  0.2841
 6932TIP3    H220761   0.477   2.757   3.863  1.3081  2.1812 -2.7475
 6933TIP3   OH220762   5.024   5.882   2.793 -0.2308 -0.3868  0.1092
 6933TIP3    H120763   5.027   5.808   2.732 -0.3763 -0.2634 -0.0511
 6933TIP3    H220764   5.027   5.959   2.736  0.2860 -0.2671  0.2944
 6934TIP3   OH220765   5.252   6.495   3.219 -0.1846  0.6740 -0.1430
 6934TIP3    H120766   5.199   6.416   3.227 -2.1742  2.0939  1.2699
 6934TIP3    H220767   5.314   6.490   3.292 -1.4674  1.2293  1.0172
 6935TIP3   OH220768   2.957   0.929   0.339 -0.7661  0.4286  0.2540
 6935TIP3    H120769   2.930   0.955   0.251 -0.2419  0.6677  0.1589
 6935TIP3    H220770   2.978   1.012   0.383  1.0433  0.2033 -0.0895
 6936TIP3   OH220771   3.740   6.616   0.507 -0.2913 -0.7497  0.5023
 6936TIP3    H120772   3.695   6.646   0.586 -2.3229 -0.1849 -0.8051
 6936TIP3    H220773   3.670   6.586   0.449  1.1587 -1.3168 -1.0257
 6937TIP3   OH220774   3.813   6.682   3.093 -1.1507 -0.2165 -0.7134
 6937TIP3    H120775   3.807   6.718   3.181 -0.4142 -0.3561 -0.6023
 6937TIP3    H220776   3.723   6.686   3.059 -1.5480 -0.6897  0.2489
 6938TIP3   OH220777   1.089   0.112   4.839 -0.4520 -0.2280  0.1334
 6938TIP3    H120778   1.026   0.184   4.840  0.4186  0.5736 -0.1752
 6938TIP3    H220779   1.173   0.155   4.818 -0.1753 -1.5366 -1.7057
 6939TIP3   OH220780   2.367   6.260   3.258  0.2307  0.1356  0.1318
 6939TIP3    H120781   2.336   6.223   3.341 -0.0475 -0.1969 -0.1144
 6939TIP3    H220782   2.414   6.339   3.283  1.9181 -1.0283  0.7945
 6940TIP3   OH220783   0.019   5.975   3.700 -0.4872 -0.2081 -0.0022
 6940TIP3    H120784   0.075   6.015   3.767  0.8433 -1.5684 -0.2624
 6940TIP3    H220785  -0.038   5.916   3.749 -1.1531  0.5496  0.1655
 6941TIP3   OH220786   0.931   5.492   4.461 -0.1324  0.3831  1.1452
 6941TIP3    H120787   1.024   5.511   4.464 -0.3861  1.5723  3.1071
 6941TIP3    H220788   0.900   5.535   4.382  0.6903  1.5236  1.4182
 6942TIP3   OH220789   1.640   0.007   3.602  0.2183  0.6242  0.1145
 6942TIP3    H120790   1.701   0.072   3.567  0.2568  0.9125  0.7042
 6942TIP3    H220791   1.576   0.058   3.652  1.3193  0.1087  2.1775
 6943TIP3   OH220792   4.681   0.495   3.732 -0.2515 -0.1547  0.2337
 6943TIP3    H120793   4.725   0.427   3.681 -0.5432 -1.2043  1.3293
 6943TIP3    H220794   4.610   0.525   3.676  0.0675 -0.5435 -0.3848
 6944TIP3   OH220795   1.282   2.503   0.660 -0.1716  0.1981  0.0465
 6944TIP3    H120796   1.305   2.417   0.625 -1.1119 -0.0218 -0.0734
 6944TIP3    H220797   1.365   2.547   0.675  0.3606 -1.0800  0.9779
 6945TIP3   OH220798   3.076   1.291   1.080  0.7104 -0.3981  0.0383
 6945TIP3    H120799   3.003   1.244   1.119  0.1482  0.0348 -0.4667
 6945TIP3    H220800   3.038   1.373   1.048  1.3571 -0.2803 -0.4625
 6946TIP3   OH220801   3.380   0.694   5.029  0.9643  0.2485 -0.2993
 6946TIP3    H120802   3.474   0.694   5.011  0.4831  1.2515 -3.3054
 6946TIP3    H220803   3.344   0.759   4.969 -1.4435  1.5106  2.2924
 6947TIP3   OH220804   6.863   1.952   5.132 -0.5222  0.5614 -0.1012
 6947TIP3    H120805   6.929   1.884   5.145 -0.5286  0.4639 -0.5736
 6947TIP3    H220806   6.905   2.016   5.074  0.2282  1.9912  1.8765
 6948TIP3   OH220807   4.232   0.297   1.508  0.1345 -0.4100 -0.0396
 6948TIP3    H120808   4.190   0.218   1.474 -0.9266  0.2490 -0.2989
 6948TIP3    H220809   4.175   0.324   1.580  0.4171  0.1977 -0.0449
 6949TIP3   OH220810   4.038   1.760   2.426 -0.1232  0.2268 -0.4023
 6949TIP3    H120811   3.969   1.694   2.415 -0.9525  0.7354  1.4276
 6949TIP3    H220812   4.053   1.794   2.337 -2.5482  0.4322 -0.7932
 6950TIP3   OH220813   6.871   2.671   4.763 -0.3607  0.1381  0.2020
 6950TIP3    H120814   6.910   2.719   4.836  1.5575 -1.4156  0.2804
 6950TIP3    H220815   6.913   2.708   4.685 -0.1195 -0.2729  0.1340
 6951TIP3   OH220816   0.239   5.131   5.839 -0.0478  0.2980 -0.0749
 6951TIP3    H120817   0.316   5.149   5.787  0.0563 -0.4109 -0.1717
 6951TIP3    H220818   0.171   5.107   5.776 -0.0842  0.0100  0.0693
 6952TIP3   OH220819   6.206   6.603   5.101  0.0918 -0.3112 -0.2206
 6952TIP3    H120820   6.293   6.610   5.140  1.2359 -2.1604 -2.2003
 6952TIP3    H220821   6.151   6.571   5.172  0.5492  2.4690  1.5467
 6953TIP3   OH220822   0.968   1.309   3.505  0.5022  0.3759  0.6086
 6953TIP3    H120823   0.880   1.299   3.541  0.7056 -0.3003  0.9241
 6953TIP3    H220824   0.953   1.330   3.412  0.0097 -0.9106  0.3711
 6954TIP3   OH220825   2.457   5.124   2.019 -0.1868  0.3002 -0.0085
 6954TIP3    H120826   2.546   5.155   2.041 -0.0202  1.5139 -2.1690
 6954TIP3    H220827   2.423   5.091   2.102  1.1604  2.6450  1.6152
 6955TIP3   OH220828   6.787   4.614   3.616 -0.1288 -0.1241  0.3345
 6955TIP3    H120829   6.724   4.599   3.686 -0.5192  1.1574  0.2952
 6955TIP3    H220830   6.813   4.706   3.627 -0.1415  0.0808 -1.1484
 6956TIP3   OH220831   4.161   2.572   4.046 -0.3402  0.5191 -0.2127
 6956TIP3    H120832   4.189   2.632   3.976  0.3991  0.9369  0.4266
 6956TIP3    H220833   4.090   2.522   4.007 -0.1515  0.9665 -1.1663
 6957TIP3   OH220834   1.757   3.617   5.646 -0.0714 -0.1736  0.0916
 6957TIP3    H120835   1.840   3.572   5.659  0.1308  0.0959 -0.2257
 6957TIP3    H220836   1.751   3.678   5.719 -0.3305 -0.6834  0.5036
 6958TIP3   OH220837   4.415   0.281   3.053  0.7153  0.0072  0.0623
 6958TIP3    H120838   4.494   0.234   3.026  0.4844 -1.0097  1.0592
 6958TIP3    H220839   4.403   0.350   2.987  1.3889 -0.9893 -1.1305
 6959TIP3   OH220840   2.880   2.654   3.893  0.2615 -0.4442 -0.1795
 6959TIP3    H120841   2.922   2.709   3.959 -0.2131 -0.7323  0.3713
 6959TIP3    H220842   2.934   2.576   3.888  0.2452 -0.4613 -0.0703
 6960TIP3   OH220843   6.920   4.044   3.584 -0.3693  0.1865  0.0099
 6960TIP3    H120844   6.902   4.136   3.562 -3.2832 -0.6994 -2.0281
 6960TIP3    H220845   6.880   4.032   3.670  0.5496  0.9273  0.5568
 6961TIP3   OH220846   5.717   1.374   3.868  0.4805  0.4127  0.1420
 6961TIP3    H120847   5.668   1.436   3.922 -0.2001 -1.3929  1.6991
 6961TIP3    H220848   5.658   1.299   3.859  1.9390 -0.7297 -0.1747
 6962TIP3   OH220849   3.528   4.309   3.609 -0.1971  0.0420  0.0367
 6962TIP3    H120850   3.603   4.312   3.668 -1.2903 -0.2691  1.4945
 6962TIP3    H220851   3.482   4.392   3.624 -0.5828 -0.1197 -0.2336
 6963TIP3   OH220852   0.330   4.862   0.105 -0.5139  0.0156  0.2616
 6963TIP3    H120853   0.258   4.799   0.096 -1.1811  0.6779  0.7973
 6963TIP3    H220854   0.291   4.936   0.152 -0.3561  1.8042 -2.2279
 6964TIP3   OH220855   7.020   0.939   3.248  0.2524 -0.5131  0.3857
 6964TIP3    H120856   6.989   1.028   3.263 -1.1124 -0.6882 -1.1463
 6964TIP3    H220857   6.974   0.886   3.313 -0.9213 -0.4341 -0.3555
 6965TIP3   OH220858   0.515   1.662   0.480  0.1783  0.0538 -0.0502
 6965TIP3    H120859   0.588   1.724   0.471  0.0255  0.8960  3.2212
 6965TIP3    H220860   0.460   1.700   0.549 -3.8395 -0.1886 -2.8199
 6966TIP3   OH220861   2.519   6.488   5.008  0.4517 -0.0226 -0.1929
 6966TIP3    H120862   2.605   6.470   4.970 -0.4985 -1.0255 -1.9805
 6966TIP3    H220863   2.476   6.402   5.012 -0.3295  0.4064  1.0620
 6967TIP3   OH220864   3.601   4.700   3.343  0.2064  0.2891  0.4860
 6967TIP3    H120865   3.586   4.753   3.421  0.2106  0.2223  0.5329
 6967TIP3    H220866   3.685   4.657   3.359  0.2650  0.3685  0.3913
 6968TIP3   OH220867   3.729   6.340   1.350  0.2052 -0.2346  0.1326
 6968TIP3    H120868   3.776   6.391   1.284  0.7013 -0.3891  0.3645
 6968TIP3    H220869   3.672   6.281   1.299  0.0176  0.1798 -0.1413
 6969TIP3   OH220870   2.327   2.531   4.813  0.1476 -0.4004  0.6847
 6969TIP3    H120871   2.350   2.487   4.731  2.0249 -1.1529  1.5667
 6969TIP3    H220872   2.384   2.608   4.815 -2.0577  1.3719 -0.1264
 6970TIP3   OH220873   0.761   3.879   2.016  0.3214 -0.1975  0.2441
 6970TIP3    H120874   0.690   3.945   2.017 -0.6997 -1.2625  1.2319
 6970TIP3    H220875   0.723   3.804   1.970  1.3991 -0.2144 -0.6609
 6971TIP3   OH220876   2.871   6.087   3.026 -0.2549 -0.1729  0.1632
 6971TIP3    H120877   2.872   5.996   2.997 -2.9857 -0.4141  0.5723
 6971TIP3    H220878   2.844   6.083   3.118 -0.5802  1.0212  0.1370
 6972TIP3   OH220879   6.733   5.721   4.235  0.2551 -0.6434  0.0987
 6972TIP3    H120880   6.666   5.787   4.255 -2.2340 -2.7536 -0.7364
 6972TIP3    H220881   6.762   5.689   4.320  0.2404  0.3236  0.4770
 6973TIP3   OH220882   1.621   0.122   2.235 -0.3844  0.2816 -0.2670
 6973TIP3    H120883   1.577   0.065   2.297  3.4989 -1.9043  0.8513
 6973TIP3    H220884   1.622   0.208   2.278  1.5670 -1.0136  2.5716
 6974TIP3   OH220885   2.724   3.151   5.245  0.2874 -0.0108 -0.0712
 6974TIP3    H120886   2.741   3.246   5.242  0.6368  0.0323  1.8839
 6974TIP3    H220887   2.733   3.128   5.337 -1.0026 -1.7496 -0.3229
 6975TIP3   OH220888   0.109   3.455   1.328  0.1456 -0.0523  0.2409
 6975TIP3    H120889   0.196   3.470   1.365  0.6122  0.0427 -0.8562
 6975TIP3    H220890   0.057   3.530   1.357  1.3782  1.7342 -1.8803
 6976TIP3   OH220891   1.032   2.741   2.371  0.5449  0.5123  0.2246
 6976TIP3    H120892   1.057   2.782   2.453  0.7996 -2.6440  1.8929
 6976TIP3    H220893   1.080   2.658   2.370 -1.5306 -0.7860 -1.7961
 6977TIP3   OH220894   0.651   1.054   0.754 -0.4539  0.4168 -0.0283
 6977TIP3    H120895   0.697   1.087   0.832 -2.1131  1.1991  0.6763
 6977TIP3    H220896   0.700   1.090   0.680  0.8155  0.1417  0.6497
 6978TIP3   OH220897   7.077   2.846   0.493  0.0335 -0.4282  0.3356
 6978TIP3    H120898   6.987   2.825   0.470 -0.4307  0.5605  1.2017
 6978TIP3    H220899   7.090   2.807   0.579  0.1590  0.1529  0.5836
 6979TIP3   OH220900   4.387   1.051   0.839  0.5143 -0.1513 -0.2825
 6979TIP3    H120901   4.307   1.078   0.793  1.0375 -0.3158 -1.3173
 6979TIP3    H220902   4.357   0.985   0.901 -0.2122  0.0653 -0.3864
 6980TIP3   OH220903   0.931   1.400   3.244 -0.1833 -0.0230 -0.7161
 6980TIP3    H120904   0.903   1.316   3.209  1.1827 -0.1333 -1.6299
 6980TIP3    H220905   0.985   1.438   3.175 -1.4815  2.0305 -0.6955
 6981TIP3   OH220906   0.435   3.489   2.966  0.6051 -0.1064 -0.0643
 6981TIP3    H120907   0.488   3.520   2.893 -0.6321  0.7953 -0.6065
 6981TIP3    H220908   0.494   3.494   3.041  1.6924 -0.4114 -0.8683
 6982TIP3   OH220909   7.157   4.585   2.609 -0.3889  0.3798  0.2409
 6982TIP3    H120910   7.146   4.657   2.671  1.6932 -0.5108  1.7613
 6982TIP3    H220911   7.232   4.611   2.555  0.1383 -0.4453  0.5525
 6983TIP3   OH220912   7.014   1.612   3.664  0.4912 -0.0625  0.0168
 6983TIP3    H120913   6.921   1.635   3.667  0.5243  0.3153 -1.2281
 6983TIP3    H220914   7.029   1.583   3.574  1.6606  0.2214  0.0980
 6984TIP3   OH220915   6.328   6.377   2.596  0.7661 -0.2609  0.3517
 6984TIP3    H120916   6.384   6.394   2.672  2.1467  2.2731 -1.1150
 6984TIP3    H220917   6.377   6.411   2.522 -1.5487 -0.5097 -1.4004
 6985TIP3   OH220918   5.294   1.246   5.040 -1.0423  0.3284 -0.1834
 6985TIP3    H120919   5.314   1.163   5.084 -2.2475  0.4030  0.5527
 6985TIP3    H220920   5.376   1.296   5.045 -0.8830 -0.0284  1.2081
 6986TIP3   OH220921   1.744   1.562   3.823  0.5115 -0.1936 -0.2411
 6986TIP3    H120922   1.674   1.627   3.817 -0.3530 -1.1141 -0.3424
 6986TIP3    H220923   1.728   1.502   3.749  2.3998  0.5212 -1.2976
 6987TIP3   OH220924   1.798   4.896   4.843  0.1543  0.4126  0.2627
 6987TIP3    H120925   1.703   4.903   4.854  0.2343  1.0102  0.5856
 6987TIP3    H220926   1.834   4.963   4.901  0.8279 -0.6624  1.1287
 6988TIP3   OH220927   4.652   1.611   3.074 -0.7199  0.6910  0.5017
 6988TIP3    H120928   4.593   1.686   3.079 -1.9262 -0.2093 -0.0699
 6988TIP3    H220929   4.710   1.631   3.000  0.3139  1.9807  1.6023
 6989TIP3   OH220930   3.122   3.655   4.179  0.1710 -0.4258 -0.4545
 6989TIP3    H120931   3.038   3.702   4.181  1.5986  2.3400 -0.0119
 6989TIP3    H220932   3.113   3.587   4.246 -1.8503 -0.5227 -0.7581
 6990TIP3   OH220933   1.024   1.056   1.024  0.1657 -0.0446  0.5139
 6990TIP3    H120934   1.072   1.113   0.964  0.2471  0.5160  1.1017
 6990TIP3    H220935   1.079   1.051   1.102 -0.7029  0.6026  1.1917
 6991TIP3   OH220936   0.895   4.198   5.461 -0.2418  0.9957  0.2902
 6991TIP3    H120937   0.834   4.245   5.405 -0.7324  0.1592  0.1094
 6991TIP3    H220938   0.977   4.246   5.452 -0.6697  1.6795 -0.0627
 6992TIP3   OH220939   6.296   4.761   0.375  0.1633  0.3666 -0.2164
 6992TIP3    H120940   6.376   4.802   0.344  0.9162 -1.0195 -0.1627
 6992TIP3    H220941   6.228   4.827   0.360  1.2568  1.4635 -0.4910
 6993TIP3   OH220942   3.492   6.445   0.955  0.4799 -0.4577 -0.2807
 6993TIP3    H120943   3.554   6.517   0.957  0.3627 -0.2657 -2.2143
 6993TIP3    H220944   3.483   6.422   0.863 -2.0163 -0.7502 -0.0501
 6994TIP3   OH220945   4.879   0.218   1.729 -0.4001 -0.1660 -0.1023
 6994TIP3    H120946   4.906   0.290   1.786  0.6235 -0.4154 -0.2495
 6994TIP3    H220947   4.856   0.147   1.788 -0.9679  0.1261  0.0327
 6995TIP3   OH220948   7.031   4.730   3.051  0.1509  0.1422 -0.2441
 6995TIP3    H120949   7.096   4.793   3.082  0.2482  0.4645 -1.0676
 6995TIP3    H220950   6.950   4.781   3.046  0.0385 -0.0217 -0.0939
 6996TIP3   OH220951   3.033   3.639   3.093 -0.0153 -0.1950  0.0959
 6996TIP3    H120952   3.057   3.692   3.017  0.4592 -0.7136 -0.1204
 6996TIP3    H220953   2.943   3.612   3.076  0.0432 -0.1945 -0.2093
 6997TIP3   OH220954   1.088   6.458   0.033 -0.3785  0.0558 -0.9847
 6997TIP3    H120955   1.144   6.390   0.071  0.5978  0.0459 -2.3426
 6997TIP3    H220956   1.011   6.411   0.001 -0.5757 -0.1218 -0.2841
 6998TIP3   OH220957   2.468   1.965   3.101  0.1263 -0.2905  0.0076
 6998TIP3    H120958   2.493   2.012   3.022 -0.8393 -0.0800 -0.1799
 6998TIP3    H220959   2.483   1.873   3.080  1.8614 -0.1149  0.3188
 6999TIP3   OH220960   2.337   1.283   4.196  0.4119  0.5479  0.5821
 6999TIP3    H120961   2.389   1.203   4.193  0.2261  0.4421  0.0375
 6999TIP3    H220962   2.357   1.322   4.281 -0.5985 -0.7949  1.4619
 7000TIP3   OH220963   2.594   4.227   2.933  0.5148 -0.5100 -0.8910
 7000TIP3    H120964   2.680   4.231   2.893  1.0020 -0.5637  0.1314
 7000TIP3    H220965   2.610   4.200   3.023 -0.6501 -1.4871 -0.9549
 7001TIP3   OH220966   2.358   3.927   2.947 -0.4657 -0.0245  0.4584
 7001TIP3    H120967   2.407   3.845   2.945  0.9277  0.7863  0.4357
 7001TIP3    H220968   2.387   3.974   2.869 -1.2627  0.4935  0.4604
 7002TIP3   OH220969   1.919   3.369   5.331 -0.0185 -0.1217  0.2061
 7002TIP3    H120970   1.987   3.317   5.374  1.7961  1.8393 -0.1149
 7002TIP3    H220971   1.837   3.324   5.351  1.0239 -0.8648  3.2846
 7003TIP3   OH220972   4.888   4.962   5.601  0.1357 -0.5026  0.2158
 7003TIP3    H120973   4.833   4.990   5.528 -0.5839  0.8133  1.2259
 7003TIP3    H220974   4.894   4.866   5.591  1.2839 -0.2451 -2.3775
 7004TIP3   OH220975   1.700   3.735   2.255  0.1743  0.2672 -0.4460
 7004TIP3    H120976   1.647   3.705   2.181  0.0282  0.1449 -0.2910
 7004TIP3    H220977   1.650   3.709   2.332  2.0141 -2.8696 -0.1702
 7005TIP3   OH220978   0.517   5.212   5.839 -0.1438  0.4361 -0.2382
 7005TIP3    H120979   0.537   5.297   5.878  1.2260  0.4570 -0.9278
 7005TIP3    H220980   0.598   5.161   5.850 -1.1523 -1.0356  0.7826
 7006TIP3   OH220981   4.261   5.075   4.048 -0.7720 -0.0056  0.4989
 7006TIP3    H120982   4.167   5.068   4.066 -1.2615 -0.1082 -1.7846
 7006TIP3    H220983   4.277   5.010   3.981  0.9151  0.1674  0.6959
 7007TIP3   OH220984   0.436   1.924   4.170 -0.0822  0.1199 -0.3030
 7007TIP3    H120985   0.351   1.925   4.125 -1.2468  0.0591  1.7804
 7007TIP3    H220986   0.443   2.011   4.210  0.1850 -0.3326  0.6704
 7008TIP3   OH220987   6.023   1.767   4.127 -0.3909  0.8063 -0.3835
 7008TIP3    H120988   6.051   1.787   4.037 -0.0453  0.2896 -0.3926
 7008TIP3    H220989   6.044   1.847   4.176  2.1972  0.0740 -0.1450
 7009TIP3   OH220990   4.266   1.577   4.833  1.0700 -0.1740  0.1148
 7009TIP3    H120991   4.177   1.568   4.867  0.8635 -1.5626 -0.7236
 7009TIP3    H220992   4.321   1.577   4.911  0.2738  3.0105  0.8514
 7010TIP3   OH220993   1.627   6.287   0.833  0.3911  0.0905  0.1236
 7010TIP3    H120994   1.632   6.240   0.750  1.5456  1.9649 -0.9345
 7010TIP3    H220995   1.704   6.344   0.833  1.2770 -0.9385  3.1976
 7011TIP3   OH220996   4.862   3.435   3.267 -0.2482 -0.1752  0.2903
 7011TIP3    H120997   4.932   3.422   3.203  0.2713  4.0845 -0.2895
 7011TIP3    H220998   4.782   3.436   3.214 -0.2061 -0.0535  0.2293
 7012TIP3   OH220999   3.981   1.598   4.881 -0.1692 -0.4481 -0.0103
 7012TIP3    H121000   3.954   1.571   4.969 -1.1765  1.0591  0.1756
 7012TIP3    H221001   3.970   1.693   4.880  2.6781 -0.0212 -0.8107
 7013TIP3   OH221002   4.390   3.046   2.688  0.0987  0.2663 -0.6640
 7013TIP3    H121003   4.469   3.087   2.724 -1.1514  0.4324  2.0478
 7013TIP3    H221004   4.349   3.115   2.635 -0.2100  1.4569  1.0717
 7014TIP3   OH221005   2.812   5.774   1.040  0.2301  0.0677 -0.0306
 7014TIP3    H121006   2.780   5.808   1.123 -0.7954  1.2286 -0.8527
 7014TIP3    H221007   2.908   5.776   1.048  0.1460  0.2064  1.0782
 7015TIP3   OH221008   1.888   1.175   1.671 -0.1394 -0.4829 -0.2135
 7015TIP3    H121009   1.877   1.172   1.576 -2.1079 -1.3209  0.0095
 7015TIP3    H221010   1.846   1.096   1.703 -0.4567  0.3170  1.4571
 7016TIP3   OH221011   1.892   4.301   0.089 -0.1145  0.3207  0.2730
 7016TIP3    H121012   1.812   4.286   0.140 -0.5679  2.0179  0.1265
 7016TIP3    H221013   1.916   4.392   0.108  1.1277  0.2042 -0.6011
 7017TIP3   OH221014   2.331   1.881   2.410  0.2407  0.5154 -0.3635
 7017TIP3    H121015   2.298   1.916   2.493  0.7962  1.0168 -0.3474
 7017TIP3    H221016   2.424   1.865   2.426 -0.1841 -2.0437 -0.0150
 7018TIP3   OH221017   2.662   0.122   2.846  0.3455 -0.5840 -0.2968
 7018TIP3    H121018   2.752   0.131   2.875  1.0487 -0.7208 -2.2807
 7018TIP3    H221019   2.613   0.098   2.925  1.6069  1.7006  1.2927
 7019TIP3   OH221020   1.476   5.491   2.676  0.7462  0.2424 -0.0549
 7019TIP3    H121021   1.522   5.573   2.696 -1.3239  1.2641  0.8398
 7019TIP3    H221022   1.524   5.424   2.724  0.4066  1.5147  2.2067
 7020TIP3   OH221023   6.693   4.361   2.587 -0.0025 -0.7052  0.4954
 7020TIP3    H121024   6.651   4.299   2.645 -1.5472 -0.2448 -0.0870
 7020TIP3    H221025   6.623   4.421   2.561  1.0319  0.1357 -0.4499
 7021TIP3   OH221026   7.072   6.210   2.601 -0.6238 -0.2076 -0.6193
 7021TIP3    H121027   6.980   6.217   2.578 -0.8334 -1.3396 -0.1719
 7021TIP3    H221028   7.076   6.234   2.693 -0.1256  1.9689 -1.1366
 7022TIP3   OH221029   4.298   5.783   4.045 -0.3874  0.4638  0.0916
 7022TIP3    H121030   4.212   5.746   4.030 -0.1398 -0.8730  1.7113
 7022TIP3    H221031   4.352   5.709   4.074  1.3086  1.2657 -0.8136
 7023TIP3   OH221032   3.854   4.934   1.854  0.1902 -0.3109 -0.0161
 7023TIP3    H121033   3.840   4.949   1.948  1.2803 -1.3193  0.3330
 7023TIP3    H221034   3.948   4.918   1.846  0.0310 -0.7552 -1.2018
 7024TIP3   OH221035   2.590   5.670   3.796 -0.2199 -0.1390 -0.4992
 7024TIP3    H121036   2.568   5.731   3.867  1.4405 -0.1336  0.0733
 7024TIP3    H221037   2.526   5.688   3.727 -0.4109  1.5347  0.0713
 7025TIP3   OH221038   2.137   1.711   3.004 -0.3572  0.1773 -0.5253
 7025TIP3    H121039   2.055   1.662   2.998 -0.2396  0.1024 -2.0310
 7025TIP3    H221040   2.118   1.794   2.960 -0.6652  1.7108  2.2864
 7026TIP3   OH221041   4.821   3.306   0.668 -0.2862  0.4305  0.3599
 7026TIP3    H121042   4.856   3.374   0.725 -1.7401  1.0510  0.5626
 7026TIP3    H221043   4.896   3.250   0.647  0.9851  2.2120  0.0031
 7027TIP3   OH221044   4.986   3.131   5.586  0.2038  0.1270  0.1528
 7027TIP3    H121045   4.964   3.141   5.679 -1.3076  0.7202 -0.2400
 7027TIP3    H221046   5.000   3.037   5.575 -1.5975 -0.2232  0.5831
 7028TIP3   OH221047   4.517   4.945   0.388 -0.1983 -0.2321  0.1884
 7028TIP3    H121048   4.428   4.953   0.423  0.2108  0.6417  1.0894
 7028TIP3    H221049   4.506   4.950   0.293 -1.3228 -2.4786  0.1218
 7029TIP3   OH221050   6.113   2.560   5.732  0.4460  0.0952  0.4561
 7029TIP3    H121051   6.034   2.590   5.687 -0.7588 -2.5310  0.6252
 7029TIP3    H221052   6.095   2.576   5.825  0.1653 -0.3123  0.4772
 7030TIP3   OH221053   4.423   4.381   3.508 -0.1026 -0.1492  0.0292
 7030TIP3    H121054   4.382   4.456   3.551 -1.3443  0.4686 -2.0524
 7030TIP3    H221055   4.432   4.409   3.416 -1.7436 -2.9562 -1.0976
 7031TIP3   OH221056   2.783   2.564   0.505  0.4554  0.0684  0.0960
 7031TIP3    H121057   2.754   2.626   0.438 -0.4963 -0.0066  0.4314
 7031TIP3    H221058   2.707   2.509   0.522  0.6094  0.2278  1.4060
 7032TIP3   OH221059   6.999   5.420   5.497  0.5089 -0.0988  0.2418
 7032TIP3    H121060   7.018   5.414   5.403  0.1108  0.3369  0.1296
 7032TIP3    H221061   7.075   5.466   5.533 -1.3582  4.2202 -0.6342
 7033TIP3   OH221062   5.153   6.000   0.518 -0.2689 -0.1577  0.2567
 7033TIP3    H121063   5.162   5.911   0.486  0.9306 -0.4953  1.4440
 7033TIP3    H221064   5.176   6.055   0.443 -0.5643 -0.8526 -0.3469
 7034TIP3   OH221065   2.618   4.836   1.127 -0.3689 -0.4662  0.1254
 7034TIP3    H121066   2.641   4.743   1.132 -0.0002 -0.6262 -2.5777
 7034TIP3    H221067   2.567   4.843   1.046 -0.5865  1.6693  0.3925
 7035TIP3   OH221068   4.230   4.387   0.142  0.2827 -0.3745  0.0903
 7035TIP3    H121069   4.241   4.382   0.047  1.1075  0.6223  0.1180
 7035TIP3    H221070   4.148   4.436   0.154  0.5353  0.1118 -0.1202
 7036TIP3   OH221071   4.851   4.865   2.507  0.2759  0.2692 -0.0168
 7036TIP3    H121072   4.862   4.852   2.601  0.8155  1.2304  0.0680
 7036TIP3    H221073   4.765   4.906   2.497 -0.7447 -1.8091 -0.1527
 7037TIP3   OH221074   1.167   5.212   4.227  0.7679 -0.0826  0.0568
 7037TIP3    H121075   1.085   5.197   4.181 -0.6410  0.6910  2.2011
 7037TIP3    H221076   1.142   5.239   4.315  3.3123  1.4754  0.4196
 7038TIP3   OH221077   1.165   5.845   2.268 -0.0266  0.3388  0.4427
 7038TIP3    H121078   1.174   5.796   2.350 -1.5823 -1.1213 -0.1818
 7038TIP3    H221079   1.184   5.935   2.291 -0.8396  0.0365  2.5329
 7039TIP3   OH221080   4.661   4.870   3.214  0.4528  0.1194 -0.2551
 7039TIP3    H121081   4.738   4.869   3.269  2.1446  1.2791 -2.4278
 7039TIP3    H221082   4.621   4.956   3.229  0.3789  0.0668 -0.1511
 7040TIP3   OH221083   0.655   5.076   3.778 -0.2683 -0.2784 -0.0133
 7040TIP3    H121084   0.632   4.992   3.739 -0.5204 -0.0724 -0.3143
 7040TIP3    H221085   0.733   5.105   3.730 -0.7110  0.0819 -0.5308
 7041TIP3   OH221086   4.818   5.021   5.344 -0.1176 -0.3631 -0.1432
 7041TIP3    H121087   4.784   5.110   5.333  2.0250  0.4191 -1.0942
 7041TIP3    H221088   4.768   4.968   5.283 -1.4217  0.1762  0.4257
 7042TIP3   OH221089   1.031   0.311   4.155  0.4013  0.3761 -0.5738
 7042TIP3    H121090   1.112   0.358   4.135 -0.5578  2.1385 -0.5362
 7042TIP3    H221091   1.006   0.343   4.242  0.1104 -0.8153 -0.2026
 7043TIP3   OH221092   6.416   6.324   3.080  0.0633 -0.0458 -0.3311
 7043TIP3    H121093   6.494   6.356   3.127  0.9226 -2.8696  0.3550
 7043TIP3    H221094   6.353   6.305   3.149  0.0246 -0.8911 -0.5895
 7044TIP3   OH221095   5.798   4.627   3.830  0.0382  0.0730  0.0211
 7044TIP3    H121096   5.784   4.684   3.753 -2.6233  0.5325  0.7163
 7044TIP3    H221097   5.786   4.538   3.796  0.0674  0.2000 -0.3278
 7045TIP3   OH221098   4.824   4.429   4.864  0.1106  0.3915  0.0450
 7045TIP3    H121099   4.825   4.394   4.953  2.6695  0.9434  0.3148
 7045TIP3    H221100   4.842   4.354   4.808  0.7783  0.4129  0.2170
 7046TIP3   OH221101   1.022   2.441   3.735 -0.6487  0.0247  0.1049
 7046TIP3    H121102   1.017   2.453   3.640 -1.0585  1.2982  0.2609
 7046TIP3    H221103   0.949   2.493   3.769 -0.2995 -0.1409  1.1384
 7047TIP3   OH221104   1.900   2.215   3.019  0.0753  0.0928  0.0479
 7047TIP3    H121105   1.915   2.120   3.013  1.5122  0.3060 -0.0112
 7047TIP3    H221106   1.810   2.222   3.051 -0.6401 -1.2684 -1.4778
 7048TIP3   OH221107   0.101   2.553   1.506  0.6926 -0.2134  0.1848
 7048TIP3    H121108   0.123   2.493   1.577 -0.8784 -0.1418  0.7758
 7048TIP3    H221109   0.005   2.560   1.509  0.6249  0.1960 -1.6148
 7049TIP3   OH221110   1.159   4.503   0.196  0.0429  0.6047 -0.6303
 7049TIP3    H121111   1.083   4.501   0.254  0.4586  3.1796  0.0987
 7049TIP3    H221112   1.124   4.533   0.112  0.0130  0.2499 -0.7472
 7050TIP3   OH221113   3.106   5.377   2.124  0.1058  0.4950 -0.8205
 7050TIP3    H121114   3.045   5.308   2.152  0.1910  0.6661 -0.1943
 7050TIP3    H221115   3.052   5.456   2.123  0.4411  0.7605  0.3324
 7051TIP3   OH221116   6.206   2.804   4.019  0.2107  0.8403 -0.0300
 7051TIP3    H121117   6.231   2.809   4.112  0.7739 -0.9053 -0.0484
 7051TIP3    H221118   6.218   2.712   3.996 -1.1821  0.9826 -1.5071
 7052TIP3   OH221119   4.158   4.997   3.792  0.6084  0.7969 -0.0598
 7052TIP3    H121120   4.084   5.058   3.794 -0.2326 -0.2105  0.4453
 7052TIP3    H221121   4.119   4.912   3.769  1.2123 -0.2561  2.5202
 7053TIP3   OH221122   0.135   0.552   2.695  0.2973  0.4117  0.0715
 7053TIP3    H121123   0.188   0.507   2.761 -1.4852 -0.8972  0.7029
 7053TIP3    H221124   0.046   0.517   2.708 -0.4556  1.4653 -1.8470
 7054TIP3   OH221125   2.261   0.897   4.659 -0.3245 -0.1630 -1.0755
 7054TIP3    H121126   2.189   0.912   4.597  0.2249  0.7677 -1.5092
 7054TIP3    H221127   2.227   0.926   4.743 -0.7247 -0.4702 -1.1285
 7055TIP3   OH221128   3.189   5.193   1.923 -0.0403 -0.3711  0.3229
 7055TIP3    H121129   3.150   5.229   2.003 -0.9861  0.5036 -0.5057
 7055TIP3    H221130   3.158   5.251   1.853  1.0099 -0.9432 -0.6471
 7056TIP3   OH221131   4.421   3.668   0.574 -0.4671 -0.2172 -0.4353
 7056TIP3    H121132   4.340   3.663   0.523 -1.2975 -0.7391  0.8930
 7056TIP3    H221133   4.487   3.700   0.511 -2.1056  2.2681 -1.0573
 7057TIP3   OH221134   3.231   0.289   5.381 -0.3771 -0.8507 -0.2457
 7057TIP3    H121135   3.193   0.376   5.393  1.4674 -0.1920  1.5295
 7057TIP3    H221136   3.260   0.288   5.290  1.6255  1.3702  0.2544
 7058TIP3   OH221137   3.266   1.790   0.526  0.2235 -0.5682  0.6467
 7058TIP3    H121138   3.190   1.835   0.564  0.3774  0.0058  0.2901
 7058TIP3    H221139   3.330   1.859   0.511  0.4461 -0.9007  0.0348
 7059TIP3   OH221140   0.624   0.708   0.685 -0.5973 -0.3647  0.6497
 7059TIP3    H121141   0.634   0.772   0.615  0.3976  0.5106  1.5542
 7059TIP3    H221142   0.535   0.722   0.718 -0.9177 -0.4893 -0.1425
 7060TIP3   OH221143   3.345   6.743   0.841 -0.1007 -0.5807  0.1980
 7060TIP3    H121144   3.388   6.711   0.920 -3.3197 -0.8939  2.0265
 7060TIP3    H221145   3.275   6.679   0.825 -3.0429  2.2856  0.5141
 7061TIP3   OH221146   0.364   6.672   2.805 -0.5683  0.1555  0.4621
 7061TIP3    H121147   0.313   6.753   2.805  0.5577  0.8824  0.4546
 7061TIP3    H221148   0.334   6.625   2.727 -0.8807  0.7914  0.1929
 7062TIP3   OH221149   5.946   3.773   3.103 -0.3814 -0.1441  0.1587
 7062TIP3    H121150   5.996   3.759   3.022 -0.7777  1.8220 -0.4865
 7062TIP3    H221151   5.867   3.819   3.074  0.3553  2.3672  1.8292
 7063TIP3   OH221152   5.550   1.578   3.996  0.0844  0.3284  0.1855
 7063TIP3    H121153   5.594   1.661   3.980  1.0241 -0.2573 -0.3579
 7063TIP3    H221154   5.509   1.556   3.912  0.3709 -0.0618  0.1459
 7064TIP3   OH221155   0.229   5.852   4.806 -1.0761  0.2389 -0.0208
 7064TIP3    H121156   0.260   5.899   4.884  2.3100 -0.4336 -0.8146
 7064TIP3    H221157   0.215   5.920   4.741 -0.4631  0.5249  0.1362
 7065TIP3   OH221158   5.611   0.731   4.152  0.1010  0.1035  0.3904
 7065TIP3    H121159   5.564   0.794   4.206  2.5288  0.3755  2.3678
 7065TIP3    H221160   5.677   0.783   4.107 -1.8157 -0.1212 -3.0231
 7066TIP3   OH221161   4.925   1.028   0.538  0.1171 -0.1940 -0.9333
 7066TIP3    H121162   4.990   1.098   0.549 -0.8356  0.2993  3.6737
 7066TIP3    H221163   4.847   1.059   0.583 -0.6687 -3.7710  0.5906
 7067TIP3   OH221164   6.752   5.860   0.211 -0.0571 -0.6962 -0.2470
 7067TIP3    H121165   6.828   5.832   0.160 -0.6273 -0.1540 -1.4238
 7067TIP3    H221166   6.714   5.779   0.245  0.0668 -1.1094 -1.0770
 7068TIP3   OH221167   2.670   6.463   2.123  0.7127  0.3591  0.4880
 7068TIP3    H121168   2.640   6.389   2.175 -0.3002 -1.1136 -1.9771
 7068TIP3    H221169   2.763   6.471   2.142  0.6141 -0.8723  1.5944
 7069TIP3   OH221170   0.480   4.890   4.480 -0.1263  0.1540  0.2900
 7069TIP3    H121171   0.455   4.953   4.548  3.9469  1.9673  0.3933
 7069TIP3    H221172   0.549   4.837   4.520 -0.4246 -1.4974 -1.2258
 7070TIP3   OH221173   0.687   3.330   5.641  0.2257  0.0254 -0.0387
 7070TIP3    H121174   0.670   3.423   5.625  1.2425  0.3040  0.4047
 7070TIP3    H221175   0.655   3.315   5.730  1.8983  0.4874  0.6959
 7071TIP3   OH221176   7.201   5.494   3.765 -0.3271  0.0666 -0.4489
 7071TIP3    H121177   7.210   5.573   3.712  2.0610  0.4398  0.4027
 7071TIP3    H221178   7.147   5.436   3.712  3.3897 -0.3412 -4.2535
 7072TIP3   OH221179   1.689   0.249   3.115  0.0747 -0.0475 -0.1776
 7072TIP3    H121180   1.643   0.273   3.196 -0.2620 -0.9857 -0.0781
 7072TIP3    H221181   1.734   0.329   3.088 -0.0518  0.3576  0.7804
 7073TIP3   OH221182   6.224   6.182   3.574 -0.0060 -0.6132  0.4076
 7073TIP3    H121183   6.209   6.260   3.627  0.0040 -0.9243  0.8713
 7073TIP3    H221184   6.300   6.204   3.520 -0.6363  0.0846 -0.2308
 7074TIP3   OH221185   0.093   6.393   2.518  0.2608  0.1035  0.3102
 7074TIP3    H121186   0.022   6.339   2.553 -0.0880  0.3647 -0.0025
 7074TIP3    H221187   0.050   6.459   2.464  0.5920  1.3464  1.4951
 7075TIP3   OH221188   0.707   4.935   1.740  0.1171 -0.2725 -0.2840
 7075TIP3    H121189   0.703   5.026   1.768 -0.1115 -0.1074 -0.8505
 7075TIP3    H221190   0.641   4.891   1.794  3.0458 -0.9878  3.1479
 7076TIP3   OH221191   0.587   2.561   0.019 -0.3015 -0.1769  0.2277
 7076TIP3    H121192   0.497   2.587   0.003  0.0063  0.9909  0.2719
 7076TIP3    H221193   0.587   2.466   0.008 -1.7276 -0.3171  1.1964
 7077TIP3   OH221194   4.532   4.320   3.229  0.2232 -0.4128 -0.0711
 7077TIP3    H121195   4.572   4.321   3.142  0.5636 -1.6009  0.0605
 7077TIP3    H221196   4.595   4.274   3.285 -1.5575 -2.9914 -0.0092
 7078TIP3   OH221197   4.136   3.931   5.597 -0.5587 -0.4170  0.0618
 7078TIP3    H121198   4.148   4.010   5.650  0.4482 -1.7100  1.8664
 7078TIP3    H221199   4.224   3.910   5.566 -0.4083 -2.0150  1.4413
 7079TIP3   OH221200   5.827   5.761   4.717 -0.0184 -0.0223 -0.0679
 7079TIP3    H121201   5.875   5.684   4.748 -0.3212  0.1696  0.9141
 7079TIP3    H221202   5.884   5.835   4.737  0.4525 -0.0141 -1.3866
 7080TIP3   OH221203   4.890   1.034   4.970  0.7300 -0.5446  0.1866
 7080TIP3    H121204   4.826   0.974   5.008  0.0469 -0.1881 -0.3852
 7080TIP3    H221205   4.880   1.023   4.876  2.3761 -1.3948  0.0694
 7081TIP3   OH221206   2.421   1.882   1.853  0.2801  0.9153  0.5123
 7081TIP3    H121207   2.449   1.809   1.907 -0.2681  1.9053  2.2086
 7081TIP3    H221208   2.479   1.955   1.879 -1.3452  1.9634  1.3286
 7082TIP3   OH221209   4.988   2.718   0.057  0.0142 -0.1032 -0.4813
 7082TIP3    H121210   5.043   2.760   0.124  1.2777 -1.0253 -0.9165
 7082TIP3    H221211   5.024   2.749  -0.026 -2.4924  2.2557 -0.8207
 7083TIP3   OH221212   2.285   4.417  -0.011  0.3215 -0.1676 -0.1313
 7083TIP3    H121213   2.224   4.491  -0.016  1.9621  1.1637 -1.4628
 7083TIP3    H221214   2.300   4.405   0.082 -0.7145  0.5302  0.1475
 7084TIP3   OH221215   1.541   6.178   2.649  0.1460 -0.0897  0.2551
 7084TIP3    H121216   1.512   6.122   2.721 -0.1715 -1.5741 -0.9655
 7084TIP3    H221217   1.533   6.267   2.683  0.9350 -0.7526  2.3706
 7085TIP3   OH221218   4.839   5.965   3.871  0.1529  0.1825  0.2957
 7085TIP3    H121219   4.898   5.982   3.798  1.1439 -1.7442  0.5860
 7085TIP3    H221220   4.842   6.045   3.923  1.6620  0.5506 -0.2931
 7086TIP3   OH221221   2.470   3.296   1.524  0.1869  0.0205 -0.5291
 7086TIP3    H121222   2.508   3.224   1.474  0.6471 -0.3536  0.3398
 7086TIP3    H221223   2.408   3.254   1.584 -0.1700  0.4354 -0.5947
 7087TIP3   OH221224   3.235   5.389   2.485  0.0819  0.1638  0.6013
 7087TIP3    H121225   3.214   5.304   2.446  2.0745  0.2299 -0.7490
 7087TIP3    H221226   3.280   5.367   2.567 -2.7535  0.0168  2.2329
 7088TIP3   OH221227   3.686   4.572   3.032 -0.0686  0.1861 -0.0773
 7088TIP3    H121228   3.682   4.495   3.090 -0.0658  1.1616  1.2639
 7088TIP3    H221229   3.599   4.612   3.040 -0.2083  0.0917 -1.1003
 7089TIP3   OH221230   0.214   2.375   1.299 -0.4379 -0.1325 -0.1542
 7089TIP3    H121231   0.192   2.427   1.376 -0.5544  0.6961 -0.7271
 7089TIP3    H221232   0.302   2.343   1.316 -0.3716  0.2345  0.2238
 7090TIP3   OH221233   5.786   0.358   4.568  0.2329 -0.1241 -0.4448
 7090TIP3    H121234   5.807   0.406   4.488  2.2722  1.0054  0.6710
 7090TIP3    H221235   5.857   0.294   4.576  0.0571 -0.2152  0.4590
 7091TIP3   OH221236   0.999   2.735   3.170  0.0156 -0.1429 -0.3003
 7091TIP3    H121237   1.047   2.668   3.122 -0.5277 -2.2497  1.8870
 7091TIP3    H221238   1.067   2.787   3.213  0.4357  0.6360 -1.8387
 7092TIP3   OH221239   6.053   0.113   5.285 -0.3942 -0.2079 -0.2705
 7092TIP3    H121240   5.997   0.106   5.208 -0.8253  0.3209 -0.0141
 7092TIP3    H221241   6.139   0.084   5.255 -0.7562 -0.8259 -0.7228
 7093TIP3   OH221242   2.353   2.002   4.559 -0.0800 -0.0205  0.0854
 7093TIP3    H121243   2.258   2.008   4.556 -0.1216 -0.6714 -0.0112
 7093TIP3    H221244   2.372   1.946   4.634  0.2029 -0.3098 -0.1963
 7094TIP3   OH221245   1.371   5.991   1.293 -0.1735  0.5040  0.4093
 7094TIP3    H121246   1.286   6.007   1.252  0.4573  0.3315 -0.9961
 7094TIP3    H221247   1.385   5.897   1.285 -0.2691  0.3792  1.5171
 7095TIP3   OH221248   2.746   6.708   5.704  0.4273  0.1905  0.1495
 7095TIP3    H121249   2.803   6.720   5.780 -0.4813  1.6007  0.6505
 7095TIP3    H221250   2.734   6.797   5.670 -2.0332  0.0322  0.4914
 7096TIP3   OH221251   0.324   4.466   1.184  0.4040  0.0866 -0.0380
 7096TIP3    H121252   0.314   4.424   1.269  0.6023 -0.4321 -0.2663
 7096TIP3    H221253   0.416   4.490   1.180  0.1445  1.2019  0.3876
 7097TIP3   OH221254   5.448   6.482   1.160 -0.3123 -0.6302 -0.4128
 7097TIP3    H121255   5.451   6.542   1.235 -0.9970 -0.5731 -0.4270
 7097TIP3    H221256   5.505   6.409   1.186  0.9633  0.2649 -0.6140
 7098TIP3   OH221257   4.749   5.364   2.249 -0.4873 -0.3781  0.1192
 7098TIP3    H121258   4.832   5.405   2.273 -0.2270 -0.2381 -0.9775
 7098TIP3    H221259   4.683   5.416   2.295  0.0439 -0.7336  1.3125
 7099TIP3   OH221260   4.446   6.620   4.205 -0.5590 -0.2666 -0.7084
 7099TIP3    H121261   4.364   6.656   4.238 -1.1721 -3.5036  1.8655
 7099TIP3    H221262   4.497   6.598   4.283  1.5989 -0.7912 -2.1682
 7100TIP3   OH221263   1.844   5.980   0.475 -0.4420  0.3446  0.0045
 7100TIP3    H121264   1.847   5.923   0.552 -0.1477 -1.2543 -1.1610
 7100TIP3    H221265   1.906   5.942   0.413  0.9840  2.8493 -0.2419
 7101TIP3   OH221266   5.932   4.816   2.551  0.3140  0.3719 -0.1981
 7101TIP3    H121267   6.019   4.838   2.517  0.4343 -0.1750 -0.2531
 7101TIP3    H221268   5.946   4.794   2.643  0.3167 -0.2087 -0.3327
 7102TIP3   OH221269   2.916   5.224   4.789 -0.5470 -0.3577 -0.4114
 7102TIP3    H121270   2.898   5.161   4.858  0.8611  0.2073  0.4976
 7102TIP3    H221271   3.011   5.224   4.779 -0.6910 -0.3142 -2.2631
 7103TIP3   OH221272   4.106   4.972   2.176 -0.6351  0.4152 -0.1977
 7103TIP3    H121273   4.024   4.990   2.223 -1.8512  1.6392 -2.5939
 7103TIP3    H221274   4.134   5.058   2.144 -0.7638 -0.4992 -2.9917
 7104TIP3   OH221275   0.132   2.873   5.810  0.1980 -0.2989 -0.1890
 7104TIP3    H121276   0.111   2.943   5.871  0.4505  0.5808 -1.0934
 7104TIP3    H221277   0.047   2.839   5.782  0.0754 -0.2510  0.1217
 7105TIP3   OH221278   0.082   3.967   0.645 -0.6798  0.2434  0.2221
 7105TIP3    H121279   0.096   4.056   0.613 -1.6871 -0.0816 -1.2055
 7105TIP3    H221280   0.155   3.917   0.608 -2.0913 -0.2292 -2.1388
 7106TIP3   OH221281   5.290   1.088   5.661 -0.5342 -0.0124 -0.1544
 7106TIP3    H121282   5.367   1.121   5.614 -0.9584  0.5945 -0.4466
 7106TIP3    H221283   5.229   1.162   5.660 -0.2097  0.3605  2.1983
 7107TIP3   OH221284   3.750   5.197   3.390 -0.9216  0.0661 -0.7668
 7107TIP3    H121285   3.670   5.178   3.340 -0.6974  0.1122 -1.1420
 7107TIP3    H221286   3.721   5.195   3.482 -1.1426 -0.9472 -0.8460
 7108TIP3   OH221287   5.609   6.081   3.165 -0.1863  0.9895  0.0111
 7108TIP3    H121288   5.696   6.110   3.193  0.0951  1.3515 -1.1733
 7108TIP3    H221289   5.556   6.081   3.245  0.4259  2.4991  0.4501
 7109TIP3   OH221290   0.544   2.400   0.616 -0.1830  0.0292  0.1539
 7109TIP3    H121291   0.632   2.386   0.581 -0.2203  0.5003 -0.1355
 7109TIP3    H221292   0.486   2.361   0.550 -0.2004 -0.1612  0.2798
 7110TIP3   OH221293   3.562   1.057   2.155  0.0888  0.0313  0.1157
 7110TIP3    H121294   3.593   0.989   2.214  3.2010  0.2504 -1.1093
 7110TIP3    H221295   3.511   1.011   2.089  0.4068 -0.8125  0.4522
 7111TIP3   OH221296   6.356   3.299   0.440  0.3294  0.2588 -0.6233
 7111TIP3    H121297   6.343   3.234   0.509  0.8507 -0.2850 -1.0296
 7111TIP3    H221298   6.268   3.331   0.420  0.2925  1.4772  1.2810
 7112TIP3   OH221299   4.697   2.143   4.718  0.0399 -0.6339  0.0625
 7112TIP3    H121300   4.625   2.090   4.684 -0.0391  0.6599 -1.9700
 7112TIP3    H221301   4.714   2.207   4.648  0.1252  2.0157  2.3572
 7113TIP3   OH221302   1.863   6.367   2.079 -0.0854  0.2782  0.4118
 7113TIP3    H121303   1.922   6.323   2.140 -0.5507  0.5861  1.1029
 7113TIP3    H221304   1.920   6.412   2.017  0.3946 -0.4250  0.3250
 7114TIP3   OH221305   7.050   0.692   3.666 -0.1335  0.5694 -0.3286
 7114TIP3    H121306   7.116   0.728   3.607  0.6753  1.2164  0.9288
 7114TIP3    H221307   7.100   0.646   3.733 -0.9013  1.5530  0.9667
 7115TIP3   OH221308   2.406   2.289   5.227 -0.4906 -0.4846 -0.8462
 7115TIP3    H121309   2.416   2.371   5.179  0.1795 -0.1165 -0.0993
 7115TIP3    H221310   2.315   2.288   5.255 -0.2476  0.5293  0.0432
 7116TIP3   OH221311   0.840   5.698   3.387 -0.5599 -0.3885 -0.3201
 7116TIP3    H121312   0.790   5.709   3.306  0.4489 -0.8629 -1.0291
 7116TIP3    H221313   0.781   5.730   3.455 -0.6992  1.8955 -1.4239
 7117TIP3   OH221314   1.990   4.953   3.512  0.2844 -0.7314  0.3702
 7117TIP3    H121315   2.021   5.001   3.589  1.1310 -1.1236  0.2784
 7117TIP3    H221316   1.989   5.019   3.442 -0.9693 -0.2463  0.8015
 7118TIP3   OH221317   5.305   6.289   0.805  0.1044  0.1320  0.1294
 7118TIP3    H121318   5.376   6.243   0.761 -0.9084  0.3908 -1.8770
 7118TIP3    H221319   5.225   6.251   0.769 -0.7954  0.7899  1.3229
 7119TIP3   OH221320   4.959   2.692   5.732 -0.5111 -0.1483  0.1350
 7119TIP3    H121321   4.896   2.759   5.706  0.1803  0.9177  1.1114
 7119TIP3    H221322   5.004   2.729   5.808  1.5114 -0.7518 -0.7056
 7120TIP3   OH221323   4.854   4.309   0.781  0.7288 -0.0372  0.2238
 7120TIP3    H121324   4.936   4.358   0.788  1.0952 -0.6517  0.3273
 7120TIP3    H221325   4.818   4.311   0.870  0.6221  0.2387  0.1772
 7121TIP3   OH221326   3.071   0.678   5.131 -0.2293  0.4069  0.5553
 7121TIP3    H121327   3.107   0.611   5.189  1.1356  0.9284  0.3565
 7121TIP3    H221328   3.121   0.757   5.152  1.8044  0.1589 -2.6992
 7122TIP3   OH221329   3.054   2.927   3.090  0.1548 -0.1401  0.6105
 7122TIP3    H121330   2.971   2.950   3.047 -0.2373 -1.7778  0.3955
 7122TIP3    H221331   3.083   3.007   3.132 -1.8731  0.3372  1.2136
 7123TIP3   OH221332   4.340   6.751   1.678  0.4770  0.5010  0.5374
 7123TIP3    H121333   4.327   6.787   1.591 -0.0112  0.8522  0.7507
 7123TIP3    H221334   4.254   6.718   1.704  0.6394  0.3099  0.8475
 7124TIP3   OH221335   1.712   3.546   3.073  0.3065 -0.3375 -0.1557
 7124TIP3    H121336   1.725   3.480   3.004  1.5367  0.4467 -0.6986
 7124TIP3    H221337   1.790   3.601   3.068 -1.8806  2.9069 -1.5984
 7125TIP3   OH221338   2.464   3.458   5.400  0.4489  0.1472  0.4017
 7125TIP3    H121339   2.408   3.536   5.395  0.3143  0.0408  0.2394
 7125TIP3    H221340   2.515   3.460   5.319 -1.2373 -1.2078 -0.7591
 7126TIP3   OH221341   1.655   6.296   4.138 -0.1079  0.1646  0.3467
 7126TIP3    H121342   1.617   6.352   4.071  1.4644  0.3470 -0.4523
 7126TIP3    H221343   1.750   6.304   4.125  0.2015 -1.1685  1.4681
 7127TIP3   OH221344   5.489   6.780   5.627 -0.0331 -0.2615 -0.5167
 7127TIP3    H121345   5.480   6.737   5.712  0.3786  0.6044 -0.0213
 7127TIP3    H221346   5.417   6.745   5.575 -0.8913 -0.0841  0.4971
 7128TIP3   OH221347   2.063   2.121   4.144  0.4729  0.6158 -0.3828
 7128TIP3    H121348   2.030   2.198   4.191  0.5419  1.1382 -1.1583
 7128TIP3    H221349   1.984   2.071   4.122  0.3932  0.6746 -0.2305
 7129TIP3   OH221350   6.302   5.974   5.519  0.0353  0.5132  0.5799
 7129TIP3    H121351   6.251   5.926   5.584 -2.5979 -0.5784 -2.0892
 7129TIP3    H221352   6.245   6.046   5.492  0.0169 -0.4209 -2.1305
 7130TIP3   OH221353   0.702   0.100   4.717  0.2253 -0.1583 -0.2015
 7130TIP3    H121354   0.661   0.185   4.706  0.7034  0.2648  1.0979
 7130TIP3    H221355   0.757   0.090   4.640  2.3893  2.0258  0.9276
 7131TIP3   OH221356   0.917   4.539   3.003 -0.1582  0.5644  0.0755
 7131TIP3    H121357   0.897   4.542   2.910  1.0195  1.0527 -0.1863
 7131TIP3    H221358   0.880   4.456   3.033 -1.1280  0.7156 -0.6759
 7132TIP3   OH221359   3.147   4.479   3.518  0.3999 -0.6073  0.3116
 7132TIP3    H121360   3.232   4.524   3.519 -0.4543  1.0287  1.2046
 7132TIP3    H221361   3.103   4.508   3.597 -0.9386 -1.5983 -0.0433
 7133TIP3   OH221362   7.113   2.694   3.956 -0.1910  0.0686 -0.1184
 7133TIP3    H121363   7.027   2.669   3.924  0.2516 -0.4782 -0.9106
 7133TIP3    H221364   7.112   2.670   4.049 -0.9485  0.2399 -0.0810
 7134TIP3   OH221365   4.759   4.660   4.736 -0.1038  0.1640 -0.1344
 7134TIP3    H121366   4.766   4.581   4.788  0.0694 -0.2292 -0.7458
 7134TIP3    H221367   4.846   4.699   4.739 -0.1449  0.2425  0.0290
 7135TIP3   OH221368   3.885   2.325   0.521 -0.5440 -0.5278 -0.1267
 7135TIP3    H121369   3.959   2.385   0.513 -0.8884  0.1169  1.1325
 7135TIP3    H221370   3.914   2.245   0.479  1.0910 -0.4730  0.8103
 7136TIP3   OH221371   3.458   4.982   4.136 -0.0831  0.4532  0.2711
 7136TIP3    H121372   3.366   5.006   4.141 -0.6914 -0.8454 -2.3540
 7136TIP3    H221373   3.486   5.014   4.050  1.3062 -1.0047  0.1317
 7137TIP3   OH221374   2.220   0.432   5.333  0.2686 -0.5935  0.5776
 7137TIP3    H121375   2.157   0.408   5.264  0.2838 -0.4933  0.5280
 7137TIP3    H221376   2.165   0.462   5.406  0.2537 -0.6646  0.5956
 7138TIP3   OH221377   5.327   6.161   3.132  0.0347  0.4175 -0.2530
 7138TIP3    H121378   5.272   6.104   3.186  0.1080 -0.7854 -1.3734
 7138TIP3    H221379   5.409   6.169   3.181  0.0343 -0.4905 -0.0799
 7139TIP3   OH221380   1.274   0.709   3.994  0.6961  0.3799  0.0698
 7139TIP3    H121381   1.362   0.745   4.002  0.8308  0.2798 -0.8773
 7139TIP3    H221382   1.288   0.619   3.964  0.2877  0.1432  0.5685
 7140TIP3   OH221383   0.908   2.523   5.034  0.4192  0.0428  0.2212
 7140TIP3    H121384   0.870   2.596   4.987 -2.1399 -0.0026  2.0256
 7140TIP3    H221385   0.855   2.447   5.008 -0.6690 -0.0893  2.5380
 7141TIP3   OH221386   4.981   3.543   5.010 -0.3876 -0.6069 -0.1380
 7141TIP3    H121387   4.933   3.621   5.037 -0.3560 -0.2510 -1.0605
 7141TIP3    H221388   5.057   3.540   5.068 -1.9714 -1.7296  2.0160
 7142TIP3   OH221389   0.271   5.889   1.723 -0.3079  0.5463  0.0866
 7142TIP3    H121390   0.283   5.935   1.639 -1.2375 -0.9462 -0.9081
 7142TIP3    H221391   0.251   5.799   1.698 -0.2682 -0.0105  1.9470
 7143TIP3   OH221392   6.610   3.821   1.399 -0.3783 -0.0624 -1.2741
 7143TIP3    H121393   6.606   3.915   1.417  0.5352 -0.2604  0.1011
 7143TIP3    H221394   6.691   3.792   1.440 -0.8199 -1.5210 -1.3813
 7144TIP3   OH221395   5.412   5.382   1.094  0.2875  0.0930 -0.5362
 7144TIP3    H121396   5.371   5.330   1.163  1.6934 -3.0112 -1.8523
 7144TIP3    H221397   5.408   5.472   1.126  0.9206 -1.1534  3.5974
 7145TIP3   OH221398   5.623   3.061   1.357 -0.3364 -0.0332  0.3380
 7145TIP3    H121399   5.666   2.991   1.309 -0.8140 -0.4013  0.4481
 7145TIP3    H221400   5.645   3.045   1.449 -2.3754 -1.4205  0.6314
 7146TIP3   OH221401   4.876   4.281   1.624  0.6910 -0.2630  0.2027
 7146TIP3    H121402   4.881   4.271   1.719 -1.9543  0.8345  0.5381
 7146TIP3    H221403   4.926   4.361   1.606  2.3091 -1.1689  0.4358
 7147TIP3   OH221404   2.190   2.475   2.646 -0.0137  0.4711 -0.2284
 7147TIP3    H121405   2.127   2.417   2.690  0.9153 -0.4680 -0.0780
 7147TIP3    H221406   2.263   2.417   2.623  0.9631  1.6002 -0.0536
 7148TIP3   OH221407   1.254   4.080   5.601 -0.2569 -0.3374 -0.1956
 7148TIP3    H121408   1.343   4.115   5.592 -0.1713 -0.7288 -0.8926
 7148TIP3    H221409   1.204   4.152   5.638  0.8871 -0.8714  2.7170
 7149TIP3   OH221410   3.627   4.112   4.917 -0.6570  0.1793 -0.0231
 7149TIP3    H121411   3.596   4.185   4.970  0.1309  0.2142  0.4046
 7149TIP3    H221412   3.702   4.146   4.869  0.3141 -0.5736  0.8908
 7150TIP3   OH221413   0.448   2.939   3.885 -0.3689  0.0722 -0.1652
 7150TIP3    H121414   0.542   2.944   3.868 -0.3386 -0.3168 -0.1122
 7150TIP3    H221415   0.410   3.008   3.830  0.0263  0.7944  0.4455
 7151TIP3   OH221416   4.514   5.691   4.637  0.2984 -0.3007 -0.1833
 7151TIP3    H121417   4.574   5.630   4.595  2.1738  1.7666 -0.7094
 7151TIP3    H221418   4.533   5.776   4.595 -1.8440  0.7565  0.8240
 7152TIP3   OH221419   0.515   6.196   5.119 -0.2159  0.5167  0.3799
 7152TIP3    H121420   0.490   6.278   5.076 -0.7970  0.1302 -0.0309
 7152TIP3    H221421   0.481   6.127   5.061 -1.2266 -0.0160  1.5733
 7153TIP3   OH221422   1.806   6.623   2.719 -0.2020  0.2887 -0.0346
 7153TIP3    H121423   1.835   6.544   2.673  1.2638  1.0268 -0.4528
 7153TIP3    H221424   1.787   6.594   2.808 -0.4099 -0.6588 -0.3734
 7154TIP3   OH221425   5.991   5.323   2.154  0.0973 -0.3323 -0.6418
 7154TIP3    H121426   6.049   5.378   2.102  0.9239 -0.3283  0.2625
 7154TIP3    H221427   5.982   5.370   2.237  1.4187 -1.8856  0.4324
 7155TIP3   OH221428   1.344   0.860   3.722 -0.4881  0.1649  0.2131
 7155TIP3    H121429   1.432   0.827   3.741 -0.4952 -1.1530 -1.7580
 7155TIP3    H221430   1.342   0.948   3.761  2.2476  0.8683 -1.0028
 7156TIP3   OH221431   2.944   4.115   1.436 -0.4833  0.0953 -0.1991
 7156TIP3    H121432   2.907   4.127   1.523 -0.0068 -1.0664  0.1816
 7156TIP3    H221433   2.891   4.045   1.397 -0.0615 -0.0791 -0.4652
 7157TIP3   OH221434   2.824   2.617   5.754 -0.3924  0.1121 -0.0153
 7157TIP3    H121435   2.823   2.703   5.796  2.1892 -1.3106  3.3850
 7157TIP3    H221436   2.766   2.563   5.807  0.1222 -0.9063 -0.4664
 7158TIP3   OH221437   7.087   6.166   1.254 -0.3489  0.4847 -0.7902
 7158TIP3    H121438   6.999   6.130   1.239 -1.5180  1.6165  2.4010
 7158TIP3    H221439   7.146   6.099   1.221 -2.4151 -1.2459 -1.2235
 7159TIP3   OH221440   3.553   5.009   3.261  0.4699 -0.0286  0.4037
 7159TIP3    H121441   3.491   4.946   3.225  0.3271 -0.6917  1.7463
 7159TIP3    H221442   3.637   4.984   3.223  0.4606 -1.2121  1.1287
 7160TIP3   OH221443   0.167   0.916   4.176  0.0736  0.3530  0.0105
 7160TIP3    H121444   0.088   0.877   4.214  0.3707 -1.4664 -1.0992
 7160TIP3    H221445   0.141   0.940   4.087 -0.0093  2.5029  0.5781
 7161TIP3   OH221446   5.752   4.048   0.923  0.6514 -0.4329  0.3083
 7161TIP3    H121447   5.825   4.083   0.974 -1.2987  2.7907  1.1950
 7161TIP3    H221448   5.777   4.062   0.831  0.6553  2.0253  0.6214
 7162TIP3   OH221449   3.936   0.801   4.736  0.5019 -0.2863  0.1671
 7162TIP3    H121450   3.986   0.846   4.804 -0.1201 -0.5444  0.8046
 7162TIP3    H221451   3.848   0.839   4.742  0.9277  1.2347 -1.9100
 7163TIP3   OH221452   6.216   6.706   5.459  0.2111  0.6392 -0.3275
 7163TIP3    H121453   6.138   6.672   5.415  1.7503 -0.8799 -2.0809
 7163TIP3    H221454   6.253   6.630   5.505  0.2703  1.5185  1.1395
 7164TIP3   OH221455   3.292   1.559   3.974 -0.2603  0.1951 -0.7574
 7164TIP3    H121456   3.381   1.525   3.979 -0.6879 -0.8941 -0.2266
 7164TIP3    H221457   3.287   1.626   4.043 -0.5502 -1.4548  0.8947
 7165TIP3   OH221458   2.717   1.228   3.791 -0.2509 -0.1109  0.1195
 7165TIP3    H121459   2.762   1.145   3.803  0.3357  0.0641 -0.8138
 7165TIP3    H221460   2.666   1.217   3.711 -0.3931  0.3272  0.1481
 7166TIP3   OH221461   2.577   3.451   5.648  0.4036  0.2006  0.2147
 7166TIP3    H121462   2.519   3.444   5.572 -0.6335  0.9661  0.9001
 7166TIP3    H221463   2.582   3.362   5.683  0.0830  0.0269 -0.1739
 7167TIP3   OH221464   1.646   2.225   2.882  0.0266  0.1481 -0.2092
 7167TIP3    H121465   1.710   2.155   2.875  0.6563  0.6402  0.5029
 7167TIP3    H221466   1.563   2.180   2.901  0.1918 -0.4716 -0.9227
 7168TIP3   OH221467   3.204   1.241   4.032 -0.0965 -0.5179 -0.4785
 7168TIP3    H121468   3.194   1.278   3.944 -0.2410  0.2346 -0.1519
 7168TIP3    H221469   3.115   1.238   4.068  0.2016  1.4396  0.5306
 7169TIP3   OH221470   6.903   0.957   3.875  0.0845 -0.2647  0.1190
 7169TIP3    H121471   6.967   0.970   3.805 -0.7427  0.7871 -0.4605
 7169TIP3    H221472   6.936   0.881   3.923  1.2890 -0.2884 -0.7011
 7170TIP3   OH221473   2.243   1.788   2.152  0.7853  0.2949  0.4603
 7170TIP3    H121474   2.322   1.743   2.120 -0.1264 -2.2625  1.4899
 7170TIP3    H221475   2.267   1.820   2.239  0.1098 -2.7073  1.8872
 7171TIP3   OH221476   7.115   2.940   1.707  0.2451  0.0744  0.4834
 7171TIP3    H121477   7.094   2.848   1.724  2.4967 -0.7400 -0.7596
 7171TIP3    H221478   7.048   2.968   1.644  0.7930 -1.4186 -0.8326
 7172TIP3   OH221479   4.358   0.036   4.133  0.3452 -0.1621  0.0444
 7172TIP3    H121480   4.291  -0.030   4.151  0.7021 -0.4950  0.1526
 7172TIP3    H221481   4.393   0.060   4.219 -0.9695  1.4418  0.1879
 7173TIP3   OH221482   4.666   6.255   1.153  0.3431 -0.0463  0.0036
 7173TIP3    H121483   4.692   6.276   1.063  2.5620 -1.5675  0.2091
 7173TIP3    H221484   4.748   6.260   1.203 -0.4967 -1.1174  1.5562
 7174TIP3   OH221485   6.923   3.312   3.858 -0.0935  0.0706  0.0587
 7174TIP3    H121486   6.845   3.356   3.825  0.1910  2.3167  2.0713
 7174TIP3    H221487   6.996   3.355   3.814  0.1383  0.9593  1.2425
 7175TIP3   OH221488   0.893   0.317   2.280 -0.1125 -0.1628 -0.5429
 7175TIP3    H121489   0.807   0.301   2.241  0.6541 -0.5877 -2.1458
 7175TIP3    H221490   0.947   0.243   2.251  0.5449 -0.4663  1.2959
 7176TIP3   OH221491   2.498   3.680   2.822  0.0327 -0.5113 -0.2137
 7176TIP3    H121492   2.577   3.633   2.848 -0.0429  0.0504  1.1155
 7176TIP3    H221493   2.477   3.645   2.736  2.4986  0.2927 -1.2506
 7177TIP3   OH221494   1.789   6.577   2.981 -0.2871 -0.0006 -0.4175
 7177TIP3    H121495   1.813   6.484   2.975  1.7604  0.4141  0.6247
 7177TIP3    H221496   1.761   6.589   3.072 -0.9320  0.3230 -0.6562
 7178TIP3   OH221497   0.046   1.302   2.674 -0.1440  0.6899  0.3402
 7178TIP3    H121498   0.076   1.347   2.595  0.0815  1.8329  1.0618
 7178TIP3    H221499   0.106   1.330   2.742 -0.4533 -0.1356  0.9685
 7179TIP3   OH221500   0.264   4.291   2.789  0.1059 -0.0645 -0.5414
 7179TIP3    H121501   0.218   4.242   2.722 -0.1482 -0.3038 -0.1923
 7179TIP3    H221502   0.200   4.355   2.821 -0.8383 -1.9450  1.6372
 7180TIP3   OH221503   6.205   5.980   0.730 -0.5680 -0.2012 -0.0561
 7180TIP3    H121504   6.165   5.949   0.649 -3.0220  0.2596  0.8997
 7180TIP3    H221505   6.210   6.075   0.718 -0.3062 -0.1965  0.0873
 7181TIP3   OH221506   5.446   3.015   1.124 -0.0524 -0.2594  0.5077
 7181TIP3    H121507   5.467   2.951   1.193 -1.5148  0.1205  1.3553
 7181TIP3    H221508   5.428   2.962   1.047  0.1433 -0.7915  0.8199
 7182TIP3   OH221509   1.959   4.370   4.175  0.4238  0.1937 -0.4567
 7182TIP3    H121510   2.044   4.338   4.144  0.3832  1.0180 -1.4630
 7182TIP3    H221511   1.943   4.449   4.125 -0.5625  0.5145  0.3275
 7183TIP3   OH221512   5.855   1.235   2.484  0.2269 -0.2216 -0.0190
 7183TIP3    H121513   5.793   1.213   2.554 -0.8886  1.0923 -0.5336
 7183TIP3    H221514   5.941   1.232   2.526 -0.2105 -1.5985  0.8424
 7184TIP3   OH221515   5.582   5.452   2.154  0.2679  0.1600 -0.2624
 7184TIP3    H121516   5.494   5.416   2.139  0.0652 -0.0592  1.2661
 7184TIP3    H221517   5.621   5.394   2.219  0.8555  1.2879  0.4338
 7185TIP3   OH221518   4.283   0.332   3.293 -0.2356 -0.5970 -0.1721
 7185TIP3    H121519   4.332   0.332   3.211  0.1961 -0.6101  0.0841
 7185TIP3    H221520   4.222   0.406   3.284  0.9295  0.4334  0.1513
 7186TIP3   OH221521   4.325   4.968   4.981 -0.0874  0.3495 -0.4329
 7186TIP3    H121522   4.353   4.957   5.072 -1.8877  0.7094  0.2169
 7186TIP3    H221523   4.249   5.025   4.987 -0.3982  0.1474 -2.1504
 7187TIP3   OH221524   0.410   6.245   5.760  0.0717 -0.5170  0.0501
 7187TIP3    H121525   0.369   6.332   5.759  1.0484 -0.0236  0.9143
 7187TIP3    H221526   0.464   6.244   5.681 -0.2460 -0.4898 -0.1690
 7188TIP3   OH221527   2.968   3.690   5.783 -0.4526 -0.0854 -0.3876
 7188TIP3    H121528   2.904   3.685   5.712 -1.0707 -0.4158  0.1831
 7188TIP3    H221529   2.989   3.783   5.791  0.5028 -0.1558 -1.7673
 7189TIP3   OH221530   4.610   4.631   3.342 -0.0032 -0.1049 -0.0328
 7189TIP3    H121531   4.616   4.717   3.301 -0.8598 -0.3439 -0.6649
 7189TIP3    H221532   4.689   4.585   3.312  0.5063  0.4741  0.3836
 7190TIP3   OH221533   6.887   5.075   3.978  0.1163  0.4184 -0.4868
 7190TIP3    H121534   6.804   5.118   3.997 -0.1770 -0.1002 -0.5708
 7190TIP3    H221535   6.862   4.991   3.940  0.6616 -0.0280  0.1066
 7191TIP3   OH221536   0.258   3.269   3.065 -0.1616  0.5585 -0.6879
 7191TIP3    H121537   0.334   3.309   3.023  0.1162  0.4011 -0.3436
 7191TIP3    H221538   0.182   3.306   3.019  0.1274  0.6060 -1.1290
 7192TIP3   OH221539   4.262   2.781   0.366 -0.2535 -0.5356  1.3204
 7192TIP3    H121540   4.213   2.807   0.445 -1.6580  0.0880  0.2901
 7192TIP3    H221541   4.281   2.688   0.380 -3.8009 -1.4942  0.8248
 7193TIP3   OH221542   3.944   3.233   5.351  0.0629 -0.0486 -0.2083
 7193TIP3    H121543   3.886   3.309   5.341  1.0755  1.0115  1.4630
 7193TIP3    H221544   3.885   3.158   5.348 -1.1894  0.8949 -0.2816
 7194TIP3   OH221545   2.011   1.564   3.815  0.1857  0.1218  0.1243
 7194TIP3    H121546   2.057   1.591   3.736 -0.3983 -0.6153 -0.4804
 7194TIP3    H221547   1.918   1.576   3.795 -0.0241 -1.1012  0.2948
 7195TIP3   OH221548   6.829   3.234   4.360 -0.5525 -0.1475  0.2858
 7195TIP3    H121549   6.893   3.163   4.349 -0.0164  0.3137  0.4000
 7195TIP3    H221550   6.852   3.297   4.291 -1.4212 -0.3655 -0.2212
 7196TIP3   OH221551   4.984   0.880   2.385 -0.6187 -0.0946 -0.5469
 7196TIP3    H121552   4.960   0.855   2.296  1.4227 -0.3385 -1.0817
 7196TIP3    H221553   5.077   0.859   2.392 -0.6234  0.3173  1.5139
 7197TIP3   OH221554   4.785   5.373   1.227 -0.2608  0.5119  0.6222
 7197TIP3    H121555   4.738   5.454   1.244  0.4177  0.9118  0.5984
 7197TIP3    H221556   4.722   5.319   1.179 -1.0009  0.6947  1.3605
 7198TIP3   OH221557   3.026   4.380   0.902 -0.1607 -0.7209  0.0428
 7198TIP3    H121558   3.006   4.447   0.837  1.5908 -0.0387  0.1566
 7198TIP3    H221559   3.119   4.393   0.922 -0.4662 -1.3876  2.1291
 7199TIP3   OH221560   5.323   0.293   3.371  0.2424  0.1034  0.1761
 7199TIP3    H121561   5.263   0.368   3.378 -0.2055 -0.1877 -0.4226
 7199TIP3    H221562   5.345   0.289   3.278 -0.0794 -0.7678  0.1276
 7200TIP3   OH221563   0.364   4.639   4.880 -0.1775  0.0904 -0.2713
 7200TIP3    H121564   0.273   4.613   4.870  0.1776 -0.9654 -0.8876
 7200TIP3    H221565   0.410   4.598   4.807  0.7414  0.8817 -0.1662
 7201TIP3   OH221566   6.538   4.879   5.667  0.3141 -0.1671  0.1027
 7201TIP3    H121567   6.522   4.973   5.654  0.4213  0.0631  1.4947
 7201TIP3    H221568   6.580   4.851   5.586  1.9130  1.3835  0.3230
 7202TIP3   OH221569   6.038   4.007   1.249 -0.0708  0.1287 -0.4097
 7202TIP3    H121570   6.032   3.959   1.331 -1.7376 -1.4187 -1.3659
 7202TIP3    H221571   6.117   3.974   1.207  0.5690  0.6394  0.3533
 7203TIP3   OH221572   6.860   4.768   2.782  0.3049 -0.0785 -0.1674
 7203TIP3    H121573   6.937   4.825   2.785  1.5119 -1.7021  1.8237
 7203TIP3    H221574   6.832   4.761   2.873 -0.5581 -1.6955 -0.5244
 7204TIP3   OH221575   4.896   1.457   0.992  0.1020  0.0475  0.5990
 7204TIP3    H121576   4.823   1.402   1.021  0.4370 -0.1172  1.1522
 7204TIP3    H221577   4.964   1.394   0.968 -0.1057  0.1899 -0.3822
 7205TIP3   OH221578   3.179   1.667   5.030  0.1907  0.3683 -0.2423
 7205TIP3    H121579   3.203   1.592   4.976  0.8377 -0.0403  0.5827
 7205TIP3    H221580   3.247   1.732   5.012  0.5420  0.1418  0.2472
 7206TIP3   OH221581   2.829   3.032   2.250  0.1239 -0.6210 -0.1295
 7206TIP3    H121582   2.752   2.981   2.224  0.2143 -0.6331 -0.3790
 7206TIP3    H221583   2.899   2.967   2.260  0.4642 -0.4624 -1.3124
 7207TIP3   OH221584   2.405   6.156   4.213 -0.6543 -0.5281 -0.0580
 7207TIP3    H121585   2.397   6.065   4.241 -0.6631 -0.6079 -0.3210
 7207TIP3    H221586   2.359   6.160   4.129 -1.3940 -0.0957  0.3451
 7208TIP3   OH221587   4.028   0.353   0.420  0.3277  0.4538  0.1976
 7208TIP3    H121588   3.980   0.284   0.374  2.7209 -0.8519 -0.5252
 7208TIP3    H221589   4.071   0.309   0.493  1.7848  1.1532 -0.1800
 7209TIP3   OH221590   4.581   5.340   3.336 -0.1201  0.0184 -0.0595
 7209TIP3    H121591   4.642   5.304   3.272  1.1752  0.2138  1.0454
 7209TIP3    H221592   4.501   5.358   3.285  0.2260 -1.5779 -1.2318
 7210TIP3   OH221593   5.755   0.966   0.157  0.1828  0.0224 -0.4140
 7210TIP3    H121594   5.815   0.915   0.211 -0.9974 -0.9558  0.0384
 7210TIP3    H221595   5.682   0.907   0.140 -0.6519  1.1580 -0.9432
 7211TIP3   OH221596   0.225   0.348   3.696 -0.2254  0.0035  0.4458
 7211TIP3    H121597   0.296   0.286   3.677 -0.5464  0.1490 -1.3645
 7211TIP3    H221598   0.236   0.418   3.632 -2.3619 -0.2877 -0.3150
 7212TIP3   OH221599   2.191   0.858   3.014  0.4339  0.1592  0.0279
 7212TIP3    H121600   2.194   0.953   3.000 -0.2618  0.3088  0.8060
 7212TIP3    H221601   2.106   0.832   2.981  0.5974 -0.1834 -0.1210
 7213TIP3   OH221602   6.190   2.561   1.659  0.5107  0.2823  0.1468
 7213TIP3    H121603   6.209   2.594   1.747 -2.2574  0.7993  0.6220
 7213TIP3    H221604   6.106   2.517   1.667 -0.8451  2.1017 -2.6078
 7214TIP3   OH221605   2.227   0.015   1.082  0.2711 -0.6175 -0.1409
 7214TIP3    H121606   2.230  -0.005   0.989  0.6899 -0.0288 -0.2518
 7214TIP3    H221607   2.281   0.093   1.093 -2.8626  1.7131 -0.0191
 7215TIP3   OH221608   2.419   2.705   1.928 -0.2810  0.1569  0.0254
 7215TIP3    H121609   2.424   2.611   1.947  0.2777  0.2527  0.3751
 7215TIP3    H221610   2.339   2.734   1.972 -1.1258 -0.3684 -1.0791
 7216TIP3   OH221611   5.878   0.974   1.573  0.3693  0.1987  0.3795
 7216TIP3    H121612   5.822   1.047   1.598 -2.5726 -1.0361 -2.0155
 7216TIP3    H221613   5.963   1.014   1.554 -0.1391  2.4408  2.3518
 7217TIP3   OH221614   2.816   0.183   4.301  0.0277  0.2047  0.4302
 7217TIP3    H121615   2.906   0.213   4.288 -0.1674  0.1755 -1.1994
 7217TIP3    H221616   2.802   0.188   4.395  1.2676  1.5616  0.5698
 7218TIP3   OH221617   6.666   3.133   5.851 -0.4087  0.4426 -0.1298
 7218TIP3    H121618   6.657   3.160   5.759 -1.8106  0.1151 -0.1105
 7218TIP3    H221619   6.707   3.207   5.894 -0.5486  0.9510 -0.8486
 7219TIP3   OH221620   3.425   0.320   0.644 -0.8493 -0.1146 -0.3879
 7219TIP3    H121621   3.360   0.282   0.585 -0.0693 -0.7931 -0.8304
 7219TIP3    H221622   3.449   0.248   0.702  0.1420 -0.1214 -0.7927
 7220TIP3   OH221623   4.013   5.567   0.566  0.4065 -0.5528  0.0843
 7220TIP3    H121624   3.986   5.529   0.650  1.6298  1.6043  1.5240
 7220TIP3    H221625   3.938   5.620   0.539  1.5636  2.3767  2.1762
 7221TIP3   OH221626   1.597   5.341   5.673 -0.7149 -0.6852  0.0648
 7221TIP3    H121627   1.510   5.343   5.634 -0.6635  0.2910 -0.0155
 7221TIP3    H221628   1.642   5.415   5.635 -0.8323  0.6489  2.3375
 7222TIP3   OH221629   2.248   4.454   3.090 -0.3692 -0.0476 -0.5775
 7222TIP3    H121630   2.248   4.540   3.133 -1.6195 -0.1314 -0.3607
 7222TIP3    H221631   2.314   4.461   3.021  0.1303  0.8089 -0.0258
 7223TIP3   OH221632   3.555   4.905   5.190 -0.0200  0.2435  0.5915
 7223TIP3    H121633   3.634   4.918   5.137 -0.1993 -1.0065 -0.0354
 7223TIP3    H221634   3.534   4.992   5.224  2.4438  0.3989  1.9611
 7224TIP3   OH221635   6.063   0.701   0.037 -0.2603  0.0686  0.0411
 7224TIP3    H121636   6.056   0.787  -0.003  0.4053  0.8989  1.6547
 7224TIP3    H221637   6.013   0.707   0.118  0.7040 -0.7026  0.7273
 7225TIP3   OH221638   2.450   6.372   4.406 -0.2402  0.0500 -0.1341
 7225TIP3    H121639   2.447   6.288   4.361  0.0496  0.0464 -0.1487
 7225TIP3    H221640   2.433   6.436   4.337 -0.3935  0.0060 -0.1362
 7226TIP3   OH221641   0.557   2.405   1.518 -0.0093 -0.0225 -0.1900
 7226TIP3    H121642   0.465   2.384   1.499 -0.0989  1.0845 -1.0950
 7226TIP3    H221643   0.576   2.358   1.599 -1.0562 -1.1236 -0.5431
 7227TIP3   OH221644   4.949   2.198   4.030 -0.0038  0.1158  0.2538
 7227TIP3    H121645   5.029   2.173   4.076  0.3979 -1.0605 -1.0228
 7227TIP3    H221646   4.919   2.118   3.988  0.3104  1.2926 -2.4797
 7228TIP3   OH221647   4.986   1.976   4.535 -0.2838  0.4114 -0.5621
 7228TIP3    H121648   4.982   1.949   4.443  1.4788  1.8685 -1.1289
 7228TIP3    H221649   4.909   1.936   4.575 -1.0470 -0.3397 -2.6441
 7229TIP3   OH221650   3.434   4.272   4.159 -0.3154  0.5019 -0.2288
 7229TIP3    H121651   3.479   4.191   4.136  2.1914  1.0097  2.3432
 7229TIP3    H221652   3.429   4.321   4.078  2.6282 -0.1894 -0.9355
 7230TIP3   OH221653   0.203   5.274   3.750 -0.1717  0.0841 -0.2947
 7230TIP3    H121654   0.127   5.325   3.778  1.1877  1.3208  1.3583
 7230TIP3    H221655   0.245   5.246   3.831 -0.8172 -3.7633 -1.1136
 7231TIP3   OH221656   7.027   0.900   1.086 -0.3774 -0.3398  0.0667
 7231TIP3    H121657   7.089   0.853   1.031  1.2783  0.3502  1.2485
 7231TIP3    H221658   6.997   0.973   1.032  0.3897 -0.2904 -0.3045
 7232TIP3   OH221659   0.870   5.668   4.189 -0.0325 -0.0724 -0.3377
 7232TIP3    H121660   0.962   5.685   4.169  0.5432 -1.5355  0.8993
 7232TIP3    H221661   0.845   5.597   4.129  0.3791 -1.3162  0.9007
 7233TIP3   OH221662   0.102   5.864   0.319 -0.1981  0.4171 -0.0805
 7233TIP3    H121663   0.063   5.903   0.241 -1.3905  1.1948  0.8672
 7233TIP3    H221664   0.032   5.867   0.385  0.8014 -0.1411  1.0422
 7234TIP3   OH221665   0.685   1.228   3.515  0.1623 -0.1756  0.3808
 7234TIP3    H121666   0.651   1.318   3.516 -0.2400 -0.2941 -1.1235
 7234TIP3    H221667   0.650   1.190   3.435  0.5197 -1.6176  0.8882
 7235TIP3   OH221668   6.321   3.791   5.039  0.1607 -0.5261  0.2810
 7235TIP3    H121669   6.271   3.749   4.970 -0.8314 -0.6168  1.0354
 7235TIP3    H221670   6.331   3.881   5.010  0.8662 -0.8625 -0.5677
 7236TIP3   OH221671   0.356   3.524   2.040  0.5082  0.1704  0.2492
 7236TIP3    H121672   0.374   3.438   2.077 -1.4166 -0.3248  0.1346
 7236TIP3    H221673   0.337   3.507   1.948 -1.7609  0.3929  0.6106
 7237TIP3   OH221674   0.575   1.569   3.854 -0.3857  1.3219 -0.0323
 7237TIP3    H121675   0.488   1.569   3.815 -0.4938  1.3927  0.2080
 7237TIP3    H221676   0.572   1.500   3.920 -0.5768  1.9812  0.6662
 7238TIP3   OH221677   1.169   0.261   1.374 -0.0589 -0.1269  0.3125
 7238TIP3    H121678   1.232   0.331   1.390 -0.1684  0.0182  0.1149
 7238TIP3    H221679   1.215   0.181   1.399 -0.1157  0.0621  1.0426
 7239TIP3   OH221680   4.911   0.732   4.647  0.2896  0.0542 -0.0630
 7239TIP3    H121681   4.986   0.715   4.705 -0.0792 -1.0727  0.1098
 7239TIP3    H221682   4.937   0.697   4.562  0.1592  0.1429 -0.1407
 7240TIP3   OH221683   3.786   0.166   5.629  0.0142 -0.0031 -0.0667
 7240TIP3    H121684   3.703   0.120   5.644  0.9699 -1.8412 -0.1945
 7240TIP3    H221685   3.848   0.123   5.688  0.5730  2.4173  1.2371
 7241TIP3   OH221686   5.919   2.647   3.431 -0.0693  0.1306  0.5058
 7241TIP3    H121687   5.976   2.632   3.356 -0.9489  1.4538 -0.4836
 7241TIP3    H221688   5.964   2.607   3.505  1.1337 -0.6366 -0.6082
 7242TIP3   OH221689   3.369   3.163   5.340  0.5362  0.5331 -0.4806
 7242TIP3    H121690   3.338   3.076   5.364  0.5008  0.2654 -1.4513
 7242TIP3    H221691   3.366   3.213   5.421 -0.1635 -0.1602 -0.0648
 7243TIP3   OH221692   1.160   5.619   3.653 -0.7868 -0.1653  0.5246
 7243TIP3    H121693   1.126   5.664   3.575  0.9140 -1.8373 -1.3041
 7243TIP3    H221694   1.225   5.680   3.689 -0.9049  0.2374  0.0760
 7244TIP3   OH221695   6.146   6.055   1.012  0.2641  0.5616 -0.2749
 7244TIP3    H121696   6.224   6.107   1.033 -0.1487  0.6267  1.2347
 7244TIP3    H221697   6.162   6.022   0.924  1.6824  1.1492 -0.2654
 7245TIP3   OH221698   3.838   2.211   5.459 -0.1245 -0.2595  0.4418
 7245TIP3    H121699   3.760   2.217   5.404 -1.2531  2.1291  2.1056
 7245TIP3    H221700   3.876   2.299   5.456 -1.1523  0.5501  4.4997
 7246TIP3   OH221701   7.122   1.211   1.576  0.0785  0.5150  0.5168
 7246TIP3    H121702   7.182   1.209   1.651  0.1884 -1.1211  0.4176
 7246TIP3    H221703   7.036   1.228   1.613  0.5487  2.8220  0.6707
 7247TIP3   OH221704   2.068   3.575   2.842 -0.0534  0.2565 -0.1500
 7247TIP3    H121705   2.075   3.578   2.747  2.4865 -0.2061 -0.0398
 7247TIP3    H221706   2.105   3.658   2.872  0.6457 -0.2673  0.4656
 7248TIP3   OH221707   3.110   0.225   4.308  0.4374  0.0815 -0.2501
 7248TIP3    H121708   3.102   0.213   4.213 -0.0341 -0.8942 -0.0959
 7248TIP3    H221709   3.196   0.189   4.330  0.1126 -0.6586 -0.1648
 7249TIP3   OH221710   4.239   5.986   2.008 -0.2662 -0.0144  0.0201
 7249TIP3    H121711   4.186   5.952   1.936  0.1274 -2.3144  0.7349
 7249TIP3    H221712   4.292   6.055   1.967 -0.1942 -1.1039 -1.8673
 7250TIP3   OH221713   4.788   6.274   0.891 -0.2169 -0.4083  0.3496
 7250TIP3    H121714   4.800   6.179   0.899  2.8807 -0.1116  0.3721
 7250TIP3    H221715   4.843   6.299   0.816  0.0440  1.5026  1.1266
 7251TIP3   OH221716   4.549   4.245   3.712 -0.0528 -0.3635 -0.8201
 7251TIP3    H121717   4.493   4.280   3.642 -0.0559  0.8288 -0.2443
 7251TIP3    H221718   4.588   4.322   3.753  0.4404 -1.0743  0.0958
 7252TIP3   OH221719   6.899   2.916   3.205  0.7985  0.0391  0.3840
 7252TIP3    H121720   6.923   2.921   3.112 -1.5624 -1.7351 -0.4027
 7252TIP3    H221721   6.861   3.002   3.224 -1.2071 -0.4605 -1.1012
 7253TIP3   OH221722   0.087   4.553   4.767  0.0395 -0.8590  0.8443
 7253TIP3    H121723   0.109   4.582   4.678 -1.1464 -1.0462  0.4729
 7253TIP3    H221724   0.009   4.604   4.790  0.7402 -0.2866  2.0724
 7254TIP3   OH221725   4.129   0.645   0.388 -0.1860  0.0568 -0.3170
 7254TIP3    H121726   4.076   0.665   0.465 -0.8600  1.7240 -1.1594
 7254TIP3    H221727   4.138   0.550   0.388  1.1964  0.0681  2.6946
 7255TIP3   OH221728   1.575   0.791   5.233  0.5546 -0.1164 -0.6144
 7255TIP3    H121729   1.575   0.696   5.231 -0.1284 -0.1630  0.6012
 7255TIP3    H221730   1.667   0.816   5.224  0.5887 -0.7945 -2.7778
 7256TIP3   OH221731   4.308   0.704   5.274  0.2581  0.4564  0.4692
 7256TIP3    H121732   4.362   0.783   5.268 -0.3427  0.7656 -1.5752
 7256TIP3    H221733   4.218   0.736   5.273  0.0054 -0.2431  0.0071
 7257TIP3   OH221734   1.168   5.064   5.039 -0.2283 -0.3263 -0.4708
 7257TIP3    H121735   1.149   4.971   5.040  0.9420 -0.5807 -0.1056
 7257TIP3    H221736   1.256   5.071   5.076 -0.3916  0.9459 -0.2715
 7258TIP3   OH221737   0.280   0.809   5.379  0.7675  0.1443 -0.5918
 7258TIP3    H121738   0.371   0.789   5.402  0.5274 -0.3212 -0.0197
 7258TIP3    H221739   0.229   0.771   5.450  0.0456 -0.7595 -1.5741
 7259TIP3   OH221740   4.715   1.240   1.055  0.0643  0.1877  0.4513
 7259TIP3    H121741   4.695   1.157   1.099 -0.3040  1.1063  2.1144
 7259TIP3    H221742   4.639   1.256   0.999 -0.1759 -0.2663  0.6418
 7260TIP3   OH221743   3.647   2.205   5.834  0.1411  0.5274 -0.5883
 7260TIP3    H121744   3.738   2.234   5.826  0.5763 -0.8126 -0.7642
 7260TIP3    H221745   3.606   2.268   5.893  0.9771  1.5889 -1.1178
 7261TIP3   OH221746   5.322   2.448   3.178 -0.3369 -0.1851  0.4369
 7261TIP3    H121747   5.292   2.434   3.088  1.3614 -0.6365 -0.1044
 7261TIP3    H221748   5.339   2.360   3.211  0.4328  0.0372  0.6678
 7262TIP3   OH221749   3.767   0.805   5.438 -0.6562  0.0891  0.2229
 7262TIP3    H121750   3.773   0.717   5.403 -4.1363  0.1380 -0.8545
 7262TIP3    H221751   3.740   0.793   5.529  0.1352  0.0671  0.4636
 7263TIP3   OH221752   1.001   4.969   0.211  0.6413  0.3036  0.2089
 7263TIP3    H121753   1.087   4.988   0.174  1.3910 -2.3512  0.3809
 7263TIP3    H221754   0.945   4.954   0.134  1.1975 -1.2005  0.0596
 7264TIP3   OH221755   0.353   5.208   3.280  0.4181  0.1858  0.3147
 7264TIP3    H121756   0.398   5.178   3.201  1.7283 -0.2080  1.1582
 7264TIP3    H221757   0.320   5.295   3.259 -0.0550 -0.2851 -0.9480
 7265TIP3   OH221758   3.607   2.130   2.660 -0.1631 -0.0716 -0.4039
 7265TIP3    H121759   3.521   2.159   2.632 -0.0800  2.4099  1.5618
 7265TIP3    H221760   3.666   2.201   2.634  1.1659 -1.2383 -0.7584
 7266TIP3   OH221761   3.067   6.702   4.168 -0.0922  0.0161 -0.2542
 7266TIP3    H121762   3.012   6.772   4.132  0.9137  1.3377  0.6969
 7266TIP3    H221763   3.065   6.717   4.262 -1.5210 -2.5249  0.2097
 7267TIP3   OH221764   5.059   5.938   1.713  0.7066  0.4575 -0.4903
 7267TIP3    H121765   4.994   5.870   1.732  0.3375  0.9688  0.1743
 7267TIP3    H221766   5.115   5.939   1.791  0.9459  0.6421 -0.6662
 7268TIP3   OH221767   1.567   4.491   0.491  0.2485 -0.2592  0.0342
 7268TIP3    H121768   1.498   4.520   0.431 -0.7143  0.4404  1.4361
 7268TIP3    H221769   1.564   4.553   0.564  2.5974 -0.0094  0.0015
 7269TIP3   OH221770   1.668   2.736   1.649 -0.0068 -0.2080 -0.0968
 7269TIP3    H121771   1.596   2.760   1.589 -2.0305 -0.2507  2.1625
 7269TIP3    H221772   1.679   2.813   1.704  0.4089 -0.8863  0.7757
 7270TIP3   OH221773   2.096   5.802   5.684  0.2758  0.1088  0.5277
 7270TIP3    H121774   2.037   5.838   5.750 -1.3552  2.8150 -2.1729
 7270TIP3    H221775   2.167   5.866   5.677 -1.3026  1.7281 -2.5163
 7271TIP3   OH221776   3.454   2.314   1.259 -0.3105 -0.0485  0.2004
 7271TIP3    H121777   3.481   2.258   1.187 -0.0964  0.9348 -0.5124
 7271TIP3    H221778   3.404   2.257   1.317 -0.7225 -0.8014 -0.8586
 7272TIP3   OH221779   5.342   3.741   1.035  0.0397 -0.3802  0.5174
 7272TIP3    H121780   5.438   3.744   1.036  0.0282 -0.0887  0.8484
 7272TIP3    H221781   5.321   3.648   1.021  0.3713 -0.6234  1.5573
 7273TIP3   OH221782   6.417   4.074   5.774  0.2250  0.7324 -0.1680
 7273TIP3    H121783   6.348   4.014   5.748  0.1196 -0.2916  2.1744
 7273TIP3    H221784   6.371   4.152   5.803  0.1953  0.8755 -0.5926
 7274TIP3   OH221785   0.314   0.725   1.693 -0.5080  0.0585  0.0636
 7274TIP3    H121786   0.252   0.787   1.732 -0.3552 -0.2682  0.8580
 7274TIP3    H221787   0.374   0.704   1.765 -0.9426 -1.4973 -0.0046
 7275TIP3   OH221788   1.493   1.132   4.333  0.2282  0.0194  0.4209
 7275TIP3    H121789   1.449   1.138   4.248 -0.7698  0.2566  0.9462
 7275TIP3    H221790   1.553   1.058   4.323 -0.3857 -0.3974 -0.2677
 7276TIP3   OH221791   5.575   1.377   0.995  0.5291 -0.0410 -0.4088
 7276TIP3    H121792   5.585   1.470   0.975 -1.2830  0.0460 -1.0724
 7276TIP3    H221793   5.486   1.369   1.028  1.1524 -1.3226  1.1206
 7277TIP3   OH221794   1.370   5.945   2.556  0.0649  0.6543 -0.4451
 7277TIP3    H121795   1.394   6.029   2.596 -0.8759  2.0791 -2.6761
 7277TIP3    H221796   1.430   5.937   2.482  1.6832 -1.8503  0.9722
 7278TIP3   OH221797   7.089   4.146   0.412 -0.4878  0.1000  0.2306
 7278TIP3    H121798   7.157   4.080   0.395 -0.4847 -0.2371  1.4874
 7278TIP3    H221799   7.057   4.125   0.499 -2.0190  0.4365 -0.2260
 7279TIP3   OH221800   4.050   2.794   3.877 -0.0261  0.3590  0.1250
 7279TIP3    H121801   4.003   2.791   3.794  0.7052  0.6819 -0.3070
 7279TIP3    H221802   4.088   2.882   3.880  0.7674  0.0192  0.3377
 7280TIP3   OH221803   3.886   2.626   0.092 -0.5826  0.3972 -0.4998
 7280TIP3    H121804   3.815   2.563   0.091 -2.1226  2.0594 -0.4445
 7280TIP3    H221805   3.844   2.710   0.112  1.5869  1.2190  0.9781
 7281TIP3   OH221806   1.283   5.453   3.297  0.3619  0.8864  0.1018
 7281TIP3    H121807   1.313   5.365   3.318 -2.6537 -0.4582 -0.6734
 7281TIP3    H221808   1.255   5.490   3.381  0.0086  0.4386  0.1787
 7282TIP3   OH221809   4.546   2.162   3.260  0.2909  0.2786 -0.0455
 7282TIP3    H121810   4.500   2.245   3.246  0.8704  0.7172  0.5869
 7282TIP3    H221811   4.638   2.181   3.238  0.7897  0.3514  1.9216
 7283TIP3   OH221812   4.485   3.024   3.903  0.3044 -0.1742  0.4103
 7283TIP3    H121813   4.542   3.064   3.968 -0.7036  0.1402  1.1253
 7283TIP3    H221814   4.504   3.070   3.822  0.1061  0.8510  0.9347
 7284TIP3   OH221815   1.319   6.732   1.235 -0.1784 -0.1713 -0.1182
 7284TIP3    H121816   1.321   6.703   1.144 -0.2132 -1.2755  0.2273
 7284TIP3    H221817   1.246   6.686   1.275 -0.6127  0.8413  0.3127
 7285TIP3   OH221818   6.556   4.381   2.108  0.0469  0.2068 -0.1655
 7285TIP3    H121819   6.576   4.451   2.170 -0.0683  0.3784 -0.3212
 7285TIP3    H221820   6.612   4.308   2.135 -1.0859 -0.2535  1.1022
 7286TIP3   OH221821   3.254   0.291   2.135 -0.4847 -0.3982  0.4961
 7286TIP3    H121822   3.242   0.225   2.067 -0.4044  0.1508 -0.0590
 7286TIP3    H221823   3.284   0.242   2.211  1.7375 -0.7823 -0.5324
 7287TIP3   OH221824   5.565   5.960   4.443  0.3947  0.0163  0.1658
 7287TIP3    H121825   5.575   5.966   4.348  1.7830  1.6225  0.3647
 7287TIP3    H221826   5.471   5.961   4.459  0.1664  0.8541 -1.1465
 7288TIP3   OH221827   0.768   0.638   2.952 -0.0131 -0.2900 -0.4279
 7288TIP3    H121828   0.727   0.632   2.865  0.1558 -1.4446 -0.4494
 7288TIP3    H221829   0.850   0.684   2.937  0.3321 -1.0722 -1.0141
 7289TIP3   OH221830   3.346   0.884   4.819  0.0455 -0.2335  0.3530
 7289TIP3    H121831   3.376   0.852   4.734  0.1408  1.5974 -0.3321
 7289TIP3    H221832   3.256   0.913   4.804  0.1540  0.3458  0.8062
 7290TIP3   OH221833   4.474   4.779   1.684 -0.1025 -0.1203 -1.2497
 7290TIP3    H121834   4.409   4.849   1.690 -0.3109 -0.4184  0.3295
 7290TIP3    H221835   4.535   4.809   1.617 -0.7619  1.0877 -1.3383
 7291TIP3   OH221836   6.625   4.541   4.347  0.2206 -0.1406 -0.2725
 7291TIP3    H121837   6.529   4.546   4.349  0.1146 -1.7713  0.2896
 7291TIP3    H221838   6.647   4.546   4.254 -0.3385  1.0647 -0.3545
 7292TIP3   OH221839   2.720   5.198   2.887 -0.1226  0.0576 -0.0229
 7292TIP3    H121840   2.807   5.157   2.885  0.0381  0.3420  0.8649
 7292TIP3    H221841   2.674   5.153   2.958 -0.1837  0.9417  0.5044
 7293TIP3   OH221842   1.922   0.359   5.257  0.6770 -0.0045  1.0748
 7293TIP3    H121843   1.967   0.279   5.230  0.9367  0.2877  0.6205
 7293TIP3    H221844   1.851   0.329   5.314  1.0350 -0.5204  1.2532
 7294TIP3   OH221845   5.337   2.321   3.979  0.1814  0.0159 -0.4100
 7294TIP3    H121846   5.323   2.265   4.056  1.3006 -1.0173 -0.9249
 7294TIP3    H221847   5.255   2.369   3.970 -0.6516 -1.2000  0.3446
 7295TIP3   OH221848   6.154   0.453   5.718 -0.3942 -0.6611  0.3273
 7295TIP3    H121849   6.234   0.410   5.746 -0.2998  0.0529  1.2264
 7295TIP3    H221850   6.127   0.406   5.639  0.8476 -0.9751  0.0650
 7296TIP3   OH221851   3.635   6.609   1.333 -0.2572 -0.0550  0.7756
 7296TIP3    H121852   3.724   6.626   1.365 -0.2734 -1.3174  1.5591
 7296TIP3    H221853   3.595   6.555   1.401 -0.8850 -1.3652 -0.5837
 7297TIP3   OH221854   5.283   1.688   5.769 -0.2305  0.5392  0.4393
 7297TIP3    H121855   5.243   1.721   5.689 -0.5154 -1.9438 -0.5432
 7297TIP3    H221856   5.217   1.701   5.837 -0.6954  1.0343 -0.0990
 7298TIP3   OH221857   0.578   6.396   0.797 -0.6572 -0.2254 -0.2878
 7298TIP3    H121858   0.509   6.462   0.790 -0.7341 -0.3806 -1.0674
 7298TIP3    H221859   0.658   6.440   0.770 -0.8208 -0.6134 -1.4760
 7299TIP3   OH221860   4.302   5.217   5.788 -0.3230  0.5237  0.0591
 7299TIP3    H121861   4.262   5.267   5.717 -0.6464  0.4851  0.2086
 7299TIP3    H221862   4.239   5.224   5.860 -0.5833 -0.4560 -0.0583
 7300TIP3   OH221863   6.013   5.917   5.189 -0.3262  0.1050  0.4926
 7300TIP3    H121864   5.961   5.862   5.131  1.8949 -0.0229 -1.5815
 7300TIP3    H221865   6.030   5.863   5.266 -0.6368 -0.9916 -0.1916
 7301TIP3   OH221866   3.404   0.464   1.480  0.3878 -0.5202 -0.1498
 7301TIP3    H121867   3.400   0.388   1.538 -2.2271 -1.2808 -1.1810
 7301TIP3    H221868   3.406   0.427   1.392  0.2832  0.6044 -0.6446
 7302TIP3   OH221869   5.071   1.894   4.909  0.3006 -0.4086  0.1552
 7302TIP3    H121870   5.039   1.915   4.997 -2.4507  0.4721 -0.9256
 7302TIP3    H221871   5.036   1.806   4.891 -1.0704  0.2881 -0.7962
 7303TIP3   OH221872   5.149   6.610   0.776  0.2639 -0.6166  0.6366
 7303TIP3    H121873   5.217   6.585   0.838  1.5017  0.0178 -0.4053
 7303TIP3    H221874   5.192   6.672   0.717 -1.0600 -0.6391 -0.4064
 7304TIP3   OH221875   6.876   3.004   2.201 -0.7064 -0.5829 -0.1477
 7304TIP3    H121876   6.890   3.087   2.155  0.3143 -0.7708 -0.1891
 7304TIP3    H221877   6.963   2.967   2.211 -1.0478 -1.1573  0.8144
 7305TIP3   OH221878   5.983   6.298   0.379 -0.3350 -0.0852  0.5414
 7305TIP3    H121879   5.891   6.304   0.406 -0.0664 -3.0219  2.5831
 7305TIP3    H221880   5.990   6.212   0.337  1.3536  0.3925 -0.2417
 7306TIP3   OH221881   6.420   2.604   3.155  0.3429  1.1150 -0.3303
 7306TIP3    H121882   6.429   2.529   3.215  0.1094  0.1824 -1.4194
 7306TIP3    H221883   6.508   2.617   3.119  0.1601  0.6394 -0.9655
 7307TIP3   OH221884   6.034   3.702   1.284 -0.4134  0.4255 -0.4027
 7307TIP3    H121885   6.096   3.631   1.273 -0.7733 -0.0233  0.3745
 7307TIP3    H221886   6.063   3.748   1.363 -0.8269  0.4591 -0.2673
 7308TIP3   OH221887   5.846   0.723   1.425 -0.3267 -0.6670  0.1197
 7308TIP3    H121888   5.927   0.723   1.476 -0.7621  0.4348  0.8362
 7308TIP3    H221889   5.813   0.812   1.432  0.3506 -0.0050 -3.3256
 7309TIP3   OH221890   2.631   5.237   4.894 -0.0391  0.1066  0.4453
 7309TIP3    H121891   2.682   5.284   4.961  1.2477  1.0234 -1.1066
 7309TIP3    H221892   2.641   5.290   4.815 -1.5233 -0.9461 -0.4939
 7310TIP3   OH221893   0.923   1.557   0.492  0.8254  0.3313 -0.0133
 7310TIP3    H121894   0.988   1.497   0.456  0.1054  0.0699 -0.9293
 7310TIP3    H221895   0.859   1.499   0.535  0.7345  0.5205  0.1053
 7311TIP3   OH221896   4.722   3.484   5.816 -0.6139 -0.1061 -0.3338
 7311TIP3    H121897   4.631   3.473   5.788 -1.1580  2.0156  0.4178
 7311TIP3    H221898   4.758   3.548   5.754  0.3268 -0.7815 -0.5040
 7312TIP3   OH221899   6.883   0.550   2.497  0.9147  0.0646 -0.4491
 7312TIP3    H121900   6.908   0.637   2.530  0.9488  0.0039 -0.3138
 7312TIP3    H221901   6.821   0.569   2.427 -0.2862  0.1800  0.5996
 7313TIP3   OH221902   2.086   0.761   5.517 -0.4198  0.2317 -0.1241
 7313TIP3    H121903   2.176   0.780   5.544 -0.1002 -0.4620 -0.6456
 7313TIP3    H221904   2.077   0.666   5.528 -0.0584 -0.2319 -2.8770
 7314TIP3   OH221905   3.506   2.552   0.907  0.2461  0.1682  0.0797
 7314TIP3    H121906   3.505   2.463   0.940 -1.5931  0.1726  0.1507
 7314TIP3    H221907   3.584   2.591   0.945 -0.7732 -0.3699  2.9691
 7315TIP3   OH221908   1.552   0.345   3.344 -0.1390 -0.5157 -0.1072
 7315TIP3    H121909   1.593   0.414   3.397  0.0831 -0.1454 -0.7548
 7315TIP3    H221910   1.480   0.314   3.398 -1.2086  1.2860 -0.3976
 7316TIP3   OH221911   6.490   2.998   1.016  0.0304 -0.4257  1.0472
 7316TIP3    H121912   6.461   3.019   1.104  0.4037 -2.1476  1.6239
 7316TIP3    H221913   6.413   2.964   0.972 -1.2014  3.8410 -0.6468
 7317TIP3   OH221914   4.427   3.429   5.744  0.1204  0.4390  0.1476
 7317TIP3    H121915   4.407   3.523   5.751  2.1553  0.9077  0.4069
 7317TIP3    H221916   4.411   3.394   5.831 -0.0223  0.6923  0.2249
 7318TIP3   OH221917   6.921   6.719   4.274 -0.0639  0.2480  0.3279
 7318TIP3    H121918   6.922   6.723   4.370 -0.7531 -0.0612  0.3563
 7318TIP3    H221919   6.893   6.806   4.246 -0.5777  0.1183  0.4343
 7319TIP3   OH221920   5.412   2.735   4.362  0.1983 -0.1582 -0.2079
 7319TIP3    H121921   5.369   2.739   4.448  0.4252 -1.2960 -0.0264
 7319TIP3    H221922   5.366   2.800   4.310  0.2534  0.7631  0.8609
 7320TIP3   OH221923   4.903   1.669   5.226 -0.2301  0.3750  0.5361
 7320TIP3    H121924   4.819   1.675   5.273  1.2767 -0.7454  3.6207
 7320TIP3    H221925   4.900   1.584   5.183 -0.6069  0.2316  0.8328
 7321TIP3   OH221926   5.060   1.775   0.931 -0.1873 -0.2240  0.2649
 7321TIP3    H121927   5.010   1.694   0.940 -0.3733 -0.1613 -0.1809
 7321TIP3    H221928   4.999   1.837   0.891  0.3121 -0.2221 -0.5166
 7322TIP3   OH221929   4.496   1.390   4.863 -0.1948  0.0280  0.1582
 7322TIP3    H121930   4.552   1.409   4.787 -1.1133 -0.0311 -0.5438
 7322TIP3    H221931   4.523   1.454   4.928  1.8835 -1.0600  0.4826
 7323TIP3   OH221932   6.236   2.570   5.016  0.3185  0.3031 -0.4114
 7323TIP3    H121933   6.249   2.477   4.995  1.4971  0.8829 -2.5049
 7323TIP3    H221934   6.154   2.593   4.972 -0.4140  0.0983  0.7970
 7324TIP3   OH221935   6.563   1.585   2.391  0.1567  0.2334  0.5258
 7324TIP3    H121936   6.548   1.637   2.470 -0.2337 -0.1130  0.6863
 7324TIP3    H221937   6.508   1.626   2.325 -0.7122 -0.3841  0.8361
 7325TIP3   OH221938   6.983   3.219   0.421 -0.0581  0.4962 -0.1625
 7325TIP3    H121939   7.024   3.302   0.396  0.3372  0.4010  0.1524
 7325TIP3    H221940   6.917   3.244   0.485 -0.2885  0.6195 -0.4459
 7326TIP3   OH221941   1.825   1.777   3.056 -0.3761 -0.3111  0.0169
 7326TIP3    H121942   1.752   1.769   3.116 -0.4575 -0.5406 -0.1105
 7326TIP3    H221943   1.786   1.804   2.973 -0.1601  0.9608  0.3051
 7327TIP3   OH221944   5.176   5.842   1.030  0.2741 -0.1858 -0.3107
 7327TIP3    H121945   5.189   5.931   1.065  0.0212 -0.2725 -0.0017
 7327TIP3    H221946   5.196   5.851   0.937 -0.1510  0.2841 -0.3596
 7328TIP3   OH221947   1.180   2.954   5.129  0.1770 -0.3951 -0.1883
 7328TIP3    H121948   1.247   2.982   5.067 -0.5519  0.9257 -0.4210
 7328TIP3    H221949   1.122   2.898   5.079  0.7121 -0.9786 -0.1647
 7329TIP3   OH221950   1.070   1.152   1.947  0.0971  0.3119 -0.2784
 7329TIP3    H121951   1.052   1.069   1.991  0.9505 -0.3297 -1.0952
 7329TIP3    H221952   1.139   1.193   2.000  0.3686  0.0360 -0.4149
 7330TIP3   OH221953   2.038   3.069   1.335 -0.2871 -0.2598  0.0356
 7330TIP3    H121954   2.085   2.986   1.341 -3.0440 -2.0129 -0.7951
 7330TIP3    H221955   2.060   3.114   1.417  0.2311 -2.4109  1.1577
 7331TIP3   OH221956   6.868   1.711   4.716  0.8954 -0.3726  0.3108
 7331TIP3    H121957   6.796   1.774   4.716  2.2727  1.3038 -0.4611
 7331TIP3    H221958   6.832   1.633   4.759 -0.6235  1.2235  2.1487
 7332TIP3   OH221959   6.215   3.642   2.019 -0.3778 -0.5004 -0.2003
 7332TIP3    H121960   6.197   3.595   1.938 -0.5006  0.2166 -0.5924
 7332TIP3    H221961   6.129   3.668   2.052 -0.4868 -2.3556  1.1326
 7333TIP3   OH221962   0.079   5.404   4.445 -0.4394  0.1345 -0.2072
 7333TIP3    H121963   0.020   5.328   4.443 -0.6306  0.2756 -0.0910
 7333TIP3    H221964   0.131   5.396   4.366 -0.1132 -0.3888  0.0509
 7334TIP3   OH221965   1.378   1.373   4.292  0.9015  0.0760  1.1049
 7334TIP3    H121966   1.419   1.293   4.325  0.6222 -1.4614 -1.9327
 7334TIP3    H221967   1.285   1.351   4.285  0.7917  0.7086  0.4013
 7335TIP3   OH221968   5.845   0.140   5.718  0.3619  0.1300  0.2457
 7335TIP3    H121969   5.823   0.188   5.638  0.0621  0.0313  0.2696
 7335TIP3    H221970   5.913   0.079   5.690 -0.3115 -0.4643 -0.1201
 7336TIP3   OH221971   5.104   2.589   2.066  0.1277  0.0040 -0.2308
 7336TIP3    H121972   5.066   2.676   2.076  1.4716  0.5909 -0.0560
 7336TIP3    H221973   5.094   2.548   2.151  0.1617  0.2687 -0.0991
 7337TIP3   OH221974   4.335   4.813   3.452  0.3383 -0.2580  0.4119
 7337TIP3    H121975   4.343   4.732   3.401  1.4925  0.5380 -0.7283
 7337TIP3    H221976   4.387   4.797   3.531 -0.9125 -1.2552  1.0764
 7338TIP3   OH221977   1.205   5.517   4.457 -0.6868  0.3023  0.4122
 7338TIP3    H121978   1.268   5.541   4.388  0.7929  1.4264  2.0739
 7338TIP3    H221979   1.232   5.430   4.485 -0.2366  0.5327  0.7042
 7339TIP3   OH221980   7.154   4.062   2.231 -0.3056 -0.6355  0.3588
 7339TIP3    H121981   7.230   4.006   2.247 -0.9382 -1.5295  0.2693
 7339TIP3    H221982   7.097   4.045   2.306 -1.1355 -1.1976 -0.3885
 7340TIP3   OH221983   1.962   5.639   0.047 -0.1545 -0.0987  0.1523
 7340TIP3    H121984   1.885   5.585   0.064  1.1524 -2.1751 -0.1524
 7340TIP3    H221985   1.973   5.636  -0.048 -0.7352  1.7493 -0.0077
 7341TIP3   OH221986   1.171   0.166   2.163 -0.0514  0.1401 -0.0692
 7341TIP3    H121987   1.134   0.159   2.076 -0.1039  0.3551 -0.0639
 7341TIP3    H221988   1.173   0.076   2.196  1.9363 -0.2432 -1.0994
 7342TIP3   OH221989   1.943   4.076   2.110 -0.4245 -0.3955 -0.2634
 7342TIP3    H121990   1.938   3.982   2.123 -4.0075 -0.2252  0.6094
 7342TIP3    H221991   1.919   4.090   2.018  1.5003 -0.3382 -0.7983
 7343TIP3   OH221992   4.697  -0.004   4.168 -0.0471 -0.4649 -0.2389
 7343TIP3    H121993   4.781   0.033   4.196 -0.0406 -0.7144  0.0811
 7343TIP3    H221994   4.635   0.020   4.238 -0.0451 -1.0322 -0.0319
 7344TIP3   OH221995   1.156   0.994   0.362  0.0175 -0.5424  0.2902
 7344TIP3    H121996   1.165   1.076   0.313  1.3618 -0.4100  0.7109
 7344TIP3    H221997   1.232   0.993   0.420  0.1157 -2.1780  0.1644
 7345TIP3   OH221998   5.876   5.271   3.282  0.0659  0.4007 -0.1270
 7345TIP3    H121999   5.920   5.351   3.253  0.1851 -0.1511 -1.5888
 7345TIP3    H222000   5.883   5.273   3.377  3.7112  0.1052 -0.2451
 7346TIP3   OH222001   6.976   5.343   1.141 -0.2217 -0.0273  0.1019
 7346TIP3    H122002   6.891   5.314   1.108 -0.4588  0.7760 -0.0280
 7346TIP3    H222003   6.995   5.423   1.091 -1.9194  2.9147  3.6367
 7347TIP3   OH222004   4.292   3.700   2.049 -0.2761 -0.7045 -0.0308
 7347TIP3    H122005   4.260   3.677   1.961 -0.9164 -1.0919  0.2941
 7347TIP3    H222006   4.213   3.702   2.103 -0.2985  2.2871 -0.0115
 7348TIP3   OH222007   0.253   2.613   5.364 -0.3012 -0.0652 -0.5606
 7348TIP3    H122008   0.180   2.658   5.321 -0.3429 -0.9171 -1.3975
 7348TIP3    H222009   0.220   2.525   5.381  0.1948 -0.1487 -0.0158
 7349TIP3   OH222010   0.275   2.659   3.171 -0.3040 -0.2578  0.1309
 7349TIP3    H122011   0.314   2.613   3.097  0.0439 -0.5673  0.4999
 7349TIP3    H222012   0.252   2.591   3.233  3.2092  0.1207  2.1365
 7350TIP3   OH222013   6.622   4.690   5.283  0.0512 -0.5859 -0.1968
 7350TIP3    H122014   6.610   4.728   5.195  0.6315 -1.6884 -0.7708
 7350TIP3    H222015   6.535   4.660   5.308 -0.7876  2.3783  0.9276
 7351TIP3   OH222016   1.295   5.001   4.607  0.0668  1.0761  0.4357
 7351TIP3    H122017   1.276   4.941   4.535  0.1894  1.1884  0.3087
 7351TIP3    H222018   1.211   5.012   4.652 -0.0016  0.9761  0.3314
 7352TIP3   OH222019   3.023   0.712   4.833 -0.2309  0.1618 -0.2090
 7352TIP3    H122020   3.043   0.806   4.830 -0.7930  0.2751 -2.3490
 7352TIP3    H222021   3.023   0.690   4.926  1.2860  1.9795  0.2886
 7353TIP3   OH222022   5.247   2.848   1.011 -0.4947 -0.3265  0.1354
 7353TIP3    H122023   5.152   2.854   1.018 -0.4566 -0.3613  0.6599
 7353TIP3    H222024   5.273   2.787   1.080  0.0528  0.8784  1.0229
 7354TIP3   OH222025   7.050   6.320   5.652  0.0296 -0.2411 -0.4448
 7354TIP3    H122026   7.130   6.272   5.674 -0.2822  0.0271  1.5018
 7354TIP3    H222027   6.979   6.264   5.682 -0.4184  0.4589 -0.1629
 7355TIP3   OH222028   4.480   6.201   0.652  0.4779  0.1897  0.4869
 7355TIP3    H122029   4.565   6.157   0.650  0.9111  1.0470 -0.6992
 7355TIP3    H222030   4.482   6.252   0.733  0.8920 -0.1717  0.7110
 7356TIP3   OH222031   7.226   4.338   2.261 -0.4654  0.1200 -0.4224
 7356TIP3    H122032   7.173   4.264   2.231 -1.0359  0.6870 -0.8396
 7356TIP3    H222033   7.221   4.335   2.356 -2.4160  0.9696 -0.4575
 7357TIP3   OH222034   4.980   5.180   5.810 -0.4694  0.3259  0.0119
 7357TIP3    H122035   4.964   5.264   5.853 -0.6632  1.0055 -1.3211
 7357TIP3    H222036   5.066   5.190   5.770 -1.1930  0.5390 -1.5675
 7358TIP3   OH222037   0.565   1.366   5.684  0.2699 -0.3208 -0.2717
 7358TIP3    H122038   0.541   1.444   5.735 -0.6795 -0.7373 -0.0729
 7358TIP3    H222039   0.488   1.310   5.687  0.9841 -1.3444 -0.2988
 7359TIP3   OH222040   7.115   1.018   2.454 -0.3355 -0.4366 -0.1227
 7359TIP3    H122041   7.206   1.044   2.461  0.0334 -1.5878 -0.4104
 7359TIP3    H222042   7.097   1.021   2.360 -0.3598 -0.9267 -0.1391
 7360TIP3   OH222043   5.534   0.106   1.200  0.6086 -0.3674  0.3263
 7360TIP3    H122044   5.490   0.030   1.161  3.6595 -2.2657  0.3197
 7360TIP3    H222045   5.507   0.103   1.292  0.4679 -1.3129  0.2723
 7361TIP3   OH222046   3.626   1.693   5.378 -0.3849  0.0782  0.4242
 7361TIP3    H122047   3.640   1.675   5.471  1.9481 -0.7828 -0.0185
 7361TIP3    H222048   3.549   1.750   5.376 -1.2821 -0.9251  2.7564
 7362TIP3   OH222049   5.510   3.080   2.511 -0.1867 -0.1899 -0.5845
 7362TIP3    H122050   5.421   3.063   2.481 -0.0216 -0.5900 -0.8446
 7362TIP3    H222051   5.501   3.092   2.606 -0.2220 -2.4773 -0.2532
 7363TIP3   OH222052   1.591   0.397   2.290 -0.1174 -0.8278 -0.3263
 7363TIP3    H122053   1.576   0.403   2.384 -2.0932  1.0603 -0.6670
 7363TIP3    H222054   1.650   0.469   2.270 -2.7174  1.3164 -0.9293
 7364TIP3   OH222055   1.700   2.288   1.596  0.7099  0.2153  0.1479
 7364TIP3    H122056   1.637   2.313   1.663  0.5663  1.4102 -0.4224
 7364TIP3    H222057   1.671   2.333   1.517  0.6275 -1.4978 -0.8526
 7365TIP3   OH222058   6.544   2.052   4.155 -0.3234 -0.0329 -0.1398
 7365TIP3    H122059   6.637   2.058   4.134 -0.7055  2.3306 -1.4199
 7365TIP3    H222060   6.529   2.123   4.217 -1.3078 -0.3299 -0.0200
 7366TIP3   OH222061   4.952   4.103   5.390  0.0639  0.2382 -0.5449
 7366TIP3    H122062   5.032   4.075   5.434 -0.7624 -2.8029 -0.7757
 7366TIP3    H222063   4.881   4.065   5.442 -1.3146  2.7224 -0.4242
 7367TIP3   OH222064   1.128   2.282   0.814 -0.4611  0.5455  0.3684
 7367TIP3    H122065   1.081   2.235   0.883  1.3943  0.4521  1.6679
 7367TIP3    H222066   1.126   2.374   0.842 -1.8541  0.9000 -0.8061
 7368TIP3   OH222067   1.098   2.589   1.671 -0.3932  0.5070 -0.5865
 7368TIP3    H122068   1.183   2.565   1.634  0.1841  0.9338  0.4244
 7368TIP3    H222069   1.040   2.593   1.596 -0.6522 -4.1764 -0.8990
 7369TIP3   OH222070   0.681   6.026   5.359 -0.1893  0.3974 -0.0899
 7369TIP3    H122071   0.769   6.003   5.388 -0.8574  1.0758  2.8388
 7369TIP3    H222072   0.694   6.094   5.294  1.4572  0.4648  0.2645
 7370TIP3   OH222073   5.767   0.766   4.590  0.0009 -0.2084  0.8445
 7370TIP3    H122074   5.820   0.800   4.518 -0.7034  0.3004  0.5541
 7370TIP3    H222075   5.717   0.694   4.550  1.1214 -1.2942  1.3355
 7371TIP3   OH222076   1.060   3.141   3.586  0.3192  0.2084  0.1218
 7371TIP3    H122077   1.153   3.154   3.604  0.4271 -1.3216  0.8958
 7371TIP3    H222078   1.035   3.214   3.530  2.6571 -0.7807 -2.4555
 7372TIP3   OH222079   5.988   4.709   1.082 -0.3929  0.2864 -0.3311
 7372TIP3    H122080   6.048   4.781   1.061  0.4503 -0.0522  0.8228
 7372TIP3    H222081   5.901   4.749   1.078  0.0395  1.2977 -0.0304
 7373TIP3   OH222082   5.162   6.105   1.118 -0.1483  0.0944  0.4080
 7373TIP3    H122083   5.126   6.188   1.088  0.8860 -0.2993 -2.1777
 7373TIP3    H222084   5.237   6.128   1.173 -0.1860  0.8766  0.1319
 7374TIP3   OH222085   5.477   6.295   3.754 -0.0771  0.4918 -0.8378
 7374TIP3    H122086   5.476   6.226   3.820  0.2690  1.6572  0.4325
 7374TIP3    H222087   5.569   6.315   3.740 -0.1947  2.0702  0.3477
 7375TIP3   OH222088   1.406   2.279   1.351 -0.1873  0.1493 -0.1610
 7375TIP3    H122089   1.377   2.232   1.430 -1.3796  0.7826 -0.1951
 7375TIP3    H222090   1.455   2.213   1.301 -1.3880 -0.9438  0.0300
 7376TIP3   OH222091   7.195   2.255   5.683 -0.1615 -0.3905  0.0731
 7376TIP3    H122092   7.165   2.335   5.639 -0.6852 -1.3416 -1.3861
 7376TIP3    H222093   7.194   2.276   5.776 -1.2723  0.9659 -0.2225
 7377TIP3   OH222094   0.688   3.441   0.252 -0.0555  0.2363 -0.5444
 7377TIP3    H122095   0.768   3.470   0.209  0.2652 -0.0870 -0.1774
 7377TIP3    H222096   0.704   3.349   0.273  0.8121  0.9542  2.4967
 7378TIP3   OH222097   3.213   1.693   3.209  0.4245  0.3575 -0.1755
 7378TIP3    H122098   3.122   1.714   3.227  0.5110  0.2878  0.3638
 7378TIP3    H222099   3.248   1.664   3.293  0.0047 -3.1375 -1.0263
 7379TIP3   OH222100   3.766   4.607   0.270 -0.3473 -0.6867 -0.4861
 7379TIP3    H122101   3.732   4.607   0.360  0.1495 -1.6589 -0.2803
 7379TIP3    H222102   3.727   4.684   0.229 -1.3100 -0.7416  0.2902
 7380TIP3   OH222103   0.139   2.031   4.704 -0.6296 -0.1817 -0.4000
 7380TIP3    H122104   0.139   2.062   4.795  0.2612 -0.0461 -0.4354
 7380TIP3    H222105   0.047   2.009   4.686 -1.0094  0.8622  0.1639
 7381TIP3   OH222106   0.244   1.426   2.854  0.4240  0.1325 -0.7044
 7381TIP3    H122107   0.321   1.471   2.888 -0.7001  3.4762 -2.1706
 7381TIP3    H222108   0.279   1.368   2.786  1.8232 -0.2735  0.3119
 7382TIP3   OH222109   2.980   3.019   1.978 -0.1411  0.0002 -0.1791
 7382TIP3    H122110   2.893   3.051   2.004  0.0085 -0.1917  0.5635
 7382TIP3    H222111   2.967   2.990   1.887 -1.0399 -0.6873  0.1486
 7383TIP3   OH222112   3.215   3.066   2.236  0.1340  0.0479  0.3598
 7383TIP3    H122113   3.221   3.161   2.229  0.1546  0.1279  1.3480
 7383TIP3    H222114   3.212   3.035   2.145  0.9471  0.9327  0.0192
 7384TIP3   OH222115   2.440   1.226   3.111  0.2247 -0.6806  0.4313
 7384TIP3    H122116   2.486   1.195   3.190  0.3987 -0.7817  0.2911
 7384TIP3    H222117   2.510   1.238   3.046  0.2858  0.8463  0.7343
 7385TIP3   OH222118   6.314   3.208   5.265  0.6843 -0.4154  0.3024
 7385TIP3    H122119   6.334   3.119   5.295  0.8271 -0.6539 -0.4822
 7385TIP3    H222120   6.269   3.248   5.340  3.0818 -0.2213  1.7490
 7386TIP3   OH222121   0.786   4.270   3.014  0.2704  0.6375 -0.3111
 7386TIP3    H122122   0.847   4.262   3.087 -0.5560  0.1551  0.3444
 7386TIP3    H222123   0.707   4.224   3.043 -0.6492  1.7926 -0.8675
 7387TIP3   OH222124   4.079   3.661   4.068  0.3883  0.3038  0.1149
 7387TIP3    H122125   4.015   3.720   4.107  1.2138  1.2686  0.0310
 7387TIP3    H222126   4.026   3.589   4.033 -0.7304  1.4263 -0.6022
 7388TIP3   OH222127   4.479   5.095   5.443  0.0807  0.0645 -0.0322
 7388TIP3    H122128   4.491   5.072   5.535  1.9417  0.3851 -0.1568
 7388TIP3    H222129   4.435   5.180   5.445  1.6860  0.9187  0.6300
 7389TIP3   OH222130   3.585   1.758   0.836 -0.3559  0.3916  0.3019
 7389TIP3    H122131   3.527   1.712   0.776 -1.3863  1.3222  0.5426
 7389TIP3    H222132   3.606   1.840   0.790 -2.3701  1.7998  1.7745
 7390TIP3   OH222133   0.815   3.408   3.518 -0.1962 -0.2735  0.1265
 7390TIP3    H122134   0.727   3.404   3.555 -0.5046  0.7279 -0.4556
 7390TIP3    H222135   0.872   3.427   3.592 -0.3367 -1.7802  0.6571
 7391TIP3   OH222136   1.421   0.569   5.661 -0.0880 -0.0630 -0.3924
 7391TIP3    H122137   1.482   0.516   5.611 -0.3830  0.7194 -1.6217
 7391TIP3    H222138   1.424   0.656   5.620 -2.8368 -0.2719 -1.2705
 7392TIP3   OH222139   4.501   6.678   2.138 -0.2231 -0.0059 -0.2111
 7392TIP3    H122140   4.581   6.692   2.086 -0.1008 -0.1913 -0.0703
 7392TIP3    H222141   4.503   6.748   2.203 -0.6215  0.5232 -0.7554
 7393TIP3   OH222142   0.129   4.561   4.139  0.7770 -0.0300  0.1716
 7393TIP3    H122143   0.113   4.557   4.045 -0.6381  0.6889  0.3452
 7393TIP3    H222144   0.056   4.513   4.178  1.2077 -0.1008  0.9123
 7394TIP3   OH222145   5.368   0.427   2.755  0.1070 -0.2781  0.4769
 7394TIP3    H122146   5.445   0.480   2.774  0.6040 -0.5925 -0.6064
 7394TIP3    H222147   5.294   0.483   2.780  0.6663  0.2463  0.9871
 7395TIP3   OH222148   3.757   0.250   1.509 -0.2776 -0.0530 -0.4478
 7395TIP3    H122149   3.723   0.334   1.478 -2.1570 -0.7159 -0.2855
 7395TIP3    H222150   3.722   0.185   1.447  0.6226 -0.8058 -0.2056
 7396TIP3   OH222151   4.900   5.861   0.529 -0.2356 -0.3027 -0.1750
 7396TIP3    H122152   4.978   5.908   0.497 -0.6423  1.6956  1.5546
 7396TIP3    H222153   4.826   5.911   0.495 -0.7270 -0.7887  0.1626
 7397TIP3   OH222154   3.484   2.549   4.999 -0.1477 -0.2080 -0.4563
 7397TIP3    H122155   3.390   2.568   4.992 -0.0083  0.6926  0.0167
 7397TIP3    H222156   3.511   2.591   5.080  0.6619 -0.5163 -0.5567
 7398TIP3   OH222157   5.015   6.579   3.494 -0.2410 -0.1016  0.6572
 7398TIP3    H122158   5.068   6.658   3.503  0.1034 -0.2157 -0.2939
 7398TIP3    H222159   5.065   6.512   3.542 -0.1296  0.0630  0.7747
 7399TIP3   OH222160   6.729   1.601   3.411  0.6214  0.2671 -0.4656
 7399TIP3    H122161   6.760   1.538   3.347  1.7039  0.2364  0.0610
 7399TIP3    H222162   6.773   1.683   3.388 -0.7293  0.8320 -1.1108
 7400TIP3   OH222163   4.407   0.945   4.355 -0.5875 -0.3589 -0.1919
 7400TIP3    H122164   4.346   0.876   4.328 -0.3899 -0.7307  0.3029
 7400TIP3    H222165   4.490   0.900   4.366  0.0373  0.3047 -1.7886
 7401TIP3   OH222166   3.473   1.196   4.011  0.3718 -0.1338  0.0778
 7401TIP3    H122167   3.462   1.289   4.030 -0.5287 -0.5510  1.7990
 7401TIP3    H222168   3.386   1.166   3.985  0.6781 -0.4825 -0.5771
 7402TIP3   OH222169   3.330   2.079   0.763 -0.9879 -0.3366  0.5796
 7402TIP3    H122170   3.236   2.078   0.746 -0.9987  2.0391  0.1006
 7402TIP3    H222171   3.369   2.100   0.678  0.0127 -1.5499  0.7191
 7403TIP3   OH222172   6.985   0.739   4.018  0.0467 -0.0266 -0.2337
 7403TIP3    H122173   6.949   0.662   4.062  0.4940 -0.0856  0.0306
 7403TIP3    H222174   7.079   0.721   4.011  0.1318  0.4339 -0.2916
 7404TIP3   OH222175   5.221   1.110   1.351 -0.4189  0.0210 -0.0223
 7404TIP3    H122176   5.147   1.118   1.290  0.7958 -0.4359 -1.6189
 7404TIP3    H222177   5.236   1.016   1.358 -1.1353 -0.0116  1.8115
 7405TIP3   OH222178   5.328   2.360   5.475 -0.0803 -0.5705 -0.0469
 7405TIP3    H122179   5.252   2.419   5.477  0.4362  0.1742 -0.9753
 7405TIP3    H222180   5.294   2.277   5.442 -0.5862 -0.3877  0.0143
 7406TIP3   OH222181   4.243   2.920   5.356  0.0038  0.1414 -0.0019
 7406TIP3    H122182   4.236   2.999   5.304 -0.8328  0.2649  0.2768
 7406TIP3    H222183   4.289   2.858   5.300 -1.3644  0.0841 -1.1297
 7407TIP3   OH222184   5.930   5.902   2.950 -0.2151 -0.4590 -0.2275
 7407TIP3    H122185   6.018   5.906   2.910 -0.3622  0.4957 -0.4769
 7407TIP3    H222186   5.874   5.949   2.888 -0.7566 -0.3502  0.3438
 7408TIP3   OH222187   6.369   2.571   3.799 -0.2394  0.1718  0.8090
 7408TIP3    H122188   6.429   2.586   3.726 -0.0418 -1.0759  0.6904
 7408TIP3    H222189   6.416   2.604   3.875 -0.5514  1.7259  0.3686
 7409TIP3   OH222190   4.780   4.052   1.188 -0.1084 -0.1953  0.6667
 7409TIP3    H122191   4.844   4.071   1.119 -0.2554  0.9385  0.8241
 7409TIP3    H222192   4.742   3.969   1.162 -0.6432  0.5146 -0.9929
 7410TIP3   OH222193   2.800   4.489   1.388 -0.0385 -0.4969 -0.2244
 7410TIP3    H122194   2.792   4.549   1.314 -1.7675  0.3852  0.6137
 7410TIP3    H222195   2.796   4.402   1.348  0.4750 -0.0478 -1.2870
 7411TIP3   OH222196   1.624   2.201   5.463 -0.5747 -0.1505 -0.0549
 7411TIP3    H122197   1.547   2.253   5.485 -0.1898  0.2755  0.2888
 7411TIP3    H222198   1.595   2.145   5.391 -1.1315  0.1934 -0.1016
 7412TIP3   OH222199   0.291   6.347   3.120  0.8327  0.4739 -0.2705
 7412TIP3    H122200   0.365   6.303   3.162  0.4650 -0.1718 -0.2826
 7412TIP3    H222201   0.215   6.297   3.148  0.5281  0.3179 -1.3131
 7413TIP3   OH222202   2.407   6.585   1.552  0.4311 -0.0100 -0.9045
 7413TIP3    H122203   2.381   6.677   1.542  0.4471  0.2666  1.1158
 7413TIP3    H222204   2.498   6.589   1.582  0.7140 -0.7344 -1.6382
 7414TIP3   OH222205   5.576   2.291   4.322  0.9457 -0.1377  0.0972
 7414TIP3    H122206   5.617   2.362   4.272 -2.4282 -0.6621 -3.9269
 7414TIP3    H222207   5.590   2.213   4.268 -3.2392 -0.6700 -0.4996
 7415TIP3   OH222208   4.485   4.430   1.316 -0.0703  0.1064 -0.5651
 7415TIP3    H122209   4.457   4.428   1.224 -0.3358  0.3375 -0.4905
 7415TIP3    H222210   4.499   4.523   1.334 -1.1191  0.1696 -0.0429
 7416TIP3   OH222211   3.640   2.695   3.061  0.1923 -0.0407  0.0612
 7416TIP3    H122212   3.629   2.601   3.050  1.6835 -0.1743 -0.4751
 7416TIP3    H222213   3.723   2.704   3.107  0.7166  1.0526 -1.0435
 7417TIP3   OH222214   2.665   2.421   5.858  0.6919  0.0109  0.3202
 7417TIP3    H122215   2.613   2.416   5.938  0.7101  0.5709  0.3723
 7417TIP3    H222216   2.600   2.438   5.789  0.5021 -1.8245 -0.0075
 7418TIP3   OH222217   0.962   6.630   2.313  0.1159 -0.3605  0.3053
 7418TIP3    H122218   1.043   6.583   2.297  0.3208 -0.2676  1.0467
 7418TIP3    H222219   0.960   6.644   2.408 -0.0885  0.8396  0.1417
 7419TIP3   OH222220   4.479   3.362   2.318 -0.3586 -0.1462  0.6262
 7419TIP3    H122221   4.445   3.355   2.229 -1.1082  2.0053  0.6886
 7419TIP3    H222222   4.433   3.292   2.366  0.0256 -1.3005 -0.6151
 7420TIP3   OH222223   0.974   2.388   0.595  0.5356  0.6282 -0.4995
 7420TIP3    H122224   1.028   2.328   0.648  0.6178  0.4932 -0.7364
 7420TIP3    H222225   0.966   2.466   0.649  1.6922  0.9887 -0.8309
 7421TIP3   OH222226   2.801   0.604   2.815 -0.2940 -0.3158  0.1640
 7421TIP3    H122227   2.712   0.582   2.841 -0.9550  1.0939 -0.7857
 7421TIP3    H222228   2.791   0.673   2.750  1.5597  1.8838  2.0050
 7422TIP3   OH222229   0.975   4.036   3.710 -0.2812  0.6945 -0.2501
 7422TIP3    H122230   1.057   4.075   3.741  0.3001  1.3711 -2.4760
 7422TIP3    H222231   0.938   4.101   3.651 -1.5949 -0.3019 -0.5674
 7423TIP3   OH222232   0.404   5.572   4.192  0.0181 -0.7279 -0.1432
 7423TIP3    H122233   0.468   5.643   4.185  0.2656 -0.8067  1.1064
 7423TIP3    H222234   0.445   5.499   4.145  0.5939 -0.5967  0.1397
 7424TIP3   OH222235   4.480   4.467   4.618 -0.4706  0.5261 -0.3038
 7424TIP3    H122236   4.488   4.442   4.709 -0.0288  2.0603  0.1152
 7424TIP3    H222237   4.395   4.511   4.613 -0.0796  1.2983 -0.3889
 7425TIP3   OH222238   1.417   6.297   5.114 -0.1115 -0.0935  0.4011
 7425TIP3    H122239   1.374   6.321   5.032 -0.6805 -1.8528  0.1295
 7425TIP3    H222240   1.364   6.224   5.148  1.3871 -0.8567  1.2022
 7426TIP3   OH222241   1.743   5.237   4.717  0.6580  0.1357  0.2037
 7426TIP3    H122242   1.804   5.221   4.644  0.8388 -0.9839  0.5726
 7426TIP3    H222243   1.681   5.164   4.712  0.7278 -0.0074  1.2058
 7427TIP3   OH222244   1.711   3.704   5.331  0.4996 -0.3120  0.2808
 7427TIP3    H122245   1.748   3.665   5.410  0.9431 -1.9450 -0.6994
 7427TIP3    H222246   1.652   3.638   5.296  0.0023  0.5437 -0.5481
 7428TIP3   OH222247   3.541   4.273   3.008 -0.6644 -0.0317  0.1272
 7428TIP3    H122248   3.619   4.241   2.963 -0.3995  1.3634 -0.4645
 7428TIP3    H222249   3.551   4.242   3.098 -0.1433 -1.0720 -0.2726
 7429TIP3   OH222250   2.029   5.113   1.344 -0.1288 -0.4261 -0.2491
 7429TIP3    H122251   2.037   5.195   1.296  0.7997 -0.6052 -0.4118
 7429TIP3    H222252   2.118   5.089   1.368 -0.3045 -1.7124 -0.7696
 7430TIP3   OH222253   6.286   2.611   3.490  0.3890  0.5476 -0.1108
 7430TIP3    H122254   6.340   2.563   3.428  0.2674  0.7585 -0.3833
 7430TIP3    H222255   6.332   2.695   3.502  0.7135  0.2825  0.5263
 7431TIP3   OH222256   2.323   4.297   4.945  0.0060  1.2462  0.5364
 7431TIP3    H122257   2.378   4.237   4.895 -0.3926  0.2131  1.3020
 7431TIP3    H222258   2.357   4.293   5.034 -0.8218  1.1667  0.8592
 7432TIP3   OH222259   2.352   3.483   2.353  0.1957 -0.0863 -0.6846
 7432TIP3    H122260   2.407   3.489   2.431  0.2392  0.9442 -0.7819
 7432TIP3    H222261   2.399   3.532   2.286 -1.1067  1.3954 -0.5958
 7433TIP3   OH222262   4.359   2.200   0.305  0.3891 -0.2229 -0.6623
 7433TIP3    H122263   4.353   2.293   0.284 -0.6072 -0.4195 -1.3048
 7433TIP3    H222264   4.307   2.189   0.384  2.2157  0.1046  0.6436
 7434TIP3   OH222265   1.769   5.154   1.004 -0.5324 -0.3554 -1.0542
 7434TIP3    H122266   1.853   5.189   0.973  0.3873  1.3868  2.8591
 7434TIP3    H222267   1.717   5.231   1.025 -0.8572 -1.2583  1.8952
 7435TIP3   OH222268   5.672   2.888   4.983 -0.2119 -0.3324  0.4723
 7435TIP3    H122269   5.641   2.863   5.070 -1.4674 -1.0269 -0.1609
 7435TIP3    H222270   5.647   2.980   4.974  1.3075  0.2225  1.4215
 7436TIP3   OH222271   2.371   5.542   5.468  0.4080 -0.2269 -0.2220
 7436TIP3    H122272   2.279   5.539   5.493  0.5381 -1.7387  0.1797
 7436TIP3    H222273   2.395   5.634   5.476 -0.7586  0.0143  0.8221
 7437TIP3   OH222274   1.949   2.354   4.308 -0.6511 -0.0620  0.2015
 7437TIP3    H122275   1.907   2.397   4.382 -0.2840 -1.6855  1.4039
 7437TIP3    H222276   1.892   2.373   4.233 -2.1351 -0.0691  1.2905
 7438TIP3   OH222277   2.334   1.466   3.379  0.3887 -0.2034  0.1275
 7438TIP3    H122278   2.320   1.431   3.467  0.1910  1.1641  0.6709
 7438TIP3    H222279   2.326   1.561   3.390 -1.0759 -0.0779 -1.6181
 7439TIP3   OH222280   2.255   3.032   5.482 -0.0960  0.0102 -0.2144
 7439TIP3    H122281   2.319   3.087   5.437  0.7333 -0.2985  0.5708
 7439TIP3    H222282   2.296   3.009   5.565 -1.0681 -0.5144  0.1422
 7440TIP3   OH222283   1.829   0.768   1.064 -0.1084 -0.1752 -0.3096
 7440TIP3    H122284   1.850   0.748   0.973 -0.3979  2.6969 -1.0935
 7440TIP3    H222285   1.769   0.698   1.090 -0.6401 -0.6544 -2.5750
 7441TIP3   OH222286   1.550   2.082   0.736  0.4225 -0.0905  0.1098
 7441TIP3    H122287   1.560   2.122   0.822 -0.4134  1.9843 -0.6885
 7441TIP3    H222288   1.458   2.097   0.714  0.7496 -0.1022 -1.3585
 7442TIP3   OH222289   5.884   0.010   1.840 -0.0704  0.0246 -0.2302
 7442TIP3    H122290   5.807   0.067   1.839 -0.6580 -0.7283  0.2287
 7442TIP3    H222291   5.854  -0.072   1.800  1.0186  0.3280 -1.7641
 7443TIP3   OH222292   1.973   5.143   3.282 -0.3370  0.3588  0.2862
 7443TIP3    H122293   1.963   5.236   3.263 -0.2887  0.0823 -1.2821
 7443TIP3    H222294   1.940   5.099   3.203 -0.1608 -0.9401  0.9078
 7444TIP3   OH222295   0.395   5.814   2.958  0.0275 -0.7706 -0.9735
 7444TIP3    H122296   0.301   5.833   2.951 -0.5156 -2.6682  0.2992
 7444TIP3    H222297   0.399   5.722   2.983  2.2468 -0.7260 -0.9565
 7445TIP3   OH222298   2.883   2.296   5.005 -0.0638  0.0558 -0.4389
 7445TIP3    H122299   2.835   2.225   5.047 -0.0111  0.0284 -0.4255
 7445TIP3    H222300   2.890   2.364   5.072 -1.6870  0.8162 -0.9902
 7446TIP3   OH222301   6.294   2.120   0.958  0.0272 -0.0956 -0.6388
 7446TIP3    H122302   6.261   2.172   1.032  1.9811  0.4199 -0.0822
 7446TIP3    H222303   6.271   2.030   0.980 -0.0439  0.1273  0.2548
 7447TIP3   OH222304   0.164   3.805   1.947 -0.0689  0.0535  0.0760
 7447TIP3    H122305   0.213   3.884   1.968  0.9653 -0.2482 -1.0755
 7447TIP3    H222306   0.164   3.754   2.028 -0.3875  1.0325  0.7062
 7448TIP3   OH222307   6.551   6.476   2.357  0.0947  0.3811 -0.0346
 7448TIP3    H122308   6.635   6.482   2.402  0.6547 -1.3583 -0.7683
 7448TIP3    H222309   6.519   6.388   2.378 -1.0750  0.6589 -0.5846
 7449TIP3   OH222310   1.022   3.467   3.713 -0.5642  0.2356  0.5010
 7449TIP3    H122311   1.007   3.542   3.772 -0.8715 -0.3392  1.1671
 7449TIP3    H222312   1.110   3.437   3.736 -1.1565 -0.7518  1.5495
 7450TIP3   OH222313   1.678   3.309   2.585 -0.4270 -0.2648 -0.0918
 7450TIP3    H122314   1.743   3.239   2.586 -0.7553 -0.5801 -0.6048
 7450TIP3    H222315   1.690   3.352   2.500 -0.0023  0.5201  0.3513
 7451TIP3   OH222316   4.818   5.447   1.613 -0.2751  0.2096 -0.4181
 7451TIP3    H122317   4.838   5.359   1.581 -0.2603 -0.3777  1.1253
 7451TIP3    H222318   4.861   5.506   1.551  0.9442 -0.9016 -0.6667
 7452TIP3   OH222319   2.307   0.960   5.816  0.4280 -0.0155  0.7120
 7452TIP3    H122320   2.294   0.923   5.729 -0.2096  1.4172  0.1656
 7452TIP3    H222321   2.400   0.944   5.836  0.7067  0.0983 -0.4460
 7453TIP3   OH222322   3.207   1.543   4.615 -0.1770 -0.0388 -0.3516
 7453TIP3    H122323   3.211   1.511   4.705  0.6886  2.2638  0.4964
 7453TIP3    H222324   3.299   1.547   4.587 -0.4254 -0.5417 -1.3057
 7454TIP3   OH222325   1.580   1.010   0.213 -0.3327  0.2281 -0.0022
 7454TIP3    H122326   1.533   1.087   0.245 -0.9601  0.4370 -1.3682
 7454TIP3    H222327   1.590   0.954   0.291 -2.8114  0.1839  0.3765
 7455TIP3   OH222328   0.705   2.996   0.748 -0.3271 -0.0962  0.2237
 7455TIP3    H122329   0.662   3.057   0.809  0.1284 -1.0588  1.5394
 7455TIP3    H222330   0.773   3.048   0.706 -0.2237  0.4264  1.0188
 7456TIP3   OH222331   2.847   3.244   5.010 -0.1774  0.0439  0.5041
 7456TIP3    H122332   2.821   3.167   5.061 -0.5479 -0.3967 -0.3275
 7456TIP3    H222333   2.930   3.272   5.049 -0.5932 -0.1036  1.5244
 7457TIP3   OH222334   6.591   1.180   3.749  0.1474 -0.1133  0.6389
 7457TIP3    H122335   6.563   1.088   3.749  2.0669 -0.8071 -1.6183
 7457TIP3    H222336   6.622   1.195   3.660  2.7974  1.7779  1.7499
 7458TIP3   OH222337   5.536   1.260   4.417  0.2764 -0.1630  0.7026
 7458TIP3    H122338   5.604   1.286   4.356 -0.7540  0.6584 -0.1373
 7458TIP3    H222339   5.468   1.220   4.362 -0.5932  0.4322  1.3143
 7459TIP3   OH222340   2.408   2.427   1.510 -0.3967 -0.0176 -0.0140
 7459TIP3    H122341   2.371   2.456   1.594 -1.4684  0.8160 -0.7489
 7459TIP3    H222342   2.398   2.331   1.512 -1.8603  0.1169  0.1686
 7460TIP3   OH222343   6.796   3.547   0.043 -0.1491 -0.2806  0.0650
 7460TIP3    H122344   6.803   3.643   0.044 -0.9513 -0.2038 -0.6184
 7460TIP3    H222345   6.732   3.527   0.112  0.2776 -0.3523  0.4424
 7461TIP3   OH222346   2.508   1.437   5.554 -0.4053 -0.3643 -0.7364
 7461TIP3    H122347   2.576   1.482   5.605  0.7149  1.8265 -3.7883
 7461TIP3    H222348   2.428   1.449   5.604  0.3771  2.7344  0.0315
 7462TIP3   OH222349   0.976   5.310   5.204  0.5921  0.0614  0.1327
 7462TIP3    H122350   0.884   5.337   5.197  0.2179 -1.0157  0.7071
 7462TIP3    H222351   1.018   5.348   5.127 -0.5647 -0.3187 -0.7141
 7463TIP3   OH222352   4.742   5.364   0.068 -0.1856  0.6670  0.1393
 7463TIP3    H122353   4.787   5.429   0.015 -0.6457  0.6799 -0.2544
 7463TIP3    H222354   4.696   5.309   0.003  1.1406 -0.7861  0.3758
 7464TIP3   OH222355   0.553   4.643   5.609  0.0770 -0.4998 -0.3870
 7464TIP3    H122356   0.602   4.561   5.598  0.4002 -0.3428 -0.1663
 7464TIP3    H222357   0.548   4.680   5.521 -1.9764 -1.8068 -0.8687
 7465TIP3   OH222358   6.711   2.094   1.933 -0.0831 -0.6501 -0.9258
 7465TIP3    H122359   6.793   2.139   1.953  0.2616 -0.7359 -2.0855
 7465TIP3    H222360   6.680   2.061   2.017 -0.9835  2.7774  0.2715
 7466TIP3   OH222361   4.659   0.197   4.645 -0.0535 -0.1181  0.2554
 7466TIP3    H122362   4.604   0.196   4.566  2.0801  0.2212 -1.3478
 7466TIP3    H222363   4.598   0.210   4.717 -2.1382 -0.6905 -1.3041
 7467TIP3   OH222364   2.824   1.935   2.412 -0.0518 -0.3157  0.1174
 7467TIP3    H122365   2.905   1.926   2.361  0.0582  0.8718  0.0555
 7467TIP3    H222366   2.792   2.023   2.392 -1.5836 -0.9019 -0.1608
 7468TIP3   OH222367   2.283   4.558   4.949  0.5431  0.3327 -0.6225
 7468TIP3    H122368   2.195   4.592   4.968  0.1247 -1.2691  0.5017
 7468TIP3    H222369   2.275   4.464   4.959  2.3103  0.1090 -0.9615
 7469TIP3   OH222370   2.071   6.579   3.780 -0.4168 -0.0330  0.3316
 7469TIP3    H122371   1.986   6.608   3.744 -0.8728  0.1461  1.5172
 7469TIP3    H222372   2.053   6.560   3.872  0.1648 -2.9076 -0.0661
 7470TIP3   OH222373   5.864   0.634   3.065  0.3074  0.0699 -0.1673
 7470TIP3    H122374   5.840   0.621   2.973  1.4146 -0.6320 -0.3745
 7470TIP3    H222375   5.834   0.722   3.085 -0.1365  0.1548 -1.1479
 7471TIP3   OH222376   0.394   4.141   0.373 -0.0785  0.1840 -0.1728
 7471TIP3    H122377   0.415   4.222   0.327  0.9070  0.4515  0.7219
 7471TIP3    H222378   0.322   4.165   0.432 -1.8477 -0.3287 -2.0160
 7472TIP3   OH222379   3.521   0.510   0.807  0.4106  0.0049 -0.5498
 7472TIP3    H122380   3.483   0.440   0.754 -0.9646  0.1579  0.1981
 7472TIP3    H222381   3.578   0.465   0.870 -0.5906 -0.4617  0.0341
 7473TIP3   OH222382   0.057   4.555   1.227  0.5207  0.1184 -0.2348
 7473TIP3    H122383  -0.014   4.560   1.163  0.0979  0.8465  0.2863
 7473TIP3    H222384   0.117   4.490   1.190  0.0326  0.1548 -1.1215
 7474TIP3   OH222385   0.188   2.950   0.056  0.9764 -0.3249 -0.6364
 7474TIP3    H122386   0.140   2.923   0.134  0.8339  0.2686 -0.5151
 7474TIP3    H222387   0.196   2.870   0.004 -0.7007 -0.3051 -0.9668
 7475TIP3   OH222388   2.898   5.564   3.486  0.2222  0.0373  0.3362
 7475TIP3    H122389   2.981   5.594   3.449  1.1184 -1.9502  0.6252
 7475TIP3    H222390   2.890   5.611   3.569 -0.6017  2.6766 -1.0924
 7476TIP3   OH222391   3.317   5.862   5.240 -0.7257 -0.5384  0.1984
 7476TIP3    H122392   3.223   5.861   5.259 -0.3820 -0.0332  2.0942
 7476TIP3    H222393   3.357   5.811   5.310  0.6105  1.3065  0.8723
 7477TIP3   OH222394   5.049   1.841   2.450 -0.0878 -0.0771  0.2153
 7477TIP3    H122395   4.989   1.915   2.440 -1.0708 -0.8373  0.3905
 7477TIP3    H222396   5.084   1.827   2.363 -0.2133  0.3232  0.0952
 7478TIP3   OH222397   2.277   0.675   1.286  0.1036  0.5651 -0.6205
 7478TIP3    H122398   2.199   0.720   1.252 -0.9817 -0.5461  0.3159
 7478TIP3    H222399   2.299   0.611   1.219 -0.6045 -0.0122 -0.3163
 7479TIP3   OH222400   6.496   6.188   0.836  0.5869 -0.6919  0.7918
 7479TIP3    H122401   6.429   6.143   0.784  1.3611 -0.8979 -0.0440
 7479TIP3    H222402   6.572   6.194   0.778  0.1263  2.9263  0.3422
 7480TIP3   OH222403   2.800   1.920   5.117  0.0855  0.1888 -0.4344
 7480TIP3    H122404   2.751   1.978   5.175  0.9433  0.6580 -0.1669
 7480TIP3    H222405   2.888   1.957   5.115 -0.0766  0.5899 -2.5659
 7481TIP3   OH222406   4.897   2.487   2.957 -0.0276 -0.5876 -0.1213
 7481TIP3    H122407   4.876   2.533   3.038  0.9328  0.4823 -0.4466
 7481TIP3    H222408   4.822   2.428   2.942  0.6631 -2.2824  2.5453
 7482TIP3   OH222409   6.068   1.920   3.898 -0.1170 -0.7954 -0.3801
 7482TIP3    H122410   6.026   2.005   3.883 -0.4287 -1.1916 -2.0051
 7482TIP3    H222411   6.152   1.927   3.853 -0.2403 -1.4056 -0.7166
 7483TIP3   OH222412   6.485   3.051   2.294  0.0933  0.9987  0.0834
 7483TIP3    H122413   6.549   2.991   2.332  1.0097  1.6527 -0.3665
 7483TIP3    H222414   6.515   3.065   2.204 -0.4027  1.6942  0.0122
 7484TIP3   OH222415   5.933   2.263   0.621 -0.6645  0.0322 -0.1649
 7484TIP3    H122416   6.018   2.240   0.583 -0.0970 -0.8529  1.5055
 7484TIP3    H222417   5.928   2.211   0.701 -2.3824  0.7834  0.2710
 7485TIP3   OH222418   2.699   0.098   4.073 -0.0169 -0.4564  0.4320
 7485TIP3    H122419   2.643   0.174   4.082 -0.7715 -1.1129  1.5322
 7485TIP3    H222420   2.764   0.107   4.142 -0.6270 -1.2157  1.1307
 7486TIP3   OH222421   6.916   0.524   0.690 -0.3989  0.5207 -0.2229
 7486TIP3    H122422   6.925   0.603   0.744  0.1961 -0.9748  2.0293
 7486TIP3    H222423   6.983   0.534   0.622  0.4794  1.4116  0.7365
 7487TIP3   OH222424   5.722   0.215   5.297  0.4279  0.4047  0.3953
 7487TIP3    H122425   5.694   0.203   5.206  0.0644  0.6001  0.4793
 7487TIP3    H222426   5.742   0.127   5.328 -1.1290  0.1172  0.6641
 7488TIP3   OH222427   0.832   5.918   1.544 -0.9413 -0.4716 -0.0408
 7488TIP3    H122428   0.740   5.941   1.552 -0.6879  1.5912 -1.9093
 7488TIP3    H222429   0.837   5.865   1.465 -0.5737 -1.0271  0.3455
 7489TIP3   OH222430   5.305   3.504   3.967  0.0669  0.5879  0.3783
 7489TIP3    H122431   5.366   3.438   3.999 -0.7338 -0.8215 -0.8963
 7489TIP3    H222432   5.347   3.588   3.988  1.3618 -0.3115  1.5327
 7490TIP3   OH222433   2.711   2.684   4.482  0.1094 -0.5629  0.7160
 7490TIP3    H122434   2.801   2.654   4.490  0.1984 -0.0840  1.6627
 7490TIP3    H222435   2.658   2.605   4.494  0.3922 -0.7990  0.4233
 7491TIP3   OH222436   3.635   5.574   5.086 -0.1749  0.2029 -0.5100
 7491TIP3    H122437   3.712   5.629   5.074 -0.5667  1.6207  2.5777
 7491TIP3    H222438   3.582   5.589   5.007  0.3127  3.3451 -0.3628
 7492TIP3   OH222439   6.400   1.319   1.655 -0.2069  0.0667 -0.6369
 7492TIP3    H122440   6.432   1.296   1.742  0.9532 -0.8942 -1.2858
 7492TIP3    H222441   6.396   1.415   1.655  2.9649  0.2927 -0.5787
 7493TIP3   OH222442   5.015   1.574   2.107  0.9451 -0.5153 -0.1760
 7493TIP3    H122443   5.065   1.655   2.114 -0.0885  0.2112 -0.7884
 7493TIP3    H222444   4.976   1.578   2.019 -1.6334 -0.1237  0.8813
 7494TIP3   OH222445   4.947   5.990   0.914  0.1222  0.0309 -0.1783
 7494TIP3    H122446   5.007   6.021   0.845  0.7188  1.0712  0.7662
 7494TIP3    H222447   4.997   5.924   0.962  0.4996  0.8292  0.5499
 7495TIP3   OH222448   3.311   3.334   5.581  0.4582  0.6896 -0.0173
 7495TIP3    H122449   3.348   3.287   5.655 -0.9604 -1.5045 -0.5884
 7495TIP3    H222450   3.353   3.420   5.583  1.8848  0.0219  2.1431
 7496TIP3   OH222451   7.114   1.801   4.851  0.3474  0.8446 -0.0118
 7496TIP3    H122452   7.032   1.802   4.801  0.1395  0.5803  0.3235
 7496TIP3    H222453   7.088   1.773   4.939  0.6182  1.9070  0.4174
 7497TIP3   OH222454   2.648   4.388   4.298  0.2930 -0.1029  0.2471
 7497TIP3    H122455   2.712   4.442   4.252  2.4545 -2.5651  0.1566
 7497TIP3    H222456   2.600   4.343   4.228 -0.4524  0.5062  0.3509
 7498TIP3   OH222457   4.589   6.603   0.695  0.2456 -0.5194 -0.3468
 7498TIP3    H122458   4.681   6.580   0.710  0.5234  0.7518 -0.0221
 7498TIP3    H222459   4.585   6.697   0.711 -0.8067 -0.2835 -1.8142
 7499TIP3   OH222460   0.980   6.003   1.757 -0.5678  0.1354  0.1242
 7499TIP3    H122461   0.954   5.946   1.685 -1.7007 -0.9900  1.3608
 7499TIP3    H222462   0.973   6.092   1.721  0.1129 -0.4332 -1.4948
 7500TIP3   OH222463   2.413   4.736   2.084 -0.2258 -0.1064 -0.3096
 7500TIP3    H122464   2.508   4.734   2.095 -0.2430  0.7749  0.0735
 7500TIP3    H222465   2.379   4.722   2.173 -0.4637 -0.8683 -0.5148
 7501TIP3   OH222466   5.513   0.922   4.305 -0.0698 -0.0179  0.1256
 7501TIP3    H122467   5.526   0.945   4.398 -0.1826  1.3868 -0.1747
 7501TIP3    H222468   5.470   0.999   4.268 -0.1606 -0.6268 -1.0705
 7502TIP3   OH222469   0.124   2.535   0.018  0.6031  0.2696  0.1833
 7502TIP3    H122470   0.127   2.510   0.110 -1.8169  0.2794  0.3292
 7502TIP3    H222471   0.053   2.599   0.012  0.1196 -0.3761 -1.8179
 7503TIP3   OH222472   2.729   6.209   1.656 -0.4774  0.0341  0.3009
 7503TIP3    H122473   2.685   6.183   1.736 -1.5208 -1.6662 -0.7582
 7503TIP3    H222474   2.661   6.252   1.604 -0.0917  0.1734 -0.0975
 7504TIP3   OH222475   1.273   3.337   4.227 -0.7586 -0.8026  0.0826
 7504TIP3    H122476   1.198   3.395   4.235  0.3928  0.9228 -1.1178
 7504TIP3    H222477   1.300   3.343   4.136  1.0253 -1.1361  0.5418
 7505TIP3   OH222478   1.860   1.982   1.831  0.0753  0.0408  0.4197
 7505TIP3    H122479   1.783   1.926   1.830  0.4458 -0.5021 -1.1175
 7505TIP3    H222480   1.933   1.923   1.811  0.9099  0.5392  1.8622
 7506TIP3   OH222481   4.953   0.443   2.377 -0.2803  0.1781  0.2002
 7506TIP3    H122482   4.869   0.396   2.377  0.3225 -0.9450  0.5417
 7506TIP3    H222483   4.978   0.446   2.284 -0.1343 -0.5546  0.2080
 7507TIP3   OH222484   4.625   2.307   0.134  0.5885 -0.3041  0.2011
 7507TIP3    H122485   4.592   2.229   0.179  1.1498  0.3191  1.7589
 7507TIP3    H222486   4.689   2.273   0.072  0.7415 -1.1042  0.7787
 7508TIP3   OH222487   6.414   5.403   1.404  0.5305  0.5919 -0.0772
 7508TIP3    H122488   6.416   5.353   1.322  0.8499  0.5668 -0.0535
 7508TIP3    H222489   6.506   5.415   1.427  0.4551 -1.4443  1.5356
 7509TIP3   OH222490   3.185   5.078   4.044 -0.0569 -0.4274  0.3735
 7509TIP3    H122491   3.187   5.169   4.013  0.3136  0.0307  1.6715
 7509TIP3    H222492   3.208   5.026   3.967 -1.0032  0.5147 -0.5782
 7510TIP3   OH222493   2.132   2.262   5.314 -0.1801 -0.5202 -0.5638
 7510TIP3    H122494   2.046   2.295   5.339  0.3583  0.6084 -0.1338
 7510TIP3    H222495   2.115   2.208   5.236 -1.2865 -0.4521 -0.3920
 7511TIP3   OH222496   1.081   1.671   2.852  0.5818 -0.4653 -0.4897
 7511TIP3    H122497   1.123   1.603   2.799  0.2369 -1.2100  0.1554
 7511TIP3    H222498   1.027   1.720   2.790  0.6223 -0.9583 -0.9217
 7512TIP3   OH222499   3.705   5.228   4.771  0.2638  0.5026 -0.0628
 7512TIP3    H122500   3.677   5.258   4.685 -0.7025  1.3488  0.5074
 7512TIP3    H222501   3.765   5.156   4.754  1.6056  1.8740 -1.4889
 7513TIP3   OH222502   1.688   3.282   0.078 -0.5161 -0.1738 -0.4413
 7513TIP3    H122503   1.660   3.261   0.168 -1.3718  0.2162 -0.6028
 7513TIP3    H222504   1.625   3.348   0.049 -0.0242 -0.0359 -1.2061
 7514TIP3   OH222505   2.657   0.257   5.861 -0.3157  0.1937 -0.1653
 7514TIP3    H122506   2.663   0.194   5.933 -2.2522  0.9861  0.7511
 7514TIP3    H222507   2.620   0.207   5.788 -1.1819  0.0924  0.3381
 7515TIP3   OH222508   1.604   0.491   4.331 -0.1758  0.3234 -0.4033
 7515TIP3    H122509   1.654   0.516   4.409 -0.6923  0.7274 -0.1929
 7515TIP3    H222510   1.662   0.433   4.282 -0.2657 -0.8856  0.8632
 7516TIP3   OH222511   7.103   3.678   5.487 -0.5770  0.8950 -0.3354
 7516TIP3    H122512   7.109   3.758   5.436 -2.1307  0.7604 -0.7850
 7516TIP3    H222513   7.077   3.707   5.575 -0.8105  0.9092 -0.4092
 7517TIP3   OH222514   1.013   6.122   0.972  0.1425  0.2162  0.2432
 7517TIP3    H122515   0.971   6.182   0.911  0.0221  0.4306  0.5333
 7517TIP3    H222516   1.097   6.101   0.932 -0.6958 -1.1174 -0.8931
 7518TIP3   OH222517   0.868   3.661   5.744  0.0809 -0.4229  0.2937
 7518TIP3    H122518   0.936   3.722   5.716 -0.8219  0.7901  0.6307
 7518TIP3    H222519   0.864   3.596   5.674  0.8027  0.1440 -0.2928
 7519TIP3   OH222520   1.799   5.293   1.844 -0.4069 -0.8142 -0.4429
 7519TIP3    H122521   1.883   5.301   1.798 -1.9154 -0.9338 -3.4932
 7519TIP3    H222522   1.774   5.202   1.830 -1.4654 -0.5343 -0.4330
 7520TIP3   OH222523   5.514   3.688   4.072  0.0465 -0.3645  0.1327
 7520TIP3    H122524   5.584   3.661   4.012  0.8251 -2.2368  1.7496
 7520TIP3    H222525   5.547   3.766   4.115  0.7016 -0.6423  0.1399
 7521TIP3   OH222526   2.729   4.295   3.532  0.3474 -0.4413  0.2550
 7521TIP3    H122527   2.753   4.315   3.442 -1.0091  2.6545  0.4345
 7521TIP3    H222528   2.655   4.235   3.525  1.2850 -1.5295 -0.5955
 7522TIP3   OH222529   1.225   4.060   5.316  0.0899 -0.0013  0.8056
 7522TIP3    H122530   1.260   3.972   5.329  0.3748 -0.0697 -0.3102
 7522TIP3    H222531   1.219   4.097   5.404  1.8766 -0.3983  1.1225
 7523TIP3   OH222532   3.762   2.643   2.617  0.4864  0.4733  0.8208
 7523TIP3    H122533   3.669   2.660   2.600  0.3031 -1.8510 -1.0639
 7523TIP3    H222534   3.806   2.669   2.536  1.1345 -0.6427  0.7926
 7524TIP3   OH222535   1.295   5.242   0.290  0.0841 -0.1120 -0.3267
 7524TIP3    H122536   1.242   5.181   0.341  1.2980 -0.3626  0.6777
 7524TIP3    H222537   1.306   5.200   0.205 -0.2989 -0.6270 -0.1195
 7525TIP3   OH222538   2.540   5.306   2.446  0.2192 -0.1766  0.2697
 7525TIP3    H122539   2.614   5.349   2.490  0.1249 -0.4409  0.6942
 7525TIP3    H222540   2.540   5.342   2.358 -0.4759  1.4329  0.9027
 7526TIP3   OH222541   2.219   5.055   0.616 -0.3070  0.5468  0.1282
 7526TIP3    H122542   2.149   5.099   0.569 -0.9040 -0.7990 -0.3149
 7526TIP3    H222543   2.296   5.065   0.560 -0.8645 -0.4979 -0.8587
 7527TIP3   OH222544   3.013   0.766   1.417 -0.0575  0.5616 -0.1141
 7527TIP3    H122545   3.015   0.671   1.404  1.5496  0.4706  0.6194
 7527TIP3    H222546   3.098   0.797   1.387 -1.4006  2.1550 -2.6971
 7528TIP3   OH222547   7.091   4.919   1.690  0.6050 -0.3569 -0.4089
 7528TIP3    H122548   7.144   4.982   1.739  0.2902 -2.1330  2.4835
 7528TIP3    H222549   7.033   4.972   1.636  1.0234  1.8186  1.1429
 7529TIP3   OH222550   6.518   6.768   3.195  0.2550  0.2003 -0.2433
 7529TIP3    H122551   6.602   6.730   3.167 -1.3204 -1.2952 -3.5430
 7529TIP3    H222552   6.530   6.863   3.184  1.4736 -0.0017 -0.7952
 7530TIP3   OH222553   6.452   5.700   1.411 -0.8135  0.2022 -0.3744
 7530TIP3    H122554   6.483   5.721   1.323 -0.8232  0.8241 -0.2403
 7530TIP3    H222555   6.412   5.614   1.403 -2.0570  0.8281 -1.2889
 7531TIP3   OH222556   2.831   2.147   0.621  0.0509 -0.4611 -0.5481
 7531TIP3    H122557   2.779   2.161   0.542  0.0055 -1.9007 -0.7968
 7531TIP3    H222558   2.858   2.055   0.616  1.0324 -0.2534  0.5243
 7532TIP3   OH222559   3.128   6.542   1.891 -0.2210  0.4002  0.1890
 7532TIP3    H122560   3.121   6.581   1.978  1.9225  2.9240 -0.6179
 7532TIP3    H222561   3.198   6.476   1.900  0.7655  1.4213  0.1879
 7533TIP3   OH222562   2.397   0.618   0.547 -0.0204  0.4256  0.1496
 7533TIP3    H122563   2.464   0.668   0.594 -0.8470  0.9677  0.7711
 7533TIP3    H222564   2.409   0.528   0.577  1.7875  0.1073 -1.3339
 7534TIP3   OH222565   6.502   5.868   0.619  0.0508 -0.1716 -0.1526
 7534TIP3    H122566   6.552   5.835   0.694 -0.7304 -0.3387  0.3088
 7534TIP3    H222567   6.435   5.801   0.604 -1.0168  0.7700  0.2484
 7535TIP3   OH222568   1.390   2.525   4.438 -0.0250 -0.5007  0.9185
 7535TIP3    H122569   1.400   2.567   4.523  3.4497 -0.0377  0.4008
 7535TIP3    H222570   1.395   2.431   4.456  0.5032 -0.4081  1.2398
 7536TIP3   OH222571   5.065   6.569   5.295  0.3776 -0.0144  0.2895
 7536TIP3    H122572   5.058   6.639   5.360  3.0930  1.3344 -0.7084
 7536TIP3    H222573   5.041   6.490   5.343  0.0676  1.2002  2.2735
 7537TIP3   OH222574   5.648   4.184   1.864 -0.2435  0.1582  0.4816
 7537TIP3    H122575   5.658   4.097   1.901  0.5936 -0.6268 -1.4289
 7537TIP3    H222576   5.602   4.170   1.781 -0.0459  1.5156  0.1102
 7538TIP3   OH222577   1.101   4.797   5.043  0.3854  0.4797  0.1009
 7538TIP3    H122578   1.106   4.763   5.132  1.1296  1.7963  0.5911
 7538TIP3    H222579   1.128   4.725   4.988 -0.0553 -0.3511  0.9380
 7539TIP3   OH222580   0.018   3.475   0.838  0.3681 -0.3025 -0.4223
 7539TIP3    H122581  -0.015   3.408   0.898 -1.0144 -1.3238 -2.2158
 7539TIP3    H222582   0.107   3.492   0.868  0.2799 -1.9311  0.9366
 7540TIP3   OH222583   5.087   6.543   4.432  0.1327 -0.0129 -0.2565
 7540TIP3    H122584   5.124   6.507   4.352  1.4868 -0.4017  0.5079
 7540TIP3    H222585   5.112   6.480   4.500 -1.9933 -0.3139  0.3159
 7541TIP3   OH222586   4.379   6.288   2.086  0.5211 -0.8875  0.3841
 7541TIP3    H122587   4.346   6.252   2.004 -0.3260  1.5336 -0.4250
 7541TIP3    H222588   4.346   6.378   2.088  3.9026  0.4831  1.3873
 7542TIP3   OH222589   3.204   5.150   3.433 -0.2650  0.5040  0.3038
 7542TIP3    H122590   3.126   5.171   3.382 -0.5406  0.1080  0.5666
 7542TIP3    H222591   3.196   5.202   3.512 -0.6789 -0.1608  0.7082
 7543TIP3   OH222592   1.018   2.495   2.615  0.2801 -0.5453 -0.3604
 7543TIP3    H122593   0.932   2.530   2.594 -0.0505 -1.5105 -0.6869
 7543TIP3    H222594   1.064   2.567   2.658 -0.8578 -0.1679  0.2576
 7544TIP3   OH222595   6.661   1.817   1.477 -0.0730  0.0204 -0.4125
 7544TIP3    H122596   6.694   1.866   1.552 -1.5132  1.8250 -0.8739
 7544TIP3    H222597   6.724   1.836   1.407 -0.4204  0.9958 -0.4869
 7545TIP3   OH222598   4.405   2.799   3.782  0.0625  0.5874 -0.2164
 7545TIP3    H122599   4.417   2.865   3.850  1.0390  0.4988 -0.2874
 7545TIP3    H222600   4.488   2.752   3.779  0.1465  0.7907 -1.6683
 7546TIP3   OH222601   2.251   4.789   5.176  0.0899 -0.2431 -0.4968
 7546TIP3    H122602   2.224   4.707   5.216  0.3724 -0.6816 -1.1837
 7546TIP3    H222603   2.246   4.772   5.082  0.0087  0.5732 -0.6464
 7547TIP3   OH222604   1.914   4.235   5.597 -0.0785  0.0073 -0.2520
 7547TIP3    H122605   2.008   4.218   5.592  0.5921  2.8088  0.9636
 7547TIP3    H222606   1.892   4.224   5.689 -0.7450  0.3755 -0.3574
 7548TIP3   OH222607   3.992   4.055   1.241  0.6658  0.3490  0.6583
 7548TIP3    H122608   3.912   4.077   1.289  0.1890  1.2667 -0.5039
 7548TIP3    H222609   3.977   3.966   1.209  0.5208  0.1531  1.2666
 7549TIP3   OH222610   5.326   2.587   3.454 -0.5321  0.0969 -0.4028
 7549TIP3    H122611   5.321   2.547   3.367 -1.6960  1.3605 -0.9545
 7549TIP3    H222612   5.290   2.521   3.513 -0.4046 -0.4969 -0.9844
 7550TIP3   OH222613   4.687   4.092   2.376 -0.5300  0.1251  0.0674
 7550TIP3    H122614   4.649   4.005   2.363 -0.0457 -0.1471  0.4471
 7550TIP3    H222615   4.708   4.122   2.287 -1.2743  0.1184 -0.1147
 7551TIP3   OH222616   1.213   3.779   2.924  0.0261 -0.3558  0.2150
 7551TIP3    H122617   1.253   3.827   2.996 -0.7498  0.7914 -0.0918
 7551TIP3    H222618   1.227   3.687   2.946  5.3513 -0.2185 -1.2173
 7552TIP3   OH222619   5.174   5.468   0.394 -0.3720  0.2160 -0.0483
 7552TIP3    H122620   5.124   5.393   0.426 -1.8316  0.4569 -1.6048
 7552TIP3    H222621   5.134   5.489   0.309  1.4221  1.3953 -0.6544
 7553TIP3   OH222622   5.323   4.206   1.576  0.5606 -0.0703  0.7151
 7553TIP3    H122623   5.402   4.259   1.577 -0.0689  1.0053 -1.2240
 7553TIP3    H222624   5.261   4.254   1.632 -0.1003  1.5053 -1.2500
 7554TIP3   OH222625   3.975   0.038   5.423 -0.0565  0.3552  0.3966
 7554TIP3    H122626   3.910  -0.032   5.431 -0.4628  0.7635  0.6917
 7554TIP3    H222627   3.954   0.081   5.340 -0.7409  1.0657  0.9312
 7555TIP3   OH222628   5.440   4.375   4.536 -0.4731 -0.2435 -0.2228
 7555TIP3    H122629   5.348   4.378   4.508 -1.0586  1.1866  1.5945
 7555TIP3    H222630   5.473   4.463   4.517 -0.0643 -0.1499  0.8419
 7556TIP3   OH222631   5.324   3.446   2.290 -0.5391 -0.6833  0.6247
 7556TIP3    H122632   5.236   3.409   2.286 -1.1478  0.6019  1.4297
 7556TIP3    H222633   5.365   3.402   2.364 -1.0560 -0.1919  1.2147
 7557TIP3   OH222634   4.681   2.807   0.434 -0.1962  0.5527 -0.2130
 7557TIP3    H122635   4.691   2.813   0.339 -0.2018  2.6139 -0.1277
 7557TIP3    H222636   4.629   2.727   0.447  2.1956 -1.3850 -1.6985
 7558TIP3   OH222637   6.604   1.644   4.208  0.2937  0.2839 -0.2022
 7558TIP3    H122638   6.536   1.696   4.167  0.0582 -0.1537 -0.3692
 7558TIP3    H222639   6.633   1.584   4.140  2.0236  1.5612 -0.6652
 7559TIP3   OH222640   0.959   0.306   1.210  0.6961 -0.4649 -0.2779
 7559TIP3    H122641   1.016   0.296   1.286  1.9697 -2.6446 -1.4569
 7559TIP3    H222642   1.015   0.343   1.142 -0.4432  1.5006 -0.2572
 7560TIP3   OH222643   0.538   0.384   1.776  0.3727 -0.2149  0.3875
 7560TIP3    H122644   0.593   0.306   1.775  2.4309  1.1535  0.3223
 7560TIP3    H222645   0.540   0.415   1.867 -0.5218 -0.2950  0.4413
 7561TIP3   OH222646   6.201   0.960   1.498  0.0992  0.2328 -0.3516
 7561TIP3    H122647   6.188   1.043   1.544  0.0311  0.0486 -0.0358
 7561TIP3    H222648   6.296   0.955   1.486  0.3006 -0.5205  1.2946
 7562TIP3   OH222649   5.566   2.489   2.504 -0.2552 -0.4021 -0.9231
 7562TIP3    H122650   5.601   2.572   2.536  1.1541 -0.5070 -2.0635
 7562TIP3    H222651   5.509   2.513   2.431 -0.2055 -0.4123 -0.9650
 7563TIP3   OH222652   4.796   0.491   2.736 -0.0606 -0.4192  0.7660
 7563TIP3    H122653   4.725   0.458   2.682  1.3331 -2.4910  0.0741
 7563TIP3    H222654   4.837   0.560   2.684 -0.9567  0.1491  0.7907
 7564TIP3   OH222655   0.144   1.230   4.791  0.4862 -0.0321  0.0891
 7564TIP3    H122656   0.142   1.179   4.872  0.1477  0.4202  0.3692
 7564TIP3    H222657   0.086   1.304   4.808  2.7860  1.7387  0.5466
 7565TIP3   OH222658   0.052   5.771   4.255  0.0134  0.2849  0.6092
 7565TIP3    H122659   0.073   5.725   4.174  0.0943  1.6313 -0.1583
 7565TIP3    H222660  -0.022   5.723   4.291  1.3276 -1.6449  0.8877
 7566TIP3   OH222661   4.639   2.316   5.460 -0.6411 -0.3877 -0.4191
 7566TIP3    H122662   4.658   2.232   5.419 -0.7448  0.0414 -1.3849
 7566TIP3    H222663   4.725   2.354   5.479 -0.5935 -0.8546  0.3580
 7567TIP3   OH222664   3.136   3.419   4.805  0.2882  0.2733  0.2839
 7567TIP3    H122665   3.133   3.471   4.724  1.2459  0.8434  0.5928
 7567TIP3    H222666   3.106   3.332   4.779  1.9265  0.0394 -1.0336
 7568TIP3   OH222667   3.148   5.657   3.426  0.1971  0.1899  0.7544
 7568TIP3    H122668   3.195   5.720   3.371  0.6758 -1.0459 -0.3342
 7568TIP3    H222669   3.213   5.625   3.488  0.4205 -0.3993  0.2380
 7569TIP3   OH222670   7.013   1.713   3.336 -0.1625  0.1765  0.1620
 7569TIP3    H122671   6.988   1.806   3.336  0.1631  0.2656  0.8615
 7569TIP3    H222672   7.025   1.692   3.243  0.5737  1.0527  0.0466
 7570TIP3   OH222673   1.541   1.932   1.494  0.1524 -0.0779 -1.0093
 7570TIP3    H122674   1.621   1.983   1.480 -0.9116  2.1284  0.4621
 7570TIP3    H222675   1.572   1.848   1.530  1.7622  1.1940  0.7571
 7571TIP3   OH222676   1.726   0.289   4.164  0.1726  0.3821  0.0440
 7571TIP3    H122677   1.714   0.264   4.072 -0.1052  1.3929 -0.2046
 7571TIP3    H222678   1.817   0.317   4.169  0.2408  0.1479  0.1225
 7572TIP3   OH222679   4.701   2.206   3.798  0.2685 -0.4366 -0.2677
 7572TIP3    H122680   4.647   2.279   3.767  1.7017  0.5723 -0.5111
 7572TIP3    H222681   4.785   2.247   3.821  1.1626 -2.0366 -0.5477
 7573TIP3   OH222682   4.590   5.625   1.261 -0.1078  0.2584  0.1224
 7573TIP3    H122683   4.555   5.578   1.337  0.2216 -0.5362 -0.1974
 7573TIP3    H222684   4.619   5.709   1.295  0.8086 -0.4102  1.0404
 7574TIP3   OH222685   2.894   1.214   3.405  0.2703  0.1859 -1.2118
 7574TIP3    H122686   2.949   1.146   3.364 -0.4712 -0.6437 -0.8660
 7574TIP3    H222687   2.947   1.249   3.476  0.8172  0.2551 -1.6478
 7575TIP3   OH222688   6.838   6.215   5.469  0.5654 -0.1594 -0.1937
 7575TIP3    H122689   6.849   6.195   5.562 -0.8388 -1.6481 -0.2959
 7575TIP3    H222690   6.744   6.207   5.454  0.6726  0.8427 -1.5944
 7576TIP3   OH222691   1.475   2.487   4.983  0.3777 -0.3734 -0.2514
 7576TIP3    H122692   1.507   2.562   5.035  1.9996 -1.0004 -0.2810
 7576TIP3    H222693   1.382   2.481   5.005  0.7370  0.1590  1.6442
 7577TIP3   OH222694   3.672   2.205   2.142  0.3747  0.6702  0.3014
 7577TIP3    H122695   3.630   2.289   2.122 -2.0933  0.0584  2.5064
 7577TIP3    H222696   3.742   2.228   2.203  0.9627  1.2939 -0.5778
 7578TIP3   OH222697   0.743   4.573   2.133 -0.3655  0.2707  0.4731
 7578TIP3    H122698   0.723   4.659   2.096  1.4458  0.8091  0.6732
 7578TIP3    H222699   0.824   4.586   2.182 -0.6992 -1.2906  1.5099
 7579TIP3   OH222700   3.883   1.802   3.580  0.1167 -0.2610  0.1125
 7579TIP3    H122701   3.899   1.895   3.599  0.6704 -0.1066 -1.0784
 7579TIP3    H222702   3.793   1.800   3.549 -0.6175 -0.4396  2.0774
 7580TIP3   OH222703   0.297   4.349   1.689  0.0988  0.2375 -0.3811
 7580TIP3    H122704   0.381   4.348   1.735 -0.9248 -1.3715  1.6097
 7580TIP3    H222705   0.253   4.426   1.723  0.2456  0.3405 -0.4206
 7581TIP3   OH222706   0.088   5.717   3.215 -0.5729 -0.2510 -0.0383
 7581TIP3    H122707   0.051   5.760   3.138 -0.2672 -1.1062 -0.6762
 7581TIP3    H222708   0.108   5.789   3.275 -0.7346  0.4361 -0.7870
 7582TIP3   OH222709   2.305   0.118   1.995 -0.2045 -0.5759  0.7397
 7582TIP3    H122710   2.309   0.206   2.034  1.6577  0.3698 -1.3539
 7582TIP3    H222711   2.211   0.100   1.985 -0.6267  1.3080  0.9737
 7583TIP3   OH222712   5.402   4.678   2.511 -0.0630  0.0215  0.0051
 7583TIP3    H122713   5.348   4.752   2.538  0.4999 -0.2808  2.1219
 7583TIP3    H222714   5.492   4.709   2.523  0.1825 -0.7130  0.1140
 7584TIP3   OH222715   3.983   4.028   3.071 -0.4511  0.2757 -0.1083
 7584TIP3    H122716   3.896   3.988   3.073  0.6232 -2.3146 -0.2321
 7584TIP3    H222717   4.015   4.020   3.162 -0.1216  0.6759 -0.1848
 7585TIP3   OH222718   5.021   3.140   0.584 -0.1028 -0.2228  0.3621
 7585TIP3    H122719   4.993   3.055   0.550 -0.6707 -0.3969  1.2231
 7585TIP3    H222720   5.115   3.129   0.601 -0.0676 -0.5094  0.0028
 7586TIP3   OH222721   5.197   6.507   4.170 -0.8878 -0.3199  0.3611
 7586TIP3    H122722   5.277   6.532   4.124 -1.1912  0.9535  0.4877
 7586TIP3    H222723   5.132   6.572   4.142 -1.8979 -1.3448  0.2328
 7587TIP3   OH222724   5.569   3.532   1.889  0.5407 -0.0008  0.2369
 7587TIP3    H122725   5.521   3.573   1.961 -0.3783 -1.4586  0.4934
 7587TIP3    H222726   5.502   3.505   1.826  1.2034 -0.1380 -0.4304
 7588TIP3   OH222727   5.998   5.737   2.330 -0.0037  0.0819 -0.6531
 7588TIP3    H122728   5.986   5.814   2.387 -0.1010  0.7769 -1.5888
 7588TIP3    H222729   6.086   5.748   2.293 -0.7680  0.8159 -2.3348
 7589TIP3   OH222730   6.774   4.039   2.448  0.2006  0.3340  0.5010
 7589TIP3    H122731   6.801   3.949   2.427 -2.0734 -0.4532  0.6891
 7589TIP3    H222732   6.802   4.052   2.539  0.5148 -0.2004  0.4841
 7590TIP3   OH222733   3.993   0.205   5.186 -0.7146 -0.3929 -0.3068
 7590TIP3    H122734   4.067   0.188   5.127 -0.1044 -2.5704  0.9398
 7590TIP3    H222735   3.916   0.204   5.129 -0.1718 -2.6869 -1.1344
 7591TIP3   OH222736   6.786   5.281   0.559  0.3006  0.0668 -0.4815
 7591TIP3    H122737   6.799   5.242   0.646 -0.8748 -0.7025 -0.6182
 7591TIP3    H222738   6.790   5.375   0.575  0.8038 -0.0722  0.2882
 7592TIP3   OH222739   4.068   5.948   2.220 -0.1918 -0.2087  0.2877
 7592TIP3    H122740   4.081   5.854   2.235 -0.2118 -0.2784 -0.1104
 7592TIP3    H222741   4.138   5.972   2.159  0.0529  0.1221  0.6925
 7593TIP3   OH222742   3.525   6.637   0.299  0.4186 -0.1194 -0.2918
 7593TIP3    H122743   3.580   6.565   0.269  0.9788  0.1452  0.0765
 7593TIP3    H222744   3.436   6.602   0.299  0.4826 -0.3338 -1.5969
 7594TIP3   OH222745   5.971   5.360   1.521  0.8399  0.0743  0.2276
 7594TIP3    H122746   5.974   5.438   1.577 -0.4546  0.5044 -0.2689
 7594TIP3    H222747   6.045   5.308   1.550  3.9868  3.0137 -1.7416
 7595TIP3   OH222748   0.739   3.715   4.618 -0.6731  0.0946  0.2678
 7595TIP3    H122749   0.702   3.631   4.589 -0.6291  0.7078 -1.6660
 7595TIP3    H222750   0.667   3.759   4.663 -1.3581 -0.0656 -0.6536
 7596TIP3   OH222751   4.781   0.716   0.228 -0.4392 -0.4149 -0.5057
 7596TIP3    H122752   4.871   0.744   0.217 -0.2020 -1.8553 -2.7942
 7596TIP3    H222753   4.787   0.622   0.245 -1.4953 -0.5997 -1.0574
 7597TIP3   OH222754   7.147   0.042   0.175  0.9900 -0.1046 -0.1271
 7597TIP3    H122755   7.112   0.103   0.240  1.1099 -0.5778  0.3928
 7597TIP3    H222756   7.203   0.096   0.119  0.5677  0.3846 -0.0841
 7598TIP3   OH222757   4.894   0.127   1.454 -0.1792 -0.1274  0.4416
 7598TIP3    H122758   4.930   0.189   1.518  0.4817  0.6077 -0.6174
 7598TIP3    H222759   4.816   0.092   1.497 -1.4531  2.5644  0.5450
 7599TIP3   OH222760   6.264   4.148   0.315  0.1864 -0.0008 -0.1340
 7599TIP3    H122761   6.297   4.203   0.244  0.4539 -0.2445 -0.2041
 7599TIP3    H222762   6.281   4.199   0.394 -0.4915  0.4519 -0.2696
 7600TIP3   OH222763   5.374   6.463   0.241 -0.1770  0.0460 -0.4073
 7600TIP3    H122764   5.305   6.526   0.219 -0.6516 -0.5270 -0.5734
 7600TIP3    H222765   5.368   6.453   0.336  0.9996  1.5076 -0.1407
 7601TIP3   OH222766   6.394   1.758   4.629  0.2085  0.5957  0.1826
 7601TIP3    H122767   6.479   1.715   4.621 -0.4258 -0.9295  1.1604
 7601TIP3    H222768   6.362   1.764   4.539 -0.5593 -2.9700  0.0828
 7602TIP3   OH222769   7.034   5.369   1.783 -0.2759  0.0950 -0.5122
 7602TIP3    H122770   7.088   5.446   1.800 -1.4843  0.8654 -0.0568
 7602TIP3    H222771   6.945   5.396   1.806 -0.9444 -0.9929 -1.6673
 7603TIP3   OH222772   0.181   6.206   4.318 -0.4349 -0.0020 -0.0710
 7603TIP3    H122773   0.238   6.231   4.244  0.0510 -1.2567 -0.1470
 7603TIP3    H222774   0.205   6.115   4.336 -1.5399 -0.1431  0.7365
 7604TIP3   OH222775   3.879   5.733   4.459 -0.1994 -0.0499  0.4222
 7604TIP3    H122776   3.931   5.729   4.379 -1.1488  1.0103 -0.2926
 7604TIP3    H222777   3.800   5.682   4.439 -0.0260 -0.5715  1.0332
 7605TIP3   OH222778   4.588   5.688   0.307 -0.1066 -0.9095 -0.4590
 7605TIP3    H122779   4.570   5.615   0.248  0.1590 -2.3414  1.1652
 7605TIP3    H222780   4.677   5.672   0.338 -0.0040  0.1790 -0.1628
 7606TIP3   OH222781   6.641   2.294   2.899  0.6918  0.3094 -0.4670
 7606TIP3    H122782   6.725   2.338   2.911  0.2719  0.9678  0.1869
 7606TIP3    H222783   6.582   2.362   2.867  0.7239 -0.4601 -2.2524
 7607TIP3   OH222784   6.665   0.249   4.942 -0.4657  0.1842  0.1342
 7607TIP3    H122785   6.727   0.253   5.014  1.3047  1.2043 -1.3773
 7607TIP3    H222786   6.630   0.160   4.945 -0.1743  0.1046  1.9969
 7608TIP3   OH222787   1.208   1.540   0.285 -0.0823 -0.4042  0.5465
 7608TIP3    H122788   1.124   1.495   0.290 -0.1272 -0.1818  2.4254
 7608TIP3    H222789   1.186   1.632   0.271 -0.0026 -0.7868 -2.7615
 7609TIP3   OH222790   6.011   4.286   2.307  0.0064 -0.3052 -0.1648
 7609TIP3    H122791   5.921   4.253   2.297  0.2160 -0.4992 -1.5631
 7609TIP3    H222792   6.004   4.352   2.377 -0.7271 -2.0823  1.5319
 7610TIP3   OH222793   2.527   3.090   4.330  0.1217  0.1957  0.1059
 7610TIP3    H122794   2.506   3.006   4.289 -2.6064  0.2619  1.1995
 7610TIP3    H222795   2.463   3.151   4.294 -0.1428  1.0183  1.8682
 7611TIP3   OH222796   0.109   1.185   1.082 -0.5881 -0.5086  0.2009
 7611TIP3    H122797   0.027   1.233   1.073 -1.2825 -1.6567  0.2578
 7611TIP3    H222798   0.136   1.198   1.173  1.1111  2.6716 -0.6150
 7612TIP3   OH222799   1.286   1.912   1.359 -0.1053 -0.7102 -0.1026
 7612TIP3    H122800   1.368   1.923   1.407 -0.9676 -2.4704  1.9888
 7612TIP3    H222801   1.221   1.958   1.412 -0.6790 -0.4293 -1.0332
 7613TIP3   OH222802   3.320   6.347   3.472  0.0795  0.4175 -0.2260
 7613TIP3    H122803   3.320   6.411   3.543  2.5067  1.7134 -1.2870
 7613TIP3    H222804   3.227   6.329   3.456 -0.5915  1.7847  1.7368
 7614TIP3   OH222805   2.661   5.810   2.779  0.2095 -0.3405 -0.2571
 7614TIP3    H122806   2.577   5.783   2.742 -0.1556 -0.9639  0.9659
 7614TIP3    H222807   2.643   5.895   2.819  1.0656  1.2766 -3.0495
 7615TIP3   OH222808   2.223   1.396   2.788 -0.1386 -1.1376 -0.7997
 7615TIP3    H122809   2.315   1.424   2.786 -0.1547 -1.1080 -1.7920
 7615TIP3    H222810   2.175   1.472   2.820  0.3608 -1.7466  1.5692
 7616TIP3   OH222811   2.536   5.575   1.573  0.0445  0.0194  0.1125
 7616TIP3    H122812   2.589   5.559   1.494  3.0475 -0.6874  2.0948
 7616TIP3    H222813   2.508   5.489   1.601 -0.1717  0.1705  0.3625
 7617TIP3   OH222814   6.142   2.262   1.729 -0.0615 -0.0835 -0.0671
 7617TIP3    H122815   6.151   2.292   1.819 -0.7989 -0.9838  0.3226
 7617TIP3    H222816   6.231   2.241   1.701  0.3456  1.5084 -0.0278
 7618TIP3   OH222817   2.689   4.958   4.309 -0.1704 -0.1241  0.3642
 7618TIP3    H122818   2.656   4.869   4.322 -0.5813 -0.0928 -0.4051
 7618TIP3    H222819   2.610   5.012   4.305 -0.0318  0.0042 -1.1319
 7619TIP3   OH222820   4.743   1.764   0.102  0.5607  0.3897 -0.6468
 7619TIP3    H122821   4.779   1.829   0.040  1.2633 -0.8538 -1.5984
 7619TIP3    H222822   4.813   1.752   0.166  0.5189  0.3923 -0.6006
 7620TIP3   OH222823   2.134   4.540   5.214 -0.6505 -0.1015  0.1537
 7620TIP3    H122824   2.061   4.529   5.153 -2.3068 -1.3911  2.2260
 7620TIP3    H222825   2.160   4.451   5.237  1.5121  0.3293 -0.3758
 7621TIP3   OH222826   3.828   0.387   3.019 -0.2636  0.7363 -0.9684
 7621TIP3    H122827   3.800   0.436   2.941 -1.1150 -0.4449 -1.4285
 7621TIP3    H222828   3.921   0.371   3.004  0.1712  2.6339 -0.5598
 7622TIP3   OH222829   6.312   5.271   0.315 -0.4148 -0.3818 -0.8305
 7622TIP3    H122830   6.340   5.195   0.366 -0.4166  0.3379  0.2832
 7622TIP3    H222831   6.260   5.234   0.243 -3.8346 -1.2880  1.8513
 7623TIP3   OH222832   6.322   2.764   0.491  0.4123 -0.1163 -0.0374
 7623TIP3    H122833   6.230   2.744   0.509 -0.2073  1.7799 -0.8062
 7623TIP3    H222834   6.327   2.859   0.499  2.7791 -0.3105  1.9491
 7624TIP3   OH222835   6.964   2.928   4.637  0.2289 -0.0010  0.0184
 7624TIP3    H122836   7.047   2.910   4.681 -0.3154  1.0227  1.5158
 7624TIP3    H222837   6.938   3.015   4.667  0.1123  1.0680 -2.8226
 7625TIP3   OH222838   6.191   0.582   4.911  0.2501 -0.1894 -0.1606
 7625TIP3    H122839   6.276   0.556   4.876 -0.1420 -0.5270 -0.8822
 7625TIP3    H222840   6.132   0.511   4.886 -0.6562  0.9584 -1.4060
 7626TIP3   OH222841   5.814   0.691   2.542 -0.5643 -0.0760  0.1125
 7626TIP3    H122842   5.791   0.770   2.493 -0.1217  0.5394  0.8716
 7626TIP3    H222843   5.730   0.653   2.567 -0.7763  0.8549  0.8339
 7627TIP3   OH222844   3.231   4.987   1.258  0.3561  0.3213 -0.3336
 7627TIP3    H122845   3.208   4.946   1.175 -0.3317  0.5714 -0.2654
 7627TIP3    H222846   3.155   5.039   1.282  0.2823 -0.2586  0.7799
 7628TIP3   OH222847   3.981   0.248   3.217 -0.5497 -0.6169 -0.1559
 7628TIP3    H122848   3.893   0.275   3.191 -1.0291 -0.4303  1.5423
 7628TIP3    H222849   4.031   0.329   3.223 -0.3489 -0.6896 -0.7639
 7629TIP3   OH222850   1.193   0.489   3.636 -0.3090 -0.1078  0.1581
 7629TIP3    H122851   1.137   0.428   3.588 -0.0849 -0.3143  0.1622
 7629TIP3    H222852   1.132   0.553   3.673 -0.5450 -0.3624  0.2057
 7630TIP3   OH222853   0.574   4.142   3.135  0.1194 -0.2156 -0.3283
 7630TIP3    H122854   0.487   4.131   3.097 -1.3023  0.0955  2.5211
 7630TIP3    H222855   0.596   4.056   3.170  0.8658 -0.2375 -0.8417
 7631TIP3   OH222856   3.692   5.591   2.263 -0.0100 -0.4304 -0.4762
 7631TIP3    H122857   3.744   5.548   2.330 -0.2885  1.8920  1.3913
 7631TIP3    H222858   3.609   5.543   2.263  0.3740 -1.1147  0.1157
 7632TIP3   OH222859   4.350   5.227   0.174  0.3240 -0.1101  0.2501
 7632TIP3    H122860   4.294   5.262   0.105 -0.1787  0.0607  0.7362
 7632TIP3    H222861   4.380   5.143   0.141 -0.0841 -0.1249 -0.0894
 7633TIP3   OH222862   3.239   3.409   3.700 -0.5315  0.0697  0.2528
 7633TIP3    H122863   3.293   3.480   3.666  0.0047  0.6333  2.1894
 7633TIP3    H222864   3.150   3.434   3.679 -0.1895 -0.0255 -1.4487
 7634TIP3   OH222865   5.744   6.515   5.854  0.6713 -0.4260 -0.0227
 7634TIP3    H122866   5.699   6.466   5.785 -0.0643  0.3657 -0.1287
 7634TIP3    H222867   5.829   6.537   5.817  1.3820 -2.3614  0.3508
 7635TIP3   OH222868   2.269   6.557   0.315 -0.3258  0.1933 -0.6408
 7635TIP3    H122869   2.190   6.610   0.327 -1.1731 -1.0320 -0.5935
 7635TIP3    H222870   2.307   6.551   0.403  0.5380  1.8115 -0.8635
 7636TIP3   OH222871   5.499   0.961   0.593 -0.1104 -0.2103  0.0915
 7636TIP3    H122872   5.540   0.999   0.516 -0.9348  1.1859  0.3190
 7636TIP3    H222873   5.508   1.027   0.661 -4.1145  0.9687 -0.2717
 7637TIP3   OH222874   2.391   5.265   5.345  0.2892 -0.3312  0.2566
 7637TIP3    H122875   2.322   5.228   5.290  0.1374 -0.5472  0.5833
 7637TIP3    H222876   2.360   5.353   5.367  1.3880  0.6491 -1.8405
 7638TIP3   OH222877   4.220   6.097   1.413  0.2349  0.4368 -0.3893
 7638TIP3    H122878   4.280   6.153   1.364  1.0225 -0.6413 -0.6905
 7638TIP3    H222879   4.197   6.027   1.353  0.2654 -0.2577  0.3866
 7639TIP3   OH222880   4.615   2.719   4.157 -0.2473 -0.0295 -0.3994
 7639TIP3    H122881   4.605   2.625   4.148  1.0777 -0.0717 -1.9387
 7639TIP3    H222882   4.528   2.754   4.139 -0.7706 -0.9445  0.2725
 7640TIP3   OH222883   2.165   1.419   4.749  0.3344  0.5540 -0.8444
 7640TIP3    H122884   2.123   1.367   4.681 -1.1147 -0.1136  0.5007
 7640TIP3    H222885   2.154   1.367   4.829  1.8674  1.3730 -0.0591
 7641TIP3   OH222886   5.799   0.391   3.880 -0.5838 -0.3709 -0.2637
 7641TIP3    H122887   5.848   0.473   3.889  0.1720 -0.9232  0.8867
 7641TIP3    H222888   5.724   0.401   3.938  0.8392 -1.4138  1.8898
 7642TIP3   OH222889   2.103   3.233   1.585 -0.5033  0.5043 -0.0713
 7642TIP3    H122890   2.187   3.216   1.628 -0.3816 -0.2811 -0.5903
 7642TIP3    H222891   2.123   3.299   1.518 -0.0818 -0.3728 -0.8352
 7643TIP3   OH222892   0.459   4.447   4.665  0.0479 -0.8611  0.1242
 7643TIP3    H122893   0.479   4.442   4.571  2.9323 -1.1698  0.6609
 7643TIP3    H222894   0.540   4.480   4.705 -1.5673  0.5932  2.3910
 7644TIP3   OH222895   5.304   2.082   5.379 -0.6516  0.0757  0.3796
 7644TIP3    H122896   5.241   2.021   5.417 -0.3421  0.1239  1.0034
 7644TIP3    H222897   5.389   2.049   5.408 -0.2986 -0.5564 -1.2681
 7645TIP3   OH222898   3.570   2.583   0.046  0.5850 -0.3289  0.3732
 7645TIP3    H122899   3.521   2.665   0.055 -1.2153 -1.3340  0.2732
 7645TIP3    H222900   3.580   2.551   0.136 -2.4088 -1.9779  0.2565
 7646TIP3   OH222901   7.179   0.819   4.803  0.4685 -0.2194  0.0365
 7646TIP3    H122902   7.147   0.909   4.799  1.3212  0.1887  1.4452
 7646TIP3    H222903   7.217   0.811   4.891  1.4904 -1.5871 -0.4900
 7647TIP3   OH222904   4.904   3.944   2.527  0.2496  0.4672  0.4065
 7647TIP3    H122905   4.927   4.029   2.564  0.5123  0.6220 -0.0976
 7647TIP3    H222906   4.809   3.940   2.531  0.2995 -0.1559  2.4923
 7648TIP3   OH222907   5.056   2.874   5.493  0.4584  0.5555  0.2649
 7648TIP3    H122908   4.977   2.826   5.516  0.6069  0.4522  0.5702
 7648TIP3    H222909   5.037   2.914   5.408 -0.3456  1.4824  0.8655
 7649TIP3   OH222910   3.564   6.254   3.654  0.2999 -0.1913  0.0096
 7649TIP3    H122911   3.609   6.322   3.604 -0.7880 -0.1839 -1.0049
 7649TIP3    H222912   3.622   6.178   3.649  1.0886  0.3678  0.3667
 7650TIP3   OH222913   5.636   3.309   5.700 -0.9940 -0.3543  0.9948
 7650TIP3    H122914   5.670   3.227   5.666 -0.0226  0.1076  0.8033
 7650TIP3    H222915   5.541   3.299   5.696 -0.8950 -1.2202  0.3767
 7651TIP3   OH222916   4.167   4.188   5.324  1.0210 -0.3418  0.6561
 7651TIP3    H122917   4.258   4.204   5.349  1.1966 -0.3921  0.0628
 7651TIP3    H222918   4.129   4.141   5.399  1.8748 -1.6242  0.3076
 7652TIP3   OH222919   5.777   2.416   4.879 -0.1638 -0.0585  0.7497
 7652TIP3    H122920   5.742   2.328   4.871 -0.1616 -0.1637  1.7537
 7652TIP3    H222921   5.723   2.457   4.947 -1.2191  1.2572 -0.7891
 7653TIP3   OH222922   7.227   3.273   1.557 -0.4220  0.2783 -0.3665
 7653TIP3    H122923   7.217   3.291   1.463 -3.6454  0.7823 -0.0494
 7653TIP3    H222924   7.169   3.337   1.599 -1.2674 -1.7678  1.7629
 7654TIP3   OH222925   3.984   1.257   1.477  0.9249 -0.3110  0.3861
 7654TIP3    H122926   3.981   1.294   1.389 -0.4205  0.6660  0.8114
 7654TIP3    H222927   4.077   1.257   1.500  1.5541 -2.4279 -1.7614
 7655TIP3   OH222928   5.810   1.048   0.748 -0.1999  0.3058  0.3635
 7655TIP3    H122929   5.732   1.104   0.750 -0.8459 -0.5643 -0.0876
 7655TIP3    H222930   5.793   0.981   0.815 -1.4708 -1.9637 -2.0532
 7656TIP3   OH222931   0.472   4.843   4.196  0.3439 -0.4888 -0.0698
 7656TIP3    H122932   0.392   4.881   4.159 -0.1511 -1.8744 -0.5071
 7656TIP3    H222933   0.464   4.860   4.290  0.6187  1.2829 -0.3365
 7657TIP3   OH222934   6.797   4.492   3.203  0.2481 -0.3569 -0.0242
 7657TIP3    H122935   6.825   4.455   3.119 -1.4509  0.8750 -1.2250
 7657TIP3    H222936   6.878   4.508   3.251  1.4235  0.5435 -2.1855
 7658TIP3   OH222937   5.898   5.055   4.073 -0.2520  0.3661  0.0111
 7658TIP3    H122938   5.833   5.015   4.131 -0.4893 -1.0991 -1.1931
 7658TIP3    H222939   5.910   5.144   4.107  0.2853 -0.6917  2.8317
 7659TIP3   OH222940   1.738   2.989   4.059 -0.3730 -0.2332  0.4086
 7659TIP3    H122941   1.760   3.078   4.032  1.3581 -0.3935  1.1930
 7659TIP3    H222942   1.742   2.992   4.155 -2.4113 -0.6592  0.5497
 7660TIP3   OH222943   2.890   4.186   1.905 -0.3364  0.4233  0.0055
 7660TIP3    H122944   2.862   4.111   1.853 -1.2301  0.0973  0.9426
 7660TIP3    H222945   2.815   4.207   1.960  0.6173  0.6923  1.2467
 7661TIP3   OH222946   7.059   6.262   2.921  0.5349 -0.0289 -0.4462
 7661TIP3    H122947   7.153   6.252   2.938  0.3114  0.4370  1.2108
 7661TIP3    H222948   7.020   6.182   2.956  0.2912 -0.1566 -1.0057
 7662TIP3   OH222949   4.226   2.730   1.633 -0.0260  0.1591  0.5616
 7662TIP3    H122950   4.176   2.667   1.684 -1.2184  0.8330  0.2672
 7662TIP3    H222951   4.239   2.804   1.692 -0.5640  0.5347  0.2309
 7663TIP3   OH222952   6.061   2.483   3.594 -0.0252  0.3770 -0.4584
 7663TIP3    H122953   6.143   2.532   3.586  0.8600 -0.9498  0.1435
 7663TIP3    H222954   6.060   2.424   3.519 -0.3960  0.3473 -0.4319
 7664TIP3   OH222955   3.326   3.447   2.419  0.5112 -0.3238 -0.0138
 7664TIP3    H122956   3.420   3.449   2.400  0.1511 -0.5183 -1.9749
 7664TIP3    H222957   3.308   3.532   2.459  1.1777  0.5483 -1.4850
 7665TIP3   OH222958   6.474   3.608   4.120  0.3196  0.2723 -0.3297
 7665TIP3    H122959   6.457   3.514   4.112  0.1858  0.2075  0.5395
 7665TIP3    H222960   6.562   3.612   4.157 -0.4486  0.4110  1.6002
 7666TIP3   OH222961   1.215   2.816   5.452 -0.0862 -0.3105 -0.0682
 7666TIP3    H122962   1.289   2.802   5.393 -0.1607  0.2682 -0.3049
 7666TIP3    H222963   1.255   2.824   5.539  0.0284 -1.1163 -0.0384
 7667TIP3   OH222964   5.959   3.183   1.650  0.5291  0.1615  0.5290
 7667TIP3    H122965   5.879   3.232   1.671  0.5676  0.7141 -0.5441
 7667TIP3    H222966   6.011   3.187   1.730 -0.8451 -0.8810  1.5123
 7668TIP3   OH222967   5.436   4.507   5.013 -0.0672 -0.6627 -0.2869
 7668TIP3    H122968   5.486   4.576   4.969 -0.3010  0.3819  1.0122
 7668TIP3    H222969   5.373   4.554   5.068 -1.3840 -1.9320 -0.6206
 7669TIP3   OH222970   3.236   6.077   0.400  0.2093  0.0689  0.3426
 7669TIP3    H122971   3.204   6.098   0.488  1.0118 -1.6417  1.0868
 7669TIP3    H222972   3.281   5.993   0.410 -0.7546 -0.8087 -1.9645
 7670TIP3   OH222973   6.512   5.036   1.300  0.3228  0.0666 -0.1950
 7670TIP3    H122974   6.601   5.014   1.271  0.2226 -2.4653  1.1882
 7670TIP3    H222975   6.525   5.080   1.384  0.2856 -0.6149  0.1762
 7671TIP3   OH222976   7.132   3.798   1.078 -0.3597  0.3785 -0.1568
 7671TIP3    H122977   7.179   3.793   0.994  0.3242  0.5165  0.2167
 7671TIP3    H222978   7.127   3.708   1.108  1.2243  0.5249  0.6473
 7672TIP3   OH222979   6.263   1.746   3.614 -0.1839  0.2160  0.0361
 7672TIP3    H122980   6.293   1.686   3.546  2.8085  0.2058  1.2339
 7672TIP3    H222981   6.246   1.828   3.567 -0.5840 -0.4638 -1.0547
 7673TIP3   OH222982   2.025   3.024   1.063  0.3365 -0.4595  0.0286
 7673TIP3    H122983   2.119   3.021   1.043  0.3663 -3.2379  0.1556
 7673TIP3    H222984   2.021   3.053   1.154  0.9311  1.1881 -0.4318
 7674TIP3   OH222985   4.883   3.276   2.561 -0.2435 -0.5963 -0.7646
 7674TIP3    H122986   4.790   3.298   2.565 -0.3323 -1.0605 -0.1772
 7674TIP3    H222987   4.884   3.181   2.546  0.1319 -0.3786 -2.2693
 7675TIP3   OH222988   1.108   0.891   4.142 -0.8586  0.6225 -0.3873
 7675TIP3    H122989   1.049   0.824   4.176 -1.1031  0.8093 -0.4352
 7675TIP3    H222990   1.167   0.844   4.083 -1.4642  0.5524 -0.9506
 7676TIP3   OH222991   0.678   3.449   4.543  0.1145  0.1082  0.3836
 7676TIP3    H122992   0.738   3.381   4.511 -0.6883 -0.9170  0.9694
 7676TIP3    H222993   0.650   3.416   4.629  0.6780  1.8075  1.2617
 7677TIP3   OH222994   7.124   2.950   3.821  0.1475 -0.1296 -0.2903
 7677TIP3    H122995   7.179   3.008   3.874  0.5483 -2.0579  1.5457
 7677TIP3    H222996   7.140   2.863   3.856 -1.6113 -1.1920 -1.9099
 7678TIP3   OH222997   6.451   4.765   5.080 -0.1738 -1.2603  0.3366
 7678TIP3    H122998   6.482   4.810   5.002 -0.5353 -2.1999 -0.3577
 7678TIP3    H222999   6.358   4.789   5.085 -0.2554 -1.5578  0.2294
 7679TIP3   OH223000   2.223   4.201   4.344  0.5592 -0.0334  0.4896
 7679TIP3    H123001   2.192   4.233   4.428 -2.0648 -0.7466 -0.1217
 7679TIP3    H223002   2.209   4.106   4.348 -0.0463 -0.0274 -0.8760
 7680TIP3   OH223003   4.204   5.782   5.222  0.3138 -0.6389 -0.3671
 7680TIP3    H123004   4.278   5.721   5.234  3.3677  2.7116 -0.4778
 7680TIP3    H223005   4.210   5.808   5.130 -0.3526  0.4512 -0.1168
 7681TIP3   OH223006   4.854   3.335   1.130  0.3789 -0.4124 -0.0098
 7681TIP3    H123007   4.938   3.306   1.095  0.8130  0.3426  0.3942
 7681TIP3    H223008   4.866   3.337   1.225  0.1974  0.5603  0.0061
 7682TIP3   OH223009   2.559   0.398   0.463  0.3952 -0.4538 -0.0186
 7682TIP3    H123010   2.532   0.355   0.382 -1.0313 -1.0455  0.7316
 7682TIP3    H223011   2.595   0.482   0.434 -1.9923  0.2717 -1.1759
 7683TIP3   OH223012   0.111   6.286   5.660  0.6916 -0.1463 -0.2832
 7683TIP3    H123013   0.110   6.379   5.685 -0.8413  0.6791 -3.0226
 7683TIP3    H223014   0.195   6.275   5.615  1.3957 -0.4264  1.0667
 7684TIP3   OH223015   4.433   2.632   2.364 -0.0471  0.2185 -0.0535
 7684TIP3    H123016   4.462   2.641   2.273 -0.3883 -0.7319 -0.2619
 7684TIP3    H223017   4.345   2.669   2.365 -1.0401 -1.9768 -0.6839
 7685TIP3   OH223018   4.736   6.113   3.121  0.1564 -0.4883  0.5748
 7685TIP3    H123019   4.651   6.155   3.126  0.6703  0.7732 -0.7374
 7685TIP3    H223020   4.790   6.173   3.069  1.2417 -2.2336 -0.4183
 7686TIP3   OH223021   2.269   5.222   2.408 -0.3952  0.5710  0.1354
 7686TIP3    H123022   2.194   5.278   2.431  0.8305  1.8795  1.0911
 7686TIP3    H223023   2.337   5.283   2.380  0.1893 -0.6302 -1.1908
 7687TIP3   OH223024   4.369   3.576   5.471 -0.2985 -0.4820  0.2891
 7687TIP3    H123025   4.328   3.652   5.431  0.9126 -0.3032 -0.6761
 7687TIP3    H223026   4.309   3.503   5.453 -1.1209  0.1070  0.6133
 7688TIP3   OH223027   0.384   1.032   5.187  1.2645  0.1546 -0.1740
 7688TIP3    H123028   0.367   0.945   5.223 -0.2081  0.1566 -0.7886
 7688TIP3    H223029   0.393   1.089   5.263  2.0571 -0.4884  0.2304
 7689TIP3   OH223030   6.852   4.773   1.782 -0.0218  0.0519  0.1533
 7689TIP3    H123031   6.933   4.820   1.762 -0.6526  0.9097 -0.5019
 7689TIP3    H223032   6.808   4.763   1.697 -1.0775  0.5440  0.6155
 7690TIP3   OH223033   4.462   2.596   5.639  0.0977  0.3757  0.1829
 7690TIP3    H123034   4.421   2.681   5.624  0.0321  0.4155  0.5964
 7690TIP3    H223035   4.402   2.533   5.597 -1.0305  0.3102  1.8206
 7691TIP3   OH223036   1.526   1.477   4.084 -0.1861 -0.0738  0.0586
 7691TIP3    H123037   1.550   1.394   4.041  0.2458  0.2646 -0.3655
 7691TIP3    H223038   1.498   1.451   4.171  0.8856 -0.5835  0.2661
 7692TIP3   OH223039   6.387   1.434   5.825 -0.0770  0.4399 -0.0191
 7692TIP3    H123040   6.458   1.412   5.886 -1.0609 -0.5892  0.7905
 7692TIP3    H223041   6.387   1.362   5.761 -0.6952  0.1846  0.2651
 7693TIP3   OH223042   6.911   0.839   2.927 -0.0278  0.4802  0.1191
 7693TIP3    H123043   6.981   0.904   2.919  0.1024  0.1271 -2.9490
 7693TIP3    H223044   6.956   0.760   2.959  0.6419  0.7471 -0.1366
 7694TIP3   OH223045   5.720   1.389   4.235 -0.1219  0.1054 -0.0919
 7694TIP3    H123046   5.723   1.300   4.202  1.2210 -0.2841  0.9917
 7694TIP3    H223047   5.805   1.426   4.214 -0.3152  0.8029  0.3143
 7695TIP3   OH223048   1.828   1.133   4.264 -0.5757  0.0513 -0.2683
 7695TIP3    H123049   1.909   1.185   4.272  1.4615 -2.2921 -3.2722
 7695TIP3    H223050   1.808   1.107   4.353  2.0652  0.6619  0.6111
 7696TIP3   OH223051   0.256   0.020   4.864 -0.6438 -0.3068  0.4345
 7696TIP3    H123052   0.190  -0.043   4.835 -0.4946 -0.1438 -0.2837
 7696TIP3    H223053   0.222   0.105   4.837 -0.8943 -0.0586  1.4925
 7697TIP3   OH223054   2.672   5.403   3.761  0.1802  0.0777  0.4825
 7697TIP3    H123055   2.598   5.342   3.766 -0.4368  0.8839  2.3977
 7697TIP3    H223056   2.636   5.486   3.794  1.0742  1.4346 -1.7334
 7698TIP3   OH223057   2.226   3.361   1.343 -0.5513  0.2579 -0.1986
 7698TIP3    H123058   2.213   3.349   1.249 -0.7959  1.4733 -0.3321
 7698TIP3    H223059   2.314   3.329   1.359 -0.8168 -0.7478 -0.6864
 7699TIP3   OH223060   2.819   4.896   2.578  0.8104  0.0110 -0.3754
 7699TIP3    H123061   2.901   4.940   2.602  0.6891 -0.4018  0.8908
 7699TIP3    H223062   2.772   4.889   2.661 -0.5551  0.3157 -1.1060
 7700TIP3   OH223063   6.042   1.937   0.612  0.0751 -0.3613  0.1677
 7700TIP3    H123064   6.020   1.962   0.702  1.6786 -1.4320  0.9217
 7700TIP3    H223065   6.050   1.842   0.615  0.3877 -0.3927 -1.0520
 7701TIP3   OH223066   6.834   6.206   2.458  0.2527  0.4001  0.5894
 7701TIP3    H123067   6.788   6.289   2.447  1.9602  1.2154 -1.0055
 7701TIP3    H223068   6.770   6.148   2.499 -1.0374  2.4333  1.5923
 7702TIP3   OH223069   5.844   0.408   2.443 -0.3312  0.5717  0.2319
 7702TIP3    H123070   5.866   0.498   2.421  0.1919  0.2207 -0.7783
 7702TIP3    H223071   5.750   0.409   2.460 -0.2334  1.3934  0.7361
 7703TIP3   OH223072   0.693   6.398   4.956 -0.3015 -0.0705  0.3284
 7703TIP3    H123073   0.602   6.426   4.960 -0.3221  0.3784 -1.8509
 7703TIP3    H223074   0.738   6.450   5.023 -1.3606  0.8642  0.3437
 7704TIP3   OH223075   3.836   6.201   0.047  0.0549  0.0305 -0.2826
 7704TIP3    H123076   3.814   6.232   0.135 -1.7531  0.2941 -0.7789
 7704TIP3    H223077   3.822   6.107   0.051  0.3401 -0.0085 -0.1926
 7705TIP3   OH223078   6.247   5.381   2.392  0.2721 -0.2258 -0.7765
 7705TIP3    H123079   6.153   5.403   2.396  0.5070  0.7426 -0.2356
 7705TIP3    H223080   6.250   5.286   2.405 -0.6632 -0.3478 -1.3259
 7706TIP3   OH223081   0.274   1.661   0.286 -0.5999  0.1195 -0.0722
 7706TIP3    H123082   0.337   1.642   0.356  0.5054  1.0044 -0.7857
 7706TIP3    H223083   0.198   1.607   0.307  0.1020 -0.4150  1.2377
 7707TIP3   OH223084   4.540   5.510   1.514  0.4675  0.2197 -0.2882
 7707TIP3    H123085   4.472   5.463   1.561  0.1458  0.2210 -0.7388
 7707TIP3    H223086   4.612   5.517   1.576 -0.3952  1.3207  0.6383
 7708TIP3   OH223087   2.525   5.716   4.538 -0.1533  0.1014  0.2989
 7708TIP3    H123088   2.591   5.678   4.597 -0.5580 -0.1032  0.6252
 7708TIP3    H223089   2.489   5.641   4.491  0.6199  0.3302 -0.6945
 7709TIP3   OH223090   0.356   2.566   0.843  0.8609 -0.2009 -0.3997
 7709TIP3    H123091   0.406   2.586   0.763  2.7835 -0.6081  0.6363
 7709TIP3    H223092   0.312   2.648   0.864 -0.5129 -0.3486 -2.3899
 7710TIP3   OH223093   0.485   2.082   0.551 -0.2993  0.3461 -0.0014
 7710TIP3    H123094   0.458   2.005   0.601 -1.7025  1.1158  0.4868
 7710TIP3    H223095   0.575   2.099   0.579  0.0512 -1.0987 -0.1388
 7711TIP3   OH223096   6.542   1.714   0.506 -0.4167  0.0857 -0.2913
 7711TIP3    H123097   6.634   1.690   0.512 -0.0322  1.5052 -0.1895
 7711TIP3    H223098   6.524   1.719   0.412 -0.5905 -0.8473 -0.3201
 7712TIP3   OH223099   5.160   2.844   4.766 -0.1051 -0.0242 -0.3060
 7712TIP3    H123100   5.131   2.804   4.848  0.5687 -1.3839 -0.7075
 7712TIP3    H223101   5.093   2.910   4.746 -1.8454 -1.6652 -0.1541
 7713TIP3   OH223102   5.450   0.210   4.823 -0.5003  0.1254  0.3408
 7713TIP3    H123103   5.486   0.299   4.821  0.4513 -0.2375  0.3702
 7713TIP3    H223104   5.355   0.221   4.826 -0.3995  1.1341 -0.0202
 7714TIP3   OH223105   1.436   5.345   0.035 -0.3845  1.0580  0.1669
 7714TIP3    H123106   1.471   5.385  -0.045 -0.5391  0.5630 -0.1475
 7714TIP3    H223107   1.506   5.288   0.066 -0.4467  1.0062  0.2109
 7715TIP3   OH223108   3.360   3.764   0.735 -0.0419  0.4724 -0.1970
 7715TIP3    H123109   3.293   3.826   0.763 -1.4437 -1.8363  1.8873
 7715TIP3    H223110   3.331   3.736   0.648 -0.6073  1.0332 -0.2030
 7716TIP3   OH223111   1.670   6.810   0.107 -0.0915  0.3830 -0.2802
 7716TIP3    H123112   1.759   6.780   0.087  0.5821 -0.6195  3.4283
 7716TIP3    H223113   1.620   6.730   0.120 -0.3562  0.8438  1.8962
 7717TIP3   OH223114   3.765   2.852   3.690 -0.3071  0.1708 -0.1935
 7717TIP3    H123115   3.732   2.805   3.613  2.9834  0.6132 -2.0818
 7717TIP3    H223116   3.768   2.786   3.759 -1.0753 -0.8947 -1.1419
 7718TIP3   OH223117   4.592   2.123   3.541  0.3987  0.0080  0.1183
 7718TIP3    H123118   4.609   2.139   3.448 -1.1048  1.2889  0.0130
 7718TIP3    H223119   4.679   2.121   3.581  1.0406  0.2591 -1.1912
 7719TIP3   OH223120   4.200   2.162   5.577 -0.1030 -0.3867 -0.1130
 7719TIP3    H123121   4.113   2.130   5.600 -0.2692  0.5816  0.6808
 7719TIP3    H223122   4.257   2.127   5.645  0.0149 -0.4782 -0.2589
 7720TIP3   OH223123   3.170   5.139   2.369  0.5980  0.0094 -0.1358
 7720TIP3    H123124   3.243   5.090   2.330  0.5047 -0.2290 -0.0081
 7720TIP3    H223125   3.099   5.130   2.305 -0.4017 -2.5331  1.2094
 7721TIP3   OH223126   1.318   5.841   3.746  0.1063  0.1585 -0.4891
 7721TIP3    H123127   1.266   5.857   3.826  0.9817  0.2653  0.0719
 7721TIP3    H223128   1.319   5.925   3.701  0.4871  0.3844 -0.0725
 7722TIP3   OH223129   6.224   1.348   4.193  0.8798  0.0206  0.2547
 7722TIP3    H123130   6.214   1.271   4.138  0.2818  0.1776  0.1251
 7722TIP3    H223131   6.276   1.409   4.140  1.3764 -0.3032  0.3693
 7723TIP3   OH223132   1.134   2.603   5.645  0.0337 -0.0258 -0.1366
 7723TIP3    H123133   1.222   2.632   5.669  0.3269  0.0602 -1.2770
 7723TIP3    H223134   1.087   2.683   5.623  0.4292 -0.2442 -1.9304
 7724TIP3   OH223135   1.525   1.283   1.148  0.2178  0.1662 -0.1098
 7724TIP3    H123136   1.512   1.362   1.200  0.6638 -0.9039  1.7138
 7724TIP3    H223137   1.620   1.277   1.137  0.0820  1.1067 -2.3058
 7725TIP3   OH223138   0.838   4.429   1.463  0.1197 -0.2170 -0.4041
 7725TIP3    H123139   0.901   4.496   1.491  0.8448 -0.4782 -1.3339
 7725TIP3    H223140   0.761   4.478   1.435 -0.3457  0.0828  1.2823
 7726TIP3   OH223141   1.853   1.125   1.414 -0.0233 -0.4032  0.3168
 7726TIP3    H123142   1.778   1.066   1.401 -1.4120  1.1797  0.8652
 7726TIP3    H223143   1.834   1.200   1.358  1.1530  0.0510  0.4988
 7727TIP3   OH223144   2.983   3.382   3.887 -0.2424 -1.0934  0.0187
 7727TIP3    H123145   2.955   3.470   3.863 -1.5184 -1.1201  1.2637
 7727TIP3    H223146   3.079   3.385   3.881 -0.2879  0.2519 -0.3749
 7728TIP3   OH223147   1.602   0.374   3.723  0.0570 -0.1941 -0.3871
 7728TIP3    H123148   1.571   0.441   3.662 -0.7556 -1.1672 -1.0804
 7728TIP3    H223149   1.548   0.297   3.704 -0.3725 -0.4791  1.7212
 7729TIP3   OH223150   5.976   4.482   2.510  0.1450  0.0895 -0.1980
 7729TIP3    H123151   5.983   4.479   2.605 -0.7559 -0.2995 -0.1338
 7729TIP3    H223152   5.952   4.573   2.490 -0.2983  0.0147 -0.0062
 7730TIP3   OH223153   0.788   5.042   5.062  0.7581  0.5601  0.3956
 7730TIP3    H123154   0.883   5.053   5.066  0.7948  0.3391  0.1459
 7730TIP3    H223155   0.754   5.129   5.081  1.0151  0.6923  0.2644
 7731TIP3   OH223156   7.216   1.355   3.566  0.3047  0.1876  0.4188
 7731TIP3    H123157   7.238   1.447   3.553 -0.0590  0.1534 -0.4805
 7731TIP3    H223158   7.149   1.336   3.500  1.4872 -1.1208 -0.4741
 7732TIP3   OH223159   6.605   0.511   1.006 -0.7128 -0.0482 -0.2971
 7732TIP3    H123160   6.562   0.538   0.925 -0.1642  1.0256 -0.2395
 7732TIP3    H223161   6.691   0.553   1.003 -1.1913  1.1596  1.4731
 7733TIP3   OH223162   4.672   4.006   3.175  0.3141  0.4098 -0.6943
 7733TIP3    H123163   4.761   3.989   3.205  0.3043 -1.5620 -1.6454
 7733TIP3    H223164   4.619   4.004   3.255  0.9918  0.6639 -0.2281
 7734TIP3   OH223165   2.281   3.650   5.469 -0.3601 -0.2193 -0.1231
 7734TIP3    H123166   2.271   3.743   5.487  1.2821 -0.3256  1.6975
 7734TIP3    H223167   2.288   3.610   5.556 -1.0675 -2.0504 -0.8627
 7735TIP3   OH223168   6.758   1.575   0.595  0.7626  0.7619  0.4006
 7735TIP3    H123169   6.694   1.519   0.637  0.6655  1.3254  1.0151
 7735TIP3    H223170   6.839   1.560   0.644  1.1811 -0.1130 -0.5072
 7736TIP3   OH223171   1.623   6.644   0.966 -0.1286 -0.1754 -0.3274
 7736TIP3    H123172   1.623   6.575   1.033 -2.7140 -0.2451 -0.2745
 7736TIP3    H223173   1.634   6.725   1.016  1.0901 -0.3977 -0.1978
 7737TIP3   OH223174   5.106   1.857   0.193  0.3528  0.3681 -0.0125
 7737TIP3    H123175   5.071   1.942   0.166 -0.8599 -0.4382 -1.1040
 7737TIP3    H223176   5.097   1.801   0.116  1.0473 -0.7778  0.7062
 7738TIP3   OH223177   0.724   0.973   4.969  0.1682  0.2689 -0.0728
 7738TIP3    H123178   0.711   1.046   5.030  0.8208 -1.6006  2.4333
 7738TIP3    H223179   0.643   0.971   4.917 -0.0441  2.4564  0.0882
 7739TIP3   OH223180   4.804   2.381   0.746  0.5430  0.4386 -0.4746
 7739TIP3    H123181   4.739   2.435   0.789  0.2799 -0.6779  0.5686
 7739TIP3    H223182   4.841   2.437   0.678  0.5122  2.0294  0.7781
 7740TIP3   OH223183   6.229   1.006   0.071 -0.0737 -0.4322 -0.0316
 7740TIP3    H123184   6.151   1.059   0.057 -0.9358 -1.5001  0.5339
 7740TIP3    H223185   6.205   0.946   0.142  1.0776 -1.1407 -0.2065
 7741TIP3   OH223186   0.565   2.125   4.449 -0.0869  0.3926 -0.5703
 7741TIP3    H123187   0.594   2.045   4.494  0.5823 -0.7205 -2.8226
 7741TIP3    H223188   0.477   2.142   4.484  0.3953 -0.3723  1.1163
 7742TIP3   OH223189   4.433   5.772   1.506 -0.3093 -0.4862  0.0393
 7742TIP3    H123190   4.489   5.842   1.472 -0.1496  0.3596  1.9280
 7742TIP3    H223191   4.487   5.693   1.499  0.0624 -0.1741 -0.7454
 7743TIP3   OH223192   3.684   2.487   0.273 -0.1607  0.8612  0.1137
 7743TIP3    H123193   3.662   2.433   0.349  0.8203  0.4161  0.1053
 7743TIP3    H223194   3.742   2.554   0.308  0.2136  0.7153 -0.2197
 7744TIP3   OH223195   2.823   6.018   4.656 -1.0380 -0.6609 -0.2256
 7744TIP3    H123196   2.857   6.105   4.638 -1.1282 -0.6847 -0.5220
 7744TIP3    H223197   2.810   6.016   4.751 -2.4193  0.1620 -0.3802
 7745TIP3   OH223198   0.716   0.228   1.878  0.5723  0.4597 -0.0709
 7745TIP3    H123199   0.735   0.322   1.869 -0.4649  0.6697 -0.2051
 7745TIP3    H223200   0.776   0.185   1.818  0.0551  1.1531 -1.1060
 7746TIP3   OH223201   2.798   4.825   3.482 -0.0649 -0.0653 -0.3700
 7746TIP3    H123202   2.890   4.851   3.476 -0.1661  0.6507  0.8906
 7746TIP3    H223203   2.798   4.732   3.463  0.9182 -0.0649 -0.4034
 7747TIP3   OH223204   1.040   4.876   3.755  0.1317  0.4493 -0.3970
 7747TIP3    H123205   0.989   4.816   3.700  1.3897 -0.6290 -0.4502
 7747TIP3    H223206   0.993   4.879   3.838 -0.0934 -0.4215 -0.4869
 7748TIP3   OH223207   5.743   6.515   4.002  0.6846  0.4985  0.0603
 7748TIP3    H123208   5.819   6.464   3.973  0.3463 -1.1014  1.7690
 7748TIP3    H223209   5.754   6.523   4.096 -2.5475 -2.2538  0.8870
 7749TIP3   OH223210   2.073   5.337  -0.003  1.2640 -0.0035  0.5801
 7749TIP3    H123211   2.071   5.242   0.006  1.4835  0.1779  3.3883
 7749TIP3    H223212   2.129   5.367   0.069  0.0035  2.3282  0.6846
 7750TIP3   OH223213   6.753   2.144   0.069 -0.3835 -0.0349 -0.0561
 7750TIP3    H123214   6.698   2.076   0.031 -0.6928  0.0106  0.2949
 7750TIP3    H223215   6.734   2.222   0.017  1.0486 -0.5235 -1.3934
 7751TIP3   OH223216   4.707   2.558   0.918 -0.3868 -0.0611  0.1233
 7751TIP3    H123217   4.710   2.614   0.995  2.1219  0.6807 -0.4072
 7751TIP3    H223218   4.726   2.617   0.845 -1.2052 -1.0117 -0.8883
 7752TIP3   OH223219   4.986   3.653   2.539  0.8025 -0.0671  0.0208
 7752TIP3    H123220   4.915   3.629   2.599 -0.2902 -1.4331 -1.7283
 7752TIP3    H223221   4.971   3.746   2.520 -1.0971 -0.5267 -0.9713
 7753TIP3   OH223222   5.589   5.956   4.174  0.2030  0.2709 -0.4559
 7753TIP3    H123223   5.612   5.868   4.144 -0.2487 -0.2562  0.6801
 7753TIP3    H223224   5.567   6.003   4.094 -0.0969 -0.8216 -1.0443
 7754TIP3   OH223225   3.395   6.174   5.703 -0.2651  0.5138  0.2832
 7754TIP3    H123226   3.395   6.197   5.796 -0.5383 -2.1390  1.0187
 7754TIP3    H223227   3.486   6.151   5.684 -0.4858 -0.4817  0.3590
 7755TIP3   OH223228   4.616   2.424   4.199 -0.0462 -0.7607  0.0303
 7755TIP3    H123229   4.613   2.339   4.155 -1.9774 -0.3957 -0.6683
 7755TIP3    H223230   4.543   2.420   4.261  0.0146  0.2977  0.1794
 7756TIP3   OH223231   3.650   5.730   0.280  0.3793 -0.0205  0.1086
 7756TIP3    H123232   3.717   5.724   0.212 -0.8138 -1.5142 -1.0062
 7756TIP3    H223233   3.577   5.678   0.246 -1.4495  1.7280  1.1785
 7757TIP3   OH223234   3.309   6.506   1.157  0.5939  0.0168 -0.4260
 7757TIP3    H123235   3.350   6.480   1.075  1.7804  0.5815 -0.0344
 7757TIP3    H223236   3.378   6.554   1.205 -0.4116  0.6946  0.4013
 7758TIP3   OH223237   1.593   0.717   2.019  0.0999  0.5613 -0.5629
 7758TIP3    H123238   1.553   0.795   2.058  0.2260 -0.2318  1.2437
 7758TIP3    H223239   1.536   0.696   1.944 -0.6141  1.6774 -0.3652
 7759TIP3   OH223240   1.780   0.577   2.163 -0.8154  0.0741 -0.0051
 7759TIP3    H123241   1.755   0.639   2.093  2.7967  1.1844 -0.4986
 7759TIP3    H223242   1.871   0.599   2.183  0.0522 -3.8804  1.1932
 7760TIP3   OH223243   5.771   6.420   5.256  0.0843 -0.0411 -0.7731
 7760TIP3    H123244   5.697   6.389   5.309 -0.2072 -0.6221 -1.5110
 7760TIP3    H223245   5.737   6.424   5.167  0.3923  1.5202 -0.8564
 7761TIP3   OH223246   5.161   4.013   0.396  0.4618 -0.2235 -0.7567
 7761TIP3    H123247   5.147   3.926   0.433  0.6826  0.3393  0.7028
 7761TIP3    H223248   5.132   4.074   0.464 -1.7297  0.8851 -2.5604
 7762TIP3   OH223249   4.794   5.088   4.190 -0.1769 -0.3449 -0.4727
 7762TIP3    H123250   4.812   4.995   4.183 -0.0011 -0.2735 -0.9847
 7762TIP3    H223251   4.703   5.093   4.220  0.7660 -0.7204  2.8808
 7763TIP3   OH223252   2.309   5.965   5.638 -0.2702 -0.0131 -0.0274
 7763TIP3    H123253   2.318   6.034   5.571 -1.2915  0.0966 -0.0581
 7763TIP3    H223254   2.323   6.011   5.721  1.7336 -0.2795 -0.1599
 7764TIP3   OH223255   3.203   6.076   1.678 -0.2416  0.2451 -0.1883
 7764TIP3    H123256   3.262   6.028   1.619  2.3474  2.1994  0.5989
 7764TIP3    H223257   3.135   6.110   1.621 -0.0177 -1.1638 -1.3655
 7765TIP3   OH223258   7.063   1.297   2.258 -0.2594  0.0135  0.0630
 7765TIP3    H123259   7.066   1.305   2.353 -0.2488  0.7189  0.0035
 7765TIP3    H223260   6.976   1.329   2.234  0.2817  1.2784 -0.2948
 7766TIP3   OH223261   0.385   4.872   0.508  0.3030  0.2415  0.4962
 7766TIP3    H123262   0.332   4.832   0.576 -1.3653  0.6056 -0.5280
 7766TIP3    H223263   0.456   4.916   0.555  0.9375 -2.0156  1.7754
 7767TIP3   OH223264   1.900   1.203   0.413  0.2962  0.5166  0.1294
 7767TIP3    H123265   1.812   1.241   0.409  0.3448  0.7543  1.0495
 7767TIP3    H223266   1.933   1.229   0.499  1.4516  0.8195 -0.3885
 7768TIP3   OH223267   5.234   1.796   1.772 -0.2969 -0.3239 -0.5249
 7768TIP3    H123268   5.156   1.834   1.732 -1.5928 -0.4621  1.6933
 7768TIP3    H223269   5.214   1.794   1.866  2.4154 -0.2893  0.1462
 7769TIP3   OH223270   6.251   0.376   3.337  0.1344  0.1626  0.1287
 7769TIP3    H123271   6.174   0.426   3.312 -0.4907 -0.3158  1.0216
 7769TIP3    H223272   6.230   0.341   3.423  1.0776 -0.5461  0.0926
 7770TIP3   OH223273   3.760   2.754   2.328  0.2092  0.3665 -0.1528
 7770TIP3    H123274   3.844   2.776   2.289  0.2377 -2.8436 -2.2970
 7770TIP3    H223275   3.695   2.799   2.273  0.4449  0.4609 -0.3539
 7771TIP3   OH223276   0.832   4.907   1.462  0.2450 -0.2631 -1.1138
 7771TIP3    H123277   0.788   4.823   1.451  1.1167 -0.7710 -0.7776
 7771TIP3    H223278   0.834   4.921   1.556 -1.0339  0.7659 -1.2142
 7772TIP3   OH223279   4.252   1.026   2.043  0.1784  0.1687  0.0996
 7772TIP3    H123280   4.221   1.001   1.956  0.7247  0.6742 -0.2522
 7772TIP3    H223281   4.184   0.997   2.102  0.7010 -1.9848 -0.2920
 7773TIP3   OH223282   3.644   0.105   2.636 -0.2980 -0.1906 -0.0001
 7773TIP3    H123283   3.642   0.150   2.720 -0.9110  1.0784 -0.6622
 7773TIP3    H223284   3.735   0.110   2.608 -0.3590  0.7079 -0.0755
 7774TIP3   OH223285   5.918   5.391   4.090 -1.1479 -0.1985 -0.0957
 7774TIP3    H123286   6.012   5.372   4.085 -0.9342  1.0262 -1.2324
 7774TIP3    H223287   5.911   5.485   4.080 -2.4006  0.0235  2.1411
 7775TIP3   OH223288   1.146   0.206   3.874 -0.1751 -0.0550  0.1958
 7775TIP3    H123289   1.105   0.134   3.921 -1.3250  0.4961  0.0620
 7775TIP3    H223290   1.090   0.282   3.891  0.6291  0.6601 -0.2289
 7776TIP3   OH223291   2.815   3.408   5.243 -0.1418 -0.2881 -0.0999
 7776TIP3    H123292   2.890   3.441   5.194 -0.2236  0.5872  0.3492
 7776TIP3    H223293   2.813   3.461   5.323 -2.7461  1.5402 -1.2364
 7777TIP3   OH223294   5.954   1.586   2.683 -0.0363 -0.1007  0.3116
 7777TIP3    H123295   5.984   1.605   2.594  0.0912  2.4885  0.8249
 7777TIP3    H223296   6.034   1.568   2.732  0.0848  0.4029  0.3029
 7778TIP3   OH223297   5.032   5.929   1.426  0.3913  0.1625  0.3318
 7778TIP3    H123298   5.041   5.966   1.514 -0.2235  0.6733  0.1783
 7778TIP3    H223299   5.120   5.896   1.406  0.5400  0.0454  1.1327
 7779TIP3   OH223300   2.696   3.339   1.708 -0.2462  0.3549  0.3020
 7779TIP3    H123301   2.629   3.282   1.670  0.3116  0.6804 -1.2682
 7779TIP3    H223302   2.777   3.290   1.699 -0.2528 -0.0847  2.2956
 7780TIP3   OH223303   6.032   3.541   2.344 -0.0580 -0.4485 -0.2018
 7780TIP3    H123304   5.943   3.575   2.334 -0.0501 -0.8724 -2.0594
 7780TIP3    H223305   6.028   3.484   2.420 -0.8678  1.1030  0.9562
 7781TIP3   OH223306   0.776   2.242  -0.006 -0.6778 -0.6489 -0.2649
 7781TIP3    H123307   0.680   2.240   0.003 -0.6679 -0.2765 -0.0461
 7781TIP3    H223308   0.808   2.207   0.077 -0.6165  0.4554  0.2059
 7782TIP3   OH223309   2.744   4.282   3.222  0.0840 -0.1141 -0.2410
 7782TIP3    H123310   2.769   4.202   3.175  1.4016 -0.0358  0.2675
 7782TIP3    H223311   2.824   4.335   3.223 -0.0267  0.1040  1.5892
 7783TIP3   OH223312   2.075   0.649   1.460  0.3769 -0.3416 -0.6211
 7783TIP3    H123313   2.161   0.648   1.417  1.2966  0.4748  1.1184
 7783TIP3    H223314   2.034   0.730   1.430 -0.6351 -1.5735 -2.8916
 7784TIP3   OH223315   1.223   5.786   0.436  0.0776 -0.1878 -0.6314
 7784TIP3    H123316   1.244   5.708   0.384 -0.1456 -0.0104 -0.9970
 7784TIP3    H223317   1.162   5.755   0.503 -0.2296 -0.2770 -0.9501
 7785TIP3   OH223318   3.837   4.212   4.471 -0.3737 -0.1063 -0.1172
 7785TIP3    H123319   3.876   4.245   4.390 -0.5528  1.5381  0.4230
 7785TIP3    H223320   3.906   4.159   4.510  0.3317  0.4794 -0.5323
 7786TIP3   OH223321   0.165   3.859   3.822 -0.2108  0.3622 -0.1504
 7786TIP3    H123322   0.217   3.814   3.889 -0.6374 -1.1366 -0.7845
 7786TIP3    H223323   0.222   3.928   3.790  1.1489 -0.7872 -0.3244
 7787TIP3   OH223324   2.013   2.764   5.389 -0.1343 -0.8338  0.2899
 7787TIP3    H123325   1.985   2.694   5.330  1.2138 -2.4094  1.4027
 7787TIP3    H223326   2.018   2.842   5.334 -2.5315 -1.3676 -0.8210
 7788TIP3   OH223327   4.494   5.821   3.227  0.6234 -0.5594  0.1423
 7788TIP3    H123328   4.491   5.740   3.277  2.1742  0.1083  1.3845
 7788TIP3    H223329   4.457   5.887   3.285  3.0811  0.3569  0.7929
 7789TIP3   OH223330   5.531   1.071   3.221 -0.3461 -0.0318 -0.1324
 7789TIP3    H123331   5.476   0.995   3.201 -1.4263  0.8952 -0.8291
 7789TIP3    H223332   5.473   1.147   3.209  0.3732  0.8685  1.6848
 7790TIP3   OH223333   5.232   4.314   1.276 -0.4017 -0.4196 -0.2568
 7790TIP3    H123334   5.327   4.313   1.259 -0.7599  1.6338 -3.2022
 7790TIP3    H223335   5.218   4.397   1.323 -0.9849  0.8761 -2.5711
 7791TIP3   OH223336   5.258   1.223   4.762  0.1022 -0.2055 -0.1577
 7791TIP3    H123337   5.201   1.159   4.720 -1.4193  1.6207 -1.0168
 7791TIP3    H223338   5.251   1.204   4.855 -1.9576 -0.0641 -0.2311
 7792TIP3   OH223339   3.235   0.403   3.802  0.0347  0.2945 -0.1049
 7792TIP3    H123340   3.324   0.402   3.768  0.1302 -0.6366  0.1441
 7792TIP3    H223341   3.246   0.402   3.897 -0.2240 -1.0830 -0.0655
 7793TIP3   OH223342   0.162   1.885   5.144  0.3428 -0.1988  0.4983
 7793TIP3    H123343   0.188   1.873   5.235  0.3723  3.3822  1.0854
 7793TIP3    H223344   0.156   1.979   5.132  0.1617 -0.5066 -3.1945
 7794TIP3   OH223345   0.687   2.713   4.393  0.0433 -0.1216  0.5103
 7794TIP3    H123346   0.683   2.704   4.488  1.8210 -2.8126  0.4242
 7794TIP3    H223347   0.744   2.789   4.379  0.7226 -0.4101  1.6123
 7795TIP3   OH223348   6.036   2.939   1.450  0.2114 -0.0873 -0.2371
 7795TIP3    H123349   5.985   2.928   1.530 -3.0959 -0.0511 -2.1359
 7795TIP3    H223350   6.083   2.856   1.439  0.1994 -0.3284  1.3662
 7796TIP3   OH223351   4.371   3.471   3.296 -0.2249  0.0523  0.1353
 7796TIP3    H123352   4.438   3.529   3.257  0.3447  0.4033  1.5623
 7796TIP3    H223353   4.315   3.530   3.346 -0.8963 -0.3934 -0.0880
 7797TIP3   OH223354   1.285   0.783   3.404  0.9585  0.7719 -0.9805
 7797TIP3    H123355   1.365   0.798   3.454  1.4587  0.3362 -1.6213
 7797TIP3    H223356   1.214   0.801   3.465  1.5335 -1.1913  0.3752
 7798TIP3   OH223357   6.532   0.963   3.367  0.2388 -0.1737 -0.4761
 7798TIP3    H123358   6.487   1.039   3.404 -0.7403 -0.8497 -0.2420
 7798TIP3    H223359   6.625   0.980   3.383 -0.1076 -0.6471  2.8280
 7799TIP3   OH223360   6.389   5.536   2.199 -0.3483  0.4029  0.9165
 7799TIP3    H123361   6.482   5.518   2.212 -0.6116 -1.0118  0.9316
 7799TIP3    H223362   6.347   5.507   2.280 -0.8757  0.5397  0.6990
 7800TIP3   OH223363   3.884   0.743   0.202 -0.0489 -0.0641  0.2577
 7800TIP3    H123364   3.920   0.696   0.278  0.3327  0.4080  0.3753
 7800TIP3    H223365   3.938   0.821   0.195  0.5415 -0.5564 -1.0881
 7801TIP3   OH223366   4.208   0.291   0.644  0.2930  0.3515  0.3210
 7801TIP3    H123367   4.270   0.219   0.652 -0.7236 -0.5586  0.2838
 7801TIP3    H223368   4.262   0.370   0.637  1.4355 -0.4632 -0.2562
 7802TIP3   OH223369   3.101   2.456   1.596 -0.4177  0.1981  0.1724
 7802TIP3    H123370   3.074   2.364   1.603 -1.8841  0.5764 -0.1566
 7802TIP3    H223371   3.156   2.458   1.517  0.9431 -0.6652  1.0624
 7803TIP3   OH223372   0.493   1.004   1.684  0.5209  0.2880 -0.2141
 7803TIP3    H123373   0.400   1.000   1.661  0.1746 -0.6913  1.2194
 7803TIP3    H223374   0.537   0.956   1.615  0.1600  1.9373 -1.6715
 7804TIP3   OH223375   4.436   1.283   0.370  0.4111 -0.7045 -0.7670
 7804TIP3    H123376   4.428   1.293   0.465 -0.3206  0.8308 -0.9686
 7804TIP3    H223377   4.488   1.202   0.359 -0.4676 -1.5482  0.8993
 7805TIP3   OH223378   2.456   0.293   2.746 -0.7652  0.4245  0.4259
 7805TIP3    H123379   2.479   0.368   2.802  1.1668  0.3108 -0.1382
 7805TIP3    H223380   2.508   0.221   2.781 -4.8916 -1.7160  3.0271
 7806TIP3   OH223381   0.199   5.056   5.141  0.6783  0.3305 -0.6092
 7806TIP3    H123382   0.199   4.994   5.214 -0.9502 -1.1645 -1.7902
 7806TIP3    H223383   0.258   5.017   5.076  1.6651  1.3596 -0.3604
 7807TIP3   OH223384   3.884   3.638   3.771 -0.1668 -0.5088  0.1256
 7807TIP3    H123385   3.882   3.669   3.681 -0.9542  1.4514  0.7572
 7807TIP3    H223386   3.811   3.684   3.814  0.5421 -0.9318  1.8767
 7808TIP3   OH223387   0.295   6.560   3.290  0.1647 -0.0119  0.0165
 7808TIP3    H123388   0.373   6.533   3.339  1.2436  2.2775 -0.3206
 7808TIP3    H223389   0.297   6.505   3.211  0.3767 -1.2480  0.8427
 7809TIP3   OH223390   0.107   0.536   2.349 -0.3177 -0.2633 -0.2647
 7809TIP3    H123391   0.030   0.580   2.315 -0.3526 -0.7799 -0.8602
 7809TIP3    H223392   0.153   0.503   2.272 -0.7975 -2.1151  0.1892
 7810TIP3   OH223393   4.616   1.613   2.049 -0.3611  0.3158 -0.0028
 7810TIP3    H123394   4.688   1.676   2.037  0.4189 -0.6620 -0.6001
 7810TIP3    H223395   4.537   1.668   2.051  0.3561  1.3772  0.2633
 7811TIP3   OH223396   0.876   5.693   1.359  0.8489  0.2014 -0.2313
 7811TIP3    H123397   0.885   5.722   1.268 -2.5762 -1.3527 -1.2343
 7811TIP3    H223398   0.879   5.598   1.354 -0.6999  0.0527  1.0402
 7812TIP3   OH223399   4.804   0.602   0.725 -0.2078  0.0433  0.0598
 7812TIP3    H123400   4.772   0.608   0.635  1.0772 -0.2090 -0.4351
 7812TIP3    H223401   4.888   0.646   0.724  0.1524 -0.5867  0.9704
 7813TIP3   OH223402   6.415   4.073   4.341  0.4014 -0.3374  0.2048
 7813TIP3    H123403   6.380   4.161   4.352 -0.2034 -0.2017 -2.2245
 7813TIP3    H223404   6.505   4.087   4.310  0.5542 -0.5895  0.5328
 7814TIP3   OH223405   0.192   6.341   3.630 -0.7421 -0.3382  0.4295
 7814TIP3    H123406   0.203   6.436   3.633 -0.5318 -0.3822  1.2734
 7814TIP3    H223407   0.128   6.326   3.560 -0.5529  0.4015  0.0948
 7815TIP3   OH223408   1.228   1.644   1.426  0.3578  0.5405 -0.2087
 7815TIP3    H123409   1.270   1.729   1.444  0.3696  0.7224 -1.0604
 7815TIP3    H223410   1.139   1.654   1.459  1.0063  0.0576  1.8859
 7816TIP3   OH223411   1.537   4.415   2.104 -0.2014 -0.3332 -0.4829
 7816TIP3    H123412   1.542   4.484   2.171 -0.8463  1.4465 -2.1489
 7816TIP3    H223413   1.517   4.335   2.153 -1.1329  0.9656  1.3945
 7817TIP3   OH223414   0.345   1.020   3.146  0.8529  0.5537 -0.2022
 7817TIP3    H123415   0.252   1.038   3.157  0.8015  0.1750  0.0014
 7817TIP3    H223416   0.359   1.020   3.052  0.4343 -0.4034 -0.2783
 7818TIP3   OH223417   5.589   4.575   0.486  0.7435  0.5559 -0.9005
 7818TIP3    H123418   5.643   4.618   0.552 -0.3071 -0.0135  0.3762
 7818TIP3    H223419   5.503   4.567   0.527  0.3951 -0.9622 -1.8533
 7819TIP3   OH223420   4.900   1.048   3.171 -0.0155 -0.2086  0.6618
 7819TIP3    H123421   4.931   0.959   3.151 -1.5863 -0.5626 -0.4437
 7819TIP3    H223422   4.805   1.043   3.158 -0.1670  1.5708  0.8735
 7820TIP3   OH223423   6.630   4.715   1.187  0.6163  0.4856  0.0462
 7820TIP3    H123424   6.582   4.697   1.268  0.6755 -2.5531 -0.4955
 7820TIP3    H223425   6.722   4.719   1.214  0.5266  0.9254  0.3037
 7821TIP3   OH223426   2.526   6.317   2.337  0.0855 -0.1319 -0.0578
 7821TIP3    H123427   2.535   6.372   2.415 -0.6825  0.5487 -0.4290
 7821TIP3    H223428   2.581   6.241   2.354 -1.5135 -0.9191  1.9683
 7822TIP3   OH223429   4.950   3.136   2.977 -0.3658  0.1557 -0.1021
 7822TIP3    H123430   4.985   3.082   2.906 -0.4612 -0.2258  0.1388
 7822TIP3    H223431   4.858   3.111   2.984 -1.8529  3.7983 -3.2542
 7823TIP3   OH223432   4.588   2.856   3.553  0.1306 -0.7375  0.2508
 7823TIP3    H123433   4.571   2.936   3.604  1.1966 -0.7664  0.6662
 7823TIP3    H223434   4.502   2.814   3.546 -0.4870  0.5018 -0.0951
 7824TIP3   OH223435   1.385   0.375   5.207 -0.1285  0.1780  0.1105
 7824TIP3    H123436   1.294   0.394   5.183 -0.6754 -1.0523  1.0835
 7824TIP3    H223437   1.409   0.300   5.151  0.4246  0.7280 -0.4033
 7825TIP3   OH223438   2.959   5.328   5.295  0.1109 -0.3643 -0.1385
 7825TIP3    H123439   2.890   5.307   5.357  0.3188 -1.5745 -0.2940
 7825TIP3    H223440   2.929   5.292   5.211  0.9463 -0.9813 -0.1924
 7826TIP3   OH223441   0.419   5.220   5.233  0.0675 -0.1364 -0.2182
 7826TIP3    H123442   0.350   5.260   5.180  0.3122  2.2788  1.1273
 7826TIP3    H223443   0.385   5.134   5.256 -0.3948 -0.9584 -3.5113
 7827TIP3   OH223444   6.231   5.434   3.124 -0.2330  0.9151 -0.3570
 7827TIP3    H123445   6.315   5.468   3.094  1.3481 -2.4811 -0.2030
 7827TIP3    H223446   6.181   5.418   3.044 -0.0634  1.3338 -0.5480
 7828TIP3   OH223447   4.058   2.729   5.473  0.8149 -0.1359  0.1025
 7828TIP3    H123448   4.028   2.786   5.543 -1.1534  1.3706 -1.8106
 7828TIP3    H223449   4.117   2.784   5.421  1.1237 -0.7573 -0.2163
 7829TIP3   OH223450   3.077   1.624   4.221  0.3473 -0.0724 -0.3068
 7829TIP3    H123451   2.989   1.650   4.193  0.0857  0.4683  0.9680
 7829TIP3    H223452   3.133   1.696   4.194  0.5941 -0.8765 -2.0506
 7830TIP3   OH223453   2.631   4.504   2.695 -0.5718 -0.2349  0.5988
 7830TIP3    H123454   2.625   4.571   2.626 -0.1800  0.1359  0.9207
 7830TIP3    H223455   2.717   4.463   2.680 -1.0039 -0.9871  0.1170
 7831TIP3   OH223456   4.722   5.812   1.710  0.0977  0.6057  0.4639
 7831TIP3    H123457   4.786   5.758   1.756  0.1158  0.4292  0.2375
 7831TIP3    H223458   4.637   5.773   1.732  0.0708  0.8207  0.7397
 7832TIP3   OH223459   6.640   0.388   5.505  0.1491  0.0834 -0.1148
 7832TIP3    H123460   6.715   0.341   5.541  0.3504 -0.1535 -0.8177
 7832TIP3    H223461   6.575   0.319   5.486  0.0519  0.2024 -0.2192
 7833TIP3   OH223462   5.943   2.699   3.949 -0.0726 -0.4512  0.4734
 7833TIP3    H123463   5.889   2.744   4.014 -0.0128 -0.3444  0.4490
 7833TIP3    H223464   6.013   2.658   4.001  0.4166  0.2785  0.3987
 7834TIP3   OH223465   1.606   0.520   5.248 -0.4587 -0.0981  0.2004
 7834TIP3    H123466   1.523   0.474   5.230  0.1534 -0.6593 -1.4301
 7834TIP3    H223467   1.625   0.500   5.339 -3.1639  1.8008  1.3179
 7835TIP3   OH223468   0.785   0.406   2.594  0.0751  0.1693 -0.2529
 7835TIP3    H123469   0.827   0.325   2.566  0.7578  0.6282 -0.5967
 7835TIP3    H223470   0.770   0.395   2.687 -1.0971 -0.8962 -0.5445
 7836TIP3   OH223471   0.603   6.209   3.157 -0.0591 -0.0492 -0.0579
 7836TIP3    H123472   0.600   6.117   3.130  1.0352 -0.3417  0.7893
 7836TIP3    H223473   0.637   6.255   3.080 -1.0960 -0.2635 -0.6629
 7837TIP3   OH223474   1.603   2.433   2.043 -0.0129 -0.0304 -0.1252
 7837TIP3    H123475   1.674   2.461   2.101 -0.7488  0.6469  0.4737
 7837TIP3    H223476   1.642   2.366   1.988  0.9027 -0.1822  0.6832
 7838TIP3   OH223477   3.277   6.460   3.005  0.2143 -0.0282  0.3782
 7838TIP3    H123478   3.194   6.418   2.986  0.7673 -0.9990  0.0305
 7838TIP3    H223479   3.261   6.511   3.085 -0.8940  0.3903 -0.0982
 7839TIP3   OH223480   4.401   3.940   2.105  0.6308 -0.5034  0.0596
 7839TIP3    H123481   4.348   3.863   2.086  0.1964 -0.4518  1.0233
 7839TIP3    H223482   4.476   3.933   2.046 -0.7853 -0.1832 -1.8455
 7840TIP3   OH223483   5.939   0.742   5.071 -0.2468  0.0916  0.3491
 7840TIP3    H123484   5.998   0.709   5.138 -0.2517 -0.0482  0.2850
 7840TIP3    H223485   5.913   0.665   5.022  0.5919  0.3206 -0.4825
 7841TIP3   OH223486   2.042   5.413   2.716 -0.0433 -0.2998 -0.1754
 7841TIP3    H123487   2.009   5.450   2.798  0.3191  1.1648 -0.6575
 7841TIP3    H223488   2.135   5.396   2.733 -0.4011 -1.9081  0.3328
 7842TIP3   OH223489   6.572   3.370   1.265  0.2727  0.2289 -0.0257
 7842TIP3    H123490   6.532   3.452   1.238 -1.1652 -0.5339 -0.2744
 7842TIP3    H223491   6.622   3.341   1.189 -0.6346  0.0154 -0.5510
 7843TIP3   OH223492   1.844   6.605   0.295 -0.5505 -0.1217  0.4730
 7843TIP3    H123493   1.885   6.658   0.225 -1.4091  0.6722  0.5483
 7843TIP3    H223494   1.868   6.515   0.273  2.6783  0.3648  1.4526
 7844TIP3   OH223495   4.999   3.318   4.524 -0.4732  0.4037 -0.4238
 7844TIP3    H123496   5.011   3.293   4.616 -0.9939 -0.7656 -0.6552
 7844TIP3    H223497   4.914   3.361   4.521 -1.0675 -0.7255 -0.5511
 7845TIP3   OH223498   4.630   1.727   5.693  0.0914 -0.7944 -0.2645
 7845TIP3    H123499   4.577   1.661   5.648  0.4823  0.0292 -2.0148
 7845TIP3    H223500   4.589   1.735   5.779 -2.0253 -0.9193 -1.1796
 7846TIP3   OH223501   2.027   4.748   0.351 -0.3016 -0.5617 -0.5843
 7846TIP3    H123502   1.960   4.751   0.282  0.5508 -3.4933 -1.6919
 7846TIP3    H223503   1.994   4.683   0.413  0.9071 -1.1132 -0.4955
 7847TIP3   OH223504   2.651   2.136   0.399  0.7593  0.1410  0.8564
 7847TIP3    H123505   2.574   2.123   0.454  1.5426 -0.9493  1.7556
 7847TIP3    H223506   2.617   2.140   0.310 -0.3962  0.4091  1.2959
 7848TIP3   OH223507   5.443   1.733   2.340  0.2223  0.3489  0.2112
 7848TIP3    H123508   5.432   1.650   2.386  0.8888  1.5430  2.6781
 7848TIP3    H223509   5.537   1.750   2.342  0.0914  1.1664 -0.2664
 7849TIP3   OH223510   2.061   4.270   3.021  0.6099  0.6169  0.0553
 7849TIP3    H123511   2.136   4.329   3.009  1.1525 -0.3093 -1.3313
 7849TIP3    H223512   2.010   4.280   2.941 -0.6356  1.0199  0.8656
 7850TIP3   OH223513   2.052   2.399   2.198  0.2611  0.3678 -0.1227
 7850TIP3    H123514   2.062   2.400   2.103 -0.3618 -0.6686 -0.2097
 7850TIP3    H223515   1.973   2.450   2.214 -1.6963 -2.3378 -0.4807
 7851TIP3   OH223516   0.316   0.403   1.205 -0.1666 -0.0239 -0.2824
 7851TIP3    H123517   0.357   0.485   1.178 -2.4982  1.1670 -0.4213
 7851TIP3    H223518   0.335   0.397   1.299  1.5765 -0.3297 -0.6156
 7852TIP3   OH223519   4.494   0.701   2.148  0.2787 -0.3066  0.3424
 7852TIP3    H123520   4.497   0.796   2.146  0.3913 -0.3128 -0.6232
 7852TIP3    H223521   4.521   0.675   2.059 -0.1260 -1.2183  0.4784
 7853TIP3   OH223522   0.228   4.013   1.014  0.1564  0.0481  0.0795
 7853TIP3    H123523   0.164   4.043   1.078  1.0096  0.3821  0.7920
 7853TIP3    H223524   0.212   3.919   1.007 -0.2431  0.0858  0.4474
 7854TIP3   OH223525   1.214   2.595   2.808  0.7912 -0.1087  0.1309
 7854TIP3    H123526   1.283   2.558   2.753  0.1994  0.2454 -0.8860
 7854TIP3    H223527   1.217   2.689   2.790  0.3629 -0.0315  0.4440
 7855TIP3   OH223528   0.092   0.110   0.983 -0.0256  0.1867  0.5333
 7855TIP3    H123529   0.033   0.173   1.023  0.3714 -0.0410  1.4948
 7855TIP3    H223530   0.173   0.118   1.033  0.8802  0.6987 -0.9244
 7856TIP3   OH223531   7.102   1.632   1.735  0.0665 -0.3219  0.3567
 7856TIP3    H123532   7.096   1.554   1.790 -1.6390 -0.3281  0.2142
 7856TIP3    H223533   7.122   1.703   1.796 -0.2303 -0.5762  0.7504
 7857TIP3   OH223534   6.687   3.333   2.047 -0.0155 -0.1348 -0.0967
 7857TIP3    H123535   6.765   3.293   2.085  0.5388 -0.6758 -1.7058
 7857TIP3    H223536   6.714   3.422   2.024 -0.1184 -0.0566  0.0842
 7858TIP3   OH223537   2.425   3.988   5.651 -0.4328  0.1020  0.6380
 7858TIP3    H123538   2.392   3.944   5.729 -0.7939  0.7979  0.8863
 7858TIP3    H223539   2.512   4.019   5.675 -0.5668  0.3652  0.7856
 7859TIP3   OH223540   3.714   1.590   5.639  0.3183  0.3796 -0.1380
 7859TIP3    H123541   3.638   1.582   5.696 -0.0333  0.6822 -0.5555
 7859TIP3    H223542   3.764   1.509   5.653  0.8432  0.9385  1.4437
 7860TIP3   OH223543   3.522   4.624   0.979 -0.0081  0.5258  0.0176
 7860TIP3    H123544   3.493   4.712   0.999  0.6588  0.4390  1.5389
 7860TIP3    H223545   3.603   4.613   1.030 -0.9657 -1.5105  1.2339
 7861TIP3   OH223546   6.295   4.495   2.086 -0.1992 -0.1409  0.4135
 7861TIP3    H123547   6.290   4.580   2.042 -0.9147  0.3744  1.4495
 7861TIP3    H223548   6.389   4.474   2.085 -0.0509  0.4931 -0.1568
 7862TIP3   OH223549   3.362   6.321   0.382 -0.6308  0.1428 -0.1548
 7862TIP3    H123550   3.413   6.323   0.463 -1.2152  0.0584  0.2178
 7862TIP3    H223551   3.307   6.244   0.390  0.0878 -0.5052 -1.1262
 7863TIP3   OH223552   0.816   4.680   0.587  0.4662 -0.8545  0.1915
 7863TIP3    H123553   0.861   4.740   0.527 -3.0050  0.6078 -1.2322
 7863TIP3    H223554   0.871   4.678   0.665  2.3610  1.6447 -0.9403
 7864TIP3   OH223555   2.729   6.362   0.756  0.3198  0.2376  0.3423
 7864TIP3    H123556   2.704   6.325   0.840 -0.6620 -0.8788 -0.4230
 7864TIP3    H223557   2.820   6.336   0.744  0.1455 -0.5094  0.5931
 7865TIP3   OH223558   5.724   4.210   3.983  0.1465  0.0122  0.5011
 7865TIP3    H123559   5.736   4.118   3.962 -2.5317 -0.2150 -0.4023
 7865TIP3    H223560   5.642   4.214   4.032 -3.0637  2.2582 -4.2178
 7866TIP3   OH223561   6.150   3.160   1.843  0.1619  0.6179  0.0659
 7866TIP3    H123562   6.236   3.140   1.805  0.1219 -0.1411  0.3564
 7866TIP3    H223563   6.170   3.206   1.924  0.3119  0.1288  0.3124
 7867TIP3   OH223564   0.683   4.602   1.793  0.2299 -1.2025 -0.3879
 7867TIP3    H123565   0.771   4.633   1.812  0.1123 -0.9081 -0.3262
 7867TIP3    H223566   0.681   4.513   1.828  0.6983 -1.4407 -0.9455
 7868TIP3   OH223567   3.043   2.230   1.321 -0.2436  0.3692  0.5373
 7868TIP3    H123568   2.981   2.270   1.382 -1.1757  0.9276 -0.7330
 7868TIP3    H223569   2.989   2.204   1.246  0.8339 -0.5345  0.0550
 7869TIP3   OH223570   0.461   6.162   0.689  0.2357  0.7593 -0.3309
 7869TIP3    H123571   0.444   6.128   0.777  0.8038 -1.2374 -0.9183
 7869TIP3    H223572   0.523   6.233   0.703  3.0931 -1.7047  0.7660
 7870TIP3   OH223573   5.277   6.747   2.722  0.0792  0.0382  0.0853
 7870TIP3    H123574   5.360   6.711   2.753  0.4532  1.4153  0.7636
 7870TIP3    H223575   5.231   6.773   2.802  0.0638  1.5426 -0.3827
 7871TIP3   OH223576   5.050   0.616   1.933 -0.1203  0.6452 -0.5649
 7871TIP3    H123577   5.131   0.590   1.888  0.2072 -1.4295  1.0685
 7871TIP3    H223578   5.079   0.641   2.020 -1.2036 -0.0252  0.0064
 7872TIP3   OH223579   1.873   5.835   3.017 -0.2996  0.1862  0.2645
 7872TIP3    H123580   1.829   5.886   2.949 -1.6855 -1.7594 -0.3703
 7872TIP3    H223581   1.844   5.874   3.099 -1.2222  0.5284 -0.2073
 7873TIP3   OH223582   4.206   0.953   0.397  0.0632 -0.3244  0.0269
 7873TIP3    H123583   4.276   0.927   0.457  1.5353  0.6371 -1.2202
 7873TIP3    H223584   4.250   0.969   0.313 -1.1280  3.1985 -0.0989
 7874TIP3   OH223585   2.459   0.657   5.036 -0.2849 -0.0081  0.0655
 7874TIP3    H123586   2.464   0.568   5.071 -3.6919 -0.4594 -0.2469
 7874TIP3    H223587   2.439   0.645   4.943  0.7261  1.1352 -0.3285
 7875TIP3   OH223588   3.653   0.966   0.493  0.3845  0.2341 -0.0786
 7875TIP3    H123589   3.734   0.926   0.522  0.4657  2.4437  3.3626
 7875TIP3    H223590   3.672   1.060   0.492 -1.3792  0.6283 -1.9633
 7876TIP3   OH223591   6.127   3.380   2.867 -0.3840  0.1482  0.0398
 7876TIP3    H123592   6.213   3.422   2.861 -0.8633  1.8430  2.8901
 7876TIP3    H223593   6.066   3.446   2.835 -0.7774 -0.2676 -0.0738
 7877TIP3   OH223594   3.137   3.318   1.019  0.0759 -0.2766  0.7355
 7877TIP3    H123595   3.217   3.265   1.021 -0.2754 -0.9148 -0.8085
 7877TIP3    H223596   3.066   3.255   1.031 -0.2682  0.0467  0.4456
 7878TIP3   OH223597   3.627   3.682   4.484 -0.1212  0.1634 -0.1765
 7878TIP3    H123598   3.661   3.764   4.521  0.1527  0.1569 -0.4072
 7878TIP3    H223599   3.578   3.709   4.407 -0.5191  0.1580  0.0693
 7879TIP3   OH223600   3.632   3.058   5.247 -0.5490 -0.2743 -0.2434
 7879TIP3    H123601   3.683   3.057   5.328 -0.8704  1.9916  0.0598
 7879TIP3    H223602   3.689   3.017   5.182  1.1755  0.9972  0.3804
 7880TIP3   OH223603   0.240   3.499   4.323  0.1663  0.1226 -0.2632
 7880TIP3    H123604   0.195   3.566   4.373  0.4836  0.2565 -0.1518
 7880TIP3    H223605   0.232   3.420   4.377  0.6676  0.3088  0.0982
 7881TIP3   OH223606   1.181   0.272   0.030 -0.1994 -0.0264  0.2838
 7881TIP3    H123607   1.201   0.347  -0.027  1.3773  0.2172  1.1031
 7881TIP3    H223608   1.157   0.311   0.114 -0.0178 -0.4249  0.5222
 7882TIP3   OH223609   6.075   0.306   4.876  0.4202  0.5255  0.5398
 7882TIP3    H123610   6.014   0.306   4.802  1.0981  0.7703 -0.0332
 7882TIP3    H223611   6.162   0.302   4.835  0.8575  1.8579  1.2754
 7883TIP3   OH223612   2.087   1.554   0.187 -0.0894  0.4252 -0.1280
 7883TIP3    H123613   2.114   1.623   0.126  0.6761  0.2913  0.0532
 7883TIP3    H223614   2.101   1.472   0.139  2.5170  0.1697  0.8883
 7884TIP3   OH223615   6.361   0.996   2.945 -0.0500 -0.0709 -1.0248
 7884TIP3    H123616   6.432   1.026   2.888 -0.9986  1.7069 -1.3404
 7884TIP3    H223617   6.292   1.061   2.934 -1.6177 -1.5598 -0.4648
 7885TIP3   OH223618   3.586   3.042   3.801 -0.2765 -0.0594 -0.2951
 7885TIP3    H123619   3.624   2.976   3.743  1.1522  2.1936 -2.0774
 7885TIP3    H223620   3.492   3.040   3.781 -0.8276 -3.3970  1.7738
 7886TIP3   OH223621   5.446   5.188   2.924  0.2418 -0.1112 -0.0896
 7886TIP3    H123622   5.428   5.238   2.844 -1.4778  0.1322  0.4083
 7886TIP3    H223623   5.507   5.244   2.973 -0.1486  0.6085 -0.4052
 7887TIP3   OH223624   6.695   1.451   5.717 -0.2351  0.0023 -0.4144
 7887TIP3    H123625   6.607   1.475   5.688 -0.4041  0.8341  0.7352
 7887TIP3    H223626   6.681   1.394   5.793  0.2115 -1.4416 -1.3807
 7888TIP3   OH223627   7.165   0.091   2.267  0.4587  0.5133 -0.0684
 7888TIP3    H123628   7.250   0.122   2.236  0.5893 -0.9326 -1.3013
 7888TIP3    H223629   7.106   0.165   2.253  0.3096 -0.1885 -4.9173
 7889TIP3   OH223630   2.380   2.190   3.250 -0.1408  0.7686 -0.2899
 7889TIP3    H123631   2.415   2.213   3.335 -1.6293 -0.3675  0.6829
 7889TIP3    H223632   2.408   2.100   3.235  0.6277  1.1579 -1.3039
 7890TIP3   OH223633   3.879   5.428   3.695 -0.3308 -0.0770 -0.3700
 7890TIP3    H123634   3.820   5.451   3.767  0.9437  1.5485  0.2039
 7890TIP3    H223635   3.963   5.410   3.738  0.2290  0.0650 -1.3826
 7891TIP3   OH223636   6.904   2.510   4.502 -0.0990  0.0622 -0.4710
 7891TIP3    H123637   6.876   2.422   4.477 -0.0857  0.3447 -1.5290
 7891TIP3    H223638   6.823   2.557   4.519 -0.0812 -0.6300  1.9483
 7892TIP3   OH223639   0.431   1.071   2.503  0.3606 -0.3099 -0.3787
 7892TIP3    H123640   0.477   0.997   2.543  1.3603  0.7427  0.4918
 7892TIP3    H223641   0.463   1.072   2.412  0.4495 -0.8515 -0.3572
 7893TIP3   OH223642   0.928   3.843   1.039 -0.0585  0.0038  0.5273
 7893TIP3    H123643   0.989   3.898   1.088  1.4465 -1.8872  0.8676
 7893TIP3    H223644   0.957   3.851   0.948 -0.0319 -0.0080  0.5350
 7894TIP3   OH223645   0.550   5.939   1.570  0.5811  0.7063  0.3166
 7894TIP3    H123646   0.557   5.979   1.483  0.1718  1.2811  0.5450
 7894TIP3    H223647   0.532   6.012   1.629 -0.0042  0.2121  0.7626
 7895TIP3   OH223648   2.286   3.523   3.706 -0.0075 -0.0629  0.2568
 7895TIP3    H123649   2.347   3.462   3.665  0.6613  0.1383  0.9303
 7895TIP3    H223650   2.279   3.493   3.797  0.2945  0.8197  0.5894
 7896TIP3   OH223651   6.668   6.685   4.462 -0.5074  0.4960 -0.6974
 7896TIP3    H123652   6.664   6.704   4.556  1.0503  1.1751 -0.7319
 7896TIP3    H223653   6.614   6.608   4.450  0.6274 -0.6287  1.0548
 7897TIP3   OH223654   1.300   2.998   2.756 -0.0677  0.1474 -0.1838
 7897TIP3    H123655   1.355   2.926   2.787 -1.2729 -0.8151 -0.2244
 7897TIP3    H223656   1.361   3.056   2.710  0.9282 -0.8504 -0.1808
 7898TIP3   OH223657   3.987   4.779   4.397  0.0303  0.0570  0.4917
 7898TIP3    H123658   3.937   4.859   4.387  0.0637  0.0317  0.0761
 7898TIP3    H223659   4.066   4.806   4.443 -0.7492 -0.0658  1.9392
 7899TIP3   OH223660   0.813   0.062   2.106  0.3534 -0.6376 -0.2362
 7899TIP3    H123661   0.789  -0.030   2.093  2.2166 -0.9895 -1.6659
 7899TIP3    H223662   0.766   0.109   2.038 -0.9822 -0.4107  0.7948
 7900TIP3   OH223663   0.192   3.024   0.719  0.7842 -0.7201  0.1504
 7900TIP3    H123664   0.260   3.020   0.651 -0.9464  0.0351 -1.7488
 7900TIP3    H223665   0.120   3.071   0.677 -0.2776  0.0315  2.6662
 7901TIP3   OH223666   3.267   1.272   0.804 -0.1313  0.2102  0.3209
 7901TIP3    H123667   3.241   1.238   0.890 -0.5844  0.5825  0.3361
 7901TIP3    H223668   3.303   1.359   0.823 -0.0074  0.1945  0.1591
 7902TIP3   OH223669   4.700   2.582   3.125 -0.3232  0.3360  0.4133
 7902TIP3    H123670   4.683   2.578   3.219  0.1943 -2.7083  0.4530
 7902TIP3    H223671   4.615   2.569   3.084 -0.5477  1.6576  0.3969
 7903TIP3   OH223672   0.215   5.930   4.423  0.4643 -0.0125  0.4180
 7903TIP3    H123673   0.248   5.884   4.500 -0.4180 -0.4602  0.5428
 7903TIP3    H223674   0.160   5.866   4.378  0.3598  0.4788 -0.1745
 7904TIP3   OH223675   0.516   2.298   0.976  0.7356  0.3530 -0.2154
 7904TIP3    H123676   0.563   2.297   0.892  1.3656  0.3050  0.1385
 7904TIP3    H223677   0.536   2.382   1.015  1.7434 -0.2529  0.6156
 7905TIP3   OH223678   3.868   0.835   0.609  0.3792  0.2266  0.4223
 7905TIP3    H123679   3.881   0.751   0.565  1.1025  0.5189  0.0718
 7905TIP3    H223680   3.911   0.825   0.694 -0.5108 -0.1346  0.8473
 7906TIP3   OH223681   0.180   2.600   2.867 -0.1082 -0.4082  0.5663
 7906TIP3    H123682   0.271   2.627   2.878 -0.1826  0.9573 -1.6647
 7906TIP3    H223683   0.131   2.657   2.927  0.2775  0.6605 -0.1066
 7907TIP3   OH223684   0.789   6.318   2.778  0.3576  0.4212 -0.0273
 7907TIP3    H123685   0.829   6.361   2.853 -0.9056  1.0654  0.3030
 7907TIP3    H223686   0.733   6.250   2.816  1.4104 -0.7726 -0.5007
 7908TIP3   OH223687   1.091   4.310   1.021 -0.2923  0.3441 -0.2212
 7908TIP3    H123688   1.020   4.374   1.017  1.1737  2.0518 -0.2119
 7908TIP3    H223689   1.097   4.288   1.114 -1.8595 -1.1238 -0.4163
 7909TIP3   OH223690   5.901   6.741   1.390 -0.3537 -1.0495  0.6334
 7909TIP3    H123691   5.870   6.732   1.480  0.2110  0.8583  1.0624
 7909TIP3    H223692   5.992   6.767   1.398 -0.1042 -1.5060 -0.5225
 7910TIP3   OH223693   5.572   0.524   3.112  0.4725  0.1662  0.8414
 7910TIP3    H123694   5.563   0.549   3.204 -1.2259 -2.8799  1.6457
 7910TIP3    H223695   5.627   0.446   3.113  2.4909  1.4310 -1.0949
 7911TIP3   OH223696   6.253   4.526   0.490 -0.0883 -0.0263  0.1798
 7911TIP3    H123697   6.204   4.564   0.563  1.3241  1.0934  0.5992
 7911TIP3    H223698   6.283   4.602   0.439  0.2919 -0.7269 -0.6738
 7912TIP3   OH223699   5.750   3.898   2.981 -0.1068 -0.4305 -0.5441
 7912TIP3    H123700   5.800   3.964   2.933 -0.1679 -0.4478 -0.6317
 7912TIP3    H223701   5.673   3.944   3.012 -2.1997 -1.3000 -3.9022
 7913TIP3   OH223702   2.586   1.150   4.267  0.9992 -0.7342  0.3578
 7913TIP3    H123703   2.627   1.224   4.221  3.6187 -2.2395  0.0633
 7913TIP3    H223704   2.630   1.147   4.351 -0.9599 -0.4464  1.4555
 7914TIP3   OH223705   0.406   1.739   2.769  0.0917  0.1894 -0.2497
 7914TIP3    H123706   0.431   1.701   2.684 -1.5837  0.7882 -1.0625
 7914TIP3    H223707   0.416   1.667   2.831 -0.0396 -0.6913 -1.2134
 7915TIP3   OH223708   1.359   3.800   1.135 -0.2574  0.0351  0.1298
 7915TIP3    H123709   1.278   3.850   1.141 -0.7088 -0.6146 -0.3867
 7915TIP3    H223710   1.387   3.809   1.044  0.7298  0.9611  0.4966
 7916TIP3   OH223711   3.584   6.049   1.599  0.0601 -0.6531  0.6533
 7916TIP3    H123712   3.553   5.962   1.571 -0.0613 -0.4931  0.2802
 7916TIP3    H223713   3.676   6.051   1.571 -0.2333 -0.2542 -0.3157
 7917TIP3   OH223714   1.382   4.696   5.393 -0.6853  0.0320 -0.0302
 7917TIP3    H123715   1.305   4.676   5.341 -0.8017 -0.4496  0.3251
 7917TIP3    H223716   1.409   4.613   5.431  0.5658  0.0105 -0.8772
 7918TIP3   OH223717   1.286   1.840   0.278 -0.3724  0.2992  0.1160
 7918TIP3    H123718   1.274   1.850   0.372 -1.3661 -0.1648  0.0484
 7918TIP3    H223719   1.200   1.817   0.245  0.4394 -2.0850 -0.5484
 7919TIP3   OH223720   0.877   6.273   0.778 -0.1947  0.4065 -0.1201
 7919TIP3    H123721   0.824   6.313   0.847  0.2195  1.1842 -0.2388
 7919TIP3    H223722   0.843   6.311   0.697 -1.9359 -1.8946 -0.5609
 7920TIP3   OH223723   3.128   3.350   0.545 -0.1417  0.3167  0.4180
 7920TIP3    H123724   3.175   3.318   0.622  0.0844 -1.3005 -0.3607
 7920TIP3    H223725   3.040   3.314   0.554 -0.1151  0.1233 -0.0620
 7921TIP3   OH223726   4.927   3.840   1.547 -0.7022 -0.0421 -0.5803
 7921TIP3    H123727   5.022   3.849   1.561 -0.7528  1.5403 -1.0628
 7921TIP3    H223728   4.911   3.887   1.466 -1.7973 -1.0437 -0.9649
 7922TIP3   OH223729   3.424   6.247   5.396  0.0439 -0.5452 -0.2642
 7922TIP3    H123730   3.366   6.224   5.323 -0.1448  3.4908 -1.6137
 7922TIP3    H223731   3.378   6.214   5.473 -1.6070 -1.7248 -1.6496
 7923TIP3   OH223732   5.052   1.511   0.600  0.0493 -0.1294  0.2229
 7923TIP3    H123733   5.142   1.540   0.615 -0.2022  1.3070 -0.8550
 7923TIP3    H223734   5.051   1.479   0.510 -0.2865 -1.1013  0.5638
 7924TIP3   OH223735   0.576   5.082   2.258 -0.3417  0.0084 -0.2117
 7924TIP3    H123736   0.643   5.140   2.295 -0.5351  0.0526  0.0727
 7924TIP3    H223737   0.515   5.141   2.215  0.7497 -0.1329 -2.0681
 7925TIP3   OH223738   6.966   2.635   3.240 -0.3143 -0.0781  0.0642
 7925TIP3    H123739   6.903   2.585   3.187 -2.2796  2.5966 -0.3268
 7925TIP3    H223740   6.938   2.726   3.231  2.7149  1.0991  1.2111
 7926TIP3   OH223741   6.877   1.833   0.549  0.2011  0.0159 -0.0182
 7926TIP3    H123742   6.833   1.753   0.579  0.4797 -0.3572 -0.5871
 7926TIP3    H223743   6.842   1.848   0.461 -0.9831  1.3782  0.6401
 7927TIP3   OH223744   2.777   3.623   5.571  0.0200  0.5684 -0.0201
 7927TIP3    H123745   2.744   3.647   5.484  1.9066  0.4209 -0.8173
 7927TIP3    H223746   2.708   3.566   5.607 -0.8999  0.8122 -1.3167
 7928TIP3   OH223747   5.228   0.326   5.569  0.3209  0.4558 -0.3434
 7928TIP3    H123748   5.157   0.265   5.591  2.7788 -2.2312  0.8943
 7928TIP3    H223749   5.261   0.294   5.485  2.2496 -0.6905  0.7695
 7929TIP3   OH223750   5.354   2.026   4.836 -0.3004 -0.1251  0.1919
 7929TIP3    H123751   5.423   1.962   4.819 -1.3078 -1.4169  0.7755
 7929TIP3    H223752   5.369   2.054   4.926  1.1403  1.7944 -0.5726
 7930TIP3   OH223753   7.187   1.985   3.019 -0.3111  0.4112 -0.2346
 7930TIP3    H123754   7.186   2.013   2.927 -0.7559  0.8032 -0.1110
 7930TIP3    H223755   7.229   2.057   3.065  1.3653 -0.4504 -0.3345
 7931TIP3   OH223756   4.015   2.022   5.355 -0.4253 -0.6271  0.0758
 7931TIP3    H123757   4.012   2.077   5.277 -0.2983 -3.2151 -1.8925
 7931TIP3    H223758   3.968   2.072   5.421 -2.5155  0.7897 -2.2979
 7932TIP3   OH223759   1.300   2.184   1.566 -0.2985 -0.0764  0.4852
 7932TIP3    H123760   1.312   2.244   1.641  0.3845  0.6758 -0.2057
 7932TIP3    H223761   1.257   2.108   1.604  0.4075  0.1078  1.7419
 7933TIP3   OH223762   6.408   2.113   3.302  0.1005  0.7710 -0.4150
 7933TIP3    H123763   6.461   2.081   3.375 -0.4021  0.6525 -0.0968
 7933TIP3    H223764   6.471   2.132   3.233  0.6385  1.3583  0.2218
 7934TIP3   OH223765   5.438   4.180   2.745 -0.1579  0.0967  0.1339
 7934TIP3    H123766   5.352   4.221   2.731  0.4089  1.4771  0.4989
 7934TIP3    H223767   5.496   4.254   2.764  1.5231 -0.5883 -1.9654
 7935TIP3   OH223768   5.140   4.284   3.871  0.2020 -0.0770  0.2566
 7935TIP3    H123769   5.121   4.190   3.874 -3.2590  0.5227  2.3913
 7935TIP3    H223770   5.103   4.313   3.788  0.6615 -0.4332 -0.0848
 7936TIP3   OH223771   5.151   0.333   1.864  0.1418  0.3005  0.5215
 7936TIP3    H123772   5.169   0.281   1.785  0.7410  1.2082  0.0342
 7936TIP3    H223773   5.233   0.330   1.914 -0.0300  0.2420  0.7975
 7937TIP3   OH223774   1.805   2.790   3.621  0.4480  0.1908 -0.0225
 7937TIP3    H123775   1.732   2.809   3.680  1.2094  1.4556  0.5517
 7937TIP3    H223776   1.830   2.700   3.641 -0.6151 -0.0808  0.1337
 7938TIP3   OH223777   4.017   5.013   4.131  0.2128  0.3730 -0.0553
 7938TIP3    H123778   3.976   5.044   4.212  0.9413  0.6919  0.1990
 7938TIP3    H223779   3.959   4.945   4.099 -0.1108  0.2854  0.7109
 7939TIP3   OH223780   1.838   6.503   0.804  0.0500  0.4844  0.1527
 7939TIP3    H123781   1.821   6.563   0.732  0.1843  1.4284  0.8796
 7939TIP3    H223782   1.909   6.447   0.773  1.9871  2.6224  0.4881
 7940TIP3   OH223783   0.166   2.390   2.565  0.1864  0.7784  0.0212
 7940TIP3    H123784   0.217   2.369   2.486 -0.0114 -2.3611  0.6017
 7940TIP3    H223785   0.209   2.341   2.635 -1.8453  0.4340  1.1112
 7941TIP3   OH223786   2.202   0.963   4.951 -0.1989  0.0228  0.2935
 7941TIP3    H123787   2.276   0.977   5.010  0.9023 -1.6838 -0.5649
 7941TIP3    H223788   2.188   0.868   4.953 -1.5689  0.1805 -0.5224
 7942TIP3   OH223789   0.054   0.689   4.018 -0.6448 -0.1446  0.1249
 7942TIP3    H123790   0.044   0.604   3.976  1.7601 -0.7828  0.6804
 7942TIP3    H223791   0.054   0.670   4.112 -0.6653  0.5330  0.2674
 7943TIP3   OH223792   2.635   2.371   4.515 -0.2366  0.1798  0.4837
 7943TIP3    H123793   2.674   2.347   4.431 -0.4182  1.0626  0.1294
 7943TIP3    H223794   2.700   2.344   4.580 -0.1289 -0.5844  0.0755
 7944TIP3   OH223795   1.249   3.400   3.928  0.3898  0.3724  0.0429
 7944TIP3    H123796   1.266   3.493   3.914  0.5738  0.4106  0.4839
 7944TIP3    H223797   1.283   3.357   3.850 -2.1158  0.8905 -1.4335
 7945TIP3   OH223798   3.970   4.425   0.172 -0.0734  0.4122 -0.6536
 7945TIP3    H123799   3.912   4.501   0.176 -1.3027 -0.5320  0.6161
 7945TIP3    H223800   3.926   4.365   0.111  0.1586  0.1382 -0.5513
 7946TIP3   OH223801   5.279   2.786   5.287  0.2861  0.7577  0.0329
 7946TIP3    H123802   5.225   2.865   5.274 -0.1947  0.7426  1.7176
 7946TIP3    H223803   5.301   2.787   5.380 -0.3588 -1.4941  0.2670
 7947TIP3   OH223804   0.298   0.783   2.272  0.2895  0.1809 -0.0856
 7947TIP3    H123805   0.210   0.816   2.253  1.2037  1.3986 -2.5114
 7947TIP3    H223806   0.298   0.694   2.237 -0.5565 -0.6362  1.8202
 7948TIP3   OH223807   4.204   3.643   0.403  0.2155  0.5955 -0.1304
 7948TIP3    H123808   4.133   3.603   0.453  0.4943  0.4225  0.1356
 7948TIP3    H223809   4.224   3.579   0.334 -1.3220  1.5764 -1.5605
 7949TIP3   OH223810   7.117   1.032   2.859 -0.3283  0.2803  0.3365
 7949TIP3    H123811   7.144   1.030   2.951 -1.3294 -0.1996  0.6304
 7949TIP3    H223812   7.200   1.036   2.810  0.2010  1.3957  1.2614
 7950TIP3   OH223813   6.088   5.706   2.805 -0.3789 -0.2594  0.1395
 7950TIP3    H123814   6.071   5.791   2.764 -0.3467  0.2488  1.1542
 7950TIP3    H223815   6.182   5.692   2.793 -0.3796 -0.1440 -0.0045
 7951TIP3   OH223816   1.579   0.169   1.959 -0.2215 -0.4700  0.3016
 7951TIP3    H123817   1.603   0.148   2.050 -1.0123 -0.3830  0.5363
 7951TIP3    H223818   1.623   0.252   1.942  0.7786 -0.9871  0.2465
 7952TIP3   OH223819   2.453   6.739   0.586 -0.2202  0.1944  0.6287
 7952TIP3    H123820   2.529   6.708   0.536  0.8002  1.3901  1.3607
 7952TIP3    H223821   2.490   6.768   0.670 -1.6637 -0.3040  1.4708
 7953TIP3   OH223822   5.768   4.342   0.254 -0.0180  0.1642 -0.2155
 7953TIP3    H123823   5.795   4.358   0.164  0.0643  0.9590 -0.0609
 7953TIP3    H223824   5.813   4.410   0.304 -0.2615 -0.1161  0.3922
 7954TIP3   OH223825   2.147   5.815   1.173  0.1685  0.1263 -0.7148
 7954TIP3    H123826   2.082   5.782   1.236 -0.9320  1.7461 -0.9446
 7954TIP3    H223827   2.193   5.884   1.221  0.6360  0.0776 -1.0890
 7955TIP3   OH223828   6.056   2.625   0.571 -0.1238 -0.5341 -0.1932
 7955TIP3    H123829   5.964   2.612   0.594 -0.1849 -0.9921 -0.6728
 7955TIP3    H223830   6.068   2.574   0.491  0.7252 -1.0187  0.2333
 7956TIP3   OH223831   6.112   0.403   5.154  0.4540 -0.4452  0.5125
 7956TIP3    H123832   6.031   0.363   5.184 -0.1625 -0.4985 -1.0987
 7956TIP3    H223833   6.140   0.348   5.081 -0.4029  1.9366 -1.7592
 7957TIP3   OH223834   3.805   0.858   4.331 -0.2217 -0.0234 -0.0021
 7957TIP3    H123835   3.792   0.941   4.378  1.2819 -1.1180  2.5762
 7957TIP3    H223836   3.835   0.884   4.244  0.9067  2.1590  0.9589
 7958TIP3   OH223837   3.799   3.459   0.262  0.2989  0.0774  0.3857
 7958TIP3    H123838   3.711   3.491   0.282  0.8086  0.8012  1.5582
 7958TIP3    H223839   3.814   3.486   0.171 -1.1428 -1.1427 -0.2556
 7959TIP3   OH223840   5.919   4.202   1.076  0.4008  0.0176 -0.2188
 7959TIP3    H123841   5.940   4.135   1.141 -0.4461 -2.0515 -1.9434
 7959TIP3    H223842   6.001   4.252   1.066  1.5151 -1.6615  0.1323
 7960TIP3   OH223843   6.972   0.031   1.283  0.1211  0.1155  0.1900
 7960TIP3    H123844   7.038   0.061   1.346  0.5544  0.8146 -0.5668
 7960TIP3    H223845   6.987  -0.063   1.275  1.3972  0.3399 -0.3654
 7961TIP3   OH223846   4.076   5.797   4.639  0.2325  0.1201 -0.4443
 7961TIP3    H123847   3.994   5.766   4.602  0.7941 -1.4693 -0.4494
 7961TIP3    H223848   4.056   5.817   4.731  0.5759 -4.0636  0.7339
 7962TIP3   OH223849   3.557   3.946   0.654 -0.0572 -0.0324 -0.1621
 7962TIP3    H123850   3.508   4.008   0.600  0.3770 -0.3661 -0.9555
 7962TIP3    H223851   3.490   3.892   0.696 -0.4547 -2.5722 -3.6656
 7963TIP3   OH223852   1.288   6.291   5.827  0.0752  0.4714  0.3200
 7963TIP3    H123853   1.229   6.308   5.753  0.5270  0.0782 -0.1369
 7963TIP3    H223854   1.359   6.239   5.790  0.2753  0.2096  1.0506
 7964TIP3   OH223855   5.245   0.442   4.699  0.4310  0.4269 -0.4622
 7964TIP3    H123856   5.222   0.511   4.636  1.7585 -0.3872 -1.9276
 7964TIP3    H223857   5.276   0.490   4.776 -1.3386  1.4585 -0.3235
 7965TIP3   OH223858   2.141   1.642   2.487  0.3964 -0.3575  0.1159
 7965TIP3    H123859   2.194   1.720   2.469  0.2962 -0.1654  0.6628
 7965TIP3    H223860   2.130   1.641   2.582  0.7092 -1.2409  0.1548
 7966TIP3   OH223861   1.633   6.394   4.406 -0.0176  0.4749 -0.4871
 7966TIP3    H123862   1.545   6.365   4.429  0.2543  0.5196  0.7183
 7966TIP3    H223863   1.645   6.367   4.315 -0.4084 -1.6716  0.0313
 7967TIP3   OH223864   0.767   1.617   3.648  0.0771 -0.4495 -0.3152
 7967TIP3    H123865   0.720   1.596   3.567 -0.7554 -0.8512  0.2646
 7967TIP3    H223866   0.699   1.624   3.714  0.6440  0.9082  0.1586
 7968TIP3   OH223867   0.520   0.169   3.130 -0.0034 -0.0958  0.4826
 7968TIP3    H123868   0.569   0.246   3.103  1.5748 -0.9612  0.7666
 7968TIP3    H223869   0.501   0.184   3.223  0.1524  0.0259  0.4957
 7969TIP3   OH223870   1.946   4.449   5.015 -0.0163 -0.5398 -0.2127
 7969TIP3    H123871   1.990   4.402   4.945  1.0402 -0.3557  0.3138
 7969TIP3    H223872   1.908   4.380   5.070  0.1955 -0.7213 -0.2936
 7970TIP3   OH223873   6.306  -0.001   4.859 -0.0967 -0.5599  0.1689
 7970TIP3    H123874   6.325   0.077   4.806 -0.9742  0.2269  0.9629
 7970TIP3    H223875   6.234  -0.044   4.814 -1.7022  0.7841  1.2839
 7971TIP3   OH223876   4.665   0.858   5.006  0.1790  0.5109 -0.2787
 7971TIP3    H123877   4.598   0.924   4.987  0.3968  0.3721 -1.6070
 7971TIP3    H223878   4.656   0.794   4.936  0.6733 -0.3397  0.4132
 7972TIP3   OH223879   0.500   3.222   4.391 -0.0164  0.0151 -0.3475
 7972TIP3    H123880   0.474   3.265   4.473 -2.0924  1.7805 -1.8072
 7972TIP3    H223881   0.544   3.291   4.342  1.6668 -1.1683 -0.5813
 7973TIP3   OH223882   1.405   1.303   5.770 -0.1389 -0.3495  0.2618
 7973TIP3    H123883   1.339   1.256   5.719  0.6451 -0.6011 -0.5395
 7973TIP3    H223884   1.475   1.322   5.708  0.2154  0.5816  0.9256
 7974TIP3   OH223885   3.625   1.474   3.639 -0.2165 -0.0341  0.0654
 7974TIP3    H123886   3.560   1.527   3.683 -0.6332  0.1210 -0.7147
 7974TIP3    H223887   3.650   1.524   3.561 -1.7208 -1.5805 -1.5110
 7975TIP3   OH223888   1.997   3.109   5.496 -0.1108  0.9422 -0.6124
 7975TIP3    H123889   2.091   3.102   5.482 -0.0733  2.4030 -1.2188
 7975TIP3    H223890   1.985   3.089   5.589  0.7490  0.4029 -0.6134
 7976TIP3   OH223891   2.779   2.486   3.149  0.0993 -0.0296  0.1601
 7976TIP3    H123892   2.721   2.465   3.076 -0.2794  0.2228  0.3886
 7976TIP3    H223893   2.825   2.403   3.167 -0.4232 -0.3143  0.1892
 7977TIP3   OH223894   4.889   2.709   2.776 -0.1357  0.5386 -0.6718
 7977TIP3    H123895   4.938   2.664   2.707 -0.6333 -0.4647 -0.3929
 7977TIP3    H223896   4.913   2.663   2.857 -0.6896  0.7377 -0.3886
 7978TIP3   OH223897   7.075   1.445   1.955 -0.0209 -0.1120  0.5376
 7978TIP3    H123898   7.000   1.387   1.967  0.4128 -0.8633 -0.2680
 7978TIP3    H223899   7.150   1.386   1.946  0.3199  0.5236 -1.1762
 7979TIP3   OH223900   4.088   5.433   2.339 -0.2833 -0.3868 -0.9414
 7979TIP3    H123901   4.028   5.410   2.268  0.5853  0.5770 -2.0193
 7979TIP3    H223902   4.168   5.383   2.321  1.1046  2.2032 -2.5191
 7980TIP3   OH223903   1.758   4.674   4.335  0.2809 -0.2303  0.2314
 7980TIP3    H123904   1.851   4.676   4.312  0.2009 -0.7354 -0.1634
 7980TIP3    H223905   1.740   4.582   4.354 -0.1343 -0.1329  0.3252
 7981TIP3   OH223906   4.941   2.888   0.495  0.4450 -0.0392 -0.6188
 7981TIP3    H123907   4.851   2.855   0.493  0.6834 -0.8813  0.8791
 7981TIP3    H223908   4.991   2.826   0.442  0.1975  0.3060 -1.2704
 7982TIP3   OH223909   4.255   3.878   5.341 -0.4708 -0.2237 -0.0755
 7982TIP3    H123910   4.162   3.899   5.332 -0.5598 -0.2016  0.8172
 7982TIP3    H223911   4.297   3.926   5.270 -1.1661 -0.4296 -0.6402
 7983TIP3   OH223912   4.766   0.860   4.056 -0.7970  0.6828 -0.3868
 7983TIP3    H123913   4.733   0.834   3.970 -3.6532  2.8077 -0.0708
 7983TIP3    H223914   4.771   0.956   4.052  0.8481  0.7246  1.2584
 7984TIP3   OH223915   1.139   1.174   3.664 -0.0173 -0.6528 -0.2754
 7984TIP3    H123916   1.084   1.210   3.594 -0.3744  1.2395  0.8885
 7984TIP3    H223917   1.224   1.216   3.653 -0.5943  1.1066  1.4291
 7985TIP3   OH223918   0.608   0.319   0.400 -0.5406  0.3661  0.2113
 7985TIP3    H123919   0.536   0.369   0.362 -0.7921  0.8336  1.2725
 7985TIP3    H223920   0.616   0.352   0.489  0.9632  0.2758  0.1359
 7986TIP3   OH223921   6.894   6.709   1.747 -0.1775  0.3940 -0.3866
 7986TIP3    H123922   6.854   6.756   1.674 -1.3841 -1.3724 -0.9208
 7986TIP3    H223923   6.927   6.778   1.805 -0.2745  1.8463 -1.9846
 7987TIP3   OH223924   0.907   2.692   4.175 -0.5636  0.5923 -0.2520
 7987TIP3    H123925   0.967   2.648   4.115 -0.1578  1.0430 -0.1844
 7987TIP3    H223926   0.948   2.682   4.261 -0.5551  0.9554 -0.2136
 7988TIP3   OH223927   5.205   1.943   1.290  0.3163 -0.0753  0.0321
 7988TIP3    H123928   5.297   1.956   1.265  0.5647 -2.4909 -0.5363
 7988TIP3    H223929   5.157   2.006   1.237  1.5053  0.0416 -0.9642
 7989TIP3   OH223930   3.417   4.075   2.091  0.2239  0.5556 -0.4292
 7989TIP3    H123931   3.324   4.100   2.089 -0.6156 -1.8518  1.9861
 7989TIP3    H223932   3.459   4.143   2.143 -0.3213  1.2910 -0.9316
 7990TIP3   OH223933   4.650   3.335   2.997 -0.5462 -0.3557 -0.2746
 7990TIP3    H123934   4.698   3.417   3.007 -0.6328 -0.4388  0.9487
 7990TIP3    H223935   4.639   3.303   3.086  0.2488 -2.1566 -0.7873
 7991TIP3   OH223936   4.609   0.735   3.843 -0.0848 -0.0568  0.0787
 7991TIP3    H123937   4.588   0.768   3.755 -2.2862  0.7755  0.8429
 7991TIP3    H223938   4.664   0.658   3.827 -0.3182  0.1481 -2.0168
 7992TIP3   OH223939   5.247   5.293   3.500 -0.3405  0.2224 -0.0756
 7992TIP3    H123940   5.316   5.274   3.564 -1.6610 -0.1161  1.3064
 7992TIP3    H223941   5.266   5.234   3.427  1.8846  1.4487 -0.5790
 7993TIP3   OH223942   3.189   6.707   2.113  0.7093 -0.0803 -0.8996
 7993TIP3    H123943   3.233   6.792   2.107  1.0216 -0.1686  0.0028
 7993TIP3    H223944   3.243   6.657   2.175 -0.8409 -0.0889  0.5019
 7994TIP3   OH223945   0.822   6.652   3.795 -0.3770  0.4491 -0.4629
 7994TIP3    H123946   0.819   6.695   3.880  1.6802 -0.0894 -0.0583
 7994TIP3    H223947   0.733   6.660   3.760 -1.0158  1.5099  1.3074
 7995TIP3   OH223948   2.379   5.835   2.719  0.4360 -0.8473  0.0463
 7995TIP3    H123949   2.285   5.816   2.722  0.0024  0.9746 -0.5700
 7995TIP3    H223950   2.390   5.912   2.776  1.0220  0.6840 -1.9925
 7996TIP3   OH223951   3.594   3.439   4.588 -0.3382 -0.1730 -0.4485
 7996TIP3    H123952   3.589   3.470   4.679  1.5708 -1.0019 -0.0012
 7996TIP3    H223953   3.594   3.519   4.535 -0.9162  0.3430  0.3108
 7997TIP3   OH223954   4.413   3.052   4.559 -0.1955  0.0240 -0.0633
 7997TIP3    H123955   4.478   3.061   4.490 -0.6479  0.1635 -0.4795
 7997TIP3    H223956   4.342   3.111   4.533  0.2166  1.1162  1.2173
 7998TIP3   OH223957   6.215   4.096   2.438 -0.8018  0.7102  0.0609
 7998TIP3    H123958   6.270   4.136   2.371 -1.6235  0.9487 -0.4898
 7998TIP3    H223959   6.195   4.009   2.402  0.0625  0.2117  0.7415
 7999TIP3   OH223960   6.670   5.353   3.142 -0.5028 -0.5101  0.2517
 7999TIP3    H123961   6.640   5.427   3.089 -2.1592 -1.7779 -0.6615
 7999TIP3    H223962   6.650   5.276   3.090 -0.9023 -1.7429  2.1189
 8000TIP3   OH223963   3.761   4.862   3.175  0.3800  0.3386  0.1445
 8000TIP3    H123964   3.767   4.815   3.258  3.1960  0.6503  0.2040
 8000TIP3    H223965   3.762   4.794   3.108  1.9041  0.1655  0.3071
 8001TIP3   OH223966   2.751   0.889   4.371 -0.1566 -0.5115 -0.2242
 8001TIP3    H123967   2.734   0.963   4.429  2.2985 -1.8138  2.3961
 8001TIP3    H223968   2.664   0.857   4.347 -1.3227  0.5805  2.2163
 8002TIP3   OH223969   6.591   4.206   2.780  0.1787  0.2128  0.1109
 8002TIP3    H123970   6.507   4.246   2.803  0.9153  2.3718 -0.7682
 8002TIP3    H223971   6.649   4.227   2.853  0.8537  1.7750 -0.8225
 8003TIP3   OH223972   1.554   3.275   3.666 -0.6227  0.1529  0.2038
 8003TIP3    H123973   1.641   3.305   3.690  0.2326  0.4589 -2.8137
 8003TIP3    H223974   1.567   3.183   3.641 -1.6889 -0.5133  1.9021
 8004TIP3   OH223975   5.381   3.244   5.331  0.2469  0.6482 -0.0155
 8004TIP3    H123976   5.451   3.292   5.285  0.7572  1.3854  1.4566
 8004TIP3    H223977   5.351   3.305   5.399 -0.0341 -0.6308  1.0499
 8005TIP3   OH223978   0.900   2.831   0.509 -0.2060  0.3577  0.7374
 8005TIP3    H123979   0.905   2.926   0.522 -1.5748  0.7690 -1.2986
 8005TIP3    H223980   0.814   2.817   0.469  2.0797 -0.9740 -4.4469
 8006TIP3   OH223981   2.843   3.139   3.256  0.1602 -0.1853 -0.4427
 8006TIP3    H123982   2.839   3.056   3.304 -0.6473 -0.7160 -1.4077
 8006TIP3    H223983   2.802   3.202   3.316 -0.5620 -0.7799 -0.2880
 8007TIP3   OH223984   2.928   0.865   3.173  0.1289 -0.9539 -0.2936
 8007TIP3    H123985   2.908   0.781   3.133 -0.1532 -1.4058  0.7703
 8007TIP3    H223986   2.960   0.844   3.260 -4.6480  0.0854  2.0790
 8008TIP3   OH223987   4.858   2.881   4.232 -0.2119 -0.1466 -0.6957
 8008TIP3    H123988   4.784   2.822   4.220  0.1515 -0.6173 -0.6569
 8008TIP3    H223989   4.819   2.961   4.269 -0.4407 -1.1575  1.4234
 8009TIP3   OH223990   5.244   3.134   4.115 -0.1780  0.0592 -0.1291
 8009TIP3    H123991   5.186   3.181   4.054 -1.2401 -0.5240  0.4019
 8009TIP3    H223992   5.202   3.146   4.200  0.1246 -0.9426  0.1604
 8010TIP3   OH223993   6.790   6.117   0.319 -0.1909 -0.2237 -0.1223
 8010TIP3    H123994   6.716   6.176   0.329 -0.0724 -0.3704  2.2606
 8010TIP3    H223995   6.750   6.031   0.306 -0.5375 -0.4898  2.3275
 8011TIP3   OH223996   7.025   2.690   1.801  0.1876  0.0200 -0.2791
 8011TIP3    H123997   6.954   2.711   1.862  1.0417  1.0602  0.4075
 8011TIP3    H223998   6.983   2.641   1.731 -1.1316  0.2588  0.3113
 8012TIP3   OH223999   4.394   1.351   0.111 -0.0438  0.1271 -0.3059
 8012TIP3    H124000   4.414   1.337   0.204  0.1143 -0.0539 -0.3661
 8012TIP3    H224001   4.418   1.443   0.095  1.1253 -0.1828 -0.4686
 8013TIP3   OH224002   6.993   3.376   1.330 -0.5951  0.3179 -0.1344
 8013TIP3    H124003   6.920   3.342   1.382 -1.2217  1.6447 -0.1079
 8013TIP3    H224004   7.050   3.301   1.317 -0.6431 -0.1689  2.0669
 8014TIP3   OH224005   3.295   4.341   5.343  0.4642  0.2444  0.0833
 8014TIP3    H124006   3.258   4.280   5.280 -1.9460  1.1041  0.5524
 8014TIP3    H224007   3.308   4.422   5.293  2.0475 -0.1050 -0.1309
 8015TIP3   OH224008   0.047   3.561   4.937 -0.1062  0.0166  0.2235
 8015TIP3    H124009  -0.008   3.555   5.015 -0.9399 -0.8097 -0.4069
 8015TIP3    H224010   0.107   3.634   4.955 -0.6266  0.1674  1.4127
 8016TIP3   OH224011   2.947   3.184   1.336 -0.1452 -0.0248 -0.3954
 8016TIP3    H124012   2.911   3.243   1.269 -0.0427  0.0107 -0.4187
 8016TIP3    H224013   3.019   3.234   1.375  0.1215 -0.2462 -0.6044
 8017TIP3   OH224014   5.396   3.209   2.121  0.1638 -0.2528 -0.4524
 8017TIP3    H124015   5.370   3.265   2.048 -0.6029  1.0218  0.7502
 8017TIP3    H224016   5.451   3.265   2.176 -0.4994 -0.6961  0.7039
 8018TIP3   OH224017   1.247   4.405   4.306 -0.1455 -0.1483  0.5429
 8018TIP3    H124018   1.191   4.469   4.350 -0.2717  0.8491 -1.0120
 8018TIP3    H224019   1.279   4.350   4.377 -0.8636  0.9889  1.8090
 8019TIP3   OH224020   3.995   3.137   0.565  0.6372  0.0767 -0.4922
 8019TIP3    H124021   4.066   3.200   0.580  0.7544  0.2442 -1.6700
 8019TIP3    H224022   3.941   3.178   0.498 -0.2049 -0.3593 -0.0956
 8020TIP3   OH224023   5.863   5.066   5.637  0.3968 -0.0067 -0.1421
 8020TIP3    H124024   5.930   4.999   5.623 -0.5940 -0.9916 -0.4022
 8020TIP3    H224025   5.811   5.032   5.710 -1.4088 -0.6412 -1.6291
 8021TIP3   OH224026   6.842   3.826   2.725 -0.0009  0.0388 -0.0088
 8021TIP3    H124027   6.899   3.806   2.799  1.6283 -1.7600 -1.6075
 8021TIP3    H224028   6.843   3.921   2.718  0.8935  0.1608  1.4392
 8022TIP3   OH224029   2.773   6.419   5.743 -0.0845  0.0103  0.5661
 8022TIP3    H124030   2.757   6.510   5.718  1.8378  0.4373  0.7372
 8022TIP3    H224031   2.742   6.413   5.833  1.6508  1.1146  1.2944
 8023TIP3   OH224032   2.755   4.484   0.538 -0.1037  0.3498  0.4268
 8023TIP3    H124033   2.737   4.547   0.468  0.7337  1.3094  1.0537
 8023TIP3    H224034   2.851   4.480   0.543 -0.1218 -1.4993 -0.0521
 8024TIP3   OH224035   5.501   5.700   2.292  0.5753 -0.3303 -0.0341
 8024TIP3    H124036   5.534   5.633   2.231  0.1493  0.2238 -0.8958
 8024TIP3    H224037   5.522   5.666   2.379  0.9431 -1.2787 -0.4802
 8025TIP3   OH224038   6.405   6.499   0.852 -0.1728  1.0891 -1.0156
 8025TIP3    H124039   6.481   6.516   0.908  0.0161  0.4478 -1.0696
 8025TIP3    H224040   6.406   6.404   0.838 -0.5871  1.1617 -1.5784
 8026TIP3   OH224041   2.830   1.294   1.932  0.5925 -0.4294  0.0315
 8026TIP3    H124042   2.894   1.264   1.867 -0.4744  0.1653 -1.3624
 8026TIP3    H224043   2.747   1.254   1.904  0.3688 -1.3713  1.9200
 8027TIP3   OH224044   6.707   3.022   0.846  0.1346 -0.1811  0.0091
 8027TIP3    H124045   6.629   3.002   0.898 -0.1615  1.0262  0.0631
 8027TIP3    H224046   6.673   3.051   0.761  0.5119  0.5861  0.1141
 8028TIP3   OH224047   4.453   1.309   0.915  0.0222 -0.0525  0.1961
 8028TIP3    H124048   4.416   1.261   0.989 -3.9068  1.5854 -0.4595
 8028TIP3    H224049   4.437   1.252   0.839 -1.1712  0.6384 -0.0862
 8029TIP3   OH224050   3.645   3.448   4.877  0.5098 -0.3670  0.5672
 8029TIP3    H124051   3.578   3.511   4.904  0.1211 -0.4075 -0.2769
 8029TIP3    H224052   3.676   3.410   4.958  0.5418  0.7076  1.0839
 8030TIP3   OH224053   1.776   5.663   0.487  0.0817  0.1413  0.8220
 8030TIP3    H124054   1.690   5.672   0.445  1.8359  0.5747 -3.1439
 8030TIP3    H224055   1.786   5.569   0.500 -0.6890  0.0100  0.5363
 8031TIP3   OH224056   2.670   0.033   3.421 -0.0191 -0.1258 -0.2425
 8031TIP3    H124057   2.726   0.092   3.473  0.5616 -1.2161  0.4176
 8031TIP3    H224058   2.729  -0.036   3.392 -1.1102 -1.6795  1.0437
 8032TIP3   OH224059   1.649   0.258   1.240 -0.7457  0.3481  0.0618
 8032TIP3    H124060   1.561   0.237   1.206 -0.8596  1.6472 -0.4992
 8032TIP3    H224061   1.683   0.323   1.178  0.1154  0.7774  0.9743
 8033TIP3   OH224062   0.726   1.205   5.140  0.5700 -0.6899  0.0021
 8033TIP3    H124063   0.670   1.250   5.203  0.1201 -1.7244  0.3680
 8033TIP3    H224064   0.760   1.275   5.084  2.2879  0.4675  2.3473
 8034TIP3   OH224065   2.479   4.250   1.338 -0.2196 -0.0109  0.4538
 8034TIP3    H124066   2.545   4.195   1.295 -0.1255 -0.0660  0.6712
 8034TIP3    H224067   2.502   4.339   1.312  0.1972  0.0053  0.8816
 8035TIP3   OH224068   1.754   2.572   5.313 -0.0596 -0.2469 -0.0900
 8035TIP3    H124069   1.772   2.585   5.406  1.7147  3.9464 -0.8035
 8035TIP3    H224070   1.841   2.565   5.273 -0.6946  0.5404 -1.6680
 8036TIP3   OH224071   0.035   0.874   1.552 -0.1662 -0.1904  0.1926
 8036TIP3    H124072   0.028   0.840   1.641  0.6576 -0.3135  0.2183
 8036TIP3    H224073  -0.054   0.869   1.517 -0.6115  0.3895  1.1955
 8037TIP3   OH224074   2.449   5.569   4.101 -0.0284 -0.2831  0.3724
 8037TIP3    H124075   2.460   5.476   4.120  0.9581 -0.2928 -0.1692
 8037TIP3    H224076   2.537   5.604   4.102 -0.3601  0.5737  0.1763
 8038TIP3   OH224077   6.314   2.481   0.292  0.3259  0.1470 -0.1345
 8038TIP3    H124078   6.400   2.482   0.250  0.2315  0.0464 -0.3327
 8038TIP3    H224079   6.332   2.489   0.385  0.6031 -0.8670 -0.0882
 8039TIP3   OH224080   2.685   4.364   5.173 -0.7597  0.2500 -0.1110
 8039TIP3    H124081   2.752   4.328   5.115  0.3971  1.7287  0.2470
 8039TIP3    H224082   2.614   4.300   5.170 -0.0231 -0.5548 -1.8073
 8040TIP3   OH224083   3.840   6.768   1.483 -0.0479 -0.8922  0.2626
 8040TIP3    H124084   3.786   6.777   1.562 -0.2430  2.0566 -0.0795
 8040TIP3    H224085   3.924   6.807   1.506 -0.2089  0.3017 -1.0361
 8041TIP3   OH224086   6.188   3.144   4.206  0.1662 -0.1041 -0.4146
 8041TIP3    H124087   6.201   3.230   4.245 -1.1452 -0.5057  1.0083
 8041TIP3    H224088   6.275   3.116   4.178  0.9295  0.8072  0.9777
 8042TIP3   OH224089   4.465   6.017   3.479  0.7520 -0.3865  0.0550
 8042TIP3    H124090   4.450   6.061   3.563  0.7985 -0.6495  0.2025
 8042TIP3    H224091   4.381   5.978   3.457  0.1754  1.3412 -1.0081
 8043TIP3   OH224092   3.463   1.411   4.768 -0.2469  0.0492 -0.5009
 8043TIP3    H124093   3.499   1.450   4.848 -1.6185  0.8255 -0.2313
 8043TIP3    H224094   3.539   1.383   4.718  0.6589 -1.7501  1.6985
 8044TIP3   OH224095   4.621   2.404   3.606  0.0642 -0.0363 -0.0922
 8044TIP3    H124096   4.630   2.324   3.554 -2.6278  0.5814 -1.7076
 8044TIP3    H224097   4.641   2.475   3.545  0.6433  0.6022  0.8103
 8045TIP3   OH224098   1.758   6.425   4.673 -0.1211  0.6775 -0.5737
 8045TIP3    H124099   1.666   6.420   4.645 -0.0017  1.0498 -1.0535
 8045TIP3    H224100   1.808   6.412   4.593  0.2554 -0.0848 -0.2194
 8046TIP3   OH224101   0.734   1.755   2.766 -0.0162 -0.2886 -0.1033
 8046TIP3    H124102   0.735   1.659   2.755 -2.8371 -0.5354  0.8598
 8046TIP3    H224103   0.709   1.767   2.858 -0.4106  1.3655 -0.4091
 8047TIP3   OH224104   3.894   2.239   2.804  0.1972  0.3473  0.7870
 8047TIP3    H124105   3.842   2.293   2.744 -1.4398 -2.6857 -0.7280
 8047TIP3    H224106   3.958   2.195   2.748  0.8042 -0.1302  1.8128
 8048TIP3   OH224107   1.953   6.573   4.439 -0.0838  0.3895  0.2513
 8048TIP3    H124108   2.005   6.543   4.514  1.7468  1.8262 -0.3816
 8048TIP3    H224109   1.973   6.666   4.431  0.1555  0.1853 -2.2929
 8049TIP3   OH224110   1.342   0.554   2.484 -0.2478 -0.4647  0.1740
 8049TIP3    H124111   1.280   0.494   2.442 -1.3846 -0.5117  1.8285
 8049TIP3    H224112   1.387   0.499   2.549 -1.5556  0.4768  1.9651
 8050TIP3   OH224113   4.476   3.156   4.283  0.1399  0.0462  0.0826
 8050TIP3    H124114   4.410   3.202   4.230  2.2313  0.9520 -1.9252
 8050TIP3    H224115   4.541   3.224   4.303  1.1055 -1.0827  0.8714
 8051TIP3   OH224116   1.415   4.226   2.742 -0.4276  0.1331 -0.5638
 8051TIP3    H124117   1.336   4.177   2.764 -0.4631  0.4897  0.1034
 8051TIP3    H224118   1.479   4.158   2.719 -0.9595 -0.1511 -1.2415
 8052TIP3   OH224119   5.589   0.778   2.284  0.1858 -0.4512  0.5561
 8052TIP3    H124120   5.629   0.865   2.285 -0.1152 -0.3155  0.8884
 8052TIP3    H224121   5.542   0.775   2.200  0.2858 -0.3359  0.4952
 8053TIP3   OH224122   3.197   5.444   5.410 -0.1952 -0.1856  0.3586
 8053TIP3    H124123   3.111   5.424   5.373  0.4426 -2.8907  0.1150
 8053TIP3    H224124   3.249   5.475   5.336 -0.9194  1.5059  0.5164
 8054TIP3   OH224125   0.655   4.117   1.061 -0.4570  0.1298 -0.1008
 8054TIP3    H124126   0.578   4.140   1.009  0.7948  1.6121 -1.4118
 8054TIP3    H224127   0.678   4.197   1.107  0.0817 -0.4055  0.5816
 8055TIP3   OH224128   5.394   5.515   4.191  0.2900  0.0041  0.0514
 8055TIP3    H124129   5.430   5.587   4.140  0.7582 -0.3190 -0.0793
 8055TIP3    H224130   5.467   5.454   4.203 -0.7265 -1.8088 -2.2285
 8056TIP3   OH224131   2.693   3.689   4.502 -0.2722 -0.0020 -0.0018
 8056TIP3    H124132   2.627   3.661   4.565 -0.7567 -0.1986 -0.5948
 8056TIP3    H224133   2.692   3.622   4.434  0.9765 -0.3389  0.2769
 8057TIP3   OH224134   1.030   1.824   0.497  0.0607 -0.4242 -0.2716
 8057TIP3    H124135   1.122   1.836   0.520 -0.1143  1.3303 -0.4003
 8057TIP3    H224136   1.009   1.736   0.530  1.4330 -0.3486  0.9149
 8058TIP3   OH224137   0.516   3.846   5.768  0.0909 -0.2495  0.2295
 8058TIP3    H124138   0.540   3.913   5.831  1.2465 -1.6510  1.3367
 8058TIP3    H224139   0.421   3.835   5.779 -0.1836  1.3928 -0.2226
 8059TIP3   OH224140   6.850   2.476   1.885  0.5800 -0.6230 -0.5221
 8059TIP3    H124141   6.885   2.387   1.893  2.2552  0.0440  0.0767
 8059TIP3    H224142   6.841   2.490   1.791 -0.7308 -1.7837 -0.5890
 8060TIP3   OH224143   4.517   6.001   5.238 -0.1763 -0.0559  0.2303
 8060TIP3    H124144   4.532   6.047   5.321 -0.5788  0.4328  0.0311
 8060TIP3    H224145   4.504   5.910   5.264 -1.3428  0.2626  0.8037
 8061TIP3   OH224146   1.925   3.063   2.381 -0.0091 -0.3762 -0.5581
 8061TIP3    H124147   1.961   2.975   2.367  0.7451  0.1441 -2.1205
 8061TIP3    H224148   1.987   3.122   2.338 -1.0480  0.8286 -0.4666
 8062TIP3   OH224149   2.380   4.351   0.602  0.1692  0.4785 -0.3246
 8062TIP3    H124150   2.437   4.425   0.622  2.0715 -0.4963 -1.7761
 8062TIP3    H224151   2.327   4.380   0.528 -0.6880  1.1290  0.5359
 8063TIP3   OH224152   2.955   4.706   5.723 -0.1292  0.4660  0.3466
 8063TIP3    H124153   2.874   4.748   5.694 -0.9989 -2.0020 -1.1178
 8063TIP3    H224154   2.976   4.644   5.653  0.0595 -2.7920  3.0512
 8064TIP3   OH224155   3.700   4.224   0.286 -1.0963  0.0991 -0.1326
 8064TIP3    H124156   3.705   4.167   0.209 -0.9886  0.8904 -0.7187
 8064TIP3    H224157   3.791   4.231   0.317 -0.7958  1.5702 -1.2691
 8065TIP3   OH224158   2.512   1.024   0.615 -0.3708  0.4018  0.4236
 8065TIP3    H124159   2.583   1.078   0.650 -0.4928  0.4795  0.5504
 8065TIP3    H224160   2.484   1.068   0.535 -0.2417  0.3431  0.3446
 8066TIP3   OH224161   5.987   0.820   5.476  0.0189 -0.4286  0.0355
 8066TIP3    H124162   6.021   0.777   5.397  1.6432  0.6907  0.0917
 8066TIP3    H224163   5.983   0.749   5.541  0.1957 -1.0320 -0.5949
 8067TIP3   OH224164   5.722   4.462   5.297 -0.0276  0.3233 -0.6485
 8067TIP3    H124165   5.703   4.470   5.390 -0.5336  1.7017 -0.8433
 8067TIP3    H224166   5.648   4.414   5.261  0.6916 -1.1827 -0.1927
 8068TIP3   OH224167   6.930   2.857   2.938  0.4602  0.0357  0.0437
 8068TIP3    H124168   6.840   2.848   2.906 -0.2040  2.7801  0.8607
 8068TIP3    H224169   6.973   2.915   2.876  0.6757  1.2889  1.3017
 8069TIP3   OH224170   5.590   0.812   1.078 -0.1877 -0.0151  0.2865
 8069TIP3    H124171   5.555   0.836   1.164 -0.0299  1.4390 -0.0209
 8069TIP3    H224172   5.672   0.768   1.096 -1.3173 -1.9751  0.9549
 8070TIP3   OH224173   6.424   1.114   5.870 -0.2810 -0.4852  0.2987
 8070TIP3    H124174   6.392   1.156   5.790 -0.9756 -1.5698 -0.0073
 8070TIP3    H224175   6.479   1.181   5.912  0.2914  0.0241 -1.1988
 8071TIP3   OH224176   6.511   2.500   2.103  0.1343 -0.2174 -0.1244
 8071TIP3    H124177   6.485   2.576   2.155 -0.6366 -0.0005 -0.8032
 8071TIP3    H224178   6.498   2.528   2.012  0.3560 -0.9804 -0.3955
 8072TIP3   OH224179   6.711   3.653   0.550  0.0989 -0.2397  0.2610
 8072TIP3    H124180   6.637   3.597   0.574 -0.4330  0.5425  0.5116
 8072TIP3    H224181   6.776   3.638   0.619 -0.4585  0.2131  0.8991
 8073TIP3   OH224182   0.584   4.532   4.420 -0.1815  0.1327  0.2862
 8073TIP3    H124183   0.622   4.494   4.341 -0.0315  0.4591  0.2003
 8073TIP3    H224184   0.490   4.535   4.403 -0.1410  0.2728  0.0902
 8074TIP3   OH224185   1.340   0.903   5.110 -0.0241  0.2778 -0.5269
 8074TIP3    H124186   1.281   0.891   5.185  0.2347 -0.3714 -0.4207
 8074TIP3    H224187   1.427   0.885   5.145  0.0899 -0.1030 -1.0052
 8075TIP3   OH224188   0.912   2.229   5.578  0.2712 -0.0820  0.7256
 8075TIP3    H124189   0.859   2.153   5.554  0.5955 -0.3356  0.8112
 8075TIP3    H224190   0.890   2.295   5.512 -0.2899 -0.1202  0.8683
 8076TIP3   OH224191   1.401   6.190   3.278  0.5192  0.0252  0.1717
 8076TIP3    H124192   1.464   6.162   3.212  1.7456 -0.3203  1.4415
 8076TIP3    H224193   1.343   6.114   3.290  0.1152  0.1901 -0.6848
 8077TIP3   OH224194   0.798   3.956   4.298 -0.1080  0.6733  0.2038
 8077TIP3    H124195   0.825   3.964   4.207 -0.7099 -0.1983 -0.0646
 8077TIP3    H224196   0.710   3.921   4.294  0.7765 -1.8686  1.1446
 8078TIP3   OH224197   0.977   4.414   5.067  0.4823  0.1924 -0.6750
 8078TIP3    H124198   0.940   4.391   4.982 -0.7842  1.5487 -0.5396
 8078TIP3    H224199   1.045   4.479   5.046 -0.0909  0.8161 -0.6555
 8079TIP3   OH224200   0.799   1.017   2.857 -0.3819 -0.1435  0.6578
 8079TIP3    H124201   0.862   1.030   2.787  0.2516 -0.0965  1.2274
 8079TIP3    H224202   0.715   1.044   2.820 -0.0467 -0.0784 -0.0595
 8080TIP3   OH224203   4.223   2.804   1.143  0.1395  0.3369  0.2128
 8080TIP3    H124204   4.280   2.874   1.112  1.4235  0.1036  1.8779
 8080TIP3    H224205   4.167   2.847   1.208 -1.1097  0.4090 -0.8900
 8081TIP3   OH224206   3.252   3.715   1.418  0.6785 -0.0783  0.0185
 8081TIP3    H124207   3.202   3.656   1.362  0.7602  0.0025 -0.1382
 8081TIP3    H224208   3.218   3.802   1.399  1.2469  0.0445 -0.4910
 8082TIP3   OH224209   1.989   0.494   0.511 -0.8100 -0.2265 -0.8798
 8082TIP3    H124210   2.007   0.410   0.468 -0.3059  0.1262 -1.3676
 8082TIP3    H224211   1.900   0.485   0.543 -0.7894 -0.9257 -0.9912
 8083TIP3   OH224212   1.584   6.411   2.075  0.0435  0.2821  0.1339
 8083TIP3    H124213   1.679   6.403   2.068  0.2007  1.5993  0.6218
 8083TIP3    H224214   1.557   6.335   2.126  0.4653 -1.7548 -2.4528
 8084TIP3   OH224215   5.471   4.034   3.008  0.2605  0.3473 -0.5073
 8084TIP3    H124216   5.470   4.098   2.937  1.7240  1.4546  0.4207
 8084TIP3    H224217   5.463   4.087   3.088  1.4023 -0.6156  0.2764
 8085TIP3   OH224218   5.834   2.661   2.762  0.5682  1.0726  0.1127
 8085TIP3    H124219   5.804   2.707   2.841 -0.0298  0.1695  0.4269
 8085TIP3    H224220   5.783   2.698   2.691  0.5575  1.3503  0.2647
 8086TIP3   OH224221   2.887   2.185   2.609 -0.2872  0.2938 -0.3777
 8086TIP3    H124222   2.941   2.108   2.592  0.9827  1.2030 -0.6065
 8086TIP3    H224223   2.925   2.224   2.687 -1.0309  0.6005 -0.1642
 8087TIP3   OH224224   0.630   5.910   3.500 -0.2398 -0.1450 -0.5279
 8087TIP3    H124225   0.544   5.908   3.457  0.4682 -1.6011 -1.9936
 8087TIP3    H224226   0.624   5.844   3.568 -0.3794 -0.0110 -0.4082
 8088TIP3   OH224227   1.611   1.202   5.312  0.0880 -0.0910  0.1218
 8088TIP3    H124228   1.702   1.173   5.316  1.4561  3.4644 -1.4688
 8088TIP3    H224229   1.594   1.219   5.220 -1.8102  0.4888  0.5160
 8089TIP3   OH224230   6.220   3.001   0.348  0.8542 -0.2593 -0.0122
 8089TIP3    H124231   6.262   3.052   0.418  0.0737  0.0657  0.2236
 8089TIP3    H224232   6.155   3.060   0.311 -0.5588 -1.3014  0.7211
 8090TIP3   OH224233   5.951   5.679   1.490  0.4113 -0.0876  0.5348
 8090TIP3    H124234   5.935   5.629   1.570 -0.6768  1.8750  1.6230
 8090TIP3    H224235   5.985   5.763   1.520  0.7527  0.4162 -1.1164
 8091TIP3   OH224236   4.847   1.363   2.882 -0.3775 -0.2099  0.0850
 8091TIP3    H124237   4.868   1.302   2.812  0.2074 -0.1675  0.2130
 8091TIP3    H224238   4.884   1.447   2.853  0.1381 -0.2598  0.5657
 8092TIP3   OH224239   1.448   0.777   5.506 -0.0275  0.1687  0.1587
 8092TIP3    H124240   1.526   0.767   5.452  0.7614  2.6832  0.6864
 8092TIP3    H224241   1.376   0.777   5.443  0.6792  0.9335 -0.6847
 8093TIP3   OH224242   5.278   4.045   3.281  0.0947 -0.0392  0.4370
 8093TIP3    H124243   5.219   4.082   3.346 -0.4691 -2.0788  1.1525
 8093TIP3    H224244   5.325   3.977   3.327  1.3849  0.0249 -0.7213
 8094TIP3   OH224245   1.958   2.763   5.895  0.1595  0.1691 -0.0373
 8094TIP3    H124246   1.867   2.790   5.880  0.5415  0.5075 -2.1073
 8094TIP3    H224247   2.003   2.786   5.814  1.6060 -2.1069  0.0384
 8095TIP3   OH224248   6.346   6.624   1.505 -0.0500  0.1811 -0.3506
 8095TIP3    H124249   6.402   6.630   1.582  2.7473 -2.0037 -2.0042
 8095TIP3    H224250   6.337   6.530   1.488  0.0212  0.5616 -3.0273
 8096TIP3   OH224251   3.903   5.565   4.810 -0.1459 -0.0723  0.1369
 8096TIP3    H124252   3.983   5.514   4.826 -1.6721 -2.7975 -0.4308
 8096TIP3    H224253   3.905   5.584   4.716  0.7549  1.6162  0.4618
 8097TIP3   OH224254   3.011   2.682   4.304 -0.3185 -0.1639 -0.0216
 8097TIP3    H124255   3.069   2.622   4.258 -0.5079  0.3478 -0.9646
 8097TIP3    H224256   2.979   2.633   4.379  0.9817 -0.5981  0.2681
 8098TIP3   OH224257   2.073   6.601   5.610  0.2680 -0.3053 -0.2272
 8098TIP3    H124258   2.086   6.663   5.683 -0.3498 -1.4298  0.8792
 8098TIP3    H224259   1.980   6.608   5.589  0.0029 -1.4555  0.4904
 8099TIP3   OH224260   0.410   0.528   2.532 -0.1174  0.1834 -0.4161
 8099TIP3    H124261   0.326   0.495   2.503  0.5909  0.6436 -3.3172
 8099TIP3    H224262   0.402   0.624   2.525  0.3481  0.2671  0.1378
 8100TIP3   OH224263   3.209   4.773   3.983  0.0015  0.2874  0.3578
 8100TIP3    H124264   3.230   4.789   3.891 -1.2906 -0.3948 -0.0863
 8100TIP3    H224265   3.114   4.762   3.984  0.0175  0.0981  1.7555
 8101TIP3   OH224266   1.678   4.878   0.867  0.0250 -0.3473  0.1752
 8101TIP3    H124267   1.632   4.959   0.891  0.6506  0.1643 -0.3158
 8101TIP3    H224268   1.758   4.908   0.824  0.1947 -1.2345 -0.1449
 8102TIP3   OH224269   2.685   4.805   2.791  0.2865 -0.0456 -0.1657
 8102TIP3    H124270   2.666   4.851   2.873 -2.5793 -0.1233 -0.6601
 8102TIP3    H224271   2.736   4.728   2.818 -0.6706 -0.1344  1.5883
 8103TIP3   OH224272   2.955   5.074   2.169  0.5290 -0.1894 -0.2564
 8103TIP3    H124273   2.999   4.990   2.182  0.1794 -0.5849 -1.5123
 8103TIP3    H224274   2.869   5.062   2.210  0.6567 -0.2789 -0.0136
 8104TIP3   OH224275   1.314   4.253   3.407 -0.3515 -0.3442 -0.4005
 8104TIP3    H124276   1.309   4.167   3.449  2.5815 -1.2696 -1.6923
 8104TIP3    H224277   1.289   4.237   3.316 -0.9192  0.4569 -0.3990
 8105TIP3   OH224278   3.797   4.016   5.123 -0.6645 -0.0801 -0.7526
 8105TIP3    H124279   3.858   4.081   5.158 -1.1491 -0.2106  0.3932
 8105TIP3    H224280   3.755   4.059   5.049  0.1514  0.3346 -0.9868
 8106TIP3   OH224281   3.947   5.013   5.270 -0.0653 -0.5393 -0.3891
 8106TIP3    H124282   3.972   4.925   5.241  1.3494  0.2618 -1.7656
 8106TIP3    H224283   3.893   5.048   5.199  1.9911  0.8071 -1.4077
 8107TIP3   OH224284   2.150   4.274   3.623  0.5647 -1.1020 -0.4222
 8107TIP3    H124285   2.094   4.350   3.641  0.8427 -1.0750  0.3785
 8107TIP3    H224286   2.109   4.202   3.670  1.6342 -0.9010  0.8940
 8108TIP3   OH224287   1.617   3.223   0.395  0.4449 -0.0207  0.3952
 8108TIP3    H124288   1.558   3.215   0.470 -2.7952 -2.3661 -2.1011
 8108TIP3    H224289   1.688   3.161   0.414  0.0294 -0.1154  1.7628
 8109TIP3   OH224290   5.766   3.856   0.232 -0.1310  0.8110 -0.1013
 8109TIP3    H124291   5.836   3.903   0.279  0.8600  0.1205 -0.8320
 8109TIP3    H224292   5.691   3.915   0.235  0.4376  1.5159  0.8370
 8110TIP3   OH224293   1.314   5.404   4.774 -0.4205 -0.5428 -0.3929
 8110TIP3    H124294   1.409   5.421   4.778 -0.4102 -0.6494 -0.1965
 8110TIP3    H224295   1.300   5.369   4.686 -0.5097  0.9157 -0.9900
 8111TIP3   OH224296   6.561   5.917   4.826 -0.4111  0.1699 -0.1731
 8111TIP3    H124297   6.588   5.830   4.798 -0.5491  0.4437 -1.2072
 8111TIP3    H224298   6.512   5.952   4.752 -2.1378  0.3530  1.0009
 8112TIP3   OH224299   1.576   6.207   1.846  0.1036 -0.0165 -0.1535
 8112TIP3    H124300   1.513   6.273   1.819  0.2794 -0.0737 -0.7006
 8112TIP3    H224301   1.652   6.257   1.876 -0.1170  0.0474  0.3058
 8113TIP3   OH224302   1.775   3.305   4.330 -0.7807 -0.2597 -0.0782
 8113TIP3    H124303   1.779   3.210   4.333  1.5011 -0.2142 -0.2192
 8113TIP3    H224304   1.792   3.328   4.239 -1.3167  0.2999 -0.0501
 8114TIP3   OH224305   3.215   3.642   5.091  0.3030 -0.6680 -0.3101
 8114TIP3    H124306   3.220   3.735   5.067 -2.2438  0.0125  1.4247
 8114TIP3    H224307   3.271   3.635   5.169  1.3089 -0.8644 -1.0264
 8115TIP3   OH224308   0.220   3.265   4.455  0.2490  0.1565  0.7705
 8115TIP3    H124309   0.275   3.239   4.529 -0.0399 -0.6546  0.7101
 8115TIP3    H224310   0.208   3.184   4.405  0.4486  0.6972 -0.1687
 8116TIP3   OH224311   2.672   5.620   4.747 -0.5043  0.1452 -0.4514
 8116TIP3    H124312   2.686   5.672   4.827 -0.0448 -0.6923  0.0231
 8116TIP3    H224313   2.604   5.557   4.772 -0.1306 -0.3294 -0.6254
 8117TIP3   OH224314   3.597   3.264   2.917  0.5043  0.6905 -0.5225
 8117TIP3    H124315   3.554   3.348   2.934 -0.4008  0.0862  0.2499
 8117TIP3    H224316   3.543   3.199   2.962  0.5143 -0.4570 -2.0877
 8118TIP3   OH224317   2.537   2.238   3.497  0.2914 -0.4212 -0.4443
 8118TIP3    H124318   2.573   2.325   3.512  0.5485 -0.5425 -0.3353
 8118TIP3    H224319   2.450   2.240   3.536  0.0743 -0.0411 -0.9441
 8119TIP3   OH224320   5.062   5.710   2.546 -0.8426 -0.2167  0.3378
 8119TIP3    H124321   4.993   5.651   2.515  0.2852 -1.6846  0.4913
 8119TIP3    H224322   5.130   5.705   2.479  0.0567 -0.5429  1.2513
 8120TIP3   OH224323   2.496   2.091   4.962 -0.8802 -0.6349 -0.2941
 8120TIP3    H124324   2.426   2.069   4.900 -2.3306  0.9558  0.6826
 8120TIP3    H224325   2.507   2.186   4.953 -1.3586 -0.2933  2.0245
 8121TIP3   OH224326   4.053   1.071   3.482  0.1540  0.0781  0.0130
 8121TIP3    H124327   4.023   1.137   3.419  2.3917  1.5594  0.3831
 8121TIP3    H224328   3.994   1.081   3.556 -0.1748  0.9903 -0.3501
 8122TIP3   OH224329   6.728   1.459   4.010 -0.3845  0.5512 -0.0764
 8122TIP3    H124330   6.664   1.483   3.942 -1.6278  0.1816  0.9371
 8122TIP3    H224331   6.752   1.369   3.989  0.1686  0.8381 -0.7213
 8123TIP3   OH224332   6.825   1.222   1.264  0.0640  0.4061  0.3359
 8123TIP3    H124333   6.786   1.268   1.190 -1.3734 -0.9421  0.2154
 8123TIP3    H224334   6.901   1.275   1.287 -1.0912  2.4551 -0.2443
 8124TIP3   OH224335   6.143   6.213   5.495 -0.3503  0.0348 -0.2474
 8124TIP3    H124336   6.175   6.224   5.585 -0.1162  2.0437 -0.5529
 8124TIP3    H224337   6.047   6.219   5.503 -0.3052  0.7189 -0.1905
 8125TIP3   OH224338   0.250   0.119   2.512  0.0465 -0.5565  0.4714
 8125TIP3    H124339   0.182   0.054   2.532 -1.2913  0.5741 -0.2676
 8125TIP3    H224340   0.262   0.168   2.593 -1.9303  0.9162 -0.0647
 8126TIP3   OH224341   6.305   0.085   5.866  0.7021 -0.2676 -0.3056
 8126TIP3    H124342   6.285   0.111   5.956  1.6263 -2.0436  0.4762
 8126TIP3    H224343   6.318   0.167   5.819 -0.8112  0.7228  0.9286
 8127TIP3   OH224344   4.466   6.689   4.983 -0.0468 -0.6053  0.1239
 8127TIP3    H124345   4.499   6.602   5.005 -0.2728 -0.1569  2.4851
 8127TIP3    H224346   4.544   6.744   4.975 -0.0026 -0.1424  2.9598
 8128TIP3   OH224347   0.577   2.623   3.605  0.4781 -0.0308  0.3885
 8128TIP3    H124348   0.580   2.649   3.697 -0.0622  1.6891 -0.0559
 8128TIP3    H224349   0.494   2.657   3.573  1.5406  1.1836 -1.2230
 8129TIP3   OH224350   2.513   3.953   3.285 -0.1945 -0.6970  0.3293
 8129TIP3    H124351   2.485   3.949   3.376 -0.1601 -2.4258  0.3013
 8129TIP3    H224352   2.456   4.019   3.245  1.0195  1.4503  1.9708
 8130TIP3   OH224353   7.018   1.297   5.820 -0.4439  0.5964  0.2314
 8130TIP3    H124354   7.027   1.389   5.845 -0.2525  0.4318  0.7876
 8130TIP3    H224355   7.052   1.293   5.730 -1.9959  1.3659 -0.4138
 8131TIP3   OH224356   2.416   3.953   0.989 -0.1676 -0.9034 -0.1499
 8131TIP3    H124357   2.395   4.033   1.038 -0.8045 -0.9463 -0.3445
 8131TIP3    H224358   2.335   3.902   0.990 -0.5846 -0.3701 -2.2645
 8132TIP3   OH224359   1.943   1.382   3.193  0.1847 -0.2257 -0.5738
 8132TIP3    H124360   1.921   1.326   3.267 -1.2961 -1.9999 -2.2671
 8132TIP3    H224361   2.038   1.396   3.201 -0.1189  0.8333  2.3815
 8133TIP3   OH224362   2.265   2.627   1.671 -0.2900  0.3623 -0.6913
 8133TIP3    H124363   2.282   2.613   1.764  1.7256 -0.6887 -1.1499
 8133TIP3    H224364   2.317   2.703   1.647 -0.3725  0.3085 -1.0641
 8134TIP3   OH224365   2.196   5.699   4.118 -0.2021  0.2427  0.5948
 8134TIP3    H124366   2.289   5.688   4.103 -0.0261 -0.1372  1.8304
 8134TIP3    H224367   2.158   5.613   4.098 -0.3118  0.4198  0.0124
 8135TIP3   OH224368   0.485   5.340   4.116  0.0199  0.3301  0.3314
 8135TIP3    H124369   0.440   5.274   4.063 -0.6749  1.1122 -0.0699
 8135TIP3    H224370   0.575   5.308   4.122 -0.0344 -0.0988 -0.8076
 8136TIP3   OH224371   4.523   3.580   2.115 -0.5157  0.2058  0.2108
 8136TIP3    H124372   4.564   3.665   2.097 -2.9403  1.6407  0.9145
 8136TIP3    H224373   4.429   3.598   2.110 -1.1185 -2.2874  1.1825
 8137TIP3   OH224374   1.445   1.208   2.451  0.2484 -0.2323 -0.2670
 8137TIP3    H124375   1.427   1.273   2.383 -0.1824 -0.6750 -0.5933
 8137TIP3    H224376   1.524   1.163   2.420 -0.2189 -0.7602 -0.7493
 8138TIP3   OH224377   0.145   3.464   3.763 -0.4109  0.4291  0.0386
 8138TIP3    H124378   0.238   3.444   3.769 -0.6822 -1.9873 -2.0944
 8138TIP3    H224379   0.118   3.483   3.854  2.1696  1.5553  0.6414
 8139TIP3   OH224380   1.608   3.405   5.529  0.3557  0.3724 -0.4265
 8139TIP3    H124381   1.567   3.464   5.466 -1.1500  0.4022  0.5331
 8139TIP3    H224382   1.664   3.462   5.582  0.1222  0.6794 -0.5070
 8140TIP3   OH224383   4.954   4.564   0.435  0.2834 -0.0393  0.3145
 8140TIP3    H124384   5.005   4.486   0.414  0.0930 -0.0384 -0.1641
 8140TIP3    H224385   4.873   4.531   0.473  0.0932 -0.0880 -0.1257
 8141TIP3   OH224386   6.866   2.059   3.597 -0.1219  0.1011  0.3644
 8141TIP3    H124387   6.864   2.133   3.659 -0.4027  0.5050 -0.1232
 8141TIP3    H224388   6.958   2.050   3.574  0.1577 -0.7856  1.7052
 8142TIP3   OH224389   4.932   5.495   5.140  0.4220  0.8759  0.2967
 8142TIP3    H124390   4.855   5.443   5.158  1.0172  0.3726  1.5125
 8142TIP3    H224391   4.899   5.573   5.096 -0.8101  0.7978  1.0406
 8143TIP3   OH224392   5.377   4.853   2.875 -0.2804  0.3412 -0.4572
 8143TIP3    H124393   5.445   4.897   2.822 -1.1778  0.3669 -1.6308
 8143TIP3    H224394   5.340   4.922   2.929  0.6959  0.3065  0.2721
 8144TIP3   OH224395   7.106   1.283   5.557 -0.2447 -0.3356 -0.5539
 8144TIP3    H124396   7.028   1.321   5.517 -0.3934  0.1496  0.1852
 8144TIP3    H224397   7.113   1.195   5.519 -1.5920 -0.6818 -0.0341
 8145TIP3   OH224398   4.852   3.003   2.468  0.2954  0.0920  0.1176
 8145TIP3    H124399   4.807   2.959   2.396  0.6769  0.0224 -0.0806
 8145TIP3    H224400   4.944   2.978   2.458  0.5786  1.2312 -0.2203
 8146TIP3   OH224401   4.302   1.587   2.426  0.1847 -0.0913  0.1266
 8146TIP3    H124402   4.333   1.523   2.490 -3.3624  0.9002  3.1899
 8146TIP3    H224403   4.235   1.638   2.473 -0.4890  2.8260 -3.5114
 8147TIP3   OH224404   4.514   4.282   2.543 -0.1184  0.2688 -0.0134
 8147TIP3    H124405   4.539   4.224   2.471 -1.4580 -0.3996  0.0366
 8147TIP3    H224406   4.582   4.269   2.609 -0.1028 -0.8245 -0.2305
 8148TIP3   OH224407   4.658   4.271   4.493  0.0062  0.1984 -0.2087
 8148TIP3    H124408   4.631   4.305   4.408 -1.5430 -0.6431 -0.0907
 8148TIP3    H224409   4.610   4.325   4.556  0.9488  0.6498  0.1360
 8149TIP3   OH224410   4.097   5.773   3.142 -0.1645  0.3090  0.1706
 8149TIP3    H124411   4.087   5.829   3.066 -0.7828 -1.1612 -0.8642
 8149TIP3    H224412   4.113   5.685   3.107  0.5701 -0.2365  1.7311
 8150TIP3   OH224413   3.894   2.470   3.237 -0.1830 -0.2547 -0.5129
 8150TIP3    H124414   3.941   2.433   3.162  0.1298 -2.6564  0.7697
 8150TIP3    H224415   3.834   2.401   3.265 -1.4323  1.1787  0.4900
 8151TIP3   OH224416   0.133   5.583   4.825  0.5864 -0.3747 -0.2147
 8151TIP3    H124417   0.169   5.670   4.810 -1.3760  0.5745  0.2054
 8151TIP3    H224418   0.162   5.531   4.749 -0.1284  1.2911 -1.7029
 8152TIP3   OH224419   0.249   5.562   1.941 -0.7714  0.4738  0.1600
 8152TIP3    H124420   0.325   5.584   1.887 -0.8204  0.5878  0.1352
 8152TIP3    H224421   0.253   5.623   2.014 -0.9182  0.5787  0.0831
 8153TIP3   OH224422   3.912   2.071   3.733 -0.5176 -0.4314 -0.1508
 8153TIP3    H124423   3.889   2.052   3.824  0.4838 -2.4118 -0.2626
 8153TIP3    H224424   3.990   2.127   3.739 -1.0014  0.2162  0.1946
 8154TIP3   OH224425   1.146   0.483   2.023 -0.3741 -0.2535  0.3579
 8154TIP3    H124426   1.120   0.542   2.094  1.4578  0.3616  0.5590
 8154TIP3    H224427   1.197   0.414   2.066 -1.6718 -1.4831 -0.0094
 8155TIP3   OH224428   4.007   1.285   2.085 -0.2781 -0.4893 -0.2403
 8155TIP3    H124429   3.913   1.298   2.072 -0.4000 -0.4718  0.6375
 8155TIP3    H224430   4.031   1.347   2.153  0.5802  0.2002 -1.1443
 8156TIP3   OH224431   2.986   4.691   2.890  0.4668  0.2763  0.2450
 8156TIP3    H124432   3.050   4.629   2.926 -0.0907  0.1043  0.9602
 8156TIP3    H224433   2.913   4.688   2.951 -0.6726 -0.3010 -1.0924
 8157TIP3   OH224434   2.230   5.954   4.258  0.6236  0.3655 -0.2887
 8157TIP3    H124435   2.280   5.915   4.330 -2.8991 -1.0850  1.6084
 8157TIP3    H224436   2.247   5.895   4.184 -0.3377 -1.7836  1.0742
 8158TIP3   OH224437   3.335   2.218   2.591 -0.3433  0.1454 -0.1009
 8158TIP3    H124438   3.289   2.270   2.525 -1.2496 -0.0719  0.3449
 8158TIP3    H224439   3.286   2.136   2.594  0.6994 -0.5038 -0.3550
 8159TIP3   OH224440   1.526   5.912   5.139 -0.2460 -0.5832  0.4868
 8159TIP3    H124441   1.537   5.870   5.054 -1.9931  0.6537 -0.4209
 8159TIP3    H224442   1.484   5.845   5.193 -0.5935 -0.8824 -0.1307
 8160TIP3   OH224443   5.843   4.679   4.408  0.5822 -0.2383  0.1759
 8160TIP3    H124444   5.881   4.592   4.405  0.1702 -0.3959 -0.6331
 8160TIP3    H224445   5.869   4.721   4.326  0.9754  0.4870  0.6604
 8161TIP3   OH224446   6.744   1.834   0.318 -0.5692  0.0934  0.0821
 8161TIP3    H124447   6.706   1.922   0.321 -0.8890  0.0082 -1.0673
 8161TIP3    H224448   6.684   1.784   0.262  0.3360 -0.4987 -0.3785
 8162TIP3   OH224449   2.558   4.238   4.083 -0.1458  0.3008  0.3608
 8162TIP3    H124450   2.650   4.232   4.056  0.2318  0.5263  1.5424
 8162TIP3    H224451   2.541   4.156   4.128 -0.3667  0.4636  0.5769
 8163TIP3   OH224452   4.216   5.340   4.256 -0.2957  0.4048  0.0249
 8163TIP3    H124453   4.151   5.354   4.187  1.2816  1.1175 -1.3635
 8163TIP3    H224454   4.281   5.408   4.242  0.1719  0.4505  2.1323
 8164TIP3   OH224455   1.868   1.442   1.475 -0.6958 -0.1831 -0.0465
 8164TIP3    H124456   1.774   1.451   1.460 -0.6682  1.0778  0.3725
 8164TIP3    H224457   1.909   1.473   1.394 -0.6335 -1.0924 -0.3729
 8165TIP3   OH224458   6.435   4.078   3.416  0.4671 -0.7448  0.1698
 8165TIP3    H124459   6.363   4.018   3.396 -0.2032 -0.1469  0.7368
 8165TIP3    H224460   6.429   4.147   3.350  0.1580 -0.3952  0.5548
 8166TIP3   OH224461   7.112   0.332   5.102  0.1549 -0.1022 -0.0089
 8166TIP3    H124462   7.097   0.363   5.013 -0.6798  0.9272  0.4704
 8166TIP3    H224463   7.084   0.404   5.158  1.1096 -0.5412  1.0905
 8167TIP3   OH224464   6.525   0.506   4.159 -0.0804  0.0103 -0.3228
 8167TIP3    H124465   6.556   0.596   4.150 -0.9993  0.4140  0.3454
 8167TIP3    H224466   6.526   0.490   4.253 -0.3851 -0.5023 -0.4047
 8168TIP3   OH224467   2.731   6.000   0.850 -0.1251  0.1139 -0.4595
 8168TIP3    H124468   2.760   5.919   0.893  0.2916  1.5598  2.2064
 8168TIP3    H224469   2.661   5.972   0.791 -1.3159 -1.9981  1.7780
 8169TIP3   OH224470   5.358   5.950   3.648  0.2301  0.0828  0.3009
 8169TIP3    H124471   5.449   5.980   3.645  0.4275 -0.0422  2.8027
 8169TIP3    H224472   5.357   5.870   3.596  1.1580  0.9377 -1.0912
 8170TIP3   OH224473   2.882   6.383   0.418  0.1624 -0.1085  0.1855
 8170TIP3    H124474   2.905   6.292   0.404 -0.9226 -0.3150 -0.3529
 8170TIP3    H224475   2.786   6.385   0.411  0.0567  0.8490  1.4611
 8171TIP3   OH224476   5.060   2.416   1.306  0.2100  0.2128  0.4325
 8171TIP3    H124477   5.055   2.501   1.261  0.9568  0.3619  0.6319
 8171TIP3    H224478   5.153   2.403   1.324  0.4774 -1.7855 -1.7949
 8172TIP3   OH224479   3.972   4.544   1.750 -0.0694  0.2148 -0.9022
 8172TIP3    H124480   4.046   4.483   1.755  0.4527  0.8161 -1.1151
 8172TIP3    H224481   3.990   4.609   1.818  1.0945  1.9469 -2.7407
 8173TIP3   OH224482   6.405   6.269   0.131  0.4240  0.2810  0.4590
 8173TIP3    H124483   6.483   6.245   0.082  0.3928 -1.3951  1.1646
 8173TIP3    H224484   6.333   6.256   0.070  0.4049 -1.5842  0.8319
 8174TIP3   OH224485   1.961   6.238   3.334  0.3409 -0.4951  0.2163
 8174TIP3    H124486   1.879   6.288   3.337 -0.4407 -1.7427  0.6630
 8174TIP3    H224487   2.013   6.273   3.407 -0.0285 -0.0779  0.2837
 8175TIP3   OH224488   3.623   5.481   4.567  0.4363  0.3918  0.2883
 8175TIP3    H124489   3.592   5.517   4.649  1.7284 -0.9061  1.3967
 8175TIP3    H224490   3.551   5.496   4.505 -1.6505 -0.8938  2.2764
 8176TIP3   OH224491   2.510   5.753   1.201 -0.3601  0.0443  0.0876
 8176TIP3    H124492   2.577   5.690   1.226 -0.4710 -0.4060 -0.6883
 8176TIP3    H224493   2.452   5.759   1.277 -0.3139 -0.7599  0.1941
 8177TIP3   OH224494   5.476   0.103   1.480 -0.2425 -0.2327 -0.3141
 8177TIP3    H124495   5.409   0.128   1.543 -0.8252 -1.2485 -0.5141
 8177TIP3    H224496   5.518   0.026   1.518  2.9118  2.0769  1.2725
 8178TIP3   OH224497   4.369   3.619   4.094 -0.5788  0.3082  0.5478
 8178TIP3    H124498   4.281   3.655   4.092 -0.3881  0.8183  1.0160
 8178TIP3    H224499   4.357   3.525   4.108 -1.0150  0.7287  3.6947
 8179TIP3   OH224500   5.666   2.112   2.043 -0.2057 -0.0824 -0.1411
 8179TIP3    H124501   5.720   2.179   2.000 -0.2309  0.7845  1.1103
 8179TIP3    H224502   5.683   2.125   2.137 -1.0294 -1.1453  0.1686
 8180TIP3   OH224503   5.007   2.351   0.248  0.1136 -0.4435 -0.1673
 8180TIP3    H124504   5.058   2.394   0.179  0.3894 -0.7846 -0.1772
 8180TIP3    H224505   4.937   2.413   0.268  0.1814 -0.2344 -0.5757
 8181TIP3   OH224506   5.137   4.131   4.865  0.1973 -0.0622  0.0097
 8181TIP3    H124507   5.161   4.038   4.871 -0.1704 -0.0635  2.0182
 8181TIP3    H224508   5.171   4.169   4.946  1.3874  1.8366 -1.3092
 8182TIP3   OH224509   1.832   5.488   5.468 -0.1101  0.6161  0.3043
 8182TIP3    H124510   1.752   5.516   5.426  0.9585  1.8578 -0.9922
 8182TIP3    H224511   1.860   5.411   5.419  0.1503  0.9556 -0.0922
 8183TIP3   OH224512   3.390   5.070   4.470 -0.0911 -0.6267 -0.2978
 8183TIP3    H124513   3.374   5.161   4.448  0.8066 -0.2650  0.4532
 8183TIP3    H224514   3.304   5.029   4.472 -0.5250  0.2746 -0.3714
 8184TIP3   OH224515   4.205   6.639   3.102 -0.0004  0.2173  0.5368
 8184TIP3    H124516   4.129   6.607   3.053 -0.4907  0.9739  0.7745
 8184TIP3    H224517   4.252   6.695   3.041 -0.1350  0.4705  0.6638
 8185TIP3   OH224518   4.567   2.577   0.521 -0.4921  0.3208  0.3987
 8185TIP3    H124519   4.604   2.494   0.494 -1.2642 -0.0100  0.3418
 8185TIP3    H224520   4.485   2.554   0.564 -0.3540  0.9975  1.0435
 8186TIP3   OH224521   4.992   4.901   1.566 -0.4905  0.1680 -0.2993
 8186TIP3    H124522   5.069   4.907   1.510 -0.6563 -0.0825 -0.5531
 8186TIP3    H224523   5.025   4.864   1.648 -0.3230  0.1601 -0.3708
 8187TIP3   OH224524   2.432   6.629   5.736 -0.0191  0.4530  0.5758
 8187TIP3    H124525   2.510   6.684   5.743  0.2209 -0.0576  2.6180
 8187TIP3    H224526   2.360   6.686   5.764  0.3114 -0.3275  3.3140
 8188TIP3   OH224527   2.892   1.664   0.100  0.2651  1.0107 -0.4312
 8188TIP3    H124528   2.816   1.612   0.125  1.4909 -1.0408 -0.7955
 8188TIP3    H224529   2.902   1.728   0.171  0.7829 -1.5037  1.8993
 8189TIP3   OH224530   4.692   2.983   1.763  0.7782  0.5161 -0.4043
 8189TIP3    H124531   4.628   3.054   1.760  1.6832  1.4031  0.4551
 8189TIP3    H224532   4.646   2.907   1.729 -1.0947  0.8421  1.2355
 8190TIP3   OH224533   4.412   2.153   1.225 -0.0344 -0.5381 -0.1427
 8190TIP3    H124534   4.390   2.062   1.202  0.2580 -0.7664  0.4430
 8190TIP3    H224535   4.394   2.158   1.319 -0.7203  0.2183 -0.3123
 8191TIP3   OH224536   2.878   1.469   0.992 -0.4614 -0.2369  0.4721
 8191TIP3    H124537   2.843   1.425   0.915  0.1570  1.3279 -0.7465
 8191TIP3    H224538   2.853   1.561   0.981  0.1315  0.1124  1.8493
 8192TIP3   OH224539   3.900   0.475   2.554  0.1705  0.0255 -0.0329
 8192TIP3    H124540   3.918   0.406   2.491 -2.0955 -0.9290  0.2879
 8192TIP3    H224541   3.856   0.543   2.503  0.8155  0.4760 -0.0009
 8193TIP3   OH224542   4.859   4.078   3.863  0.5660 -0.0737 -0.2047
 8193TIP3    H124543   4.834   4.014   3.930 -0.8160  1.5201  0.8807
 8193TIP3    H224544   4.953   4.063   3.850  0.5397 -1.4894  0.9063
 8194TIP3   OH224545   1.508   0.275   4.581  0.4795 -0.0200 -0.1780
 8194TIP3    H124546   1.446   0.339   4.546 -1.0412 -1.2174  0.2144
 8194TIP3    H224547   1.593   0.316   4.570 -0.4530  2.2148  0.3723
 8195TIP3   OH224548   5.004   6.784   2.034  0.4338  0.2270  0.2572
 8195TIP3    H124549   4.934   6.846   2.011 -0.2539 -1.1875 -1.6891
 8195TIP3    H224550   4.958   6.707   2.066  1.2140 -0.0698  0.6999
 8196TIP3   OH224551   1.108   6.515   4.129 -0.2560 -0.5703 -0.2196
 8196TIP3    H124552   1.040   6.542   4.192 -0.4588 -1.0787 -0.2224
 8196TIP3    H224553   1.135   6.428   4.158  0.7859 -0.1518  0.1049
 8197TIP3   OH224554   1.911   1.345   5.133  0.2426 -0.4553 -0.0692
 8197TIP3    H124555   1.881   1.380   5.217 -0.8289 -2.0305  0.2582
 8197TIP3    H224556   1.830   1.320   5.088  0.8103  0.2855 -1.5463
 8198TIP3   OH224557   2.624   2.269   1.754  0.2920  0.3338  0.5993
 8198TIP3    H124558   2.605   2.205   1.822  1.2277 -1.4669 -0.7480
 8198TIP3    H224559   2.715   2.252   1.730 -0.8724 -1.4906 -3.3753
 8199TIP3   OH224560   5.253   0.903   1.968  0.4975  0.5256 -0.4666
 8199TIP3    H124561   5.276   0.844   1.897 -1.6593  2.3702 -2.8903
 8199TIP3    H224562   5.287   0.988   1.941 -3.7603  2.1647 -1.5339
 8200TIP3   OH224563   6.633   4.737   0.617 -0.2322  0.1606  0.2638
 8200TIP3    H124564   6.613   4.793   0.692  0.0958  0.0102  0.4617
 8200TIP3    H224565   6.559   4.677   0.612 -1.6096  1.8371 -1.1426
 8201TIP3   OH224566   4.483   4.609   5.216  0.0084 -0.0119 -0.1561
 8201TIP3    H124567   4.396   4.575   5.195 -1.1862  1.3443  2.1513
 8201TIP3    H224568   4.524   4.541   5.269 -0.2224 -0.0402 -0.0180
 8202TIP3   OH224569   0.911   0.385   4.425  0.1687 -0.0339 -0.7253
 8202TIP3    H124570   0.849   0.457   4.435 -1.0210 -1.1322  0.1454
 8202TIP3    H224571   0.976   0.400   4.494  0.1241  0.4039 -0.7758
 8203TIP3   OH224572   1.227   5.947   3.978  0.4429 -0.7877 -0.3535
 8203TIP3    H124573   1.156   6.010   3.968  0.2722 -1.0071 -0.5608
 8203TIP3    H224574   1.287   5.987   4.040  1.3181  0.4406 -1.9390
 8204TIP3   OH224575   3.814   3.187   3.385  0.3251  0.2500 -0.1124
 8204TIP3    H124576   3.745   3.214   3.323 -1.7888 -0.9573  1.5622
 8204TIP3    H224577   3.834   3.097   3.360 -0.3541 -0.1558  0.7515
 8205TIP3   OH224578   1.922   6.407   2.613 -0.7138  0.0952 -0.2024
 8205TIP3    H124579   1.864   6.399   2.538 -0.9162  0.2559 -0.0630
 8205TIP3    H224580   1.900   6.332   2.669  0.5546 -0.9631 -1.0604
 8206TIP3   OH224581   6.572   4.512   5.004 -0.0574  0.2263 -0.4568
 8206TIP3    H124582   6.533   4.582   5.056 -0.1280 -0.4936  0.4865
 8206TIP3    H224583   6.497   4.466   4.966 -0.0627 -0.1514  0.0108
 8207TIP3   OH224584   6.926   4.089   1.797  0.3745 -0.5407 -0.0860
 8207TIP3    H124585   6.966   4.017   1.748  0.9002  0.3480 -1.0114
 8207TIP3    H224586   6.999   4.128   1.845 -0.0318 -1.0272  0.9526
 8208TIP3   OH224587   4.049   5.696   5.647 -0.1745  0.2030 -0.2415
 8208TIP3    H124588   3.988   5.759   5.687 -0.6666 -0.3284 -0.1391
 8208TIP3    H224589   3.995   5.619   5.631  0.7926 -0.8091  1.1471
 8209TIP3   OH224590   1.388   2.567   4.737  0.4192  0.6319  0.0885
 8209TIP3    H124591   1.423   2.551   4.825 -3.5422 -0.4259  1.6809
 8209TIP3    H224592   1.401   2.661   4.723  2.4872  0.5652  1.0501
 8210TIP3   OH224593   3.976   5.295   1.294  0.5248 -0.8282 -0.2357
 8210TIP3    H124594   4.017   5.348   1.226  1.9581 -0.9375  0.5068
 8210TIP3    H224595   3.918   5.235   1.246  0.2620  0.1715 -1.2150
 8211TIP3   OH224596   5.098   3.560   1.820 -0.2269 -0.0188  0.0913
 8211TIP3    H124597   5.024   3.554   1.759 -0.3642 -0.7710  0.3254
 8211TIP3    H224598   5.122   3.653   1.819 -0.5526  0.0647 -0.7180
 8212TIP3   OH224599   1.892   3.780   2.484 -0.6135 -0.0735  0.3257
 8212TIP3    H124600   1.811   3.732   2.468 -0.5099 -0.6843  1.5250
 8212TIP3    H224601   1.868   3.872   2.472 -1.3737 -0.2767  0.2421
 8213TIP3   OH224602   6.330   2.854   3.208  0.0314 -0.1043  0.0669
 8213TIP3    H124603   6.371   2.771   3.184  1.4332  0.5857 -0.0608
 8213TIP3    H224604   6.354   2.866   3.300 -1.3933 -0.5128  0.5145
 8214TIP3   OH224605   5.626   4.438   5.824 -0.3264 -0.4863 -0.8326
 8214TIP3    H124606   5.561   4.368   5.835 -1.1666  0.1197 -1.7312
 8214TIP3    H224607   5.704   4.394   5.791 -0.0509 -1.3126  0.8091
 8215TIP3   OH224608   4.498   4.267   4.013 -0.2218 -0.6381 -0.3117
 8215TIP3    H124609   4.498   4.201   3.943  0.1238 -1.5383  0.5201
 8215TIP3    H224610   4.591   4.290   4.024 -0.3523  0.0835 -0.6771
 8216TIP3   OH224611   5.048   0.035   3.677 -0.2349  0.4288  0.3335
 8216TIP3    H124612   5.019  -0.055   3.690  1.2049 -0.0153  0.6386
 8216TIP3    H224613   5.041   0.050   3.583 -0.7964  0.1288  0.3217
 8217TIP3   OH224614   3.468   0.088   3.626  0.0113 -0.1937  0.3917
 8217TIP3    H124615   3.395   0.046   3.581 -0.0917  1.3558 -0.9733
 8217TIP3    H224616   3.546   0.057   3.581  0.3329 -2.3565  2.2583
 8218TIP3   OH224617   4.890   6.573   0.703  0.3894 -0.2835  0.6106
 8218TIP3    H124618   4.865   6.653   0.658  0.8487 -0.2225  0.4603
 8218TIP3    H224619   4.974   6.593   0.744  0.8644 -0.9156 -0.0374
 8219TIP3   OH224620   4.347   1.160   1.170 -0.1681  0.2019  0.5519
 8219TIP3    H124621   4.275   1.162   1.107  0.0760  1.7960  0.2616
 8219TIP3    H224622   4.351   1.070   1.201  0.4600 -0.9795 -2.5991
 8220TIP3   OH224623   2.246   1.934   0.355 -0.7276 -0.1286  0.4814
 8220TIP3    H124624   2.235   2.029   0.364  0.8805  0.4597 -2.4107
 8220TIP3    H224625   2.201   1.913   0.273  0.4099 -1.5423  0.1854
 8221TIP3   OH224626   1.404   1.394   2.192  0.0631 -0.1208 -0.1028
 8221TIP3    H124627   1.359   1.371   2.111  0.0765 -1.7478  0.3153
 8221TIP3    H224628   1.495   1.366   2.178 -0.0307 -0.8212  0.6154
 8222TIP3   OH224629   5.080   5.861   5.105 -0.2280  0.0917  0.4580
 8222TIP3    H124630   4.999   5.858   5.155 -1.1179 -0.7415 -0.9625
 8222TIP3    H224631   5.118   5.773   5.115  0.2250  0.3087  0.6772
 8223TIP3   OH224632   4.028   4.402   4.663 -0.5240  0.2073 -0.1621
 8223TIP3    H124633   3.955   4.431   4.608  0.5357  2.3646 -0.5653
 8223TIP3    H224634   4.103   4.400   4.603  0.3978  1.3436  0.8997
 8224TIP3   OH224635   6.150   4.596   4.865 -0.3714  0.4985 -0.0082
 8224TIP3    H124636   6.238   4.557   4.870 -0.4107  0.4887  0.9096
 8224TIP3    H224637   6.155   4.658   4.793  0.9932  1.9182  1.2332
 8225TIP3   OH224638   6.943   1.545   1.015 -0.3754  0.3443 -0.1294
 8225TIP3    H124639   6.849   1.529   1.018 -0.6318  1.7323  1.7211
 8225TIP3    H224640   6.977   1.482   0.951 -2.3506 -1.1965  0.2334
 8226TIP3   OH224641   1.169   4.126   0.812 -0.2554  0.3615  0.1129
 8226TIP3    H124642   1.084   4.128   0.767  0.0556 -0.8386 -0.5485
 8226TIP3    H224643   1.159   4.190   0.883 -2.2535 -0.8326  0.9911
 8227TIP3   OH224644   6.811   4.047   4.171 -0.1181 -0.0561 -0.7839
 8227TIP3    H124645   6.776   4.128   4.133  1.0175  0.9282  0.1954
 8227TIP3    H224646   6.883   4.023   4.113  1.6451  1.4717  0.6439
 8228TIP3   OH224647   2.711   5.621   5.442 -0.1885 -0.2236 -0.0895
 8228TIP3    H124648   2.621   5.647   5.460 -0.0098 -1.2463  3.0136
 8228TIP3    H224649   2.719   5.623   5.347 -2.5099  2.9700 -0.3818
 8229TIP3   OH224650   3.755   4.897   1.024  0.1912 -0.1126  0.0620
 8229TIP3    H124651   3.714   4.861   0.945 -0.5310  0.2761  0.2502
 8229TIP3    H224652   3.840   4.855   1.028 -0.6194 -1.7946  0.2833
 8230TIP3   OH224653   5.537   2.794   2.827 -0.1936  0.2394 -0.4491
 8230TIP3    H124654   5.557   2.726   2.891 -1.6783 -0.1244 -0.3150
 8230TIP3    H224655   5.441   2.801   2.830 -0.0655  2.5864 -0.2074
 8231TIP3   OH224656   0.238   0.886   4.449 -0.1802 -0.7435 -0.3896
 8231TIP3    H124657   0.226   0.907   4.357  0.1880 -0.8411 -0.4647
 8231TIP3    H224658   0.160   0.920   4.493 -0.0717 -0.1493 -0.6508
 8232TIP3   OH224659   5.197   3.208   3.461 -0.0299  1.0338 -0.1209
 8232TIP3    H124660   5.284   3.167   3.456 -1.1063 -1.2762 -1.4263
 8232TIP3    H224661   5.195   3.267   3.385  0.3162  0.9325 -0.2132
 8233TIP3   OH224662   6.807   0.096   4.505  0.3771 -0.2727 -0.1873
 8233TIP3    H124663   6.766   0.097   4.419 -0.4635  2.7975  0.1350
 8233TIP3    H224664   6.734   0.105   4.567  1.1789  0.6878  0.6499
 8234TIP3   OH224665   4.367   6.405   4.663  0.5322 -0.6506  0.6542
 8234TIP3    H124666   4.299   6.359   4.613  0.4950  0.2410 -0.1372
 8234TIP3    H224667   4.449   6.368   4.631  0.4603 -1.1873  1.0672
 8235TIP3   OH224668   1.250   4.979   2.126 -0.4987  0.2335 -0.0965
 8235TIP3    H124669   1.239   4.966   2.221  0.3355  0.5536  0.0460
 8235TIP3    H224670   1.337   4.944   2.107 -0.0078  1.6087 -0.4662
 8236TIP3   OH224671   3.023   4.248   3.396 -0.1441 -0.0618  0.4467
 8236TIP3    H124672   3.075   4.312   3.444  2.2297 -2.9376  2.0920
 8236TIP3    H224673   3.007   4.289   3.311 -0.0822  3.2177  1.8726
 8237TIP3   OH224674   1.068   5.545   5.456  0.1608 -0.2650 -0.1159
 8237TIP3    H124675   1.100   5.575   5.371  0.0463 -1.0331 -0.4372
 8237TIP3    H224676   0.973   5.534   5.443 -0.5631  3.2132  1.1754
 8238TIP3   OH224677   7.191   3.451   0.576  0.5023  0.2425  0.3126
 8238TIP3    H124678   7.205   3.447   0.670  0.0060 -1.0544  0.3575
 8238TIP3    H224679   7.096   3.464   0.567  0.5708  0.5319 -0.0067
 8239TIP3   OH224680   6.970   5.572   0.990 -0.5893 -0.1014  0.2025
 8239TIP3    H124681   6.995   5.580   0.898  3.0506 -1.0121  0.9713
 8239TIP3    H224682   7.014   5.645   1.034  0.8854 -1.7566  1.6680
 8240TIP3   OH224683   4.981   1.657   3.788  0.2960 -0.1332  0.3518
 8240TIP3    H124684   5.031   1.683   3.711  1.6960 -0.3637  1.1530
 8240TIP3    H224685   5.014   1.713   3.858 -0.4865 -0.3813  0.9376
 8241TIP3   OH224686   1.589   4.427   2.760  0.4935  0.5023 -0.4875
 8241TIP3    H124687   1.531   4.355   2.734 -1.1991  1.3672  0.7007
 8241TIP3    H224688   1.653   4.432   2.689  0.1025 -1.5383 -1.0726
 8242TIP3   OH224689   0.222   0.537   2.100  0.4088  0.3405 -0.5655
 8242TIP3    H124690   0.161   0.548   2.027 -0.4403  0.1374  0.1014
 8242TIP3    H224691   0.306   0.521   2.058 -0.2505 -0.7985 -1.5192
 8243TIP3   OH224692   4.621   0.553   2.375  0.1768  0.4281  0.2549
 8243TIP3    H124693   4.555   0.569   2.309  0.3401 -1.7500 -0.5051
 8243TIP3    H224694   4.704   0.572   2.331  0.2584 -0.5459 -0.0190
 8244TIP3   OH224695   3.744   4.844   0.107 -0.0157 -0.0420 -0.4824
 8244TIP3    H124696   3.749   4.802   0.021 -1.7016 -0.3147 -0.4715
 8244TIP3    H224697   3.652   4.837   0.132  0.4495 -0.0089  1.3752
 8245TIP3   OH224698   3.490   2.912   5.705  0.2128 -0.0397 -0.3071
 8245TIP3    H124699   3.442   2.839   5.667 -1.0353  0.4659  0.2522
 8245TIP3    H224700   3.568   2.921   5.650 -1.2764  0.3771 -2.4702
 8246TIP3   OH224701   2.013   1.088   3.166 -0.2830  0.5059  0.0990
 8246TIP3    H124702   2.022   1.102   3.072  0.9754 -0.3942  0.0616
 8246TIP3    H224703   2.082   1.142   3.206 -1.6814  1.9953  0.6502
 8247TIP3   OH224704   1.311   0.877   4.606  0.5190  0.0997  0.5136
 8247TIP3    H124705   1.364   0.798   4.596 -0.5369 -0.4398 -1.0334
 8247TIP3    H224706   1.304   0.889   4.701  1.9953 -0.7516  0.7588
 8248TIP3   OH224707   5.086   5.261   4.804 -0.5742  0.4740  1.1735
 8248TIP3    H124708   5.042   5.206   4.739 -1.2919  1.4194  0.8298
 8248TIP3    H224709   5.078   5.212   4.886  0.7580 -0.9531  0.4989
 8249TIP3   OH224710   4.424   0.865   1.693 -0.2386  0.4991  0.4794
 8249TIP3    H124711   4.342   0.817   1.688 -0.2683  0.6083 -0.2987
 8249TIP3    H224712   4.479   0.825   1.625  0.2129  0.6819  0.7313
 8250TIP3   OH224713   1.417   4.942   1.082  0.4227  0.6545 -0.1696
 8250TIP3    H124714   1.464   5.020   1.053 -0.7275  1.5059  0.1979
 8250TIP3    H224715   1.365   4.972   1.157  0.2737 -0.5659  0.2340
 8251TIP3   OH224716   6.809   3.239   4.924  0.3219  0.2775 -0.1015
 8251TIP3    H124717   6.789   3.146   4.911 -2.0229  0.8052 -0.6961
 8251TIP3    H224718   6.738   3.272   4.978  0.6131  1.9267 -0.6598
 8252TIP3   OH224719   4.641   0.619   2.915  0.0806 -0.4645  0.3969
 8252TIP3    H124720   4.691   0.544   2.883 -0.1567 -1.4765  2.2315
 8252TIP3    H224721   4.606   0.661   2.836 -0.0253 -2.4589 -0.6771
 8253TIP3   OH224722   0.096   5.400   1.128 -0.0780 -0.2943 -0.2834
 8253TIP3    H124723   0.170   5.352   1.165  1.2717  0.0004 -2.4806
 8253TIP3    H224724   0.021   5.341   1.141  0.6996 -1.0565  0.9876
 8254TIP3   OH224725   4.408   5.678   5.558  0.2319  0.2833 -0.6933
 8254TIP3    H124726   4.323   5.638   5.541  0.0446  0.0722  0.5994
 8254TIP3    H224727   4.445   5.626   5.630  0.1733  2.1062  0.7342
 8255TIP3   OH224728   1.807   0.942   5.563  0.5825 -0.1832  0.1333
 8255TIP3    H124729   1.879   0.915   5.621  0.3986  0.7790  0.8289
 8255TIP3    H224730   1.754   1.001   5.616 -1.2161 -1.5179 -0.0931
 8256TIP3   OH224731   1.644   2.070   5.704 -0.6583 -0.2348 -0.6118
 8256TIP3    H124732   1.569   2.095   5.758 -1.5821 -0.4206 -1.7501
 8256TIP3    H224733   1.617   2.093   5.615  0.9959  0.4682 -0.9566
 8257TIP3   OH224734   3.649   6.415   0.220 -0.0789 -1.0476 -0.2211
 8257TIP3    H124735   3.686   6.376   0.299  1.5555 -1.0380 -0.9359
 8257TIP3    H224736   3.577   6.357   0.195 -0.6057 -1.0544  1.2436
 8258TIP3   OH224737   3.520   5.198   0.597 -0.8056 -0.5877  0.0930
 8258TIP3    H124738   3.611   5.228   0.601 -0.2817 -1.9916 -0.6669
 8258TIP3    H224739   3.502   5.163   0.684 -0.4542 -0.7634  0.0951
 8259TIP3   OH224740   4.297   4.471   2.300 -0.0583 -0.2800 -0.4125
 8259TIP3    H124741   4.268   4.563   2.303  1.9703  0.4135 -0.9315
 8259TIP3    H224742   4.365   4.469   2.234  0.3728 -2.0600  0.0327
 8260TIP3   OH224743   0.781   6.503   0.660  0.4150 -0.0271  0.1302
 8260TIP3    H124744   0.790   6.597   0.676 -0.0308  0.0853 -0.2435
 8260TIP3    H224745   0.835   6.486   0.583 -1.7497  0.4992 -1.6245
 8261TIP3   OH224746   6.190   5.422   1.999 -0.3463 -0.1235  0.0656
 8261TIP3    H124747   6.204   5.479   1.924  1.0744 -0.3393  0.1367
 8261TIP3    H224748   6.260   5.446   2.061  1.1237 -2.7444 -0.4169
 8262TIP3   OH224749   2.259   4.434   0.375  0.1289 -0.4974  0.2587
 8262TIP3    H124750   2.175   4.405   0.338  0.3168  1.4767 -1.9299
 8262TIP3    H224751   2.325   4.384   0.327  0.2884  0.3278 -0.4060
 8263TIP3   OH224752   1.638   3.180   5.698  0.2493 -0.2958  0.6307
 8263TIP3    H124753   1.573   3.141   5.757  1.2597  0.9804  2.6995
 8263TIP3    H224754   1.629   3.274   5.711  1.3622 -0.0244 -0.3599
 8264TIP3   OH224755   5.136   1.475   0.025 -0.3728 -0.2755 -0.5281
 8264TIP3    H124756   5.052   1.450   0.062 -0.6165  1.8295  0.5076
 8264TIP3    H224757   5.124   1.567  -0.000  1.0795 -0.4575 -2.0294
 8265TIP3   OH224758   0.481   4.651   3.403 -0.0601 -0.1361  0.2324
 8265TIP3    H124759   0.458   4.731   3.355  0.8262 -0.3903 -0.6439
 8265TIP3    H224760   0.464   4.673   3.494 -3.1642 -0.0951 -0.2320
 8266TIP3   OH224761   1.917   4.957   5.277 -0.0091 -0.0984  0.1477
 8266TIP3    H124762   1.962   4.926   5.199  0.0818 -0.0783  0.1919
 8266TIP3    H224763   1.897   4.877   5.327 -2.1618 -0.3458 -0.9998
 8267TIP3   OH224764   2.012   5.585   0.344 -0.0728 -0.1404  0.2897
 8267TIP3    H124765   2.003   5.602   0.250  1.3231 -0.4403  0.0773
 8267TIP3    H224766   1.925   5.555   0.371 -0.3795 -0.5187 -1.0121
 8268TIP3   OH224767   3.512   3.959   5.584  0.3583  0.0379  0.0743
 8268TIP3    H124768   3.433   4.004   5.557  0.6164  0.4372 -0.0285
 8268TIP3    H224769   3.554   3.932   5.501 -0.1017 -0.9485  0.1412
 8269TIP3   OH224770   2.151   4.813   3.962  0.0848  0.9067  0.3181
 8269TIP3    H124771   2.076   4.870   3.977  0.6812  2.0723 -0.9599
 8269TIP3    H224772   2.155   4.758   4.041 -2.1634  0.7177  0.3825
 8270TIP3   OH224773   0.498   5.296   4.377  0.4079  0.0385 -0.2227
 8270TIP3    H124774   0.452   5.318   4.296  0.8649  0.2890 -0.4188
 8270TIP3    H224775   0.584   5.265   4.348  0.5417  0.0456  0.1605
 8271TIP3   OH224776   3.051   5.516   3.017 -0.0712 -0.1672  0.2521
 8271TIP3    H124777   2.960   5.541   3.003 -0.0889 -0.8912 -1.0774
 8271TIP3    H224778   3.099   5.599   3.018 -0.6200  0.1602 -0.0607
 8272TIP3   OH224779   6.940   6.097   0.077 -0.1991 -0.6979  0.0710
 8272TIP3    H124780   6.877   6.097   0.149 -0.2754  1.5023  0.0854
 8272TIP3    H224781   6.910   6.027   0.019 -1.4459 -1.0480  1.0731
 8273TIP3   OH224782   7.014   5.427   4.099 -0.3310 -0.7899  0.2426
 8273TIP3    H124783   6.950   5.380   4.153  0.7470 -0.4020  1.9279
 8273TIP3    H224784   6.961   5.485   4.044 -1.5132 -1.8278  0.2565
 8274TIP3   OH224785   1.563   4.475   0.825 -0.2014  0.3957  0.1770
 8274TIP3    H124786   1.494   4.441   0.883  0.1063 -0.8215 -0.1418
 8274TIP3    H224787   1.532   4.453   0.737 -0.2792  1.5085 -0.0809
 8275TIP3   OH224788   1.236   4.010   0.172 -0.6600  0.4492  0.3695
 8275TIP3    H124789   1.151   4.019   0.215  0.4445  2.1250  2.4139
 8275TIP3    H224790   1.258   3.917   0.180 -1.9490  0.1421  0.5077
 8276TIP3   OH224791   6.204   3.131   1.073  0.0775 -0.0944  0.2593
 8276TIP3    H124792   6.198   3.064   1.005 -0.9403  1.5946 -1.4176
 8276TIP3    H224793   6.124   3.121   1.124 -1.1333  1.1056 -1.2996
 8277TIP3   OH224794   2.014   1.957   5.591 -0.3571 -0.3512  0.2658
 8277TIP3    H124795   2.008   2.046   5.558 -0.2549 -0.9483 -1.4705
 8277TIP3    H224796   1.929   1.940   5.630  0.2220  1.0999  2.3518
 8278TIP3   OH224797   4.414   0.475   2.822 -0.1408  0.1368  0.4309
 8278TIP3    H124798   4.470   0.434   2.756 -2.0099 -0.2638 -1.0061
 8278TIP3    H224799   4.464   0.550   2.854  0.5617  0.7892 -1.9895
 8279TIP3   OH224800   4.360   4.667   4.033  0.0142  0.4998  0.4821
 8279TIP3    H124801   4.265   4.663   4.041  0.0360 -1.6630  0.2814
 8279TIP3    H224802   4.391   4.674   4.123 -0.3095  0.0812  0.6283
 8280TIP3   OH224803   1.151   5.371   1.388 -0.3014  0.0309  0.0139
 8280TIP3    H124804   1.091   5.368   1.463 -0.2804 -2.0139  0.0011
 8280TIP3    H224805   1.106   5.425   1.323 -1.6178 -0.5180  0.4374
 8281TIP3   OH224806   0.670   5.225   2.798  0.5451 -0.0387  0.4345
 8281TIP3    H124807   0.620   5.306   2.810  0.3600 -0.0125 -0.4812
 8281TIP3    H224808   0.624   5.161   2.853  0.2654  0.3007  0.5995
 8282TIP3   OH224809   3.924   4.082   4.134  0.4934 -0.3979 -0.1852
 8282TIP3    H124810   4.004   4.034   4.115  2.0091  1.0192  2.0502
 8282TIP3    H224811   3.859   4.014   4.151  1.3859 -1.5912 -1.3077
 8283TIP3   OH224812   3.283   1.022   1.754  0.0838  0.1397 -0.2690
 8283TIP3    H124813   3.304   1.062   1.670  0.4327 -0.1305 -0.3130
 8283TIP3    H224814   3.209   0.965   1.736  0.4782 -0.3049 -0.5009
 8284TIP3   OH224815   0.912   6.639   4.319 -0.5968 -0.1546 -0.0881
 8284TIP3    H124816   0.849   6.620   4.250 -0.0472 -2.1578 -0.0776
 8284TIP3    H224817   0.962   6.714   4.286 -1.9776  0.5292 -0.7227
 8285TIP3   OH224818   5.893   5.332   4.485  0.0255 -0.1909  0.0168
 8285TIP3    H124819   5.869   5.415   4.444  0.5429  0.7134  1.4886
 8285TIP3    H224820   5.852   5.335   4.571  0.0991 -1.4470  0.1094
 8286TIP3   OH224821   1.229   3.391   5.126  0.6043  0.6214 -0.2158
 8286TIP3    H124822   1.147   3.439   5.131  0.6494  0.7285 -0.4768
 8286TIP3    H224823   1.223   3.324   5.194  1.1233  1.8923  1.1159
 8287TIP3   OH224824   3.623   0.805   4.003  0.2818  0.4875  0.3948
 8287TIP3    H124825   3.681   0.879   4.023 -0.0714  1.0045 -0.4281
 8287TIP3    H224826   3.662   0.765   3.925  0.0704  0.2511  0.4092
 8288TIP3   OH224827   5.945   2.011   4.764 -0.3625  0.2083  0.1532
 8288TIP3    H124828   5.922   1.962   4.843  0.0118  0.6235  0.5195
 8288TIP3    H224829   5.967   1.943   4.699  1.2593 -0.0996  0.9834
 8289TIP3   OH224830   5.321   1.013   3.845  0.0260 -0.4156  0.5398
 8289TIP3    H124831   5.317   0.947   3.775 -0.4678  0.2359 -0.0617
 8289TIP3    H224832   5.230   1.035   3.862  0.2142  1.5253 -0.6545
 8290TIP3   OH224833   6.111   3.266   0.667  0.1708  0.0525 -0.3897
 8290TIP3    H124834   6.175   3.197   0.684  0.7759  0.5587 -0.5654
 8290TIP3    H224835   6.157   3.347   0.688  0.4690  0.6282 -2.8759
 8291TIP3   OH224836   3.145   3.917   0.798  0.2188  0.0148  0.0088
 8291TIP3    H124837   3.092   3.930   0.876  0.0148 -1.1041  0.0625
 8291TIP3    H224838   3.144   4.003   0.754  1.0801  0.9212  1.6614
 8292TIP3   OH224839   6.287   6.236   0.628  0.3017  0.2595 -0.0850
 8292TIP3    H124840   6.217   6.302   0.628  0.3029  0.2693 -1.2279
 8292TIP3    H224841   6.296   6.210   0.537  3.0940  1.6433 -0.3019
 8293TIP3   OH224842   3.707   2.072   3.579 -0.4220  0.4751 -0.0746
 8293TIP3    H124843   3.775   2.100   3.640 -0.1929  0.0316 -0.1244
 8293TIP3    H224844   3.752   2.063   3.495 -0.8161  1.4692 -0.4128
 8294TIP3   OH224845   1.812   1.848   3.735 -0.2019  0.1652 -0.2078
 8294TIP3    H124846   1.732   1.826   3.781 -1.6580  1.9549 -1.7274
 8294TIP3    H224847   1.882   1.830   3.798 -1.9458  0.9447  2.0761
 8295TIP3   OH224848   4.107   0.566   4.204 -0.1856  0.4625  0.6065
 8295TIP3    H124849   4.012   0.556   4.206 -0.6610  3.7805  0.7411
 8295TIP3    H224850   4.128   0.583   4.112  0.0977  0.9406  0.7548
 8296TIP3   OH224851   7.058   2.882   1.342  0.2256  0.1809 -0.0131
 8296TIP3    H124852   7.150   2.899   1.321  2.1687 -3.7929  3.6907
 8296TIP3    H224853   7.045   2.929   1.425 -0.0264 -1.6138  1.0065
 8297TIP3   OH224854   1.522   2.508   1.732 -0.1430  0.2797  0.0509
 8297TIP3    H124855   1.555   2.474   1.815 -0.0697 -0.4108 -0.2484
 8297TIP3    H224856   1.583   2.579   1.709 -0.5998  0.9733  0.9389
 8298TIP3   OH224857   5.453   6.712   3.178  0.8075  0.0326 -0.2185
 8298TIP3    H124858   5.497   6.787   3.138 -0.7120  0.8995 -0.3434
 8298TIP3    H224859   5.360   6.732   3.172  0.4019 -1.2823  0.9142
 8299TIP3   OH224860   3.140   1.582   0.405  0.1417 -0.2061 -0.6121
 8299TIP3    H124861   3.095   1.647   0.351 -1.7354 -0.5270  0.4886
 8299TIP3    H224862   3.207   1.632   0.452  1.4421  0.1720 -2.7330
 8300TIP3   OH224863   0.006   6.580   3.309  0.0428 -0.4761  0.0629
 8300TIP3    H124864  -0.018   6.599   3.400  2.0083  1.1017  0.3416
 8300TIP3    H224865   0.102   6.579   3.310  0.2771  2.5786 -2.4271
 8301TIP3   OH224866   0.531   5.093   1.895  0.1806 -0.2187  0.1421
 8301TIP3    H124867   0.514   4.999   1.902  0.7115 -0.2652  0.9931
 8301TIP3    H224868   0.470   5.132   1.958 -0.2811  0.0397 -0.4599
 8302TIP3   OH224869   3.583   4.916   1.788  0.5465 -0.4002 -0.2627
 8302TIP3    H124870   3.584   4.821   1.777  0.6922 -0.7963  2.4327
 8302TIP3    H224871   3.673   4.938   1.814 -0.0538  0.0484  1.6117
 8303TIP3   OH224872   3.892   2.914   4.065  0.5849  0.1101  0.2297
 8303TIP3    H124873   3.946   2.867   4.002 -0.2778 -1.5259  0.6558
 8303TIP3    H224874   3.889   3.004   4.033 -0.3063 -0.7835 -2.3917
 8304TIP3   OH224875   6.428   0.964   4.037 -0.1006  0.1312 -0.4149
 8304TIP3    H124876   6.487   0.923   3.973  0.7362 -0.1962  0.5312
 8304TIP3    H224877   6.473   0.953   4.121 -2.2501 -1.5982  0.6156
 8305TIP3   OH224878   0.739   5.427   1.413  0.6745  0.1433  0.0838
 8305TIP3    H124879   0.656   5.395   1.449  0.8650 -1.7316 -0.9949
 8305TIP3    H224880   0.804   5.363   1.442  1.9903  2.1824  1.8393
 8306TIP3   OH224881   1.356   1.130   3.857  0.3016  0.2093  0.1394
 8306TIP3    H124882   1.285   1.191   3.841 -0.3472 -0.2580  1.1464
 8306TIP3    H224883   1.370   1.133   3.952 -0.7115 -2.2207  0.4295
 8307TIP3   OH224884   6.012   2.932   3.509 -0.3019  0.3340  0.8516
 8307TIP3    H124885   6.040   3.023   3.497 -0.4378  0.2771  0.0878
 8307TIP3    H224886   6.068   2.899   3.579  2.6053 -0.2297 -1.5828
 8308TIP3   OH224887   5.694   4.840   4.166  0.1217 -0.5136  0.0179
 8308TIP3    H124888   5.761   4.804   4.107  1.7320  1.6394  0.4096
 8308TIP3    H224889   5.648   4.764   4.199  3.0192 -2.2201  0.4701
 8309TIP3   OH224890   0.745   3.264   2.532  0.0007  0.4204  0.3853
 8309TIP3    H124891   0.745   3.338   2.472 -0.3851  1.2888  1.4364
 8309TIP3    H224892   0.800   3.292   2.605  0.3694 -0.5775  0.5076
 8310TIP3   OH224893   1.309   4.035   2.003  0.3786  0.2847  0.4100
 8310TIP3    H124894   1.227   4.001   1.967  0.6927  0.0231 -0.0645
 8310TIP3    H224895   1.284   4.116   2.048  0.1073  1.1495 -1.2303
 8311TIP3   OH224896   6.238   1.652   2.011  0.4737  0.2035  0.0504
 8311TIP3    H124897   6.177   1.652   1.938 -0.0895 -0.6416  0.4958
 8311TIP3    H224898   6.190   1.692   2.083  0.9586  0.8646  0.0160
 8312TIP3   OH224899   4.233   5.690   3.729 -0.1361 -0.3353  0.5849
 8312TIP3    H124900   4.155   5.634   3.729 -0.3196 -0.0860  1.4487
 8312TIP3    H224901   4.298   5.641   3.780  0.2046 -0.4415  0.0549
 8313TIP3   OH224902   3.486   5.237   0.879 -0.0914  0.6315  0.0226
 8313TIP3    H124903   3.467   5.331   0.875  0.8289  0.7703 -1.8117
 8313TIP3    H224904   3.401   5.197   0.901 -1.0620  1.7180 -1.5598
 8314TIP3   OH224905   5.084   1.335   1.575 -0.4195  0.4050 -0.5007
 8314TIP3    H124906   5.081   1.256   1.629  1.2642  0.4532 -0.2839
 8314TIP3    H224907   5.061   1.305   1.487  1.0067 -0.5126 -0.5875
 8315TIP3   OH224908   0.660   4.974   0.959  0.0534 -0.7467 -0.2853
 8315TIP3    H124909   0.673   4.952   1.051  0.5730 -0.2360 -0.2304
 8315TIP3    H224910   0.695   5.063   0.950  0.8463 -1.1213 -1.1618
 8316TIP3   OH224911   5.242   2.330   1.857  0.2935 -0.3878  0.4715
 8316TIP3    H124912   5.290   2.411   1.879 -0.3887  0.3056 -0.4981
 8316TIP3    H224913   5.311   2.268   1.833  0.7411  1.2502 -3.0481
 8317TIP3   OH224914   4.511   4.341   4.889 -0.3808 -0.0364  0.2306
 8317TIP3    H124915   4.514   4.435   4.904  0.8153  0.3866 -2.2361
 8317TIP3    H224916   4.520   4.303   4.977 -1.0386  2.1079  1.2860
 8318TIP3   OH224917   1.549   5.204   2.461 -0.5541 -0.2413  0.7250
 8318TIP3    H124918   1.537   5.124   2.409 -2.2767  0.6873 -0.3943
 8318TIP3    H224919   1.644   5.215   2.465 -0.3041 -0.4272 -2.1955
 8319TIP3   OH224920   4.344   4.204   4.403 -0.3251 -0.4347  0.1942
 8319TIP3    H124921   4.386   4.280   4.443 -1.7082 -0.4815  1.8875
 8319TIP3    H224922   4.278   4.178   4.467 -0.7713 -2.2635 -0.9512
 8320TIP3   OH224923   1.598   5.941   4.681  0.4633 -0.1953 -0.0528
 8320TIP3    H124924   1.669   5.952   4.617  1.8849  2.0301  1.7735
 8320TIP3    H224925   1.548   6.023   4.675 -0.2284 -0.5504  0.7130
 8321TIP3   OH224926   1.532   5.564   3.912  0.7410  0.1153  0.3500
 8321TIP3    H124927   1.590   5.635   3.941  0.7878 -0.6739  2.2941
 8321TIP3    H224928   1.522   5.579   3.818  1.1555  2.3978  0.6175
 8322TIP3   OH224929   3.095   3.877   4.954  0.4784 -0.2462  0.2082
 8322TIP3    H124930   3.109   3.848   4.863 -1.0756 -1.6885  0.3774
 8322TIP3    H224931   3.073   3.969   4.947  0.1160 -0.4046 -0.9207
 8323TIP3   OH224932   7.086   5.410   5.254  0.0266 -0.4686 -0.0784
 8323TIP3    H124933   7.137   5.457   5.188 -1.4635 -0.1706 -1.0756
 8323TIP3    H224934   7.094   5.318   5.228  0.2047 -0.4441 -0.1151
 8324TIP3   OH224935   1.091   0.092   5.175  0.5993  0.5586  0.4561
 8324TIP3    H124936   1.138   0.123   5.097  1.3836 -2.3715 -0.3371
 8324TIP3    H224937   1.000   0.118   5.160  0.8739  0.7118 -1.0785
 8325TIP3   OH224938   5.532   2.767   0.472 -0.3424  0.3989  0.1735
 8325TIP3    H124939   5.565   2.838   0.527  2.0503  0.5231 -1.2654
 8325TIP3    H224940   5.548   2.687   0.523 -2.6184  0.7664  1.6017
 8326TIP3   OH224941   2.133   6.227   2.008 -0.8029  0.1023  0.1446
 8326TIP3    H124942   2.218   6.262   2.033 -0.6492  0.1933 -0.4769
 8326TIP3    H224943   2.079   6.305   1.992 -0.6802  0.0595 -0.5130
 8327TIP3   OH224944   0.752   2.044   4.255  0.2336 -0.1403 -0.1222
 8327TIP3    H124945   0.685   2.087   4.308 -0.2519  0.5844 -1.2757
 8327TIP3    H224946   0.815   2.010   4.318 -0.0338  1.1754  0.8961
 8328TIP3   OH224947   1.663   2.480   2.472  0.1266  0.1705  0.2578
 8328TIP3    H124948   1.686   2.549   2.534 -0.6899  1.2925 -0.6499
 8328TIP3    H224949   1.608   2.420   2.522  1.9058 -0.5684  1.4188
 8329TIP3   OH224950   5.978   2.277   2.622  0.1732 -0.3486 -1.0454
 8329TIP3    H124951   5.916   2.285   2.550 -0.7850  0.3718 -0.1779
 8329TIP3    H224952   6.064   2.289   2.582 -0.4461  1.9296 -1.7963
 8330TIP3   OH224953   5.500   3.893   5.375 -0.0586  0.2601  0.0171
 8330TIP3    H124954   5.530   3.954   5.306  0.9512  0.5054  0.6491
 8330TIP3    H224955   5.507   3.807   5.335  0.9963  0.3609 -0.0412
 8331TIP3   OH224956   2.338   4.848   5.780 -0.0643  0.6085  0.3942
 8331TIP3    H124957   2.430   4.864   5.761 -0.2130 -0.6870 -1.7538
 8331TIP3    H224958   2.290   4.903   5.718 -0.6884 -0.4508 -0.0814
 8332TIP3   OH224959   2.592   4.649   5.183 -0.1544 -0.1400 -0.1681
 8332TIP3    H124960   2.643   4.569   5.199 -1.6013 -1.2488 -0.8153
 8332TIP3    H224961   2.558   4.638   5.094 -3.1903 -0.4887  0.9337
 8333TIP3   OH224962   5.509   1.289   2.558 -0.6575  0.6263 -0.0973
 8333TIP3    H124963   5.586   1.269   2.610 -0.6642 -1.6172 -0.8132
 8333TIP3    H224964   5.435   1.277   2.618 -0.5450  0.4900  0.0130
 8334TIP3   OH224965   0.395   5.765   2.224 -0.1364  0.2885 -0.2702
 8334TIP3    H124966   0.339   5.843   2.231 -0.7018 -0.0795 -0.6040
 8334TIP3    H224967   0.482   5.800   2.208 -0.5381  0.8404 -1.3574
 8335TIP3   OH224968   2.372   3.250   0.878  0.4458 -0.6503 -0.0325
 8335TIP3    H124969   2.341   3.274   0.791  2.5412 -0.2630 -0.7353
 8335TIP3    H224970   2.441   3.314   0.898 -0.5571 -0.1874  2.3142
 8336TIP3   OH224971   3.586   4.762   4.235 -0.2387  0.2544 -0.0811
 8336TIP3    H124972   3.565   4.848   4.199  0.2744  0.3017 -0.2744
 8336TIP3    H224973   3.538   4.701   4.180  1.1336  0.2659 -1.3688
 8337TIP3   OH224974   2.170   0.081   5.631  0.1952 -0.0914  0.2531
 8337TIP3    H124975   2.119   0.017   5.682 -0.3297 -0.6008 -0.8713
 8337TIP3    H224976   2.251   0.035   5.608  0.6795  0.3310  1.0895
 8338TIP3   OH224977   5.345   5.847   5.751  0.3192  0.4234  0.7355
 8338TIP3    H124978   5.429   5.812   5.782  0.6828  0.5928 -0.0379
 8338TIP3    H224979   5.368   5.901   5.675 -0.6125 -0.6292 -0.3450
 8339TIP3   OH224980   2.622   3.068   2.857  0.1111  0.1526 -0.1132
 8339TIP3    H124981   2.540   3.057   2.905 -0.3320 -1.1080 -1.1246
 8339TIP3    H224982   2.609   3.023   2.774  2.2178 -1.0932  0.1373
 8340TIP3   OH224983   5.318   0.412   3.110 -0.5025 -0.7139 -0.2203
 8340TIP3    H124984   5.409   0.436   3.097 -0.7000  0.0963 -0.1207
 8340TIP3    H224985   5.296   0.361   3.032  0.1043 -1.1572 -0.1148
 8341TIP3   OH224986   4.178   0.941   2.450  0.1599  0.0072  0.0995
 8341TIP3    H124987   4.216   1.000   2.515 -0.0320  1.8465 -1.3755
 8341TIP3    H224988   4.175   0.856   2.494  1.5036  0.8271  1.9185
 8342TIP3   OH224989   1.256   3.163   5.311 -0.6037 -0.3070 -0.0972
 8342TIP3    H124990   1.232   3.139   5.400  1.1106 -2.8225 -0.1947
 8342TIP3    H224991   1.217   3.094   5.256 -0.2571  0.2685 -1.1017
 8343TIP3   OH224992   4.178   0.892   1.504  0.2602 -0.3404  0.4714
 8343TIP3    H124993   4.087   0.923   1.505  0.3489 -0.0407 -0.0986
 8343TIP3    H224994   4.173   0.802   1.536 -0.4323 -0.7872 -0.8163
 8344TIP3   OH224995   4.941   5.082   4.652 -0.1986  0.1292  0.1008
 8344TIP3    H124996   4.981   5.071   4.566 -2.0872 -1.2176 -0.6899
 8344TIP3    H224997   4.848   5.099   4.634 -0.8632 -1.2477  1.8388
 8345TIP3   OH224998   5.952   3.081   4.801 -0.1089  0.4043  0.0195
 8345TIP3    H124999   5.977   3.173   4.798 -1.1432  0.7682  1.5093
 8345TIP3    H225000   5.976   3.052   4.889 -0.6127 -0.5006 -0.1222
 8346TIP3   OH225001   6.874   4.421   4.588 -0.3831  0.0298  0.1400
 8346TIP3    H125002   6.854   4.427   4.681  1.3577  3.0165  0.4707
 8346TIP3    H225003   6.803   4.469   4.545 -0.4903 -0.2002  0.0585
 8347TIP3   OH225004   4.653   3.165   2.755  0.3508  0.4219 -0.0161
 8347TIP3    H125005   4.637   3.233   2.690 -1.0054  0.8415  0.7321
 8347TIP3    H225006   4.661   3.211   2.838 -2.1710 -0.3719  0.7669
 8348TIP3   OH225007   4.509   5.598   3.422 -0.2128  0.1060 -0.8819
 8348TIP3    H125008   4.602   5.596   3.445 -0.2911 -1.7297 -0.5373
 8348TIP3    H225009   4.478   5.509   3.439 -2.7802  1.3335  1.8848
 8349TIP3   OH225010   2.304   2.159   1.840 -0.5160 -0.0284  0.1190
 8349TIP3    H125011   2.313   2.064   1.851 -0.6249  0.1091  1.6708
 8349TIP3    H225012   2.270   2.170   1.752 -0.4089 -1.4344 -0.1217
 8350TIP3   OH225013   5.688   2.687   4.767  0.8190  0.0583  0.5919
 8350TIP3    H125014   5.672   2.602   4.808  1.5271 -0.0579  0.6463
 8350TIP3    H225015   5.703   2.746   4.840 -0.2704  0.3710  0.5790
 8351TIP3   OH225016   5.964   4.890   2.084 -0.4182 -0.2658  0.1932
 8351TIP3    H125017   5.938   4.798   2.079 -1.7260 -0.2532  3.7117
 8351TIP3    H225018   6.056   4.888   2.110 -0.0799 -0.5144 -0.9709
 8352TIP3   OH225019   0.955   5.934   5.441  0.2278 -0.1489  0.4927
 8352TIP3    H125020   0.985   5.847   5.467  0.0854 -0.1946  0.4999
 8352TIP3    H225021   0.953   5.983   5.523 -1.9714 -0.7963  0.8749
 8353TIP3   OH225022   0.450   2.976   4.847 -0.4247  0.1792  0.4854
 8353TIP3    H125023   0.420   3.026   4.771  0.9957  1.8938  0.9651
 8353TIP3    H225024   0.541   2.953   4.826 -0.3847 -0.3235  1.1829
 8354TIP3   OH225025   4.462   1.849   4.737 -0.5782  0.6571  0.0588
 8354TIP3    H125026   4.472   1.823   4.645 -1.1802 -0.9429  0.4084
 8354TIP3    H225027   4.369   1.835   4.756  0.0711 -2.0938  1.7310
 8355TIP3   OH225028   3.419   5.968   0.102 -0.1779 -0.0450  0.1242
 8355TIP3    H125029   3.359   5.916   0.155  0.3182  0.3084  1.0385
 8355TIP3    H225030   3.396   5.945   0.011 -0.9715 -0.7106  0.4810
 8356TIP3   OH225031   2.810   3.829   4.726  0.4785 -0.1275 -0.6703
 8356TIP3    H125032   2.893   3.876   4.716  1.5539 -1.8713 -0.3516
 8356TIP3    H225033   2.821   3.749   4.674  0.2807 -1.9333  1.8679
 8357TIP3   OH225034   5.338   4.551   0.623  0.4715  0.0372  0.0053
 8357TIP3    H125035   5.296   4.633   0.598 -0.7674 -1.3148 -2.8703
 8357TIP3    H225036   5.272   4.506   0.676  0.5145  0.2269  0.2220
 8358TIP3   OH225037   3.886   4.949   1.526  0.4302 -0.1693  0.5829
 8358TIP3    H125038   3.893   4.919   1.616 -0.0740  0.1234  0.7251
 8358TIP3    H225039   3.825   5.023   1.530 -0.1525 -0.5914 -0.1011
 8359TIP3   OH225040   0.107   0.801   0.713  0.0131  0.0416 -0.3531
 8359TIP3    H125041   0.189   0.777   0.671 -0.0724  0.4443 -0.7491
 8359TIP3    H225042   0.108   0.896   0.717  0.3390  0.0050  1.1907
 8360TIP3   OH225043   4.252   5.938   1.647 -0.1906  0.3227  0.1309
 8360TIP3    H125044   4.204   6.000   1.593 -0.5635 -0.4799 -0.4807
 8360TIP3    H225045   4.312   5.894   1.586  0.5384  0.5462  0.6790
 8361TIP3   OH225046   3.506   1.612   1.652 -0.2006 -0.2558 -0.3854
 8361TIP3    H125047   3.460   1.644   1.575 -1.9549  1.4260  1.2410
 8361TIP3    H225048   3.437   1.591   1.715  1.1783 -0.7970  1.0347
 8362TIP3   OH225049   5.374   4.120   3.684 -0.2644 -0.2402  0.3587
 8362TIP3    H125050   5.376   4.123   3.779 -0.0559 -0.0746  0.3499
 8362TIP3    H225051   5.455   4.076   3.659  0.2533  0.7592  0.2199
 8363TIP3   OH225052   6.974   2.319   4.728  0.1816 -0.6132  0.0034
 8363TIP3    H125053   7.041   2.375   4.689  0.6655 -0.5443  0.9082
 8363TIP3    H225054   6.894   2.373   4.727  1.0572  0.9449  2.6779
 8364TIP3   OH225055   4.044   6.301   5.120 -0.8064 -0.5021  0.3250
 8364TIP3    H125056   3.986   6.361   5.074 -0.2971 -0.7347 -0.6511
 8364TIP3    H225057   3.986   6.252   5.178 -1.1710  1.2157  1.4838
 8365TIP3   OH225058   7.149   1.246   3.852  0.7205  0.4020 -0.1281
 8365TIP3    H125059   7.175   1.279   3.766 -0.0245 -1.5629 -1.1800
 8365TIP3    H225060   7.208   1.289   3.914  0.6055  2.6571 -1.4853
 8366TIP3   OH225061   5.412   1.887   0.530  0.3626 -0.7409  0.4563
 8366TIP3    H125062   5.485   1.826   0.544  0.3704 -1.0850 -0.8712
 8366TIP3    H225063   5.334   1.831   0.525  0.1728 -0.4975  0.6940
 8367TIP3   OH225064   0.206   1.061   5.428 -0.2825 -0.1262 -0.1319
 8367TIP3    H125065   0.205   1.009   5.348  0.4265  0.7265 -0.7183
 8367TIP3    H225066   0.122   1.042   5.470 -2.0452  1.6150 -2.5428
 8368TIP3   OH225067   0.585   4.590   1.136 -0.0288 -0.4422 -0.0858
 8368TIP3    H125068   0.659   4.642   1.168  1.5392 -1.5857 -1.6076
 8368TIP3    H225069   0.554   4.638   1.059  0.7339 -1.1643 -0.8663
 8369TIP3   OH225070   2.688   1.169   0.277 -0.6206  0.0564  0.3829
 8369TIP3    H125071   2.684   1.093   0.220  0.4511  1.2483 -1.3890
 8369TIP3    H225072   2.766   1.156   0.331  0.6237  0.6568 -1.1758
 8370TIP3   OH225073   2.721   4.017   3.935  0.0098  0.0270 -0.4828
 8370TIP3    H125074   2.740   3.969   3.854  0.0643  0.0064 -0.4573
 8370TIP3    H225075   2.760   4.103   3.921 -1.2384  0.5346 -1.0849
 8371TIP3   OH225076   4.283   0.756   2.741 -0.0820 -0.2355 -0.3975
 8371TIP3    H125077   4.237   0.704   2.675 -1.9373 -1.1603  1.5001
 8371TIP3    H225078   4.375   0.729   2.732 -0.1011  0.2791 -3.0753
 8372TIP3   OH225079   0.768   4.162   2.299 -0.3590  0.3551 -0.2001
 8372TIP3    H125080   0.805   4.185   2.384  0.4726  0.3522 -0.5476
 8372TIP3    H225081   0.761   4.066   2.301  2.1135  0.0656 -1.0483
 8373TIP3   OH225082   1.730   0.281   0.231  0.0064 -0.2788  0.8068
 8373TIP3    H125083   1.688   0.206   0.189 -0.3426  0.2120  0.2711
 8373TIP3    H225084   1.755   0.339   0.159  0.1467  0.1838  1.2210
 8374TIP3   OH225085   4.464   0.522   3.559 -0.1725  0.8101  0.4722
 8374TIP3    H125086   4.380   0.476   3.550  0.3396 -0.7066  2.6306
 8374TIP3    H225087   4.483   0.554   3.471 -1.5134 -1.4815 -0.7550
 8375TIP3   OH225088   6.296   6.253   5.754  0.3168 -0.0428  0.2825
 8375TIP3    H125089   6.277   6.259   5.848  0.7672 -0.4320  0.4032
 8375TIP3    H225090   6.388   6.226   5.750  0.1760 -0.4455 -0.2701
 8376TIP3   OH225091   2.119   6.796   1.106  0.2195 -0.6002 -0.3311
 8376TIP3    H125092   2.110   6.804   1.011  2.0074 -1.1193 -0.5756
 8376TIP3    H225093   2.117   6.702   1.123 -0.7859 -0.4960  0.2585
 8377TIP3   OH225094   4.303   4.150   3.294  0.5742 -0.3943  0.4446
 8377TIP3    H125095   4.320   4.075   3.237 -1.3278 -0.4695 -0.1045
 8377TIP3    H225096   4.379   4.207   3.282 -0.2883  0.2610 -3.3500
 8378TIP3   OH225097   2.485   0.601   0.218 -0.5946 -0.5074  0.6573
 8378TIP3    H125098   2.502   0.510   0.195  1.5171 -0.0075  0.0299
 8378TIP3    H225099   2.542   0.618   0.293 -0.2437  0.5433  0.1680
 8379TIP3   OH225100   2.667   3.501   4.280 -0.1679  0.3793  0.1547
 8379TIP3    H125101   2.682   3.424   4.335 -0.0980  1.0215  1.0519
 8379TIP3    H225102   2.693   3.474   4.192 -2.6732 -1.5113 -0.1149
 8380TIP3   OH225103   2.147   1.889   1.170 -0.3398  0.3271 -0.9662
 8380TIP3    H125104   2.218   1.911   1.109  0.6358 -0.7634 -0.2702
 8380TIP3    H225105   2.186   1.826   1.231 -1.9008 -0.2570 -0.5140
 8381TIP3   OH225106   5.114   6.008   5.492 -0.4480  0.4228  0.2283
 8381TIP3    H125107   5.075   5.922   5.509  2.0448 -0.8660 -0.0614
 8381TIP3    H225108   5.077   6.035   5.408 -1.0408 -0.4951  0.1767
 8382TIP3   OH225109   0.683   2.985   5.595  0.2979  0.0529 -0.3458
 8382TIP3    H125110   0.616   3.053   5.584  1.9768  2.0896  1.1795
 8382TIP3    H225111   0.760   3.021   5.552  1.1551 -1.0333  0.2379
 8383TIP3   OH225112   0.899   4.462   0.295  0.2789 -0.0059  0.2144
 8383TIP3    H125113   0.902   4.479   0.201 -0.3678  0.0636  0.2022
 8383TIP3    H225114   0.813   4.494   0.322  0.3233 -0.3475  0.7683
 8384TIP3   OH225115   0.419   2.501   5.094 -0.1179 -0.3987 -0.3145
 8384TIP3    H125116   0.439   2.467   5.007 -0.5992 -0.8571 -0.2507
 8384TIP3    H225117   0.406   2.595   5.080  1.2630 -0.2008 -0.4868
 8385TIP3   OH225118   2.758   1.866   4.650  0.9765  0.4515 -0.7922
 8385TIP3    H125119   2.725   1.880   4.738 -0.8631 -0.3715 -1.3140
 8385TIP3    H225120   2.756   1.952   4.609  3.0792  1.0986  0.3089
 8386TIP3   OH225121   2.242   6.554   0.605 -0.0391 -0.0294 -0.5304
 8386TIP3    H125122   2.165   6.609   0.615  0.3232  0.6562 -1.3854
 8386TIP3    H225123   2.316   6.614   0.617  0.3798 -0.8518  1.2216
 8387TIP3   OH225124   2.616   1.537   4.623  0.8240  0.0136  0.3049
 8387TIP3    H125125   2.529   1.574   4.612 -0.0649 -1.8469  0.6750
 8387TIP3    H225126   2.629   1.535   4.718  1.0893 -0.1013  0.2672
 8388TIP3   OH225127   7.131   0.057   4.134  0.1950 -0.0927 -0.1952
 8388TIP3    H125128   7.111  -0.032   4.164  1.6812 -0.9770 -1.6670
 8388TIP3    H225129   7.169   0.101   4.210  0.7102 -1.1801  0.1871
 8389TIP3   OH225130   3.119   6.476   4.627  0.5506  0.1421  0.5952
 8389TIP3    H125131   3.202   6.477   4.578  0.3343 -1.4080  0.1623
 8389TIP3    H225132   3.110   6.566   4.659  2.2462  0.4227  0.3988
 8390TIP3   OH225133   5.467   0.967   4.675 -0.2915  0.4096 -0.1191
 8390TIP3    H125134   5.390   1.023   4.680 -0.3973  0.1930  0.9348
 8390TIP3    H225135   5.462   0.911   4.753  2.1288  1.9666  1.3155
 8391TIP3   OH225136   3.625   3.662   4.167  0.6845 -0.1694  0.3608
 8391TIP3    H125137   3.664   3.749   4.178  1.5257 -0.4704 -0.1418
 8391TIP3    H225138   3.656   3.633   4.081 -0.2074 -0.6529  0.1984
 8392TIP3   OH225139   4.091   6.667   1.565 -0.3547 -0.3403  0.2908
 8392TIP3    H125140   4.021   6.609   1.594 -0.2349 -0.2708  0.7180
 8392TIP3    H225141   4.133   6.620   1.493 -1.0830 -0.2204 -0.2284
 8393TIP3   OH225142   6.359   2.876   2.850 -0.0478  0.3831 -0.7850
 8393TIP3    H125143   6.338   2.958   2.806 -2.0728  0.1073 -0.4220
 8393TIP3    H225144   6.436   2.896   2.903  0.2989  1.6616 -1.7410
 8394TIP3   OH225145   3.395   1.392   3.482 -0.1498  0.1354 -0.0839
 8394TIP3    H125146   3.383   1.487   3.489  0.2928  0.3122 -1.3913
 8394TIP3    H225147   3.484   1.377   3.516  0.2939  0.3844 -1.0942
 8395TIP3   OH225148   1.407   2.773   4.051 -0.7692 -0.0585  0.2018
 8395TIP3    H125149   1.462   2.701   4.083 -0.1814  0.3326  0.0975
 8395TIP3    H225150   1.362   2.805   4.129 -1.2709 -0.7351  0.1959
 8396TIP3   OH225151   1.026   0.395   4.678  0.2265  0.0728  0.0155
 8396TIP3    H125152   0.977   0.409   4.760  0.3639 -1.4149  0.3826
 8396TIP3    H225153   1.103   0.345   4.705 -0.4514 -1.7285 -1.1948
 8397TIP3   OH225154   5.359   2.546   1.994 -0.2835 -0.2348  0.2409
 8397TIP3    H125155   5.386   2.622   1.942  1.2849 -1.0749 -0.2402
 8397TIP3    H225156   5.278   2.574   2.037  0.3400  1.7734  0.2345
 8398TIP3   OH225157   7.003   3.979   3.004  0.2868 -0.0509  0.6574
 8398TIP3    H125158   6.916   3.996   3.038 -0.1049 -1.8313  0.6105
 8398TIP3    H225159   7.025   4.058   2.954 -0.9318  0.7649  1.3668
 8399TIP3   OH225160   0.778   3.925   1.270 -0.3579  0.0364  0.4210
 8399TIP3    H125161   0.715   3.975   1.219 -2.6430 -2.4716  0.5876
 8399TIP3    H225162   0.849   3.905   1.208 -0.7255  1.1047 -0.3657
 8400TIP3   OH225163   0.462   1.871   0.745 -0.1584 -0.1683 -0.8119
 8400TIP3    H125164   0.451   1.921   0.825  1.7208 -1.9074  0.6506
 8400TIP3    H225165   0.382   1.820   0.737  0.4079 -1.5167  1.2055
 8401TIP3   OH225166   0.314   6.203   2.689 -0.7283 -0.0844 -0.0223
 8401TIP3    H125167   0.302   6.276   2.629 -0.9291  0.9326  1.2187
 8401TIP3    H225168   0.244   6.141   2.665 -0.7094  0.2271 -0.9204
 8402TIP3   OH225169   1.606   2.215   0.996  0.1735 -0.1274 -0.1099
 8402TIP3    H125170   1.590   2.174   1.081  2.3529 -0.2934  0.2689
 8402TIP3    H225171   1.661   2.290   1.016  1.9564 -0.9986 -1.4954
 8403TIP3   OH225172   0.167   2.440   0.270  0.4418 -0.4552  0.4747
 8403TIP3    H125173   0.232   2.375   0.295  0.8973 -0.2197 -0.0629
 8403TIP3    H225174   0.096   2.429   0.333  0.5357 -1.4270  0.4239
 8404TIP3   OH225175   0.727   2.477   1.310 -0.0997 -0.1150 -0.2923
 8404TIP3    H125176   0.815   2.487   1.347  0.3388 -1.6948 -0.8001
 8404TIP3    H225177   0.680   2.425   1.375 -0.1275 -0.6775 -0.7510
 8405TIP3   OH225178   5.996   1.133   0.085  0.3346 -0.0411 -0.4893
 8405TIP3    H125179   5.950   1.216   0.072 -1.1081 -0.0680  3.1055
 8405TIP3    H225180   5.926   1.069   0.100  1.4680 -1.5657 -1.4199
 8406TIP3   OH225181   2.826   3.350   1.161 -0.0234 -0.3069  0.3570
 8406TIP3    H125182   2.851   3.402   1.084  1.0954  0.1758  1.0178
 8406TIP3    H225183   2.744   3.389   1.191 -0.4415 -0.4586 -0.5341
 8407TIP3   OH225184   4.806   6.515   3.034  0.3468  0.0375  0.0474
 8407TIP3    H125185   4.716   6.546   3.039  0.3305 -0.1252  0.8726
 8407TIP3    H225186   4.828   6.488   3.123  0.3574 -2.3603 -0.6122
 8408TIP3   OH225187   0.572   6.672   3.662  0.0242  0.4092 -0.2892
 8408TIP3    H125188   0.520   6.636   3.590 -0.7561 -1.8221  1.2623
 8408TIP3    H225189   0.508   6.716   3.718  0.3474  0.6553 -0.1123
 8409TIP3   OH225190   3.155   0.880   3.929  0.6078  0.4223 -0.5297
 8409TIP3    H125191   3.147   0.839   4.015  1.1395  0.1996 -0.5805
 8409TIP3    H225192   3.079   0.849   3.880  0.4784  0.2863 -0.2482
 8410TIP3   OH225193   3.171   3.825   1.108 -0.5232  0.0628  0.2457
 8410TIP3    H125194   3.181   3.734   1.081  0.2156 -0.4330  1.9983
 8410TIP3    H225195   3.255   3.866   1.090  0.2417 -0.4680  2.2936
 8411TIP3   OH225196   3.133   6.681   4.815 -0.7204 -0.2171 -0.3171
 8411TIP3    H125197   3.156   6.743   4.745 -0.0592 -0.7630 -0.5861
 8411TIP3    H225198   3.106   6.737   4.888  1.9563  0.4934  0.2067
 8412TIP3   OH225199   2.022   0.650   4.112 -0.4042 -0.3071 -0.2125
 8412TIP3    H125200   2.084   0.698   4.168 -1.3886 -1.4188  1.9537
 8412TIP3    H225201   1.953   0.714   4.092 -0.0812  0.0846 -0.0791
 8413TIP3   OH225202   0.411   1.276   4.994  0.8599  0.5348 -0.0043
 8413TIP3    H125203   0.380   1.265   5.084  0.5008  0.4228 -0.1408
 8413TIP3    H225204   0.385   1.196   4.949 -1.3794  1.6832 -0.8872
 8414TIP3   OH225205   0.441   4.903   3.262  0.0681 -0.4632 -0.1237
 8414TIP3    H125206   0.445   4.933   3.171 -1.3760  0.1291 -0.0173
 8414TIP3    H225207   0.491   4.968   3.310  0.2879 -0.4139 -0.4158
 8415TIP3   OH225208   6.056   2.817   0.236 -0.2526  0.2778  0.0604
 8415TIP3    H125209   5.997   2.795   0.309 -0.5997  1.4246  0.1365
 8415TIP3    H225210   6.115   2.883   0.272 -0.6009  1.0578 -0.7728
 8416TIP3   OH225211   5.364   6.237   3.479 -0.1698  0.4825  0.3038
 8416TIP3    H125212   5.413   6.161   3.449  1.4151  1.7188 -0.3505
 8416TIP3    H225213   5.400   6.257   3.565  0.5804  1.4403 -0.2106
 8417TIP3   OH225214   0.172   1.602   5.091 -0.1380  0.2169 -0.7842
 8417TIP3    H125215   0.251   1.605   5.144  0.3736 -0.0222 -1.5091
 8417TIP3    H225216   0.134   1.690   5.101  0.6864  0.6269 -1.1042
 8418TIP3   OH225217   3.626   0.136   4.516  0.2337  0.3753  0.6213
 8418TIP3    H125218   3.699   0.090   4.473  0.5913  0.2546  1.3358
 8418TIP3    H225219   3.663   0.222   4.538  0.0706  0.4187  0.7223
 8419TIP3   OH225220   6.664   0.268   5.846  0.6892  0.1417  0.0838
 8419TIP3    H125221   6.724   0.261   5.771 -0.2944  1.5656 -0.8787
 8419TIP3    H225222   6.669   0.182   5.888  2.2735 -0.2552 -0.8304
 8420TIP3   OH225223   4.780   0.892   4.346 -0.7053  0.2119  0.3036
 8420TIP3    H125224   4.716   0.828   4.375 -0.4537 -0.3648 -0.3911
 8420TIP3    H225225   4.790   0.876   4.252  0.3135  0.4034  0.3648
 8421TIP3   OH225226   3.884   3.684   4.865 -0.3744  0.0598  0.3397
 8421TIP3    H125227   3.815   3.742   4.832 -0.2964  0.1969  0.4165
 8421TIP3    H225228   3.847   3.596   4.856 -1.6131  0.2523  2.7891
 8422TIP3   OH225229   2.458   1.472   4.002  0.2136  0.1412 -0.1237
 8422TIP3    H125230   2.551   1.455   4.017 -0.0689 -0.4491  1.1129
 8422TIP3    H225231   2.413   1.417   4.066 -0.9719  0.8396 -0.3217
 8423TIP3   OH225232   6.817   1.045   0.556 -0.0070  0.3043 -0.0491
 8423TIP3    H125233   6.890   1.042   0.494 -0.5363  1.7233 -0.8003
 8423TIP3    H225234   6.763   0.969   0.534  0.8299 -0.3029 -0.0198
 8424TIP3   OH225235   7.159   0.746   5.800 -0.3553  0.1594 -0.1834
 8424TIP3    H125236   7.153   0.821   5.859 -1.1691  1.7153 -2.1384
 8424TIP3    H225237   7.160   0.670   5.858 -1.4742  1.5810  1.8113
 8425TIP3   OH225238   2.271   3.532   5.715 -0.0807 -0.2227  0.0012
 8425TIP3    H125239   2.304   3.443   5.723  0.3999 -0.0287  0.2027
 8425TIP3    H225240   2.211   3.542   5.789  1.4105  0.2819  1.1957
 8426TIP3   OH225241   5.468   2.915   3.877 -0.2766  0.2338 -0.0587
 8426TIP3    H125242   5.427   2.989   3.833  1.0763  0.9669 -0.1330
 8426TIP3    H225243   5.560   2.922   3.854  0.0269 -0.9131  0.7424
 8427TIP3   OH225244   6.782   1.507   0.335 -0.4691  0.4918 -0.4790
 8427TIP3    H125245   6.795   1.550   0.419  1.8198 -3.2209  1.3340
 8427TIP3    H225246   6.698   1.462   0.344  0.0017 -0.2987  0.0743
 8428TIP3   OH225247   6.709   4.077   5.111  0.3082 -0.1395  0.0555
 8428TIP3    H125248   6.797   4.111   5.127  0.4780 -0.8680  0.7482
 8428TIP3    H225249   6.714   3.986   5.138 -0.8980  0.0407  0.9468
 8429TIP3   OH225250   2.648   0.675   3.301  0.1233 -0.3696  0.5744
 8429TIP3    H125251   2.560   0.682   3.265 -0.0210 -2.0812  0.4991
 8429TIP3    H225252   2.706   0.704   3.231 -0.2456 -1.9981 -0.4590
 8430TIP3   OH225253   3.509   3.291   0.292  0.3895 -0.0814  0.1200
 8430TIP3    H125254   3.503   3.345   0.214 -2.1484 -2.5696 -1.5963
 8430TIP3    H225255   3.474   3.346   0.362 -0.6335  1.0217 -1.2173
 8431TIP3   OH225256   5.271   6.189   1.902  0.3220 -0.3264  0.1951
 8431TIP3    H125257   5.199   6.252   1.905  0.7965  0.2017  0.7629
 8431TIP3    H225258   5.331   6.225   1.837  0.1869 -0.6480 -0.1106
 8432TIP3   OH225259   3.331   0.512   1.105  0.0299  0.2585 -0.0815
 8432TIP3    H125260   3.363   0.582   1.047 -0.6062 -0.2533 -1.0811
 8432TIP3    H225261   3.409   0.460   1.125  0.1902  0.1755 -0.8690
 8433TIP3   OH225262   1.754   3.602   0.412 -0.1845 -0.3117 -0.8582
 8433TIP3    H125263   1.724   3.690   0.436 -0.5301 -0.0344 -2.2049
 8433TIP3    H225264   1.786   3.564   0.494  0.3785  1.2260 -0.3312
 8434TIP3   OH225265   1.874   6.764   0.896  0.1573  0.0316  0.1054
 8434TIP3    H125266   1.865   6.807   0.981  0.9301 -1.0468  0.7572
 8434TIP3    H225267   1.836   6.677   0.908  0.4108 -0.1849 -0.5992
 8435TIP3   OH225268   1.332   1.994   4.334  0.2470  0.5162 -0.0143
 8435TIP3    H125269   1.251   2.026   4.293 -0.4396  0.1580  1.0326
 8435TIP3    H225270   1.329   1.899   4.321 -0.3132  0.3217  1.4347
 8436TIP3   OH225271   0.118   5.695   3.616 -0.2832  0.4527  0.0662
 8436TIP3    H125272   0.145   5.755   3.686 -3.4498 -0.0057  1.8715
 8436TIP3    H225273   0.074   5.752   3.552 -1.0391  0.4319  0.5434
 8437TIP3   OH225274   5.111   1.945   3.721  0.5968  0.8546  0.0422
 8437TIP3    H125275   5.015   1.940   3.713  0.5010  0.5042  1.2379
 8437TIP3    H225276   5.129   2.039   3.727  0.0737  0.8626  2.2257
 8438TIP3   OH225277   5.448   0.607   0.896  0.0326  0.1253  0.0026
 8438TIP3    H125278   5.358   0.611   0.863  0.3902  1.0711 -0.9176
 8438TIP3    H225279   5.441   0.623   0.990 -0.6212  1.8639 -0.3133
 8439TIP3   OH225280   4.542   4.112   1.012 -0.4399 -0.4344 -0.0209
 8439TIP3    H125281   4.477   4.060   0.964  0.2846 -0.1971 -1.3048
 8439TIP3    H225282   4.494   4.191   1.038 -1.2410 -1.2210  0.9570
 8440TIP3   OH225283   3.843   2.893   0.122  0.5129 -0.0518 -0.1712
 8440TIP3    H125284   3.927   2.900   0.166  0.4292  0.5799 -0.1135
 8440TIP3    H225285   3.787   2.958   0.164 -0.0486 -0.5523 -0.1169
 8441TIP3   OH225286   1.697   5.147   0.342 -0.1648  0.6308 -0.1990
 8441TIP3    H125287   1.622   5.196   0.308 -1.7166 -2.6584 -1.9757
 8441TIP3    H225288   1.737   5.109   0.264 -0.4521 -2.6672  1.1236
 8442TIP3   OH225289   0.440   4.529   2.865  0.5340  0.4458  0.3077
 8442TIP3    H125290   0.369   4.482   2.822  0.4956 -0.1132  0.9662
 8442TIP3    H225291   0.480   4.464   2.923 -0.3565  1.5836  2.2548
 8443TIP3   OH225292   0.092   6.171   0.913  0.3557  0.2628 -0.2637
 8443TIP3    H125293   0.078   6.262   0.886 -2.3163  0.1889  0.5701
 8443TIP3    H225294   0.184   6.168   0.939  1.0956  2.1535 -2.2695
 8444TIP3   OH225295   5.411   3.978   1.915  0.6617  0.1250 -0.0799
 8444TIP3    H125296   5.501   3.953   1.938  2.1729  3.5629 -1.5129
 8444TIP3    H225297   5.415   3.997   1.821 -1.2128  1.6864  0.0993
 8445TIP3   OH225298   4.843   4.793   3.392 -0.4516  0.3241 -0.7258
 8445TIP3    H125299   4.867   4.715   3.343  1.1086  0.9357 -1.0007
 8445TIP3    H225300   4.882   4.780   3.478  0.4073  1.0919 -0.9920
 8446TIP3   OH225301   2.307   5.202   1.446  0.0522 -0.1724 -0.3274
 8446TIP3    H125302   2.354   5.241   1.373 -1.3879  0.1148 -1.1305
 8446TIP3    H225303   2.376   5.175   1.507  1.2094  0.9264 -1.0989
 8447TIP3   OH225304   2.079   0.896   0.658  0.1032 -0.2800 -0.1281
 8447TIP3    H125305   2.159   0.928   0.700 -0.2889  0.8185 -0.1627
 8447TIP3    H225306   2.108   0.823   0.604  1.3466  0.9117 -1.1753
 8448TIP3   OH225307   6.456   4.872   1.025 -0.0129  0.0569  0.5469
 8448TIP3    H125308   6.480   4.805   0.961  2.6411  1.7603 -0.4214
 8448TIP3    H225309   6.485   4.836   1.109 -0.1406 -0.6718  0.2849
 8449TIP3   OH225310   3.076   1.885   2.287  0.3813 -0.3796 -0.4460
 8449TIP3    H125311   3.065   1.790   2.281 -0.6109 -0.2048 -1.6132
 8449TIP3    H225312   3.110   1.911   2.202  2.4727  0.1147  0.4815
 8450TIP3   OH225313   4.353   2.860   0.089  0.3029 -0.2507  0.1391
 8450TIP3    H125314   4.329   2.792   0.151 -0.5209 -0.1701 -0.0765
 8450TIP3    H225315   4.448   2.863   0.092  0.3146 -0.9318  0.6581
 8451TIP3   OH225316   0.191   4.735   2.847 -0.1834  0.2205 -0.1489
 8451TIP3    H125317   0.134   4.804   2.882  0.1738  1.0114 -1.0801
 8451TIP3    H225318   0.234   4.776   2.771  1.8783 -0.2255  0.7178
 8452TIP3   OH225319   2.253   1.349   2.091 -0.1925 -0.1109  0.2892
 8452TIP3    H125320   2.254   1.348   2.187  0.8162  2.9871  0.4272
 8452TIP3    H225321   2.325   1.292   2.065  0.2206 -0.1330  1.4284
 8453TIP3   OH225322   6.987   1.727   0.799  0.2673  0.0875  0.4558
 8453TIP3    H125323   6.975   1.701   0.890 -0.6380 -0.1537  0.2813
 8453TIP3    H225324   7.054   1.796   0.802  1.0123 -0.6529  1.1718
 8454TIP3   OH225325   6.642   6.241   1.563 -0.5625 -0.0842  0.3042
 8454TIP3    H125326   6.683   6.328   1.567  0.6297 -0.5602 -0.9584
 8454TIP3    H225327   6.705   6.184   1.607 -0.6638 -0.5581 -0.1710
 8455TIP3   OH225328   1.340   3.035   3.061  0.3259 -0.4058  0.7665
 8455TIP3    H125329   1.426   3.071   3.084  0.9323 -1.5601  0.3579
 8455TIP3    H225330   1.358   2.971   2.992 -1.0424  0.3808 -0.3738
 8456TIP3   OH225331   0.006   4.041   0.070 -0.6024  0.3294  0.2416
 8456TIP3    H125332  -0.008   3.948   0.053  0.1770  0.1263  0.6485
 8456TIP3    H225333   0.020   4.046   0.164 -2.5561  1.1313  0.5263
 8457TIP3   OH225334   0.169   6.421   0.784 -0.0280  0.4897  0.3846
 8457TIP3    H125335   0.193   6.353   0.721  0.4764  1.3420 -0.3519
 8457TIP3    H225336   0.237   6.488   0.776 -1.0674  1.5779  0.3550
 8458TIP3   OH225337   0.489   1.730   1.400  0.6898 -0.1366 -0.1640
 8458TIP3    H125338   0.394   1.728   1.391  0.3603  3.6897  0.5288
 8458TIP3    H225339   0.519   1.770   1.318  1.6856 -1.0803 -0.2679
 8459TIP3   OH225340   2.017   4.100   4.647  0.5036 -0.0253 -0.2130
 8459TIP3    H125341   1.958   4.058   4.585  0.8232  0.7066 -1.0429
 8459TIP3    H225342   2.068   4.028   4.684 -0.0333 -0.5260 -0.4263
 8460TIP3   OH225343   1.760   2.810   2.173 -0.0181  0.5675 -0.0854
 8460TIP3    H125344   1.850   2.829   2.200 -0.0033  1.1349 -0.5158
 8460TIP3    H225345   1.706   2.872   2.223 -0.2048 -0.0127  0.4389
 8461TIP3   OH225346   0.843   4.283   4.054 -0.2483  0.2730  0.4588
 8461TIP3    H125347   0.877   4.336   3.982  0.8064  1.4739  1.7736
 8461TIP3    H225348   0.803   4.208   4.011  2.0725 -0.0720 -1.3307
 8462TIP3   OH225349   5.047   6.316   5.396  0.0941  0.1273 -0.1070
 8462TIP3    H125350   5.136   6.325   5.431 -0.0474  1.5910 -0.0734
 8462TIP3    H225351   5.054   6.244   5.333  0.9952 -0.6641  0.8379
 8463TIP3   OH225352   1.132   5.405   2.148  0.0734  0.7578 -0.3955
 8463TIP3    H125353   1.109   5.312   2.148  1.2289  0.4476 -0.5415
 8463TIP3    H225354   1.088   5.441   2.225 -1.8987  0.5123 -1.3570
 8464TIP3   OH225355   0.743   5.416   1.122  1.0998 -0.2320 -0.2880
 8464TIP3    H125356   0.723   5.418   1.216  0.0922 -3.4770 -0.3067
 8464TIP3    H225357   0.659   5.432   1.079  1.6615  1.8285 -0.7269
 8465TIP3   OH225358   4.540   6.610   3.092  0.4595 -0.3981 -0.4965
 8465TIP3    H125359   4.499   6.612   3.179 -1.1142 -0.6330 -1.1911
 8465TIP3    H225360   4.538   6.701   3.063  1.8647 -0.1642  0.0768
 8466TIP3   OH225361   5.693   4.293   4.630 -0.0342  0.4728  0.1050
 8466TIP3    H125362   5.605   4.330   4.622  0.2894  1.1487 -0.4285
 8466TIP3    H225363   5.731   4.304   4.543  1.5758  2.7724  1.0343
 8467TIP3   OH225364   0.798   6.377   1.697  0.5735  0.5773  0.8806
 8467TIP3    H125365   0.890   6.368   1.673  0.5461 -1.2244  1.3575
 8467TIP3    H225366   0.797   6.445   1.765  1.2176  2.3353 -0.7718
 8468TIP3   OH225367   2.104   4.782   2.390 -0.0645  0.0086 -0.0991
 8468TIP3    H125368   2.088   4.688   2.386  2.2243 -0.4061 -1.1915
 8468TIP3    H225369   2.185   4.794   2.341 -1.5508  2.8641 -2.1351
 8469TIP3   OH225370   1.608   5.306   4.452  0.8849 -0.1088  0.2325
 8469TIP3    H125371   1.614   5.211   4.463  0.3444 -0.2660 -0.6900
 8469TIP3    H225372   1.686   5.329   4.402  0.3882 -0.2672 -0.6412
 8470TIP3   OH225373   5.490   1.434   1.945  0.3218 -0.6218 -0.5186
 8470TIP3    H125374   5.467   1.500   1.879  0.0558  1.6813  1.7232
 8470TIP3    H225375   5.406   1.392   1.967 -0.1616  0.8340  0.5589
 8471TIP3   OH225376   6.386   0.111   4.390 -0.1744 -0.5550 -0.6085
 8471TIP3    H125377   6.418   0.023   4.410  0.5703 -0.4893 -1.4656
 8471TIP3    H225378   6.347   0.141   4.472  1.7697 -0.7310  0.4478
 8472TIP3   OH225379   1.790   2.342   4.055  0.2844  0.5066  0.3907
 8472TIP3    H125380   1.797   2.247   4.066  0.1329  0.2878 -1.2469
 8472TIP3    H225381   1.696   2.358   4.045  0.2323  0.9440  1.3901
 8473TIP3   OH225382   0.585   3.958   4.724  0.3542 -0.0997  0.0469
 8473TIP3    H125383   0.532   3.991   4.797  0.2335  3.4403 -1.4234
 8473TIP3    H225384   0.662   4.015   4.723  1.2389 -1.2408 -1.5107
 8474TIP3   OH225385   5.980   1.288   1.401  0.2433  0.4406  0.2602
 8474TIP3    H125386   5.901   1.235   1.404  1.6002 -1.7258 -0.4424
 8474TIP3    H225387   5.991   1.319   1.491 -0.6281 -0.4089  0.6784
 8475TIP3   OH225388   1.261   4.355   2.468 -0.1968  0.1659 -0.0490
 8475TIP3    H125389   1.231   4.369   2.558 -1.1840 -0.7702 -0.2149
 8475TIP3    H225390   1.259   4.259   2.457 -0.7232  0.3062 -1.2762
 8476TIP3   OH225391   0.097   4.423   4.425 -0.0993  0.7413 -0.3565
 8476TIP3    H125392   0.004   4.417   4.404  0.2166 -1.7318 -1.4449
 8476TIP3    H225393   0.106   4.505   4.473 -2.9588  0.6634  0.4941
 8477TIP3   OH225394   1.148   0.704   4.846  0.3239  0.1925 -0.1234
 8477TIP3    H125395   1.122   0.795   4.866  0.1316 -0.3001  2.1491
 8477TIP3    H225396   1.078   0.651   4.884  1.4652 -0.9730  0.3893
 8478TIP3   OH225397   3.593   5.971   3.662  0.0760 -0.4436  0.4104
 8478TIP3    H125398   3.503   5.937   3.661  0.1543 -0.7106 -1.4089
 8478TIP3    H225399   3.617   5.977   3.569  2.4338 -1.7162  0.8592
 8479TIP3   OH225400   4.599   4.695   1.279  0.2624  0.4661  0.1229
 8479TIP3    H125401   4.682   4.723   1.320 -0.2382  0.3357  1.2722
 8479TIP3    H225402   4.538   4.766   1.298 -0.1487  0.1075  0.1542
 8480TIP3   OH225403   0.530   1.868   5.321 -0.0697  0.2077 -0.3207
 8480TIP3    H125404   0.567   1.787   5.356  1.1941 -0.0196 -2.0635
 8480TIP3    H225405   0.441   1.871   5.356  0.3739 -1.1345  1.0134
 8481TIP3   OH225406   5.993   0.617   3.967  0.7697  0.1524  0.5934
 8481TIP3    H125407   6.063   0.647   3.910 -0.5617  0.8622 -0.7462
 8481TIP3    H225408   5.947   0.697   3.993 -1.2534 -0.4306 -0.9049
 8482TIP3   OH225409   3.224   5.614   4.694  0.0839  0.3385  0.5234
 8482TIP3    H125410   3.162   5.542   4.684  2.8460 -2.3288  1.3480
 8482TIP3    H225411   3.194   5.680   4.631 -1.7174 -2.1367 -1.4039
 8483TIP3   OH225412   1.792   3.608   2.721 -0.0760  0.4453  0.4716
 8483TIP3    H125413   1.871   3.628   2.770  0.1401  0.8553 -0.0360
 8483TIP3    H225414   1.779   3.514   2.733  1.1338  0.1489 -0.3636
 8484TIP3   OH225415   4.928   1.741   4.051 -0.6292 -0.2900 -0.4492
 8484TIP3    H125416   4.861   1.778   3.994 -0.6969  0.0460 -0.1507
 8484TIP3    H225417   4.935   1.649   4.023 -0.8375 -0.1900 -0.8306
 8485TIP3   OH225418   3.011   3.453   4.308 -0.4453  0.2476  0.0773
 8485TIP3    H125419   3.050   3.369   4.332 -0.2259  0.2700 -0.1862
 8485TIP3    H225420   2.963   3.435   4.227  0.1884  0.5230 -0.3713
 8486TIP3   OH225421   1.475   4.194   3.963  0.4817 -0.5035 -0.8129
 8486TIP3    H125422   1.521   4.194   4.047 -0.6331 -2.0980 -0.1551
 8486TIP3    H225423   1.504   4.275   3.920 -0.0270  1.1269  1.6994
 8487TIP3   OH225424   0.075   0.212   5.845 -0.3079 -0.2435  0.0064
 8487TIP3    H125425   0.004   0.160   5.882 -1.3096  1.7695  1.1239
 8487TIP3    H225426   0.037   0.253   5.767  0.1727 -0.4577 -0.3471
 8488TIP3   OH225427   0.070   5.616   1.353 -0.1332  0.1956  0.0250
 8488TIP3    H125428   0.039   5.668   1.279 -0.0438  0.9365  0.4956
 8488TIP3    H225429   0.055   5.525   1.327 -0.8600  0.4752 -0.5621
 8489TIP3   OH225430   4.225   5.435   0.013 -0.2415  0.1623  0.3930
 8489TIP3    H125431   4.169   5.452  -0.062 -2.3415  0.2421  1.8806
 8489TIP3    H225432   4.219   5.514   0.066  2.0158  0.5105  0.2227
 8490TIP3   OH225433   3.446   0.952   1.951 -0.0892 -0.2190  0.2445
 8490TIP3    H125434   3.394   0.976   1.874 -1.8851 -1.7675  0.8829
 8490TIP3    H225435   3.403   0.874   1.986  2.2225 -1.1154  1.3360
 8491TIP3   OH225436   5.805   3.228   3.270 -0.1929 -0.3884 -0.2651
 8491TIP3    H125437   5.821   3.276   3.352 -1.2419 -0.2868 -0.1101
 8491TIP3    H225438   5.889   3.232   3.224  0.7078 -1.3044  1.2326
 8492TIP3   OH225439   0.437   2.771   2.412 -0.3288  0.4600 -0.0585
 8492TIP3    H125440   0.356   2.786   2.364  0.0539 -0.7085 -1.1300
 8492TIP3    H225441   0.411   2.764   2.503 -1.6724 -1.4068 -0.5356
 8493TIP3   OH225442   5.676   2.517   3.704  0.2552  0.2232 -0.1962
 8493TIP3    H125443   5.620   2.529   3.781 -1.1683 -0.8165 -1.0204
 8493TIP3    H225444   5.683   2.422   3.694 -0.7251  0.3061 -2.1120
 8494TIP3   OH225445   2.951   0.429   4.430  0.3955 -0.2367  0.5278
 8494TIP3    H125446   2.986   0.518   4.426  1.3519 -0.5822 -3.5904
 8494TIP3    H225447   3.011   0.377   4.377 -0.6676 -3.2062  1.9971
 8495TIP3   OH225448   1.837   4.508   4.617  0.3625 -0.7175 -0.3398
 8495TIP3    H125449   1.852   4.434   4.558  0.7484 -0.2962 -0.7769
 8495TIP3    H225450   1.919   4.517   4.665  0.0962 -0.9740  0.1854
 8496TIP3   OH225451   1.567   3.820   4.311 -0.2176 -0.6557 -0.3729
 8496TIP3    H125452   1.647   3.800   4.360  0.8994 -1.5851 -2.4146
 8496TIP3    H225453   1.599   3.859   4.229 -1.9700  0.6871 -0.4801
 8497TIP3   OH225454   6.414   0.231   0.386  0.1920  0.1738 -0.3506
 8497TIP3    H125455   6.420   0.141   0.419  0.1491 -0.9168 -3.0228
 8497TIP3    H225456   6.362   0.277   0.451  2.0137 -1.1179  2.2235
 8498TIP3   OH225457   2.532   4.679   4.624 -0.0238  0.6345 -0.2526
 8498TIP3    H125458   2.626   4.700   4.617 -0.1509  0.7665 -1.8952
 8498TIP3    H225459   2.510   4.640   4.540 -1.1152 -0.8602  0.6962
 8499TIP3   OH225460   0.378   6.302   4.108  0.0729  0.4436  0.3124
 8499TIP3    H125461   0.453   6.257   4.070  0.1479 -0.3065  1.3030
 8499TIP3    H225462   0.406   6.324   4.197 -0.1420  2.0376  0.0176
 8500TIP3   OH225463   6.025   0.950   2.939  0.1751 -0.1368 -0.4630
 8500TIP3    H125464   6.104   0.913   2.981 -0.2902  0.1060  0.6742
 8500TIP3    H225465   5.962   0.958   3.011 -0.3470  1.1768 -1.0454
 8501TIP3   OH225466   3.670   6.095   2.178 -0.0770  0.3792  0.7844
 8501TIP3    H125467   3.675   6.035   2.253  0.4677 -0.3349  0.1875
 8501TIP3    H225468   3.759   6.098   2.143 -0.1879  1.2257  0.5550
 8502TIP3   OH225469   4.305   2.429   5.490  0.1314 -0.2874 -0.2767
 8502TIP3    H125470   4.277   2.337   5.495  0.9355 -0.4946  1.1125
 8502TIP3    H225471   4.350   2.436   5.406  3.1644 -2.1396  1.0379
 8503TIP3   OH225472   0.520   6.216   2.441 -0.1283 -0.2287  0.2170
 8503TIP3    H125473   0.492   6.283   2.503 -0.1624 -0.8744  0.9171
 8503TIP3    H225474   0.455   6.219   2.371  1.2897  2.2547 -1.1344
 8504TIP3   OH225475   7.030   3.800   0.157 -0.4652 -0.4585  0.3812
 8504TIP3    H125476   6.941   3.829   0.141 -0.6361 -0.2184  1.6489
 8504TIP3    H225477   7.047   3.822   0.249  1.2757  0.5101 -0.1113
 8505TIP3   OH225478   1.122   6.037   1.223  0.8210 -0.8925 -0.4788
 8505TIP3    H125479   1.067   6.094   1.278 -1.8927 -3.1126 -0.6678
 8505TIP3    H225480   1.106   6.068   1.134  0.4959 -1.0016 -0.4616
 8506TIP3   OH225481   3.285   1.928   5.056  0.6741 -0.3004 -0.1701
 8506TIP3    H125482   3.225   1.883   5.115  0.2708 -1.6616 -1.5485
 8506TIP3    H225483   3.246   2.015   5.044  1.1493  0.2840  2.0600
 8507TIP3   OH225484   2.970   0.327   1.604  0.3716  0.4336 -0.0540
 8507TIP3    H125485   3.008   0.361   1.686 -1.6136 -0.5830  1.3880
 8507TIP3    H225486   2.971   0.403   1.545  2.5341  1.0067  0.6056
 8508TIP3   OH225487   6.739   5.581   5.369  0.3579  0.0799  0.0554
 8508TIP3    H125488   6.739   5.530   5.288  1.5702  0.0139  0.0740
 8508TIP3    H225489   6.814   5.640   5.359 -0.5145  1.2960  0.3880
 8509TIP3   OH225490   3.990   6.651   5.069  0.0202  0.3149 -0.1850
 8509TIP3    H125491   3.944   6.676   4.989 -0.2464 -2.7912 -1.1669
 8509TIP3    H225492   3.923   6.607   5.122  0.8893 -0.5161  0.2670
 8510TIP3   OH225493   1.952   4.983   4.075  0.2370 -0.0613  0.5590
 8510TIP3    H125494   1.899   5.041   4.020  2.2557  0.5609 -0.8594
 8510TIP3    H225495   1.917   4.994   4.163 -2.3852 -0.2110 -0.3735
 8511TIP3   OH225496   6.403   0.140   2.620  0.3410  0.1866 -0.3172
 8511TIP3    H125497   6.441   0.213   2.571  0.3520 -0.1736 -0.8582
 8511TIP3    H225498   6.445   0.062   2.583 -0.2229 -0.1458 -0.2669
 8512TIP3   OH225499   6.165   4.894   1.001 -0.0229 -0.1237  0.7114
 8512TIP3    H125500   6.255   4.909   1.030  0.4648  0.6631 -1.0341
 8512TIP3    H225501   6.139   4.977   0.961 -1.4786 -0.3943  1.0407
 8513TIP3   OH225502   0.985   3.996   4.936 -0.2952 -0.2800 -0.5227
 8513TIP3    H125503   1.002   3.903   4.926  1.8670  0.1236 -1.1184
 8513TIP3    H225504   0.894   4.001   4.965 -0.0428 -2.6165  0.8875
 8514TIP3   OH225505   1.904   3.091   0.150 -0.3497  0.4228 -0.3082
 8514TIP3    H125506   1.837   3.158   0.135 -0.6474 -0.0395 -1.0637
 8514TIP3    H225507   1.895   3.031   0.077 -0.7429 -1.0096  0.8747
 8515TIP3   OH225508   5.379   4.509   4.194 -0.0694 -0.2173 -0.5435
 8515TIP3    H125509   5.292   4.540   4.167 -0.2171  0.1754  0.3258
 8515TIP3    H225510   5.438   4.541   4.126 -0.4780  0.3833 -0.6249
 8516TIP3   OH225511   4.096   2.220   1.770  0.8289  0.4142  0.3831
 8516TIP3    H125512   4.012   2.215   1.726  0.9305  2.7893 -0.2356
 8516TIP3    H225513   4.120   2.129   1.787  0.0135 -0.5710 -2.9880
 8517TIP3   OH225514   2.215   4.992   3.191 -0.0395 -0.1316 -0.4180
 8517TIP3    H125515   2.265   5.049   3.132 -1.9528  0.7938 -1.2481
 8517TIP3    H225516   2.124   5.023   3.182 -0.5000 -0.3550  2.5865
 8518TIP3   OH225517   5.327   5.074   2.241  0.3006  0.0521 -0.7418
 8518TIP3    H125518   5.336   4.991   2.287 -0.5077 -0.1519 -0.9312
 8518TIP3    H225519   5.291   5.134   2.307 -1.5553 -0.4287 -1.2569
 8519TIP3   OH225520   6.728   3.662   0.830 -0.1445 -0.0760 -0.2999
 8519TIP3    H125521   6.743   3.599   0.900 -0.3959 -1.5890 -1.5523
 8519TIP3    H225522   6.647   3.707   0.854  0.2122  0.0034  0.7667
 8520TIP3   OH225523   1.084   0.750   0.402  0.0092 -0.4718  0.0334
 8520TIP3    H125524   1.130   0.726   0.322 -0.0565 -2.6741  0.5966
 8520TIP3    H225525   1.102   0.844   0.413  2.2982 -0.7150 -1.0750
 8521TIP3   OH225526   4.178   3.067   4.413  0.3822  0.1720 -0.0912
 8521TIP3    H125527   4.100   3.016   4.434 -0.3114  1.0923 -0.3509
 8521TIP3    H225528   4.189   3.057   4.318  0.8143 -0.2722  0.0032
 8522TIP3   OH225529   1.411   5.702   0.686 -0.5413 -0.1890  0.3314
 8522TIP3    H125530   1.324   5.663   0.676 -0.2161 -0.9848  0.4840
 8522TIP3    H225531   1.460   5.636   0.736 -0.2605  0.8646  1.4748
 8523TIP3   OH225532   0.756   3.761   0.645  0.1824  0.4249 -0.3785
 8523TIP3    H125533   0.797   3.848   0.645  1.0278  0.0387  0.0642
 8523TIP3    H225534   0.692   3.764   0.573 -0.0944  1.5441 -0.1043
 8524TIP3   OH225535   4.377   5.718   2.566  0.2988  0.1517  0.4712
 8524TIP3    H125536   4.408   5.806   2.586 -2.2027  0.7820  2.0227
 8524TIP3    H225537   4.377   5.673   2.650 -2.0930 -0.0204  0.4615
 8525TIP3   OH225538   4.462   0.532   4.112  0.1322  0.4782 -0.0063
 8525TIP3    H125539   4.424   0.449   4.139 -0.4993  0.8118  0.1422
 8525TIP3    H225540   4.550   0.509   4.083  0.3726 -0.0762  1.1092
 8526TIP3   OH225541   2.176   6.444   2.176  0.1126 -0.3960 -0.8808
 8526TIP3    H125542   2.210   6.410   2.259 -0.8425 -2.6133 -1.3061
 8526TIP3    H225543   2.160   6.537   2.192  1.5835 -0.3887  0.8501
 8527TIP3   OH225544   1.577   1.805   3.844 -0.5879 -0.2284  0.3589
 8527TIP3    H125545   1.520   1.875   3.813 -0.8403 -0.1174  1.0547
 8527TIP3    H225546   1.552   1.792   3.935 -0.0844 -0.7680  0.4282
 8528TIP3   OH225547   2.185   4.178   5.666 -0.3060  0.3342  0.2619
 8528TIP3    H125548   2.219   4.090   5.655 -0.2194  0.2216  1.3046
 8528TIP3    H225549   2.137   4.175   5.749  0.1584  1.3937  0.5914
 8529TIP3   OH225550   6.866   2.275   4.383 -0.4618  0.2832 -0.1882
 8529TIP3    H125551   6.943   2.239   4.340 -0.1916  0.5123  0.0941
 8529TIP3    H225552   6.798   2.272   4.317 -0.8626 -2.0660  0.2442
 8530TIP3   OH225553   2.351   1.847   4.772 -0.0231 -0.1119  0.4455
 8530TIP3    H125554   2.409   1.824   4.845  0.3263 -1.2504 -0.1674
 8530TIP3    H225555   2.342   1.766   4.722 -0.1981  0.6636 -0.8248
 8531TIP3   OH225556   2.701   4.234   5.523 -0.3082 -0.2529  0.1513
 8531TIP3    H125557   2.679   4.327   5.529 -0.9119 -0.4120  0.4735
 8531TIP3    H225558   2.674   4.198   5.607  2.1899 -0.2715  1.0199
 8532TIP3   OH225559   3.463   5.776   4.338 -0.1330  0.1748  0.2774
 8532TIP3    H125560   3.417   5.849   4.296  1.1117  0.5476 -0.4782
 8532TIP3    H225561   3.394   5.714   4.361 -1.4484  2.2099  2.3248
 8533TIP3   OH225562   0.294   5.574   5.341 -0.0981 -0.4251  0.0296
 8533TIP3    H125563   0.379   5.611   5.365  0.2135 -1.8997  1.3507
 8533TIP3    H225564   0.307   5.538   5.253  0.1599  0.7911 -0.4428
 8534TIP3   OH225565   5.601   3.152   2.775 -0.1268 -0.1006 -0.5018
 8534TIP3    H125566   5.693   3.134   2.792  0.3611  0.9922 -1.8206
 8534TIP3    H225567   5.576   3.215   2.841 -0.4233 -1.6263  0.9054
 8535TIP3   OH225568   0.938   5.165   4.054  0.5051 -0.3355 -0.0543
 8535TIP3    H125569   0.845   5.147   4.066  0.2840  0.7214 -0.1033
 8535TIP3    H225570   0.950   5.172   3.960  0.7860 -1.1732 -0.0923
 8536TIP3   OH225571   7.167   3.587   3.462 -0.4771 -0.1587 -0.0447
 8536TIP3    H125572   7.116   3.656   3.418  1.0935  1.3489  0.3678
 8536TIP3    H225573   7.149   3.508   3.412 -1.6011  0.7483 -1.1376
 8537TIP3   OH225574   5.366   1.345   0.647  0.5015  0.1990 -0.1456
 8537TIP3    H125575   5.443   1.291   0.664  0.5354  0.7214  1.6344
 8537TIP3    H225576   5.392   1.403   0.576  1.7754  0.3694  0.4257
 8538TIP3   OH225577   4.414   1.606   5.052 -0.2220  0.3099 -0.2719
 8538TIP3    H125578   4.413   1.567   5.140 -0.5369  0.5971 -0.1447
 8538TIP3    H225579   4.392   1.698   5.067  2.0232  0.9131 -0.3863
 8539TIP3   OH225580   0.782   4.138   4.551 -0.3032  0.0324 -0.3953
 8539TIP3    H125581   0.703   4.133   4.497  1.2220  1.0925 -2.9230
 8539TIP3    H225582   0.839   4.069   4.517  0.0263 -0.5241  1.1888
 8540TIP3   OH225583   1.365   2.471   0.973  0.4640  0.2878 -0.1248
 8540TIP3    H125584   1.434   2.478   0.906 -0.1003  0.9745 -0.6433
 8540TIP3    H225585   1.283   2.474   0.924  0.0491 -0.5351  0.4916
 8541TIP3   OH225586   1.248   5.115   2.628  0.3079  0.0366  0.4615
 8541TIP3    H125587   1.282   5.190   2.578  1.5897 -0.1697  0.9729
 8541TIP3    H225588   1.153   5.118   2.614  0.1443  2.5488  1.5169
 8542TIP3   OH225589   5.401   2.119   2.358 -0.0334 -0.1176 -0.4397
 8542TIP3    H125590   5.383   2.174   2.282 -4.7448 -1.0890 -0.3375
 8542TIP3    H225591   5.369   2.169   2.433  0.2221 -1.0088  0.2908
 8543TIP3   OH225592   0.213   2.344   0.676 -0.1446  0.0253 -0.2140
 8543TIP3    H125593   0.274   2.410   0.711 -0.5779 -0.2955  1.2146
 8543TIP3    H225594   0.156   2.393   0.617  1.0165  0.4745 -0.9999
 8544TIP3   OH225595   2.417   6.248   0.559  0.0534 -0.7669 -0.0788
 8544TIP3    H125596   2.498   6.299   0.554 -0.4809  0.0148 -3.1844
 8544TIP3    H225597   2.370   6.286   0.634  0.4206  2.2713 -1.2181
 8545TIP3   OH225598   2.119   5.501   0.625  0.0505  0.0924  0.1126
 8545TIP3    H125599   2.092   5.540   0.543 -0.0616 -1.1328 -0.4545
 8545TIP3    H225600   2.209   5.531   0.637  0.6351 -0.9753 -1.2931
 8546TIP3   OH225601   4.136   2.646   2.407  0.2602  0.4616 -0.2439
 8546TIP3    H125602   4.127   2.568   2.351 -0.2653 -0.2025  0.7450
 8546TIP3    H225603   4.094   2.716   2.358  0.4044  0.0447 -0.9776
 8547TIP3   OH225604   3.086   2.199   1.970  0.3656 -0.4559 -0.2958
 8547TIP3    H125605   3.154   2.147   1.926 -0.0598  0.1229 -1.6819
 8547TIP3    H225606   3.034   2.134   2.018  0.5655 -1.1653 -1.0120
 8548TIP3   OH225607   5.354   4.756   1.919  0.3250  0.4239 -0.7112
 8548TIP3    H125608   5.435   4.804   1.936  0.6452 -0.4156  0.2211
 8548TIP3    H225609   5.322   4.731   2.006  0.6440 -1.8054 -1.1950
 8549TIP3   OH225610   6.395   0.051   3.319  0.3422 -0.3794 -0.1590
 8549TIP3    H125611   6.424   0.082   3.405 -0.7807 -0.6742  0.3291
 8549TIP3    H225612   6.463   0.084   3.259 -0.1327  1.9932  0.4861
 8550TIP3   OH225613   4.635   1.384   3.213 -0.3561 -0.0274 -0.2088
 8550TIP3    H125614   4.636   1.462   3.157  1.4723 -0.5049 -0.8933
 8550TIP3    H225615   4.579   1.408   3.287 -1.2255  1.3118 -1.2677
 8551TIP3   OH225616   2.526   3.876   4.690  0.0270  0.4171  0.0829
 8551TIP3    H125617   2.511   3.782   4.687  1.2695  0.2247 -0.9979
 8551TIP3    H225618   2.619   3.886   4.671 -0.3361  1.9269 -1.1269
 8552TIP3   OH225619   1.529   5.796   0.171  0.3358 -0.3049 -0.0909
 8552TIP3    H125620   1.509   5.754   0.087  0.3964  0.2279 -0.3757
 8552TIP3    H225621   1.547   5.723   0.230 -1.4342 -0.7724 -0.0799
 8553TIP3   OH225622   3.081   1.851   5.230  0.3707  0.0551 -0.1067
 8553TIP3    H125623   3.110   1.819   5.315 -1.5005  1.8613  1.2892
 8553TIP3    H225624   3.021   1.784   5.198 -1.1492  0.6498  1.3760
 8554TIP3   OH225625   6.856   4.111   2.701  0.0092 -0.0386  0.6044
 8554TIP3    H125626   6.907   4.177   2.748 -0.5943  0.0364  1.1734
 8554TIP3    H225627   6.765   4.131   2.723 -0.1582 -1.5674  1.4893
 8555TIP3   OH225628   1.101   3.135   3.011  0.3899  0.2968  0.0276
 8555TIP3    H125629   1.193   3.115   3.024  0.3249 -0.3489 -0.4889
 8555TIP3    H225630   1.079   3.193   3.084  1.2654  0.6740  0.0000
 8556TIP3   OH225631   3.148   4.648   1.468  0.4757 -0.2890  0.2795
 8556TIP3    H125632   3.140   4.693   1.384 -1.1878  0.3475  0.7376
 8556TIP3    H225633   3.118   4.558   1.450 -2.0258  0.3927  0.5707
 8557TIP3   OH225634   0.926   3.171   5.088 -0.2583  0.1251 -0.3632
 8557TIP3    H125635   0.948   3.243   5.028 -2.4534  0.4498 -0.8798
 8557TIP3    H225636   1.008   3.124   5.101  0.8282  1.6000 -1.5379
 8558TIP3   OH225637   7.106   5.216   3.394 -0.1474  0.0780  0.7970
 8558TIP3    H125638   7.017   5.231   3.361 -0.3495  0.7453  1.6221
 8558TIP3    H225639   7.125   5.125   3.371  0.6692  1.0858 -3.3310
 8559TIP3   OH225640   5.275   0.321   1.427  0.0797 -0.1763 -0.2689
 8559TIP3    H125641   5.273   0.226   1.438 -0.4951 -0.5350 -2.9267
 8559TIP3    H225642   5.361   0.339   1.390 -0.1129  0.2372 -0.5229
 8560TIP3   OH225643   2.123   6.456   2.896  0.3542 -0.7996 -0.1443
 8560TIP3    H125644   2.049   6.397   2.879  0.7240 -1.3833  0.2274
 8560TIP3    H225645   2.099   6.502   2.976 -0.2541  0.0886 -0.8242
 8561TIP3   OH225646   0.506   5.747   0.645 -0.4395  0.1929 -0.5530
 8561TIP3    H125647   0.543   5.831   0.619 -0.3383  0.2802 -0.1298
 8561TIP3    H225648   0.557   5.720   0.721 -1.4165  0.4440  0.2132
 8562TIP3   OH225649   1.244   5.783   1.523  0.0101  0.0812  0.5111
 8562TIP3    H125650   1.151   5.786   1.542  0.0295 -0.7299  0.7698
 8562TIP3    H225651   1.286   5.802   1.607  0.0836 -0.4027  0.5824
 8563TIP3   OH225652   2.276   5.309   2.769  0.2495 -0.3186 -0.1527
 8563TIP3    H125653   2.298   5.229   2.815  0.5136  0.7831  1.7433
 8563TIP3    H225654   2.351   5.367   2.783 -0.5222  0.7538 -0.2614
 8564TIP3   OH225655   4.757   2.258   2.030  0.1289 -0.2240  0.2423
 8564TIP3    H125656   4.698   2.210   2.089 -0.4870 -0.8465 -0.8372
 8564TIP3    H225657   4.842   2.215   2.041  0.3945  0.5958  1.7168
 8565TIP3   OH225658   5.838   1.697   0.205 -0.5782 -0.3442  0.1324
 8565TIP3    H125659   5.746   1.713   0.183 -1.1780 -1.6994  1.5007
 8565TIP3    H225660   5.883   1.775   0.175 -2.1124  0.1773 -0.9567
 8566TIP3   OH225661   3.319   2.190   5.588 -0.5284  0.1107 -0.5691
 8566TIP3    H125662   3.302   2.239   5.668 -0.7588  0.8028 -1.0330
 8566TIP3    H225663   3.405   2.221   5.559 -0.2515 -0.4484 -0.3756
 8567TIP3   OH225664   3.399   5.297   5.503 -0.2501  0.4133  0.3577
 8567TIP3    H125665   3.353   5.236   5.561 -0.7597 -0.0392 -0.5181
 8567TIP3    H225666   3.332   5.328   5.442  0.2518  0.9938  0.0930
 8568TIP3   OH225667   7.030   1.573   0.137  0.2854  0.3441  0.1299
 8568TIP3    H125668   7.078   1.648   0.173  0.7437  0.3527 -0.4914
 8568TIP3    H225669   7.079   1.548   0.059  0.5097 -1.0073  0.6604
 8569TIP3   OH225670   3.917   1.941   2.871 -0.3377  0.6708  0.0708
 8569TIP3    H125671   3.906   1.912   2.780 -0.5791  1.3094 -0.1068
 8569TIP3    H225672   4.005   1.979   2.873  1.0380 -2.2519  0.9073
 8570TIP3   OH225673   0.905   5.844   1.120 -0.0602 -0.2640  0.3801
 8570TIP3    H125674   0.966   5.888   1.179 -0.4249 -0.3572  0.8304
 8570TIP3    H225675   0.925   5.880   1.034  2.6667 -2.4127 -0.0179
 8571TIP3   OH225676   4.296   0.250   4.602 -0.4533 -0.1424 -0.4731
 8571TIP3    H125677   4.359   0.210   4.543 -1.0651 -1.4554 -0.2693
 8571TIP3    H225678   4.241   0.177   4.631 -1.1936  0.7506  0.4227
 8572TIP3   OH225679   3.391   3.271   2.007 -0.3875  0.1624 -0.7397
 8572TIP3    H125680   3.447   3.345   1.985 -1.2483  1.1040  0.1514
 8572TIP3    H225681   3.342   3.300   2.084 -0.7638 -1.3278 -0.3897
 8573TIP3   OH225682   3.362   5.263   2.722  0.3313 -0.5731  0.1033
 8573TIP3    H125683   3.372   5.175   2.759  0.0397 -0.7193 -0.1629
 8573TIP3    H225684   3.451   5.292   2.705  0.4292 -0.8156  0.1978
 8574TIP3   OH225685   4.391   0.834   5.671  0.2266 -0.6564 -0.7625
 8574TIP3    H125686   4.391   0.738   5.665  0.0659 -0.8737  1.6216
 8574TIP3    H225687   4.300   0.859   5.656 -0.0757 -1.0617  0.2943
 8575TIP3   OH225688   3.782   5.376   5.260 -0.3068  0.3772 -0.5212
 8575TIP3    H125689   3.730   5.297   5.275 -0.2342  0.6447  1.2769
 8575TIP3    H225690   3.734   5.424   5.193  0.4171 -1.8656 -2.8026
 8576TIP3   OH225691   6.883   5.578   5.731 -0.4457  0.2802 -0.3495
 8576TIP3    H125692   6.899   5.540   5.645  0.9046  0.4042 -0.1727
 8576TIP3    H225693   6.966   5.617   5.756 -0.5416 -0.5621  1.4234
 8577TIP3   OH225694   5.567   0.726   3.556 -0.6571  0.1949 -0.6704
 8577TIP3    H125695   5.619   0.761   3.628 -0.9373  3.1102 -1.7558
 8577TIP3    H225696   5.504   0.667   3.598 -0.5270  1.4550  1.4233
 8578TIP3   OH225697   3.168   4.210   2.006  0.2123 -0.0404  0.1334
 8578TIP3    H125698   3.104   4.278   1.987 -1.4421 -0.3838  3.7204
 8578TIP3    H225699   3.128   4.130   1.975 -0.7478 -0.1211  1.4911
 8579TIP3   OH225700   2.982   4.119   2.713  0.0322  0.4595  0.0567
 8579TIP3    H125701   3.071   4.101   2.682 -0.2074 -1.2145  0.2526
 8579TIP3    H225702   2.974   4.067   2.793 -1.5303 -0.4321 -0.6386
 8580TIP3   OH225703   0.744   0.220   4.104  0.6685  0.1646 -0.5135
 8580TIP3    H125704   0.832   0.208   4.068 -0.0029 -2.1150 -1.5423
 8580TIP3    H225705   0.705   0.289   4.050  1.8440  1.3558  0.0962
 8581TIP3   OH225706   0.916   0.240   0.403  0.7953  0.4048  0.4166
 8581TIP3    H125707   0.855   0.282   0.464 -0.0261  1.8615 -1.3068
 8581TIP3    H225708   0.866   0.167   0.365  0.6177  0.7078  0.0632
 8582TIP3   OH225709   3.615   3.153   1.824  0.0668  0.6734  0.2815
 8582TIP3    H125710   3.650   3.068   1.853  0.8423  0.5554 -0.9162
 8582TIP3    H225711   3.539   3.169   1.881 -0.3899 -1.0626  0.2208
 8583TIP3   OH225712   4.056   3.402   1.530 -0.3031  0.1695  0.0043
 8583TIP3    H125713   4.077   3.495   1.530 -2.1690  0.6375 -0.5306
 8583TIP3    H225714   3.960   3.399   1.535 -0.2636 -1.7346  0.5375
 8584TIP3   OH225715   5.467   4.237   3.264  0.1236 -0.5604 -0.3387
 8584TIP3    H125716   5.561   4.238   3.280 -0.1026  2.3765  1.6175
 8584TIP3    H225717   5.432   4.178   3.331  0.4792 -1.2557 -0.7458
 8585TIP3   OH225718   6.008   3.424   1.832  0.0937  0.6201  0.0621
 8585TIP3    H125719   5.937   3.428   1.767  0.0443  0.1779  0.0875
 8585TIP3    H225720   6.087   3.407   1.781 -0.0622 -0.5272  0.1901
 8586TIP3   OH225721   3.904   1.595   0.612  0.3920  0.4091 -0.0338
 8586TIP3    H125722   3.857   1.594   0.696  0.1373  2.6004 -0.0878
 8586TIP3    H225723   3.909   1.503   0.586 -1.9663 -0.0927  1.0412
 8587TIP3   OH225724   1.455   0.661   0.097 -0.4385 -0.4421 -0.2647
 8587TIP3    H125725   1.386   0.706   0.048  1.6058  0.5122 -2.5136
 8587TIP3    H225726   1.464   0.712   0.178 -1.5776  0.1156 -0.4695
 8588TIP3   OH225727   5.767   1.864   2.100  0.1701 -0.1225 -0.2522
 8588TIP3    H125728   5.735   1.953   2.084 -1.9482 -0.7671 -0.0197
 8588TIP3    H225729   5.719   1.810   2.036 -1.1168 -1.4887  1.7345
 8589TIP3   OH225730   0.547   3.024   2.137 -0.9382 -0.5913 -0.3141
 8589TIP3    H125731   0.531   3.020   2.231 -0.9672 -1.9778 -0.3629
 8589TIP3    H225732   0.577   2.936   2.113  1.7826  0.4400 -1.1244
 8590TIP3   OH225733   2.329   6.692   4.546  0.4148 -0.1529  0.1392
 8590TIP3    H125734   2.396   6.684   4.478  0.8254 -1.2955  0.6519
 8590TIP3    H225735   2.267   6.756   4.512  1.5776  0.6515 -0.5086
 8591TIP3   OH225736   6.223   3.028   5.858  0.2292 -0.2242  0.2218
 8591TIP3    H125737   6.209   3.114   5.819 -1.7493 -0.9492 -0.8126
 8591TIP3    H225738   6.166   2.969   5.808  1.0724 -2.0297  1.2886
 8592TIP3   OH225739   4.286   0.065   2.815 -0.9055  0.3495 -0.7017
 8592TIP3    H125740   4.247   0.068   2.902  1.7932 -2.0239  0.7462
 8592TIP3    H225741   4.249  -0.013   2.774  0.2944 -0.4685 -0.2951
 8593TIP3   OH225742   4.570   3.064   1.175 -0.1590  0.0808  0.4637
 8593TIP3    H125743   4.654   3.024   1.201 -1.3449 -2.2271  1.0110
 8593TIP3    H225744   4.519   3.066   1.256 -0.7224  1.2926  0.0993
 8594TIP3   OH225745   6.267   3.259   4.543  0.1680  0.8841 -0.6791
 8594TIP3    H125746   6.330   3.232   4.610  1.0365  0.1501 -1.7549
 8594TIP3    H225747   6.271   3.190   4.477 -3.0656 -0.1233 -0.0019
 8595TIP3   OH225748   6.682   1.529   2.681  0.9583  0.5505  0.4602
 8595TIP3    H125749   6.712   1.549   2.769  0.8762  0.2770  0.5524
 8595TIP3    H225750   6.762   1.520   2.630  1.1765 -2.0878  1.1110
 8596TIP3   OH225751   6.642   3.914   3.409  0.0902  0.1009 -0.1129
 8596TIP3    H125752   6.564   3.968   3.399 -0.3289 -0.9075 -4.0976
 8596TIP3    H225753   6.692   3.955   3.480 -2.2553  2.9777  0.0345
 8597TIP3   OH225754   1.612   2.178   0.177 -0.0602 -0.0893  0.1201
 8597TIP3    H125755   1.534   2.174   0.121 -0.9916 -0.9586  1.4336
 8597TIP3    H225756   1.582   2.221   0.257  0.2974 -2.0380  1.3687
 8598TIP3   OH225757   4.217   6.435   4.290  0.1317 -0.4223 -0.7569
 8598TIP3    H125758   4.165   6.516   4.296  0.9127  0.0231  0.5004
 8598TIP3    H225759   4.202   6.392   4.374  1.6751 -0.3419 -0.4201
 8599TIP3   OH225760   3.172   0.559   0.581 -0.4012  0.3144  0.4139
 8599TIP3    H125761   3.240   0.626   0.579  0.3143 -0.3848  0.7497
 8599TIP3    H225762   3.105   0.591   0.521  1.1834  0.0011 -1.6494
 8600TIP3   OH225763   2.193   3.185   2.665  0.5580 -0.2988 -0.1718
 8600TIP3    H125764   2.286   3.175   2.645  0.3857 -1.2764 -0.5197
 8600TIP3    H225765   2.192   3.216   2.756  1.2022 -1.7586  0.3650
 8601TIP3   OH225766   3.222   2.825   3.496 -0.3018  0.0844 -0.0152
 8601TIP3    H125767   3.303   2.795   3.454 -0.3743  1.2496 -1.0194
 8601TIP3    H225768   3.188   2.747   3.539  1.0814 -0.5571 -0.0100
 8602TIP3   OH225769   1.751   5.225   5.041  0.7871  0.0119 -0.0382
 8602TIP3    H125770   1.758   5.273   4.958 -0.5514  2.2403  1.0470
 8602TIP3    H225771   1.658   5.227   5.063  1.3224  1.2133  2.4462
 8603TIP3   OH225772   3.222   5.333   4.560  0.2844  0.6968  0.4722
 8603TIP3    H125773   3.136   5.345   4.518  0.7541 -0.0122 -0.7162
 8603TIP3    H225774   3.214   5.250   4.607  0.3186  0.6466  0.3882
 8604TIP3   OH225775   4.658   2.683   1.159 -0.1867  0.1790 -0.3878
 8604TIP3    H125776   4.667   2.614   1.225 -1.6704  1.6488  1.4704
 8604TIP3    H225777   4.564   2.700   1.155  0.0848  1.6228 -1.3179
 8605TIP3   OH225778   1.075   0.613   4.500  0.2672  0.1439  0.2751
 8605TIP3    H125779   1.054   0.574   4.585 -0.2302 -0.2815 -0.0370
 8605TIP3    H225780   1.045   0.703   4.507 -0.9399 -0.2340  0.1191
 8606TIP3   OH225781   1.092   2.838   2.613 -0.0121 -0.1795 -0.3683
 8606TIP3    H125782   1.089   2.899   2.687  0.3534 -0.3333 -0.2219
 8606TIP3    H225783   1.184   2.814   2.607 -0.4612 -2.6462  1.1635
 8607TIP3   OH225784   1.231   3.202   1.712 -0.6476  0.5164 -0.3290
 8607TIP3    H125785   1.176   3.238   1.642  0.0547 -1.3287 -1.8886
 8607TIP3    H225786   1.267   3.121   1.676 -0.5331 -0.7032  2.3089
 8608TIP3   OH225787   1.895   5.113   3.742 -0.4765  0.5303  0.0583
 8608TIP3    H125788   1.989   5.106   3.758 -0.0834  1.9662 -1.3792
 8608TIP3    H225789   1.863   5.169   3.813 -0.1741  0.4020  0.2990
 8609TIP3   OH225790   3.623   5.503   0.758 -0.3423  0.1750  0.0010
 8609TIP3    H125791   3.692   5.470   0.816  1.3756  1.7957 -1.0431
 8609TIP3    H225792   3.606   5.592   0.788  1.3337  1.4530 -2.5025
 8610TIP3   OH225793   1.368   3.244   1.275 -0.3312  0.0811  0.1692
 8610TIP3    H125794   1.411   3.225   1.192  2.8649  0.6594  1.5176
 8610TIP3    H225795   1.288   3.291   1.251 -0.2984 -1.0933 -2.5582
 8611TIP3   OH225796   4.339   2.177   2.914  0.5209 -0.0089 -0.4871
 8611TIP3    H125797   4.307   2.267   2.913  0.3191 -0.0496  0.6674
 8611TIP3    H225798   4.362   2.158   2.823 -1.8385  0.3474 -1.2234
 8612TIP3   OH225799   6.884   5.963   3.551 -0.5810 -0.3269  0.3381
 8612TIP3    H125800   6.885   5.876   3.592  0.2960 -0.6498 -0.3233
 8612TIP3    H225801   6.863   6.023   3.622 -1.5266 -1.1099  0.7448
 8613TIP3   OH225802   3.226   6.706   2.950  0.2416  0.9916  0.5648
 8613TIP3    H125803   3.267   6.620   2.944  1.9867  1.7974  0.2077
 8613TIP3    H225804   3.132   6.688   2.953  0.5472 -0.8906  0.0220
 8614TIP3   OH225805   0.900   3.465   2.794  1.0609 -0.3461 -0.1406
 8614TIP3    H125806   0.817   3.464   2.745  0.1528 -0.9858  1.3388
 8614TIP3    H225807   0.909   3.556   2.823  2.1274  0.2915 -2.2513
 8615TIP3   OH225808   4.314   1.630   2.710 -0.1276  0.4005  0.5371
 8615TIP3    H125809   4.398   1.666   2.737  0.5117  0.3625 -1.2386
 8615TIP3    H225810   4.259   1.706   2.693  0.6163  0.5553 -1.3911
 8616TIP3   OH225811   3.048   0.113   5.006  0.4628 -0.1343 -0.4095
 8616TIP3    H125812   2.994   0.074   4.937 -1.0019 -0.8886  1.0912
 8616TIP3    H225813   3.137   0.112   4.970 -0.1955 -0.8639 -2.1142
 8617TIP3   OH225814   6.811   6.469   4.195  0.1382  1.0245 -0.0473
 8617TIP3    H125815   6.874   6.449   4.125  0.3629 -0.0234  0.4348
 8617TIP3    H225816   6.854   6.536   4.247 -0.1369  1.9976 -1.0527
 8618TIP3   OH225817   6.726   6.681   3.460  0.3275  0.3315  0.9724
 8618TIP3    H125818   6.763   6.760   3.499  2.6803 -0.4014  0.3940
 8618TIP3    H225819   6.753   6.685   3.368 -0.0765 -0.8392  0.7846
 8619TIP3   OH225820   5.882   2.255   3.084  0.8200  0.4890  0.6496
 8619TIP3    H125821   5.891   2.331   3.027 -1.7281  0.4071  0.0259
 8619TIP3    H225822   5.871   2.181   3.024 -0.1133  0.1485  1.2168
 8620TIP3   OH225823   3.975   5.137   3.594 -0.3940 -0.0247 -0.2079
 8620TIP3    H125824   3.887   5.149   3.630  0.7305  2.2464  2.1014
 8620TIP3    H225825   3.993   5.218   3.547  2.4007  2.2757  4.1794
 8621TIP3   OH225826   1.254   5.312   5.288  0.0734 -0.6207 -0.2392
 8621TIP3    H125827   1.177   5.264   5.317  0.5718  0.6633  3.8822
 8621TIP3    H225828   1.220   5.381   5.231 -1.7230 -0.6885  0.6914
 8622TIP3   OH225829   5.824   5.129   1.703 -0.3652  0.1582 -0.0234
 8622TIP3    H125830   5.799   5.154   1.792 -1.5951  0.6531 -0.4846
 8622TIP3    H225831   5.871   5.205   1.669 -1.7949  0.8535 -0.5180
 8623TIP3   OH225832   2.696   1.875   1.442  0.2920 -0.1417  0.1030
 8623TIP3    H125833   2.715   1.874   1.535  0.7257  1.4392  0.0547
 8623TIP3    H225834   2.601   1.862   1.437  0.3702 -1.0128  0.7082
 8624TIP3   OH225835   7.047   3.460   1.664 -0.1078 -0.0756 -0.4854
 8624TIP3    H125836   7.104   3.536   1.653  0.5269 -0.5989 -0.8893
 8624TIP3    H225837   6.977   3.473   1.600 -0.9553  1.0135  0.6204
 8625TIP3   OH225838   5.830   2.661   1.046  0.2672 -0.1214  0.4955
 8625TIP3    H125839   5.893   2.711   0.994  2.0670 -0.1511  2.5004
 8625TIP3    H225840   5.833   2.573   1.008  0.3213  0.2394 -0.3575
 8626TIP3   OH225841   3.973   3.771   4.452 -0.0798  0.4109  1.2263
 8626TIP3    H125842   4.068   3.756   4.448  0.2270  1.8739  2.1830
 8626TIP3    H225843   3.947   3.733   4.536 -0.1888  0.7115  1.3303
 8627TIP3   OH225844   0.865   5.872   4.856  1.0173 -0.5902  0.1487
 8627TIP3    H125845   0.911   5.944   4.814 -0.7610  0.2619 -0.4057
 8627TIP3    H225846   0.868   5.801   4.792  0.9228 -0.2974 -0.1797
 8628TIP3   OH225847   4.556   6.496   5.574  0.3538  0.6776 -0.5430
 8628TIP3    H125848   4.644   6.459   5.581  0.5345  1.2110  0.2862
 8628TIP3    H225849   4.499   6.421   5.564  0.4983 -0.0981  2.9850
 8629TIP3   OH225850   1.243   1.347   4.800  0.1351  0.2143  0.0050
 8629TIP3    H125851   1.303   1.419   4.819  0.4138  0.3979 -1.4588
 8629TIP3    H225852   1.293   1.289   4.742  0.1529 -1.5134  1.6482
 8630TIP3   OH225853   1.230   0.430   5.447 -0.2738  0.4867  0.2786
 8630TIP3    H125854   1.317   0.395   5.427  0.1000  0.5706  1.6811
 8630TIP3    H225855   1.172   0.354   5.440 -0.1246  0.4533 -0.7747
 8631TIP3   OH225856   5.934   5.757   3.664  0.5047 -0.3903  0.4280
 8631TIP3    H125857   5.934   5.724   3.754  0.6589 -1.2201  0.1352
 8631TIP3    H225858   6.001   5.826   3.663 -0.2671  0.3861  1.2078
 8632TIP3   OH225859   3.603   3.275   3.222  0.2353 -0.5565  0.6976
 8632TIP3    H125860   3.568   3.225   3.149 -1.6211  1.1560  0.3287
 8632TIP3    H225861   3.528   3.294   3.278  1.2583 -0.0445  1.9740
 8633TIP3   OH225862   2.056   4.246   0.301  0.3412  0.4079 -0.0633
 8633TIP3    H125863   1.989   4.260   0.234  0.0066 -1.1173 -0.0834
 8633TIP3    H225864   2.006   4.222   0.380  0.8200 -0.0837  0.1004
 8634TIP3   OH225865   3.306   1.865   2.793 -0.0952  0.0480 -0.4795
 8634TIP3    H125866   3.372   1.889   2.727 -0.6452  0.1047 -1.0191
 8634TIP3    H225867   3.226   1.852   2.743 -0.8341  1.3074  0.3232
 8635TIP3   OH225868   2.696   0.887   5.245 -0.2053 -0.0769 -0.1313
 8635TIP3    H125869   2.711   0.941   5.167 -0.7914 -0.3352 -0.4298
 8635TIP3    H225870   2.715   0.945   5.319  0.9143  0.0022 -0.4684
 8636TIP3   OH225871   5.355   4.541   1.761  0.1733  0.2954  0.3977
 8636TIP3    H125872   5.396   4.507   1.840 -1.3123  0.1593  1.1479
 8636TIP3    H225873   5.341   4.634   1.779 -0.7881  0.1233  0.5884
 8637TIP3   OH225874   4.527   3.319   0.770 -0.3662 -0.5944 -0.4935
 8637TIP3    H125875   4.522   3.320   0.675  1.5569  0.6202 -0.6393
 8637TIP3    H225876   4.585   3.245   0.790 -1.6534 -1.5533 -0.1566
 8638TIP3   OH225877   2.615   6.419   0.502 -0.4028 -0.3509  0.1427
 8638TIP3    H125878   2.610   6.514   0.492 -2.2870 -0.2650  1.4143
 8638TIP3    H225879   2.660   6.406   0.585  0.5368 -0.6252 -0.3892
 8639TIP3   OH225880   5.482   0.666   4.570  0.1456  0.2028 -0.2698
 8639TIP3    H125881   5.516   0.756   4.568  0.2125  0.3625  2.8596
 8639TIP3    H225882   5.388   0.676   4.557  0.1552  0.7427  0.0145
 8640TIP3   OH225883   6.912   4.367   1.196 -0.1443 -0.1690 -0.2353
 8640TIP3    H125884   6.951   4.285   1.168  0.3818 -0.0206  0.0381
 8640TIP3    H225885   6.930   4.372   1.290  0.8318  0.7791 -0.4503
 8641TIP3   OH225886   1.823   6.607   5.119 -0.8472  0.1614 -0.1121
 8641TIP3    H125887   1.849   6.550   5.047 -1.1474 -1.2855  0.8673
 8641TIP3    H225888   1.745   6.565   5.155 -0.6972  0.8436  1.0584
 8642TIP3   OH225889   6.719   2.558   2.466  0.3598 -0.1922  0.0021
 8642TIP3    H125890   6.642   2.538   2.519 -0.3012 -0.6952 -1.1311
 8642TIP3    H225891   6.761   2.631   2.512 -0.9347  0.2780  0.4829
 8643TIP3   OH225892   3.679   3.934   2.305  0.4520 -0.3580 -0.5258
 8643TIP3    H125893   3.617   3.882   2.254  0.6453 -0.8921 -0.2246
 8643TIP3    H225894   3.624   3.994   2.355  0.2889  0.6986 -1.8973
 8644TIP3   OH225895   6.303   2.155   5.496 -0.0159 -0.4205 -0.4808
 8644TIP3    H125896   6.295   2.060   5.499  1.1840 -0.5175  0.4015
 8644TIP3    H225897   6.216   2.187   5.521 -0.2181 -1.2867 -0.0278
 8645TIP3   OH225898   0.528   3.876   3.057 -0.2705 -0.1084 -0.2820
 8645TIP3    H125899   0.451   3.913   3.014 -0.1837  0.6491  0.1846
 8645TIP3    H225900   0.493   3.811   3.118 -0.4970 -0.1701 -0.4770
 8646TIP3   OH225901   4.050   1.732   4.188 -0.5687 -0.4188 -0.2640
 8646TIP3    H125902   3.960   1.749   4.218 -0.3581  0.8044 -0.2509
 8646TIP3    H225903   4.085   1.671   4.253 -0.5563  1.1558  1.3163
 8647TIP3   OH225904   3.362   2.693   5.586 -0.3249  0.0328  0.0180
 8647TIP3    H125905   3.283   2.658   5.627 -0.5956  0.3141 -0.2574
 8647TIP3    H225906   3.434   2.646   5.629 -0.4016  2.2639  2.8559
 8648TIP3   OH225907   5.427   4.374   1.979 -0.0419  0.0947 -0.1401
 8648TIP3    H125908   5.381   4.300   2.019  2.3077 -0.2213  2.1732
 8648TIP3    H225909   5.517   4.345   1.970  0.8687  2.5431  0.4572
 8649TIP3   OH225910   5.134   5.126   0.797  0.2306  0.1962  0.1291
 8649TIP3    H125911   5.060   5.185   0.781  1.2545  1.2927 -0.6643
 8649TIP3    H225912   5.104   5.070   0.868 -1.3181  0.7067 -0.0789
 8650TIP3   OH225913   0.112   5.076   3.256  0.1628  0.5029  0.0881
 8650TIP3    H125914   0.205   5.095   3.243  0.3301  0.0208  0.5558
 8650TIP3    H225915   0.070   5.162   3.258  0.6722  0.7463  0.4330
 8651TIP3   OH225916   4.027   5.995   5.442  0.3131 -0.3381 -0.5916
 8651TIP3    H125917   3.994   5.906   5.430 -1.0920 -0.1671  1.4707
 8651TIP3    H225918   3.972   6.049   5.385 -0.3047 -0.5356 -0.1832
 8652TIP3   OH225919   6.041   0.947   4.907  0.2444  0.3752  0.1776
 8652TIP3    H125920   6.027   0.863   4.950  0.8044 -1.5866 -3.1594
 8652TIP3    H225921   6.109   0.989   4.959  2.2261 -2.6353  0.2471
 8653TIP3   OH225922   5.960   2.429   3.854  0.9777 -0.5233 -0.2552
 8653TIP3    H125923   5.979   2.430   3.760  0.0093  0.1049 -0.4596
 8653TIP3    H225924   5.979   2.518   3.883  0.9870 -0.6376  0.0846
 8654TIP3   OH225925   0.274   1.180   4.215  0.2548 -0.4640 -0.3123
 8654TIP3    H125926   0.215   1.218   4.279  0.2487  1.5578 -1.4176
 8654TIP3    H225927   0.227   1.105   4.180 -1.2596  0.5157 -0.4628
 8655TIP3   OH225928   5.997   4.259   4.032  0.2124  0.0142 -0.3931
 8655TIP3    H125929   5.907   4.240   4.007 -0.0077 -2.8369  2.0024
 8655TIP3    H225930   5.990   4.322   4.104 -0.0923 -1.6732  1.1167
 8656TIP3   OH225931   6.007   5.940   1.512  0.2528 -0.5266 -0.7175
 8656TIP3    H125932   5.983   5.980   1.428  1.0839  1.3446 -0.1013
 8656TIP3    H225933   5.930   5.954   1.567 -0.4055 -2.0064 -1.1958
 8657TIP3   OH225934   7.021   3.478   2.406  0.1190 -0.0669  0.6074
 8657TIP3    H125935   7.103   3.492   2.453  1.0924  0.1359 -1.0654
 8657TIP3    H225936   7.022   3.544   2.336 -1.7287  0.2771  0.8570
 8658TIP3   OH225937   0.198   5.401   4.216 -0.0080  0.2423  0.6130
 8658TIP3    H125938   0.254   5.471   4.181 -0.9631  1.8440  2.1224
 8658TIP3    H225939   0.124   5.398   4.156  0.9597 -0.8938 -0.5774
 8659TIP3   OH225940   0.103   1.778   5.407 -0.5516  0.0373 -0.3281
 8659TIP3    H125941   0.062   1.826   5.479  0.0669 -0.2104  0.2031
 8659TIP3    H225942   0.148   1.705   5.450 -0.3646 -0.2509 -0.9955
 8660TIP3   OH225943   7.161   6.608   4.212  0.5728 -0.5792  0.5052
 8660TIP3    H125944   7.093   6.662   4.253  1.3044 -1.6325  3.3532
 8660TIP3    H225945   7.128   6.518   4.221  1.3006 -0.9241 -0.2110
 8661TIP3   OH225946   4.900   6.603   0.186  0.1927  0.5066  0.0608
 8661TIP3    H125947   4.946   6.625   0.106 -1.4917 -1.2769 -1.5132
 8661TIP3    H225948   4.850   6.682   0.208  1.4005  1.3294 -0.0620
 8662TIP3   OH225949   6.137   6.221   4.200  0.0117 -0.1070  0.1241
 8662TIP3    H125950   6.129   6.185   4.288 -0.5703  2.1686  1.0832
 8662TIP3    H225951   6.218   6.183   4.165  0.0850 -1.2831  1.5121
 8663TIP3   OH225952   1.288   1.520   5.467 -0.5014 -0.4847  0.5424
 8663TIP3    H125953   1.330   1.548   5.386 -1.1183  0.9509  0.6768
 8663TIP3    H225954   1.273   1.602   5.515 -0.8895 -1.2319  1.7359
 8664TIP3   OH225955   3.187   4.575   5.173 -0.4757  0.0668  0.1438
 8664TIP3    H125956   3.192   4.621   5.089  0.0296 -1.9371 -1.0021
 8664TIP3    H225957   3.118   4.510   5.160 -0.2234 -0.4327  1.2068
 8665TIP3   OH225958   0.809   0.170   3.185  0.2424 -0.3556 -0.3794
 8665TIP3    H125959   0.867   0.243   3.209  0.2790  0.6934 -3.2413
 8665TIP3    H225960   0.722   0.199   3.212  0.1210  1.2569 -2.2723
 8666TIP3   OH225961   2.698   1.467   0.146 -0.6880  0.0710  0.2331
 8666TIP3    H125962   2.671   1.399   0.208 -1.7810 -0.2326 -0.5516
 8666TIP3    H225963   2.616   1.499   0.108 -0.2934  2.3747  1.1086
 8667TIP3   OH225964   0.757   0.147   1.526 -0.0850 -0.4212 -0.1157
 8667TIP3    H125965   0.813   0.105   1.591 -0.7682 -1.7676 -0.3632
 8667TIP3    H225966   0.672   0.157   1.570 -1.2346 -3.3629 -1.3859
 8668TIP3   OH225967   0.277   4.706   1.694 -0.0542 -0.1067 -0.1489
 8668TIP3    H125968   0.302   4.656   1.617 -0.9964 -0.8877  0.0345
 8668TIP3    H225969   0.193   4.746   1.671 -0.4989 -0.5992  0.5727
 8669TIP3   OH225970   4.368   6.735   3.295 -0.2456  0.0508  0.1750
 8669TIP3    H125971   4.355   6.703   3.384  1.5413 -1.0813  0.0889
 8669TIP3    H225972   4.292   6.705   3.246 -1.5892  1.2787  1.4292
 8670TIP3   OH225973   2.429   4.064   4.489 -0.2649 -0.3735 -0.3510
 8670TIP3    H125974   2.475   4.146   4.508  1.4930 -1.3593 -0.1708
 8670TIP3    H225975   2.419   4.022   4.575 -4.0584  1.0100  0.0670
 8671TIP3   OH225976   3.202   3.189   4.425  0.6182 -0.5936  0.1984
 8671TIP3    H125977   3.117   3.197   4.470  0.5677 -0.1924  0.0397
 8671TIP3    H225978   3.179   3.170   4.334  0.5912  1.9434 -0.4082
 8672TIP3   OH225979   6.124   0.302   2.800  0.8390  0.2619 -0.0991
 8672TIP3    H125980   6.055   0.308   2.866  0.5140 -1.6525 -0.2125
 8672TIP3    H225981   6.136   0.392   2.769 -1.1228  0.7334  0.4094
 8673TIP3   OH225982   5.046   0.903   4.403  0.3533  0.6304  0.2772
 8673TIP3    H125983   5.083   0.952   4.329  1.8326 -0.0920  0.5105
 8673TIP3    H225984   4.952   0.898   4.383  0.7506  0.1939 -1.7081
 8674TIP3   OH225985   2.969   6.252   4.649 -0.0224 -0.4940  0.6021
 8674TIP3    H125986   3.034   6.315   4.678  0.6590 -0.9952  0.1776
 8674TIP3    H225987   2.893   6.305   4.625  1.3936  0.4638 -2.1903
 8675TIP3   OH225988   2.575   6.558   3.769  0.3880  0.0072 -0.2388
 8675TIP3    H125989   2.491   6.519   3.793 -0.5739  1.4747 -1.0556
 8675TIP3    H225990   2.606   6.598   3.851 -0.8992  1.4876 -0.4157
 8676TIP3   OH225991   6.647   5.487   2.146 -0.2617 -0.5169 -0.1747
 8676TIP3    H125992   6.724   5.490   2.090  0.0723 -0.1613  0.3015
 8676TIP3    H225993   6.679   5.453   2.230  0.1264  2.8843  1.1985
 8677TIP3   OH225994   0.445   1.589   5.826 -0.1948 -0.2101 -0.3301
 8677TIP3    H125995   0.369   1.642   5.850  0.6360  0.8564  0.0379
 8677TIP3    H225996   0.518   1.651   5.825  0.8548 -1.3769  0.3089
 8678TIP3   OH225997   0.803   2.436   3.226 -0.6553 -0.3329  0.1206
 8678TIP3    H125998   0.869   2.497   3.193  1.4493 -2.0055  1.0285
 8678TIP3    H225999   0.779   2.382   3.151 -1.0841  0.3394 -0.2340
 8679TIP3   OH226000   3.753   4.161   2.165  0.3783  0.0708 -0.0803
 8679TIP3    H126001   3.703   4.090   2.207  0.0394 -1.3075 -2.6024
 8679TIP3    H226002   3.697   4.238   2.174 -0.5316 -0.6212  0.3411
 8680TIP3   OH226003   1.086   0.880   3.649 -0.8194  0.2697  0.0467
 8680TIP3    H126004   1.058   0.971   3.659 -1.1080 -0.0219  2.8615
 8680TIP3    H226005   1.181   0.883   3.663 -0.5098  0.3030 -1.7644
 8681TIP3   OH226006   7.111   0.996   3.690  0.1327  0.5784  0.0526
 8681TIP3    H126007   7.102   1.090   3.705  1.5322  0.8527 -0.7147
 8681TIP3    H226008   7.168   0.989   3.614 -0.6769 -0.8949 -0.4431
 8682TIP3   OH226009   1.889   6.347   0.215 -0.5830  0.1840  0.1616
 8682TIP3    H126010   1.921   6.292   0.287 -0.8840 -0.1708  0.0316
 8682TIP3    H226011   1.794   6.332   0.215 -0.5458 -0.0974 -0.5340
 8683TIP3   OH226012   3.415   3.129   3.068  0.6060 -0.1067 -0.1699
 8683TIP3    H126013   3.326   3.146   3.098  1.6074  0.8749  2.6060
 8683TIP3    H226014   3.426   3.035   3.078 -0.9974 -0.7719 -3.4996
 8684TIP3   OH226015   2.181   0.806   3.508  0.2929 -0.0454 -0.1077
 8684TIP3    H126016   2.170   0.733   3.446  1.8747 -0.2508 -0.1736
 8684TIP3    H226017   2.099   0.854   3.502 -0.1211 -0.8466 -1.3403
 8685TIP3   OH226018   4.223   1.817   1.433  0.0622  0.3735  0.0626
 8685TIP3    H126019   4.304   1.777   1.400 -0.3125 -1.2303  0.9955
 8685TIP3    H226020   4.244   1.844   1.522 -0.9025 -1.8020  1.0281
 8686TIP3   OH226021   2.474   5.549   3.059 -0.8687  0.1848 -0.2470
 8686TIP3    H126022   2.472   5.494   2.981 -1.4655 -0.7304  0.3938
 8686TIP3    H226023   2.418   5.504   3.122  0.2978  0.4415  1.0177
 8687TIP3   OH226024   6.667   5.596   1.001 -0.0519 -0.1852  0.0382
 8687TIP3    H126025   6.637   5.666   1.059 -0.1430 -0.7745  0.7097
 8687TIP3    H226026   6.763   5.605   1.000 -0.0982  0.2994 -0.3293
 8688TIP3   OH226027   5.512   6.610   2.814 -0.0192 -0.3792  0.1080
 8688TIP3    H126028   5.530   6.538   2.753  0.8906  0.5172 -0.7199
 8688TIP3    H226029   5.448   6.574   2.875  1.9207 -2.5819  0.9856
 8689TIP3   OH226030   2.135   1.102   1.789 -0.6827 -0.7070  0.2501
 8689TIP3    H126031   2.199   1.154   1.741 -0.3453  1.4318  2.8182
 8689TIP3    H226032   2.052   1.121   1.745 -0.3709  1.1070  0.3556
 8690TIP3   OH226033   0.588   5.616   2.452 -0.2211  0.3456 -0.2685
 8690TIP3    H126034   0.616   5.704   2.427 -1.1762  0.8096  0.1998
 8690TIP3    H226035   0.549   5.628   2.539  1.2201 -0.8530  0.5983
 8691TIP3   OH226036   1.628   3.848   0.693 -0.2480  0.3640  0.0329
 8691TIP3    H126037   1.677   3.914   0.741  0.3008 -0.1781  0.2378
 8691TIP3    H226038   1.538   3.857   0.725 -0.6313  2.3554 -1.4248
 8692TIP3   OH226039   4.293   6.362   5.180 -0.2237 -0.3282  0.4048
 8692TIP3    H126040   4.208   6.319   5.168 -0.1584  0.1086 -2.3598
 8692TIP3    H226041   4.350   6.319   5.116  0.8776  1.2189  0.2907
 8693TIP3   OH226042   2.885   5.093   0.984  0.2931 -0.2320 -0.0739
 8693TIP3    H126043   2.981   5.095   0.989  0.4759 -1.0115 -2.3414
 8693TIP3    H226044   2.864   5.007   0.948 -1.1348  0.5836 -1.3042
 8694TIP3   OH226045   0.525   0.170   1.267  0.8270  0.1274  0.1589
 8694TIP3    H126046   0.569   0.088   1.245  0.8920  0.0882  0.4223
 8694TIP3    H226047   0.583   0.238   1.232  0.2751  0.0459 -0.9417
 8695TIP3   OH226048   1.128   4.351   5.439 -0.2399 -0.3808  0.1835
 8695TIP3    H126049   1.208   4.363   5.387 -0.4997 -1.4279 -0.4925
 8695TIP3    H226050   1.130   4.423   5.502  2.3521 -1.5664  1.6444
 8696TIP3   OH226051   0.238   5.975   2.286 -0.4831  0.4651  0.2895
 8696TIP3    H126052   0.157   5.998   2.333 -1.7676 -0.7307 -1.2160
 8696TIP3    H226053   0.289   6.056   2.286 -1.5789  1.2078  1.4456
 8697TIP3   OH226054   0.988   0.430   2.870 -0.4262 -0.2108 -0.4956
 8697TIP3    H126055   1.036   0.357   2.910  0.8933  0.1812 -1.2810
 8697TIP3    H226056   0.914   0.445   2.929  0.7116 -0.5166  1.0992
 8698TIP3   OH226057   1.917   2.181   2.573  0.2171 -0.2976 -0.6041
 8698TIP3    H126058   1.859   2.127   2.628  0.8799 -1.6879 -1.2198
 8698TIP3    H226059   1.927   2.262   2.622  1.0554 -1.6011  1.5346
 8699TIP3   OH226060   3.143   1.773   0.118 -0.1351  0.3866  0.4854
 8699TIP3    H126061   3.059   1.756   0.077  0.3446  0.4926 -0.5880
 8699TIP3    H226062   3.207   1.732   0.059  0.5513  0.0491  1.4269
 8700TIP3   OH226063   0.708   2.721   5.558 -0.1519  0.0910 -0.4102
 8700TIP3    H126064   0.795   2.684   5.567 -0.0403  0.4863  0.1920
 8700TIP3    H226065   0.720   2.816   5.567 -0.5481  0.2147 -1.0591
 8701TIP3   OH226066   3.304   0.880   2.383  0.3974  0.1093 -0.2585
 8701TIP3    H126067   3.396   0.890   2.359  0.5261  0.1339  0.2330
 8701TIP3    H226068   3.294   0.787   2.403  0.9547  0.5202  2.1992
 8702TIP3   OH226069   6.101   0.533   3.578 -0.1349 -0.2926 -0.1060
 8702TIP3    H126070   6.096   0.438   3.569  0.0433 -0.6978  2.9548
 8702TIP3    H226071   6.179   0.547   3.633 -1.0133  1.4833  0.7583
 8703TIP3   OH226072   5.322   6.513   3.835  0.0342 -0.0590  0.1466
 8703TIP3    H126073   5.385   6.446   3.811  0.7744  1.4683 -2.7299
 8703TIP3    H226074   5.368   6.596   3.819 -1.9048  1.1186  0.3061
 8704TIP3   OH226075   6.153   6.273   1.285 -0.2185 -0.1034 -0.1553
 8704TIP3    H126076   6.208   6.264   1.207  1.0975 -3.1901  0.9727
 8704TIP3    H226077   6.206   6.325   1.346 -0.4756  0.7369 -0.6329
 8705TIP3   OH226078   3.339   3.716   2.371 -0.7692 -0.3865 -0.5737
 8705TIP3    H126079   3.420   3.727   2.322 -0.6746  2.5555  0.1136
 8705TIP3    H226080   3.275   3.769   2.324 -0.8645  1.9300  1.9514
 8706TIP3   OH226081   0.467   4.375   0.253  0.4187 -0.1851  0.1862
 8706TIP3    H126082   0.374   4.396   0.246  0.6936  0.6032 -1.4190
 8706TIP3    H226083   0.503   4.446   0.307  0.2745  0.0752 -0.0582
 8707TIP3   OH226084   4.374   1.150   4.960  0.2296  0.4112  0.2139
 8707TIP3    H126085   4.414   1.077   4.913  1.3833 -0.1281  1.9366
 8707TIP3    H226086   4.393   1.227   4.907  0.1682 -0.3552 -0.9460
 8708TIP3   OH226087   0.934   0.730   3.338  0.1324 -0.1733 -0.6283
 8708TIP3    H126088   0.878   0.680   3.398  0.2828 -0.2465 -0.5490
 8708TIP3    H226089   0.965   0.666   3.274  1.2443 -0.4200  0.1340
 8709TIP3   OH226090   5.160   6.136   3.748 -0.2662  0.0055 -0.6064
 8709TIP3    H126091   5.090   6.117   3.685 -0.2214  1.0208 -0.9799
 8709TIP3    H226092   5.232   6.079   3.722 -0.2141  0.4842 -1.5472
 8710TIP3   OH226093   2.872   4.551   3.412  0.2273 -0.2771 -0.6335
 8710TIP3    H126094   2.936   4.589   3.352  0.9568  0.4179  0.5559
 8710TIP3    H226095   2.914   4.471   3.444 -0.9123 -1.6606 -2.3958
 8711TIP3   OH226096   5.326   5.538   1.460  0.3666 -0.0724  0.0601
 8711TIP3    H126097   5.285   5.480   1.396 -0.1939  2.6215 -2.2351
 8711TIP3    H226098   5.405   5.569   1.417  0.3566  1.2850  0.9512
 8712TIP3   OH226099   5.053   1.211   5.306  0.1125 -0.3260  0.1246
 8712TIP3    H126100   5.098   1.138   5.348  0.2836  0.6870  1.8112
 8712TIP3    H226101   5.123   1.263   5.266 -0.0392 -1.2281 -1.3716
 8713TIP3   OH226102   4.410   3.857   2.365  0.0717 -0.1953  0.2183
 8713TIP3    H126103   4.419   3.900   2.280 -2.1727  0.8221  0.4282
 8713TIP3    H226104   4.335   3.899   2.406  0.1101 -1.7592  2.0647
 8714TIP3   OH226105   1.468   0.788   3.191 -0.5022 -0.0724  0.6923
 8714TIP3    H126106   1.405   0.802   3.263 -0.3612  1.1665  0.5969
 8714TIP3    H226107   1.416   0.799   3.112 -0.5619 -0.9962  0.5932
 8715TIP3   OH226108   2.460   5.125   4.371  0.7958 -0.1917 -0.1399
 8715TIP3    H126109   2.438   5.046   4.421  1.7983 -1.5110 -1.6824
 8715TIP3    H226110   2.442   5.197   4.431 -0.1111 -1.5883  1.3422
 8716TIP3   OH226111   4.913   1.520   3.306 -0.5644  0.5674 -0.0554
 8716TIP3    H126112   4.826   1.482   3.293 -0.4672  0.4867 -0.4779
 8716TIP3    H226113   4.964   1.449   3.346 -0.5312  0.4186 -0.3551
 8717TIP3   OH226114   0.027   0.977   0.354 -0.0043 -0.1049 -0.0116
 8717TIP3    H126115   0.073   0.987   0.437  0.9657 -1.9744 -0.2629
 8717TIP3    H226116   0.090   0.936   0.296 -0.9436  0.3795 -1.4272
 8718TIP3   OH226117   6.398   3.299   3.608  0.0990  0.1406 -0.1318
 8718TIP3    H126118   6.418   3.269   3.520 -0.9959 -0.1756 -0.2737
 8718TIP3    H226119   6.323   3.358   3.598  0.6050  0.9240  0.4675
 8719TIP3   OH226120   5.799   1.798   1.386 -0.3920 -0.4395  0.2398
 8719TIP3    H126121   5.775   1.706   1.400  0.4351 -0.5154  1.2747
 8719TIP3    H226122   5.889   1.804   1.419 -0.4534  0.7496  0.2154
 8720TIP3   OH226123   3.993   0.975   5.452  0.5309  0.0149  0.4265
 8720TIP3    H126124   3.965   1.063   5.477  0.0681 -0.3566  1.2764
 8720TIP3    H226125   3.915   0.935   5.414  0.3978 -0.4063  1.1141
 8721TIP3   OH226126   1.371   5.762   5.419  0.1132 -0.6883  0.1031
 8721TIP3    H126127   1.308   5.719   5.361 -0.4684 -0.8167  0.8169
 8721TIP3    H226128   1.318   5.822   5.472  0.5668 -0.9381  0.8466
 8722TIP3   OH226129   6.259   4.104   5.508 -0.0345  0.6796 -0.3171
 8722TIP3    H126130   6.198   4.034   5.486  0.2813  0.6216 -1.0288
 8722TIP3    H226131   6.341   4.078   5.468  0.2747  1.1080  0.0295
 8723TIP3   OH226132   5.696   6.194   0.889  0.1088 -0.3131  0.0006
 8723TIP3    H126133   5.788   6.212   0.911  0.2879  0.9971 -1.6606
 8723TIP3    H226134   5.653   6.280   0.892 -0.7448 -0.7025 -0.6228
 8724TIP3   OH226135   4.907   0.992   0.979  0.0234  0.9360 -0.1766
 8724TIP3    H126136   4.923   0.977   1.072 -1.0950 -0.5143 -0.1927
 8724TIP3    H226137   4.818   0.959   0.963  0.5297  0.2890 -1.9505
 8725TIP3   OH226138   1.959   2.524   3.907 -0.2631 -0.3671 -0.0821
 8725TIP3    H126139   1.913   2.470   3.970  0.1702 -1.0348 -0.3287
 8725TIP3    H226140   1.895   2.541   3.838  0.0587 -1.9353 -0.8063
 8726TIP3   OH226141   6.309   2.424   0.582 -0.2280 -0.4757  0.3762
 8726TIP3    H126142   6.247   2.462   0.644  0.2016 -0.4539  0.7953
 8726TIP3    H226143   6.392   2.422   0.629  0.6677  1.7048 -0.9566
 8727TIP3   OH226144   4.664   0.117   3.345 -0.3262 -0.7918  0.0587
 8727TIP3    H126145   4.602   0.087   3.279 -0.7567  1.1286 -0.4868
 8727TIP3    H226146   4.613   0.174   3.403  0.4050 -1.1365  1.0888
 8728TIP3   OH226147   0.821   1.372   3.813  0.1818  0.3226  0.0974
 8728TIP3    H126148   0.760   1.439   3.784 -0.3406  0.1436  0.7796
 8728TIP3    H226149   0.892   1.420   3.856  1.4711  0.6769 -2.2726
 8729TIP3   OH226150   6.267   6.792   2.417  0.0717  0.1329 -0.4426
 8729TIP3    H126151   6.197   6.846   2.454  0.2116 -0.9342  1.5613
 8729TIP3    H226152   6.221   6.725   2.366 -0.2431  0.6112 -0.7896
 8730TIP3   OH226153   3.505   4.599   0.716 -0.1313  0.1293 -0.0252
 8730TIP3    H126154   3.513   4.598   0.811 -1.5565  1.9454  0.1620
 8730TIP3    H226155   3.426   4.650   0.698  0.1407 -0.0902 -2.2005
 8731TIP3   OH226156   3.237   0.304   0.460 -0.3181  0.0628 -0.1792
 8731TIP3    H126157   3.202   0.389   0.486  1.0159  0.4969  0.2778
 8731TIP3    H226158   3.257   0.314   0.367 -0.9073 -0.0286 -0.3219
 8732TIP3   OH226159   6.047   5.863   4.189 -0.4406  0.6264 -0.4090
 8732TIP3    H126160   6.047   5.786   4.131  0.0317  1.0738 -1.0020
 8732TIP3    H226161   6.030   5.826   4.276  1.1000 -0.3147 -0.4684
 8733TIP3   OH226162   3.128   1.821   4.622 -0.1708 -0.0101 -0.2492
 8733TIP3    H126163   3.189   1.750   4.640  0.4759  0.7593  0.6292
 8733TIP3    H226164   3.042   1.785   4.645 -0.2189 -1.4104 -2.3384
 8734TIP3   OH226165   2.953   3.240   1.689 -0.0033  0.0863 -0.4096
 8734TIP3    H126166   3.032   3.268   1.735  0.3372  0.2615 -1.0988
 8734TIP3    H226167   2.939   3.150   1.718  0.4151  0.0718 -0.2501
 8735TIP3   OH226168   0.030   4.041   5.836  0.8246  0.4304  0.1012
 8735TIP3    H126169   0.020   4.111   5.901  2.9840  1.0176 -0.1387
 8735TIP3    H226170   0.047   4.086   5.754 -1.0730 -0.3360 -0.7668
 8736TIP3   OH226171   5.213   1.411   4.492 -0.2085  1.0123 -0.0387
 8736TIP3    H126172   5.163   1.423   4.573 -0.5947 -1.6744  0.2108
 8736TIP3    H226173   5.299   1.448   4.510 -0.4243  0.8181  1.4625
 8737TIP3   OH226174   4.362   6.620   3.548 -0.0265  0.1409  0.6127
 8737TIP3    H126175   4.274   6.590   3.573  0.2812 -0.7182  0.6981
 8737TIP3    H226176   4.367   6.710   3.580 -2.0950  1.4590 -2.2941
 8738TIP3   OH226177   4.032   1.955   4.475  0.0310  0.2123  0.1406
 8738TIP3    H126178   4.108   1.990   4.429 -0.0708 -0.5641 -0.6454
 8738TIP3    H226179   4.060   1.947   4.566  1.3555 -1.3547 -0.3760
 8739TIP3   OH226180   1.891   1.120   5.346 -0.0097 -0.1105  0.6025
 8739TIP3    H126181   1.832   1.058   5.388 -2.3649  1.8819  0.5220
 8739TIP3    H226182   1.916   1.078   5.264 -1.9834 -0.7733  0.2766
 8740TIP3   OH226183   3.019   1.813   3.726  0.2021  0.2437  0.0127
 8740TIP3    H126184   3.046   1.723   3.745  1.5751  0.4852 -0.6446
 8740TIP3    H226185   3.094   1.851   3.679  0.0462  2.0210  1.1164
 8741TIP3   OH226186   3.142   0.107   4.046  0.7256 -0.2823 -0.4502
 8741TIP3    H126187   3.226   0.151   4.029  1.9870 -1.8447  1.3785
 8741TIP3    H226188   3.095   0.114   3.963  1.6800  2.6098 -0.8903
 8742TIP3   OH226189   5.248   1.795   4.640 -0.3601  0.3885 -0.1820
 8742TIP3    H126190   5.275   1.754   4.558  0.6411  0.9958 -0.1664
 8742TIP3    H226191   5.154   1.775   4.646  0.0295 -1.6846 -0.2738
 8743TIP3   OH226192   2.464   1.631   0.865  0.4127 -0.2682 -0.0694
 8743TIP3    H126193   2.423   1.639   0.950  1.3019  0.3486  0.3176
 8743TIP3    H226194   2.525   1.558   0.874 -0.0045 -0.6614 -0.3950
 8744TIP3   OH226195   1.640   5.078   5.378  0.1808 -0.2097  0.3391
 8744TIP3    H126196   1.687   5.119   5.450 -0.9371 -0.8140  1.4484
 8744TIP3    H226197   1.693   5.002   5.355  1.6796  1.1527 -0.9830
 8745TIP3   OH226198   5.194   4.198   3.487  0.4616  0.1546 -0.3844
 8745TIP3    H126199   5.125   4.243   3.536  0.2282  0.7861 -1.2827
 8745TIP3    H226200   5.255   4.168   3.554 -1.3623 -1.6653  0.6010
 8746TIP3   OH226201   2.320   3.239   1.757  0.2616  0.6602  0.5838
 8746TIP3    H126202   2.368   3.285   1.826 -1.7643  1.7586  1.3560
 8746TIP3    H226203   2.293   3.157   1.797 -0.3748  1.0232  0.9206
 8747TIP3   OH226204   2.921   5.865   2.716 -0.6273  0.1721  0.0824
 8747TIP3    H126205   2.907   5.959   2.709 -0.1137  0.3718  1.4525
 8747TIP3    H226206   2.835   5.829   2.740 -0.0705  0.7950  3.4504
 8748TIP3   OH226207   2.804   1.050   4.797 -0.4234  0.7041 -0.1312
 8748TIP3    H126208   2.782   1.059   4.890  0.5606  0.7667  0.1104
 8748TIP3    H226209   2.732   0.999   4.760  1.7557 -4.4435  1.8385
 8749TIP3   OH226210   0.180   5.058   1.542  0.2698 -0.5254  0.1242
 8749TIP3    H126211   0.134   5.131   1.583  0.8403  0.6523 -1.2425
 8749TIP3    H226212   0.115   5.018   1.484  0.8074  0.9765 -1.6087
 8750TIP3   OH226213   5.411   2.846   3.232  0.5579 -0.7270  0.3797
 8750TIP3    H126214   5.397   2.935   3.200 -0.6727 -0.4820  1.5005
 8750TIP3    H226215   5.385   2.790   3.158  1.5995 -0.1747 -0.4287
 8751TIP3   OH226216   5.629   5.937   3.675 -0.1543  0.2599 -0.1540
 8751TIP3    H126217   5.638   5.864   3.737 -2.5162  0.4935  0.5640
 8751TIP3    H226218   5.674   5.907   3.597  0.5697 -1.1835  0.7620
 8752TIP3   OH226219   4.283   1.657   3.446  0.2606  0.5168  0.7317
 8752TIP3    H126220   4.198   1.613   3.458  0.7706 -0.8241 -0.2815
 8752TIP3    H226221   4.266   1.723   3.378  0.3134 -0.7048 -0.5121
 8753TIP3   OH226222   4.950   0.584   1.105  0.5452 -0.2070  0.5271
 8753TIP3    H126223   4.864   0.549   1.126  0.3375 -0.8270 -1.2407
 8753TIP3    H226224   5.005   0.559   1.180 -1.0607  1.4299  2.3740
 8754TIP3   OH226225   0.674   0.424   5.127 -0.0923 -0.3329 -0.0286
 8754TIP3    H126226   0.646   0.504   5.170  0.4344  0.1074 -0.4836
 8754TIP3    H226227   0.600   0.364   5.136 -1.1972  0.7869 -1.1861
 8755TIP3   OH226228   4.289   1.121   5.672 -0.1606 -0.0469  0.0380
 8755TIP3    H126229   4.214   1.070   5.700 -1.7757  1.8869 -0.5675
 8755TIP3    H226230   4.352   1.056   5.640 -0.6646 -1.8462  2.4945
 8756TIP3   OH226231   1.254   3.814   5.063  0.6097  0.1928 -0.3085
 8756TIP3    H126232   1.229   3.905   5.050  1.2789  0.3960 -0.2104
 8756TIP3    H226233   1.337   3.818   5.111  0.1318 -0.4861  0.6136
 8757TIP3   OH226234   6.336   0.031   0.022  0.2334  0.1734  0.1689
 8757TIP3    H126235   6.389   0.111   0.023  0.3607  0.1387 -1.2539
 8757TIP3    H226236   6.388  -0.034   0.069  0.9390  0.4519 -0.2205
 8758TIP3   OH226237   4.492   4.260   2.189 -0.4778 -0.4593 -0.4045
 8758TIP3    H126238   4.557   4.202   2.149  0.2565 -0.6306  0.9826
 8758TIP3    H226239   4.421   4.201   2.216  0.2673 -0.7513  1.0034
 8759TIP3   OH226240   2.262   1.363   2.362  0.0530 -0.0764  0.2249
 8759TIP3    H126241   2.246   1.295   2.427 -0.7940  0.6305  0.7662
 8759TIP3    H226242   2.309   1.431   2.409 -0.3540  0.3374  0.0419
 8760TIP3   OH226243   5.590   6.339   5.697  0.2795  0.7412 -0.1068
 8760TIP3    H126244   5.642   6.264   5.727  0.2105  0.2363 -1.1933
 8760TIP3    H226245   5.505   6.328   5.739  0.7105  1.0061  0.8672
 8761TIP3   OH226246   6.866   1.998   4.043  0.1708  0.5092  0.0122
 8761TIP3    H126247   6.911   1.932   4.096 -0.1012  0.9298  0.7913
 8761TIP3    H226248   6.847   1.954   3.960  1.1870  0.0431  0.0172
 8762TIP3   OH226249   5.985   6.693   2.928 -0.0178 -0.4346  0.1591
 8762TIP3    H126250   5.940   6.684   2.844 -2.0886 -0.8167  1.2282
 8762TIP3    H226251   5.914   6.698   2.993  1.4832  0.7234  1.8192
 8763TIP3   OH226252   4.061   3.215   4.801  0.4467 -0.4738 -0.4017
 8763TIP3    H126253   4.000   3.187   4.732  1.3258  0.4868 -1.6246
 8763TIP3    H226254   4.054   3.147   4.868 -0.0580 -1.7445 -1.6758
 8764TIP3   OH226255   1.969   6.372   4.251  0.2470  0.3723 -0.0824
 8764TIP3    H126256   1.984   6.285   4.289 -2.7422 -0.2019  0.0961
 8764TIP3    H226257   1.960   6.430   4.326  1.1083  0.6262 -0.1686
 8765TIP3   OH226258   3.634   1.217   1.442 -0.0795  0.4778 -0.5424
 8765TIP3    H126259   3.658   1.288   1.502  0.5228 -0.9695  0.9963
 8765TIP3    H226260   3.713   1.164   1.435 -0.0604  0.7022 -2.8504
 8766TIP3   OH226261   3.825   6.521   5.258 -0.4834 -0.6082  0.5278
 8766TIP3    H126262   3.737   6.486   5.272 -0.4538 -1.3017 -0.8404
 8766TIP3    H226263   3.882   6.444   5.261 -0.2498 -0.5464 -1.1302
 8767TIP3   OH226264   5.552   6.544   2.126  0.0781 -0.2219 -0.1027
 8767TIP3    H126265   5.621   6.537   2.061 -0.1066 -1.3029 -0.1912
 8767TIP3    H226266   5.573   6.478   2.192  0.1874  0.7635  0.8750
 8768TIP3   OH226267   6.678   3.216   1.768  0.1077 -0.1643  0.0586
 8768TIP3    H126268   6.594   3.170   1.764  1.0023 -1.8090 -0.2865
 8768TIP3    H226269   6.681   3.253   1.856 -0.0127 -1.9972  0.8660
 8769TIP3   OH226270   5.378   1.107   2.182  0.0173  0.5756  0.4535
 8769TIP3    H126271   5.462   1.143   2.152 -1.4448  3.5390 -0.5434
 8769TIP3    H226272   5.351   1.047   2.113  1.6109 -1.0422  1.1649
 8770TIP3   OH226273   5.369   3.073   3.069 -0.5295  0.4542  0.4066
 8770TIP3    H126274   5.426   3.149   3.066  1.7973 -1.2143 -0.6958
 8770TIP3    H226275   5.344   3.057   2.978 -2.7642  1.0735  0.8485
 8771TIP3   OH226276   0.198   4.540   2.163  0.5185  0.0456  0.5345
 8771TIP3    H126277   0.151   4.458   2.179  1.8068 -0.4183  2.2318
 8771TIP3    H226278   0.137   4.609   2.188 -0.1896 -0.4331  0.1433
 8772TIP3   OH226279   4.865   3.570   5.568  0.5785  0.2190  0.1031
 8772TIP3    H126280   4.852   3.505   5.498  2.0327  0.8993 -0.8338
 8772TIP3    H226281   4.785   3.623   5.566  1.0799  0.9822 -1.9020
 8773TIP3   OH226282   2.535   4.629   0.063  0.2574 -0.9162 -0.1828
 8773TIP3    H126283   2.620   4.589   0.048  0.6519 -0.5338  0.9729
 8773TIP3    H226284   2.484   4.562   0.108  1.2767  0.1270  2.7786
 8774TIP3   OH226285   0.379   6.536   5.680  0.7911  0.1134 -0.5052
 8774TIP3    H126286   0.413   6.617   5.719  1.2938 -0.1814 -0.3193
 8774TIP3    H226287   0.354   6.562   5.591 -0.3137  0.7719 -0.0247
 8775TIP3   OH226288   0.471   0.854   2.654 -0.0567  0.4845 -0.1724
 8775TIP3    H126289   0.499   0.767   2.683 -0.4161  0.2782 -0.4380
 8775TIP3    H226290   0.387   0.839   2.611 -1.1025  1.2323  1.5118
 8776TIP3   OH226291   3.323   0.593   5.267 -0.1288 -0.0822 -0.2770
 8776TIP3    H126292   3.346   0.632   5.183  1.7711 -0.3556  0.0863
 8776TIP3    H226293   3.310   0.500   5.247 -1.5811  0.1623 -0.5814
 8777TIP3   OH226294   1.027   4.587   2.189 -0.3634  0.4879  0.1165
 8777TIP3    H126295   1.069   4.529   2.126  0.3056  0.5012  0.5378
 8777TIP3    H226296   1.067   4.672   2.174 -1.8176  1.0363 -0.9571
 8778TIP3   OH226297   5.959   1.544   1.294 -0.1380 -0.6139 -0.2996
 8778TIP3    H126298   5.882   1.556   1.350 -1.4500  0.3473 -2.1853
 8778TIP3    H226299   5.962   1.450   1.276 -2.2181 -0.4526 -1.8953
 8779TIP3   OH226300   5.716   0.804   3.762  0.3583  0.0312 -0.1885
 8779TIP3    H126301   5.724   0.897   3.781  0.5941 -0.0291  0.0171
 8779TIP3    H226302   5.747   0.761   3.842  1.4710 -0.2364 -0.7415
 8780TIP3   OH226303   4.573   1.393   0.593  0.1147  0.2452  0.0221
 8780TIP3    H126304   4.627   1.403   0.672 -0.5694  2.0148  0.3179
 8780TIP3    H226305   4.576   1.480   0.552  0.6847 -0.7014 -2.0749
 8781TIP3   OH226306   0.749   1.801   0.419 -0.0279  0.7676 -0.5957
 8781TIP3    H126307   0.792   1.716   0.405 -0.5564  0.4075 -0.0622
 8781TIP3    H226308   0.794   1.838   0.494 -1.8420 -0.4561  1.2023
 8782TIP3   OH226309   4.549   1.049   0.273 -0.6215  0.1178  0.5493
 8782TIP3    H126310   4.532   0.986   0.344  1.2502 -1.8887 -0.6605
 8782TIP3    H226311   4.563   0.994   0.196  2.4586  1.9019 -0.3034
 8783TIP3   OH226312   6.033   1.347   3.134 -0.0739  0.1103 -0.5819
 8783TIP3    H126313   5.952   1.397   3.145  0.4565  0.7767  0.6031
 8783TIP3    H226314   6.077   1.354   3.219  0.6451 -1.2873 -0.8081
 8784TIP3   OH226315   6.651   3.170   2.622 -0.1832  0.2128  0.4886
 8784TIP3    H126316   6.727   3.218   2.589  1.2673 -0.4081  2.6952
 8784TIP3    H226317   6.688   3.105   2.682 -2.3953 -0.9560  0.6924
 8785TIP3   OH226318   5.623   0.083   4.651 -0.1292  0.0488  0.0371
 8785TIP3    H126319   5.655   0.142   4.583  0.8682 -1.3676 -0.7793
 8785TIP3    H226320   5.539   0.120   4.677 -0.4447  0.7603 -1.8288
 8786TIP3   OH226321   5.423   5.136   3.658 -0.0682  0.1505  0.1173
 8786TIP3    H126322   5.459   5.131   3.570 -1.3839 -0.2808 -0.4170
 8786TIP3    H226323   5.498   5.162   3.713  1.1788 -1.2193 -0.8485
 8787TIP3   OH226324   0.396   4.048   5.599 -0.0867  0.8600  0.3436
 8787TIP3    H126325   0.435   3.977   5.649 -0.1100  1.0105  0.5761
 8787TIP3    H226326   0.414   4.127   5.650  2.8532  1.5284 -1.4841
 8788TIP3   OH226327   0.933   6.466   2.598 -0.9000  0.0249  0.1059
 8788TIP3    H126328   0.883   6.423   2.667  1.2233 -0.7279  1.2861
 8788TIP3    H226329   1.023   6.465   2.630 -0.2112  2.0032 -1.5518
 8789TIP3   OH226330   3.991   1.187   2.528 -0.5621 -0.1190 -0.0989
 8789TIP3    H126331   3.961   1.126   2.596 -1.1967  1.4910  1.1300
 8789TIP3    H226332   4.075   1.150   2.499 -0.8970 -1.5406  0.6385
 8790TIP3   OH226333   5.689   4.784   3.634 -0.1517  0.6236 -0.3583
 8790TIP3    H126334   5.624   4.730   3.587  0.8725 -1.3800  0.4037
 8790TIP3    H226335   5.736   4.830   3.564  0.0835 -0.8232 -1.1966
 8791TIP3   OH226336   2.215   2.572   4.326  0.3350 -0.4706  0.3014
 8791TIP3    H126337   2.166   2.493   4.302  1.0149 -0.5730 -0.8164
 8791TIP3    H226338   2.307   2.545   4.321  0.6323  0.7407 -1.4647
 8792TIP3   OH226339   4.870   1.988   5.081  0.1029 -0.3221  0.6399
 8792TIP3    H126340   4.812   1.932   5.029  0.5556 -0.5391  0.3658
 8792TIP3    H226341   4.839   1.976   5.171  0.0876 -0.8807  0.5657
 8793TIP3   OH226342   0.789   4.692   5.069  0.5409  0.0771  0.3180
 8793TIP3    H126343   0.879   4.664   5.052  0.7266  0.4536  0.6650
 8793TIP3    H226344   0.778   4.771   5.015  0.8754  0.8269  1.3300
 8794TIP3   OH226345   5.559   4.824   5.122 -0.0692 -0.2127  0.1549
 8794TIP3    H126346   5.612   4.803   5.045 -0.6560 -0.6304 -0.1428
 8794TIP3    H226347   5.612   4.796   5.196  0.3515 -0.1375 -0.1143
 8795TIP3   OH226348   4.562   2.042   0.200 -0.1818 -0.2446  0.0483
 8795TIP3    H126349   4.513   1.995   0.132 -1.9451  3.3020 -1.4030
 8795TIP3    H226350   4.494   2.069   0.263  0.5307  1.1726  0.2500
 8796TIP3   OH226351   4.588   3.806   4.525  0.1674  0.2779 -0.1029
 8796TIP3    H126352   4.652   3.869   4.491  0.9295 -0.3103  0.2183
 8796TIP3    H226353   4.518   3.806   4.460  0.6502  0.6779 -0.6390
 8797TIP3   OH226354   0.386   6.654   1.171 -0.2678 -0.0264 -0.3144
 8797TIP3    H126355   0.380   6.602   1.250  0.3938  1.7387  0.9629
 8797TIP3    H226356   0.298   6.652   1.133 -0.8314 -0.1216  0.9689
 8798TIP3   OH226357   1.705   2.814   0.244  0.1247 -0.0608 -0.0355
 8798TIP3    H126358   1.667   2.772   0.321 -1.7743  0.2835 -0.7360
 8798TIP3    H226359   1.755   2.744   0.201  0.0119 -0.6267  0.7303
 8799TIP3   OH226360   5.919   2.154   0.861 -0.4833 -0.7785  0.1629
 8799TIP3    H126361   5.966   2.109   0.932 -0.3645  0.0784  0.6418
 8799TIP3    H226362   5.846   2.095   0.840  0.1334 -1.5766  0.2054
 8800TIP3   OH226363   0.200   1.649   1.899  0.4103  0.0978 -0.6688
 8800TIP3    H126364   0.220   1.681   1.811  0.8027 -2.4057 -1.5656
 8800TIP3    H226365   0.241   1.563   1.903 -2.5540 -1.4056  0.6800
 8801TIP3   OH226366   0.672   6.612   2.217 -0.1870  0.4120  0.9399
 8801TIP3    H126367   0.752   6.581   2.258 -0.6754 -0.8768  0.9735
 8801TIP3    H226368   0.695   6.626   2.125  0.3121  1.0299  1.1511
 8802TIP3   OH226369   1.645   4.663   2.861 -0.7397 -0.3581 -0.3253
 8802TIP3    H126370   1.593   4.588   2.833 -0.0144 -0.3988 -1.6467
 8802TIP3    H226371   1.681   4.699   2.780 -0.8100  1.2264  0.3120
 8803TIP3   OH226372   1.068   2.494   4.069 -0.1420  0.1622 -0.0678
 8803TIP3    H126373   1.104   2.479   4.157 -0.6815 -1.5875 -0.1033
 8803TIP3    H226374   1.068   2.408   4.028 -1.8891  0.5677 -1.0129
 8804TIP3   OH226375   4.029   0.095   3.470 -0.0165  0.3839  0.7370
 8804TIP3    H126376   4.014   0.011   3.428 -1.7472 -0.0339  2.0813
 8804TIP3    H226377   4.011   0.160   3.401  0.2920 -0.3256 -0.0173
 8805TIP3   OH226378   4.863   1.883   3.362  0.3852 -0.1618  0.3109
 8805TIP3    H126379   4.951   1.893   3.326  0.2628  0.2396  0.1253
 8805TIP3    H226380   4.856   1.952   3.428 -0.9360  1.9330 -1.9030
 8806TIP3   OH226381   5.737   3.205   2.501  0.4033 -0.3135 -0.3796
 8806TIP3    H126382   5.707   3.245   2.583  0.7991 -0.3853 -0.1928
 8806TIP3    H226383   5.670   3.141   2.479  0.3752 -0.4132 -0.0198
 8807TIP3   OH226384   6.632   0.169   3.457  0.1726  0.3419  0.1226
 8807TIP3    H126385   6.621   0.257   3.492  1.4376  0.6475 -0.1707
 8807TIP3    H226386   6.632   0.180   3.362  1.6500  0.2398  0.0865
 8808TIP3   OH226387   0.141   3.926   2.399 -0.1204  0.4985 -0.0566
 8808TIP3    H126388   0.200   4.000   2.388  0.3288 -0.0059 -1.2394
 8808TIP3    H226389   0.133   3.915   2.494  0.9346  1.1580  0.1251
 8809TIP3   OH226390   4.968   5.562   2.296 -0.1571 -0.1883 -0.2696
 8809TIP3    H126391   5.052   5.561   2.250  0.1709 -0.4166  0.3162
 8809TIP3    H226392   4.913   5.622   2.245  0.9399  1.4012  0.3251
 8810TIP3   OH226393   2.947   1.367   0.724 -0.3081 -0.4165  0.2377
 8810TIP3    H126394   2.940   1.273   0.704  0.5552 -0.3815 -0.2821
 8810TIP3    H226395   3.041   1.382   0.733 -0.3574  0.6149 -0.7882
 8811TIP3   OH226396   2.953   0.488   1.386  0.0441 -0.1884  0.1743
 8811TIP3    H126397   2.858   0.490   1.374 -0.0418  2.1252  0.7283
 8811TIP3    H226398   2.987   0.454   1.303 -1.2464 -1.1465  0.0084
 8812TIP3   OH226399   6.966   2.978   5.733 -0.2200  0.3575 -0.4019
 8812TIP3    H126400   6.917   2.974   5.815 -0.8744  0.1202 -0.7933
 8812TIP3    H226401   6.898   2.978   5.665  0.3322 -0.0119 -0.9603
 8813TIP3   OH226402   1.595   5.493   3.358 -0.1173  0.3461 -0.7441
 8813TIP3    H126403   1.652   5.441   3.301 -0.9844 -0.9235 -0.4906
 8813TIP3    H226404   1.545   5.548   3.298 -0.2966 -0.2429 -1.1466
 8814TIP3   OH226405   3.541   4.309   2.215 -0.4614  0.2985 -0.0821
 8814TIP3    H126406   3.519   4.287   2.305  0.4709  0.6498  0.2391
 8814TIP3    H226407   3.568   4.401   2.218  0.4770  0.0566 -0.5506
 8815TIP3   OH226408   6.890   0.247   5.385 -0.2233 -0.4115  0.6718
 8815TIP3    H126409   6.836   0.221   5.311 -0.1738 -0.3775  0.6236
 8815TIP3    H226410   6.959   0.181   5.390  0.0711 -0.1287  0.3688
 8816TIP3   OH226411   5.734   5.581   3.034 -0.2683  0.6828  0.4852
 8816TIP3    H126412   5.698   5.575   2.945 -2.1982 -0.0845  1.2701
 8816TIP3    H226413   5.718   5.671   3.061  1.5920  1.3366 -0.3970
 8817TIP3   OH226414   1.197   6.272   4.174 -0.3102  0.2540  0.2896
 8817TIP3    H126415   1.179   6.291   4.267 -1.1214 -0.7061  0.3487
 8817TIP3    H226416   1.282   6.228   4.174 -1.0498 -1.2521  0.7933
 8818TIP3   OH226417   0.011   1.895   0.737  0.3955  0.5062 -0.6568
 8818TIP3    H126418   0.001   1.924   0.646 -0.0525  2.3880 -0.0479
 8818TIP3    H226419   0.056   1.967   0.781  2.1011 -1.0516  0.3000
 8819TIP3   OH226420   0.382   3.732   5.084 -0.4268  0.0026  0.4130
 8819TIP3    H126421   0.353   3.660   5.138  0.3074 -0.7177 -0.1229
 8819TIP3    H226422   0.468   3.756   5.120 -1.2534  1.5456  1.4589
 8820TIP3   OH226423   7.137   4.653   1.713  0.2799 -0.0739 -0.3272
 8820TIP3    H126424   7.133   4.579   1.774  0.9702 -0.3375 -0.6008
 8820TIP3    H226425   7.112   4.728   1.766  0.0407 -0.4269  0.0735
 8821TIP3   OH226426   6.815   0.729   5.394 -0.1370  0.4678  0.2385
 8821TIP3    H126427   6.800   0.823   5.383 -1.4038  0.3049  0.4110
 8821TIP3    H226428   6.749   0.702   5.458  1.8624 -0.0734  2.1890
 8822TIP3   OH226429   6.295   3.934   4.551  0.3617 -0.1136 -0.5318
 8822TIP3    H126430   6.373   3.887   4.579  1.2455  0.4561 -1.9259
 8822TIP3    H226431   6.320   3.975   4.468 -1.2405  0.5545 -0.7247
 8823TIP3   OH226432   2.107   6.489   4.659 -0.2309 -0.6003 -0.2790
 8823TIP3    H126433   2.181   6.439   4.624 -0.9414 -1.4521 -0.6327
 8823TIP3    H226434   2.121   6.491   4.753  0.4523 -0.4073 -0.3864
 8824TIP3   OH226435   4.204   4.967   0.982 -0.0848 -0.1621  0.1534
 8824TIP3    H126436   4.291   4.931   1.001  0.0911 -0.2463 -0.7693
 8824TIP3    H226437   4.203   5.051   1.027  0.7273  0.1355 -0.3582
 8825TIP3   OH226438   1.244   5.979   4.853  0.9827 -0.0132 -0.2660
 8825TIP3    H126439   1.256   5.999   4.946 -1.0430  0.7999 -0.1279
 8825TIP3    H226440   1.323   6.013   4.811  0.5554  2.6064  0.8026
 8826TIP3   OH226441   4.725   3.224   4.633  0.1155 -0.0378 -0.1846
 8826TIP3    H126442   4.738   3.142   4.680  1.1959 -0.3345 -0.9619
 8826TIP3    H226443   4.776   3.289   4.681 -0.0855  0.0027 -0.0276
 8827TIP3   OH226444   2.487   2.055   3.703  0.7363 -0.2236 -0.0109
 8827TIP3    H126445   2.428   2.102   3.762  0.2421 -0.1598 -0.5498
 8827TIP3    H226446   2.521   2.123   3.645 -1.4150 -0.7738 -2.0096
 8828TIP3   OH226447   6.301   1.117   0.958 -0.4525  0.1228 -0.1698
 8828TIP3    H126448   6.310   1.203   0.998 -1.4652  0.1232  0.0858
 8828TIP3    H226449   6.334   1.056   1.025  1.9252  0.3900 -1.0086
 8829TIP3   OH226450   1.539   2.535   0.755  0.5840  0.0746 -0.2317
 8829TIP3    H126451   1.602   2.544   0.826  1.8313 -1.5223 -1.0795
 8829TIP3    H226452   1.585   2.486   0.687 -1.9897 -2.5052 -0.3211
 8830TIP3   OH226453   0.136   6.396   5.298 -1.0959 -0.2217  0.6887
 8830TIP3    H126454   0.155   6.317   5.347 -0.4781 -0.2793  0.3593
 8830TIP3    H226455   0.044   6.414   5.316 -1.6649 -1.8161 -0.3643
 8831TIP3   OH226456   4.314   3.052   4.818  0.3130 -0.1114 -0.4349
 8831TIP3    H126457   4.265   3.134   4.810  2.3984  1.4069  0.9672
 8831TIP3    H226458   4.351   3.038   4.731 -1.2899 -0.4565 -1.0973
 8832TIP3   OH226459   0.619   5.768   4.227 -0.2190 -0.1578  0.3329
 8832TIP3    H126460   0.697   5.716   4.207 -0.1593 -0.0482  0.2777
 8832TIP3    H226461   0.613   5.769   4.322  0.1656  0.3017  0.3548
 8833TIP3   OH226462   1.093   6.589   1.314  0.4194 -0.1005  0.0229
 8833TIP3    H126463   1.072   6.629   1.230 -0.1024  1.3930  0.8223
 8833TIP3    H226464   1.010   6.551   1.343  0.0856  1.1051  0.7272
 8834TIP3   OH226465   1.538   6.370   2.826  0.1505  0.9221  0.3609
 8834TIP3    H126466   1.499   6.369   2.914 -1.4338  0.0630 -0.2982
 8834TIP3    H226467   1.631   6.354   2.841  0.0488  1.6209  1.9291
 8835TIP3   OH226468   6.535   0.366   2.842 -0.2458 -0.0895  0.3058
 8835TIP3    H126469   6.579   0.416   2.911 -1.1745 -1.3335  1.8679
 8835TIP3    H226470   6.599   0.362   2.771  0.8039  1.1024  1.1432
 8836TIP3   OH226471   5.947   1.895   0.056 -0.3936 -0.5230 -0.0101
 8836TIP3    H126472   5.924   1.851  -0.026  0.5589 -1.2903  0.1243
 8836TIP3    H226473   5.899   1.978   0.052 -1.0562 -0.9294 -0.9380
 8837TIP3   OH226474   6.724   0.487   4.803  0.6327 -0.0648 -0.1030
 8837TIP3    H126475   6.726   0.403   4.850 -2.0420 -0.3430 -0.3343
 8837TIP3    H226476   6.758   0.550   4.867  2.0134 -1.2025  0.3260
 8838TIP3   OH226477   4.626   3.368   3.824 -0.3418  0.5413  0.6054
 8838TIP3    H126478   4.676   3.295   3.861  0.9357 -0.2927 -2.4573
 8838TIP3    H226479   4.693   3.428   3.790 -1.4176  1.5631  0.2225
 8839TIP3   OH226480   1.754   4.244   4.832 -0.1499 -0.0441 -0.1789
 8839TIP3    H126481   1.846   4.228   4.810 -0.2550 -0.9025 -0.0358
 8839TIP3    H226482   1.705   4.193   4.768 -0.4952 -0.5985  0.5084
 8840TIP3   OH226483   5.081   6.448   1.895 -0.3078  0.1505 -0.0980
 8840TIP3    H126484   5.050   6.452   1.986 -1.5312 -0.3041 -0.4755
 8840TIP3    H226485   5.160   6.502   1.894  0.7878 -1.3158  1.6459
 8841TIP3   OH226486   4.974   6.082   2.616 -0.4256  0.2929 -0.5866
 8841TIP3    H126487   4.986   6.083   2.521  0.0905  0.6139 -0.5278
 8841TIP3    H226488   5.019   6.162   2.646  0.1300 -0.2287  0.0023
 8842TIP3   OH226489   5.956   0.839   3.595 -0.3329  0.2698  0.1675
 8842TIP3    H126490   5.979   0.747   3.611 -0.0521  0.1810 -0.7047
 8842TIP3    H226491   5.861   0.843   3.609 -0.0404  0.3567  2.4848
 8843TIP3   OH226492   3.615   3.833   1.891  0.1657 -0.3856 -0.1238
 8843TIP3    H126493   3.692   3.888   1.898  0.0861 -0.3753  0.8518
 8843TIP3    H226494   3.645   3.754   1.845  0.3452  0.3230 -1.2500
 8844TIP3   OH226495   4.387   4.058   4.172 -0.6461 -0.3959  0.6957
 8844TIP3    H126496   4.424   4.142   4.143 -0.7880 -0.1010  1.3575
 8844TIP3    H226497   4.376   4.068   4.266  0.5729 -1.6427  0.9963
 8845TIP3   OH226498   1.573   1.650   5.562 -0.1379  0.1931 -0.2645
 8845TIP3    H126499   1.551   1.662   5.470  0.4460 -0.7837 -0.5443
 8845TIP3    H226500   1.570   1.555   5.575  0.8294  0.2488  0.4541
 8846TIP3   OH226501   1.008   1.874   5.526 -0.2226  0.4368  0.1335
 8846TIP3    H126502   1.032   1.922   5.447 -0.9554 -0.4779 -0.6752
 8846TIP3    H226503   1.046   1.787   5.514 -1.4320 -0.1196  0.1544
 8847TIP3   OH226504   3.911   6.539   1.206 -0.4837  0.0659 -0.1173
 8847TIP3    H126505   3.984   6.485   1.177 -0.9972 -0.8348  0.2370
 8847TIP3    H226506   3.867   6.565   1.124  0.3564  0.8266 -0.3463
 8848TIP3   OH226507   1.562   4.602   1.704 -0.1385 -0.0773  0.1349
 8848TIP3    H126508   1.489   4.589   1.764  0.3165  2.0103  1.2512
 8848TIP3    H226509   1.630   4.644   1.757  0.8840  0.3726 -1.4564
 8849TIP3   OH226510   3.923   4.510   2.854  0.4828 -0.1560 -0.8197
 8849TIP3    H126511   3.867   4.440   2.888 -0.4291  0.0115 -1.9284
 8849TIP3    H226512   3.899   4.587   2.906  0.8117 -0.4374 -0.2402
 8850TIP3   OH226513   2.769   4.095   1.657  0.6024 -0.4289  0.2130
 8850TIP3    H126514   2.757   4.000   1.653  1.9026 -0.5933 -0.0056
 8850TIP3    H226515   2.680   4.130   1.663  0.1452 -1.7057  1.2598
 8851TIP3   OH226516   4.866   2.770   3.574  0.6461  0.3966 -0.2820
 8851TIP3    H126517   4.918   2.796   3.650 -0.4251  0.2416  0.5383
 8851TIP3    H226518   4.794   2.833   3.572  0.4283  0.1362 -0.9136
 8852TIP3   OH226519   5.369   3.482   2.734 -0.0337 -0.1825  0.1088
 8852TIP3    H126520   5.357   3.565   2.688  0.9411 -0.5687 -0.8736
 8852TIP3    H226521   5.280   3.448   2.745 -0.4099  0.7829  0.1374
 8853TIP3   OH226522   0.358   5.268   2.183 -0.1691 -0.4905 -0.1751
 8853TIP3    H126523   0.283   5.228   2.229 -0.2861 -1.0635 -0.8426
 8853TIP3    H226524   0.380   5.344   2.236  0.7808 -2.0349  1.7897
 8854TIP3   OH226525   4.389   1.887   1.165  0.5680  0.2840  0.0837
 8854TIP3    H126526   4.470   1.836   1.175  0.6854  0.8729  2.6714
 8854TIP3    H226527   4.320   1.821   1.162  0.9578 -0.1407  0.2523
 8855TIP3   OH226528   2.255   3.602   1.968  0.0991  0.6363  0.1953
 8855TIP3    H126529   2.348   3.619   1.957  0.4868 -1.2158  0.3648
 8855TIP3    H226530   2.231   3.651   2.047  1.2846 -0.0729  1.0229
 8856TIP3   OH226531   2.943   0.023   3.241  0.7234  0.1992 -0.5830
 8856TIP3    H126532   2.904   0.105   3.212  1.7259  0.7285 -0.4995
 8856TIP3    H226533   2.940  -0.034   3.164 -0.7321  0.0032 -0.4078
 8857TIP3   OH226534   2.603   1.554   5.325 -0.2769  0.1640 -0.2107
 8857TIP3    H126535   2.568   1.503   5.398 -1.5766  1.1910 -0.0763
 8857TIP3    H226536   2.632   1.636   5.365 -0.3467  0.4555 -0.7502
 8858TIP3   OH226537   1.547   3.501   3.514 -0.7695  0.5022  0.0034
 8858TIP3    H126538   1.629   3.527   3.474 -0.3220 -0.7496  0.0455
 8858TIP3    H226539   1.560   3.408   3.536 -2.5511 -0.0277 -0.9642
 8859TIP3   OH226540   3.931   1.221   0.748  0.4758  0.3233 -0.1282
 8859TIP3    H126541   3.886   1.143   0.778 -0.0297  0.2272 -1.1200
 8859TIP3    H226542   3.866   1.270   0.699  0.8050  1.3435  0.4166
 8860TIP3   OH226543   4.615   3.366   2.568  0.0965  0.4992  0.3545
 8860TIP3    H126544   4.567   3.416   2.634  0.2403  1.1907 -0.0531
 8860TIP3    H226545   4.587   3.402   2.485  0.3695  0.0438  0.0584
 8861TIP3   OH226546   6.435   3.418   2.313  0.0192  0.4157  0.3188
 8861TIP3    H126547   6.527   3.432   2.291  0.5727 -2.2150  0.5550
 8861TIP3    H226548   6.421   3.324   2.298 -1.8642  0.1513  2.9021
 8862TIP3   OH226549   2.943   6.455   4.906 -0.3193 -0.1676  0.4227
 8862TIP3    H126550   2.999   6.395   4.955 -0.8502  0.9974  2.6102
 8862TIP3    H226551   2.997   6.532   4.891 -0.5011 -0.0993  0.0970
 8863TIP3   OH226552   3.494   3.805   2.150 -0.1978  0.0072 -0.0076
 8863TIP3    H126553   3.547   3.790   2.072 -0.0071  0.0513  0.1132
 8863TIP3    H226554   3.459   3.893   2.139  1.4161  0.8057  0.8756
 8864TIP3   OH226555   5.182   4.173   1.993 -0.2621 -0.4889  1.3704
 8864TIP3    H126556   5.195   4.126   2.076  3.6607 -2.6777 -0.2233
 8864TIP3    H226557   5.206   4.109   1.926  0.1776  2.2763 -1.2746
 8865TIP3   OH226558   7.134   5.025   1.127  0.2608 -0.2621  0.5113
 8865TIP3    H126559   7.042   5.021   1.101  0.5309 -1.2879 -0.3450
 8865TIP3    H226560   7.181   4.982   1.055  1.2494 -1.2147  1.6887
 8866TIP3   OH226561   5.249   4.920   0.971  0.5506 -0.5725  0.5722
 8866TIP3    H126562   5.331   4.958   1.003  0.4520 -1.0506  1.4249
 8866TIP3    H226563   5.221   4.862   1.042  0.5581 -2.0171 -0.5656
 8867TIP3   OH226564   1.245   1.547   5.150  0.1593 -0.0405 -0.3007
 8867TIP3    H126565   1.198   1.465   5.140  0.3975 -0.2058 -0.0651
 8867TIP3    H226566   1.327   1.535   5.101 -0.5175  0.6406 -1.6552
 8868TIP3   OH226567   5.667   5.698   4.096 -0.2601 -0.4596 -0.3217
 8868TIP3    H126568   5.642   5.610   4.068 -0.3717 -0.0420 -1.5735
 8868TIP3    H226569   5.756   5.709   4.064 -0.5190  0.1658 -0.8448
 8869TIP3   OH226570   5.964   3.749   2.149 -0.0006 -0.5481  0.4765
 8869TIP3    H126571   5.911   3.681   2.109 -1.2679  0.3187  0.6111
 8869TIP3    H226572   5.999   3.709   2.229 -1.5822 -0.7299  1.1006
 8870TIP3   OH226573   3.475   5.129   1.932 -0.0801 -0.2733  0.6967
 8870TIP3    H126574   3.381   5.137   1.946 -0.0594 -1.8018  1.8534
 8870TIP3    H226575   3.483   5.075   1.853 -0.1471  0.5881  0.0809
 8871TIP3   OH226576   4.767   6.540   0.998 -0.7240  0.0017  0.9711
 8871TIP3    H126577   4.855   6.560   1.030 -0.5952  0.9766  0.0523
 8871TIP3    H226578   4.769   6.445   0.982  0.3496  0.1024  0.4120
 8872TIP3   OH226579   0.382   1.159   0.730 -0.0051 -0.4556 -0.2410
 8872TIP3    H126580   0.417   1.152   0.641 -1.0202  0.4919 -0.7459
 8872TIP3    H226581   0.446   1.113   0.785  0.1931 -1.8177 -1.5566
 8873TIP3   OH226582   5.299   5.887   2.856 -0.3945  0.1089  0.2107
 8873TIP3    H126583   5.316   5.883   2.950 -0.4776 -0.0710  0.2202
 8873TIP3    H226584   5.204   5.879   2.848 -0.4137  0.4096  0.1248
 8874TIP3   OH226585   1.440   6.643   2.811  0.2791 -0.2003  0.0454
 8874TIP3    H126586   1.494   6.564   2.819 -2.1500 -2.0471 -0.6313
 8874TIP3    H226587   1.493   6.702   2.756  1.6984 -1.7949 -0.4046
 8875TIP3   OH226588   1.486   0.654   1.669 -0.1914 -0.0190  0.1061
 8875TIP3    H126589   1.440   0.736   1.685  1.2558  0.7519  0.5763
 8875TIP3    H226590   1.432   0.587   1.710 -1.0669  0.7921  0.2990
 8876TIP3   OH226591   5.563   5.503   5.827 -0.2940 -0.0023  0.5106
 8876TIP3    H126592   5.591   5.412   5.841 -2.4083 -0.5619  1.5034
 8876TIP3    H226593   5.535   5.505   5.736 -0.6716 -0.4939  0.6079
 8877TIP3   OH226594   5.739   2.893   2.997  0.3345 -0.6217  0.2183
 8877TIP3    H126595   5.651   2.876   2.964 -0.6051  1.3015  1.5489
 8877TIP3    H226596   5.767   2.972   2.952  1.1607 -0.9149  0.2079
 8878TIP3   OH226597   3.183   2.833   0.676 -0.1501  0.6173  0.0523
 8878TIP3    H126598   3.142   2.908   0.719  0.7314  0.6874  0.8251
 8878TIP3    H226599   3.110   2.777   0.650 -0.7541  0.6072  1.6129
 8879TIP3   OH226600   6.041   0.876   1.050 -0.2027  0.5353  0.0416
 8879TIP3    H126601   5.967   0.837   1.096  1.2424 -0.9969  1.1955
 8879TIP3    H226602   6.118   0.835   1.089  1.2652  1.8243 -1.3344
 8880TIP3   OH226603   2.633   5.696   3.407  0.6769 -0.5508  0.2885
 8880TIP3    H126604   2.711   5.675   3.457 -0.6576  0.7081  3.1241
 8880TIP3    H226605   2.642   5.789   3.385  0.0982 -0.4551  0.4318
 8881TIP3   OH226606   4.163   6.281   4.498 -0.0567 -0.3838 -0.0171
 8881TIP3    H126607   4.191   6.191   4.510 -1.4210 -1.0329 -1.4091
 8881TIP3    H226608   4.094   6.295   4.562 -0.0011 -0.4019  0.0462
 8882TIP3   OH226609   3.312   6.575   3.617  0.1458  0.7891  0.2697
 8882TIP3    H126610   3.324   6.662   3.578 -1.6880  0.8306 -0.2880
 8882TIP3    H226611   3.312   6.591   3.711  1.8266  1.0783  0.2652
 8883TIP3   OH226612   1.642   4.646   1.035 -0.5907 -0.5247  0.1228
 8883TIP3    H126613   1.656   4.730   0.992 -1.5322  0.6272  1.9594
 8883TIP3    H226614   1.648   4.582   0.964  1.4072  0.9415 -1.1268
 8884TIP3   OH226615   6.576   5.239   0.111  0.0395 -0.1201 -0.0131
 8884TIP3    H126616   6.507   5.173   0.109 -1.5083  1.3293  1.6983
 8884TIP3    H226617   6.620   5.224   0.195 -0.0625  0.7235  0.2036
 8885TIP3   OH226618   1.454   5.575   4.348 -0.3099 -0.1473 -0.0812
 8885TIP3    H126619   1.480   5.522   4.423 -0.7961  1.3701  1.2074
 8885TIP3    H226620   1.509   5.544   4.276 -0.3768 -2.1590  0.6875
 8886TIP3   OH226621   2.496   4.528   1.268 -0.1607  0.0902 -0.7078
 8886TIP3    H126622   2.502   4.539   1.363  0.8470  2.2354 -0.9525
 8886TIP3    H226623   2.419   4.579   1.243  0.6258  1.0756 -1.2001
 8887TIP3   OH226624   4.825   0.151   2.485 -0.3414  0.5006 -0.2750
 8887TIP3    H126625   4.890   0.083   2.473 -0.6959  0.0526  0.3304
 8887TIP3    H226626   4.825   0.199   2.402  1.4886  1.1586  0.0647
 8888TIP3   OH226627   4.513   4.319   0.567  0.2770  0.9696 -0.5182
 8888TIP3    H126628   4.497   4.349   0.478 -2.9949  0.6105 -0.1732
 8888TIP3    H226629   4.550   4.232   0.557  0.7007  1.2506 -1.5095
 8889TIP3   OH226630   4.881   4.051   0.877  0.2774 -0.2486  0.0369
 8889TIP3    H126631   4.789   4.024   0.871  0.1030  0.6660 -1.9429
 8889TIP3    H226632   4.882   4.141   0.847  1.7012  0.1245  1.0907
 8890TIP3   OH226633   4.932   0.121   3.426 -0.2769  0.6391  0.0672
 8890TIP3    H126634   4.982   0.096   3.348  1.7315  1.7511  0.9189
 8890TIP3    H226635   4.843   0.134   3.394 -0.0422 -1.2694 -1.5578
 8891TIP3   OH226636   1.247   4.208   5.056  0.0423  0.8694  0.6863
 8891TIP3    H126637   1.233   4.298   5.087 -1.0966  0.5501  1.1609
 8891TIP3    H226638   1.255   4.157   5.136 -0.7673  0.3407  0.4374
 8892TIP3   OH226639   2.014   0.840   0.141 -0.0361  0.1636  0.2563
 8892TIP3    H126640   1.961   0.768   0.175 -1.1567  0.5930 -0.4975
 8892TIP3    H226641   1.962   0.918   0.159 -0.7677  0.4181 -2.4020
 8893TIP3   OH226642   5.881   1.643   1.037 -0.3728 -0.4630  0.5494
 8893TIP3    H126643   5.904   1.647   1.130 -0.9713  0.6213  0.6637
 8893TIP3    H226644   5.940   1.577   1.001  0.5710 -0.1673  1.4954
 8894TIP3   OH226645   4.487   6.726   2.812 -0.8741 -0.7352 -0.7140
 8894TIP3    H126646   4.439   6.649   2.842 -0.8377 -0.7435 -0.6766
 8894TIP3    H226647   4.510   6.706   2.721 -2.3311 -0.0561 -1.2471
 8895TIP3   OH226648   2.593   5.744   0.881 -0.6042  0.3877 -0.3658
 8895TIP3    H126649   2.619   5.663   0.836  0.7260  1.8216 -2.3235
 8895TIP3    H226650   2.640   5.741   0.964  2.2207  0.6720 -1.8503
 8896TIP3   OH226651   1.908   0.808   4.877  0.1342  0.0999  0.3859
 8896TIP3    H126652   1.984   0.757   4.906  0.7014  0.5672 -0.2591
 8896TIP3    H226653   1.833   0.755   4.904  0.6915 -0.6121  0.5855
 8897TIP3   OH226654   6.255   4.667   2.741 -0.0821 -0.0355 -0.2882
 8897TIP3    H126655   6.284   4.717   2.817 -0.2860  0.3882 -0.4880
 8897TIP3    H226656   6.164   4.644   2.762  0.1981 -0.8581  0.0767
 8898TIP3   OH226657   1.562   2.850   2.606  0.1120 -0.1022 -0.0535
 8898TIP3    H126658   1.595   2.893   2.527 -1.2412 -0.8093 -1.0576
 8898TIP3    H226659   1.628   2.783   2.627  1.2418  1.1006  0.3556
 8899TIP3   OH226660   0.321   6.124   3.515  0.5901 -0.1647 -0.0789
 8899TIP3    H126661   0.274   6.197   3.555  0.3503 -0.0255 -0.5995
 8899TIP3    H226662   0.405   6.161   3.487 -0.0205  0.2526 -1.4762
 8900TIP3   OH226663   4.549   4.618   4.930  0.2026 -0.4760  0.2713
 8900TIP3    H126664   4.562   4.671   5.009  1.5416  1.2423 -1.0161
 8900TIP3    H226665   4.596   4.666   4.861  1.4878 -3.3656 -1.0207
 8901TIP3   OH226666   6.640   6.738   4.716  0.1830 -0.0724 -0.3527
 8901TIP3    H126667   6.693   6.676   4.765 -1.8973 -2.2325 -0.6414
 8901TIP3    H226668   6.552   6.730   4.753 -0.3066  2.3226 -0.8099
 8902TIP3   OH226669   5.336   3.421   4.970  0.6723  0.0658  0.5793
 8902TIP3    H126670   5.282   3.447   4.896 -1.1686 -1.2599  1.4009
 8902TIP3    H226671   5.285   3.446   5.047  1.2709 -1.1194  1.3889
 8903TIP3   OH226672   4.600   1.745   2.671 -0.2147  0.4587 -0.1949
 8903TIP3    H126673   4.676   1.802   2.662 -0.3395  0.5030 -1.0084
 8903TIP3    H226674   4.635   1.656   2.658 -0.7104  0.6223 -3.5797
 8904TIP3   OH226675   3.867   6.739   5.443  1.1547  0.0958  0.1099
 8904TIP3    H126676   3.802   6.713   5.379  0.8176 -1.5806  1.0816
 8904TIP3    H226677   3.915   6.659   5.463  1.9133  0.7933  1.2015
 8905TIP3   OH226678   5.424   1.463   3.800 -0.6139 -0.4772 -0.5985
 8905TIP3    H126679   5.397   1.485   3.710  0.5121  1.6229 -0.4862
 8905TIP3    H226680   5.458   1.374   3.794 -0.1076 -0.1986 -2.3677
 8906TIP3   OH226681   4.573   3.260   1.505  0.0876  0.0088  0.3423
 8906TIP3    H126682   4.513   3.265   1.430 -0.1180 -1.6056  0.3748
 8906TIP3    H226683   4.652   3.218   1.470  0.7260  0.9581  0.6080
 8907TIP3   OH226684   4.783   5.105   3.859  0.3316 -0.4079  0.4200
 8907TIP3    H126685   4.774   5.050   3.781  1.3016 -0.3855  0.2747
 8907TIP3    H226686   4.729   5.062   3.925 -1.3202  0.1335 -0.5323
 8908TIP3   OH226687   6.877   2.595   3.808 -0.7855  0.0285 -0.5142
 8908TIP3    H126688   6.891   2.500   3.814  1.5144  0.3850  0.7574
 8908TIP3    H226689   6.892   2.616   3.716 -0.8630 -0.7816 -0.7165
 8909TIP3   OH226690   1.351   2.256   4.470 -0.1815  0.1529 -0.4025
 8909TIP3    H126691   1.348   2.188   4.403  0.4419 -0.0356 -0.2433
 8909TIP3    H226692   1.266   2.250   4.514  0.2422 -1.1952  0.2706
 8910TIP3   OH226693   0.739   1.786   2.404 -0.1641  0.0033  0.2583
 8910TIP3    H126694   0.766   1.868   2.447  0.7408 -0.4277  0.5469
 8910TIP3    H226695   0.647   1.799   2.384  0.8058  2.7773 -3.5425
 8911TIP3   OH226696   0.110   2.149   1.590  0.3921  0.0824 -0.0801
 8911TIP3    H126697   0.049   2.084   1.626  0.0323  0.9971  0.9911
 8911TIP3    H226698   0.092   2.149   1.496  0.1505 -1.1035 -0.0462
 8912TIP3   OH226699   1.617   6.107   1.444 -0.3057 -0.1519 -0.0384
 8912TIP3    H126700   1.578   6.079   1.527  1.5550 -1.4532  0.4814
 8912TIP3    H226701   1.684   6.041   1.426  0.5640  1.0898 -1.6670
 8913TIP3   OH226702   6.535   3.246   3.005  0.2350  0.0597 -0.0839
 8913TIP3    H126703   6.478   3.206   2.939  1.0518  1.3133 -1.6079
 8913TIP3    H226704   6.504   3.337   3.011 -1.3320 -0.5237  3.0245
 8914TIP3   OH226705   1.360   4.540   3.313  0.1307  0.2148 -0.1376
 8914TIP3    H126706   1.350   4.452   3.349 -0.3521  0.2699 -0.1382
 8914TIP3    H226707   1.283   4.553   3.259 -0.8170  1.3864  1.4144
 8915TIP3   OH226708   3.167   3.947   4.044  0.0473 -0.8995 -0.6016
 8915TIP3    H126709   3.101   3.879   4.056  1.2358 -2.2391 -1.2914
 8915TIP3    H226710   3.246   3.899   4.018  1.6355  0.5262  1.2890
 8916TIP3   OH226711   6.961   3.130   1.870  0.1124  0.2929 -0.0760
 8916TIP3    H126712   6.888   3.188   1.848  1.5370  1.9887 -0.6381
 8916TIP3    H226713   6.990   3.095   1.785  0.7722  0.7231 -0.0410
 8917TIP3   OH226714   0.525   2.592   5.792  0.2835 -0.6214 -0.0539
 8917TIP3    H126715   0.580   2.531   5.842  0.8874 -0.1856 -0.1665
 8917TIP3    H226716   0.587   2.655   5.757 -0.4574  0.8150  1.1201
 8918TIP3   OH226717   0.850   4.838   2.429  0.0890  0.4458 -0.0616
 8918TIP3    H126718   0.784   4.859   2.495 -1.1812  0.1001 -1.1774
 8918TIP3    H226719   0.929   4.883   2.459 -0.4263  0.2343  1.7165
 8919TIP3   OH226720   2.327   3.691   0.844 -0.1908  0.6360  0.1609
 8919TIP3    H126721   2.313   3.739   0.762  1.5302 -1.7178 -1.6555
 8919TIP3    H226722   2.416   3.716   0.871 -0.6296  1.1460  1.1730
 8920TIP3   OH226723   5.136   5.253   4.108 -0.1639 -0.6610  0.0498
 8920TIP3    H126724   5.157   5.161   4.089 -0.4623 -1.0520  1.4906
 8920TIP3    H226725   5.156   5.263   4.201  0.9865  1.0679 -0.3331
 8921TIP3   OH226726   2.645   5.023   0.241 -0.2861  0.0786 -0.5638
 8921TIP3    H126727   2.561   4.977   0.236 -0.1914  0.0597 -2.4267
 8921TIP3    H226728   2.646   5.082   0.166  1.0511  0.6346 -0.1509
 8922TIP3   OH226729   6.444   5.687   4.222  0.1119 -0.1591 -0.3693
 8922TIP3    H126730   6.372   5.634   4.187 -0.0442 -0.0678 -0.1882
 8922TIP3    H226731   6.465   5.748   4.151  1.0134 -1.1534 -0.9911
 8923TIP3   OH226732   4.955   3.135   2.206  0.2568 -0.5067  0.1195
 8923TIP3    H126733   4.890   3.183   2.257  0.4311 -1.5453  1.3878
 8923TIP3    H226734   4.905   3.096   2.134  0.2111  1.9403 -1.2653
 8924TIP3   OH226735   6.685   5.143   2.937 -0.3968 -0.0690 -0.3129
 8924TIP3    H126736   6.705   5.207   2.868 -0.1951 -0.8141 -0.9509
 8924TIP3    H226737   6.649   5.068   2.891 -0.6718 -0.4082  0.4391
 8925TIP3   OH226738   2.548   1.353   4.989  0.2477  0.1859 -0.4830
 8925TIP3    H126739   2.548   1.335   5.082  0.2961 -1.1649 -0.7315
 8925TIP3    H226740   2.570   1.446   4.983 -1.0605  0.6291  0.8886
 8926TIP3   OH226741   2.277   6.594   0.908 -0.2497 -0.3604 -0.2452
 8926TIP3    H126742   2.334   6.561   0.978 -0.3971  0.3130  0.2085
 8926TIP3    H226743   2.308   6.683   0.892 -0.6346 -0.2852 -0.5789
 8927TIP3   OH226744   6.278   1.801   4.337  0.5446 -0.0445 -0.1072
 8927TIP3    H126745   6.335   1.793   4.260 -0.5628 -0.4776 -0.8918
 8927TIP3    H226746   6.211   1.864   4.311 -0.6129 -1.1907  0.0151
 8928TIP3   OH226747   6.835   1.936   1.256  0.2145 -0.1655  0.2458
 8928TIP3    H126748   6.750   1.921   1.214 -0.7297  1.9412  1.2817
 8928TIP3    H226749   6.898   1.900   1.194 -1.4130 -1.9519 -0.4732
 8929TIP3   OH226750   5.059   3.232   0.990  0.4597 -0.0255 -0.0581
 8929TIP3    H126751   5.153   3.248   0.988  0.6276 -0.8419  0.8529
 8929TIP3    H226752   5.035   3.226   0.897  1.8266 -2.5737 -0.3609
 8930TIP3   OH226753   0.734   0.226   5.452  0.0907  0.0841  0.1333
 8930TIP3    H126754   0.658   0.272   5.418  0.9987  2.5731  1.1549
 8930TIP3    H226755   0.700   0.170   5.521 -1.0452 -0.6389 -0.9744
 8931TIP3   OH226756   2.371   6.415   4.653 -0.1878  0.2840 -0.3313
 8931TIP3    H126757   2.405   6.386   4.569  0.3196 -1.9903  0.5957
 8931TIP3    H226758   2.378   6.511   4.650 -0.0395  0.2609 -2.7697
 8932TIP3   OH226759   6.008   1.372   5.004  0.4500 -1.1226  0.1220
 8932TIP3    H126760   6.079   1.436   4.997 -0.7901  0.2647 -0.2368
 8932TIP3    H226761   5.931   1.424   5.025 -0.5780 -2.5280 -0.0467
 8933TIP3   OH226762   1.100   3.183   2.734 -0.0776  0.6469 -0.4593
 8933TIP3    H126763   1.179   3.132   2.715 -1.2154 -1.2187 -0.3961
 8933TIP3    H226764   1.097   3.189   2.829 -1.0087 -1.0350 -0.3399
 8934TIP3   OH226765   3.794   3.268   1.112 -0.0398 -1.1922  0.0882
 8934TIP3    H126766   3.843   3.299   1.035 -1.2248 -0.3086 -0.3467
 8934TIP3    H226767   3.845   3.194   1.145  1.3261 -0.5972 -0.6137
 8935TIP3   OH226768   5.016   1.042   1.985 -0.2964 -0.5543  0.1146
 8935TIP3    H126769   5.100   1.001   2.005 -0.8635 -2.0244 -0.3809
 8935TIP3    H226770   4.952   0.973   2.000 -1.5699  0.8992  1.6967
 8936TIP3   OH226771   3.044   2.970   2.430 -0.7717  0.1697  0.7340
 8936TIP3    H126772   3.000   3.035   2.485  1.5145  1.6840  0.9155
 8936TIP3    H226773   3.084   3.022   2.361 -0.6712 -1.3372 -0.3675
 8937TIP3   OH226774   7.093   3.377   1.953 -0.9255 -0.3155  0.1310
 8937TIP3    H126775   7.178   3.336   1.936 -1.1873 -1.4766  1.3595
 8937TIP3    H226776   7.061   3.404   1.867 -0.4933 -2.3064 -0.7227
 8938TIP3   OH226777   3.502   4.015   4.148  0.5015  1.0386  0.0660
 8938TIP3    H126778   3.545   3.991   4.067  0.2376  3.1334 -0.7517
 8938TIP3    H226779   3.480   3.931   4.190  2.6376 -0.0682 -0.9054
 8939TIP3   OH226780   4.053   1.365   3.886  0.2722  0.4340 -0.3128
 8939TIP3    H126781   3.965   1.377   3.923 -0.2097 -1.5875 -0.6901
 8939TIP3    H226782   4.038   1.337   3.796  1.2809 -0.5763 -0.1901
 8940TIP3   OH226783   5.759   3.803   1.425  0.3047 -0.1216 -0.1626
 8940TIP3    H126784   5.721   3.890   1.430 -2.2253 -1.1371 -0.4540
 8940TIP3    H226785   5.842   3.810   1.473 -0.5449  2.0621  1.1034
 8941TIP3   OH226786   2.547   2.651   1.220  0.1810  0.0864  0.4179
 8941TIP3    H126787   2.593   2.575   1.255  0.1593  0.2284  0.7651
 8941TIP3    H226788   2.604   2.725   1.242 -1.0171  0.4849  2.4382
 8942TIP3   OH226789   2.017   0.261   0.370  0.1272 -0.6542  0.0269
 8942TIP3    H126790   2.040   0.313   0.293  0.5064  0.6939  1.0022
 8942TIP3    H226791   1.935   0.218   0.346 -0.7380  1.1954 -0.5023
 8943TIP3   OH226792   7.038   3.233   0.120 -0.0928  0.3131 -0.1832
 8943TIP3    H126793   7.132   3.232   0.136 -0.1413 -1.8288  0.3590
 8943TIP3    H226794   7.004   3.165   0.178 -1.8642  0.4097 -1.0448
 8944TIP3   OH226795   0.758   2.178   0.312  0.0020 -0.1136  0.0671
 8944TIP3    H126796   0.797   2.162   0.398  1.2859 -1.7653 -0.7719
 8944TIP3    H226797   0.734   2.271   0.314  0.8780  0.1195  1.8610
 8945TIP3   OH226798   2.571   3.816   0.111 -0.5584  0.0813  0.2114
 8945TIP3    H126799   2.496   3.875   0.110 -0.6997 -0.0989 -0.4795
 8945TIP3    H226800   2.540   3.737   0.068 -0.1588 -0.2363  0.4964
 8946TIP3   OH226801   2.676   6.690   0.133 -0.3389  0.4528  0.1763
 8946TIP3    H126802   2.744   6.755   0.117  1.6600 -1.3186  0.9922
 8946TIP3    H226803   2.678   6.634   0.055 -3.1747  2.1631 -1.2810
 8947TIP3   OH226804   3.744   2.370   2.580  0.4967  0.5443 -0.5663
 8947TIP3    H126805   3.771   2.458   2.605 -0.5659  0.6724  0.1965
 8947TIP3    H226806   3.715   2.378   2.489  0.2595  1.0112 -0.4485
 8948TIP3   OH226807   4.507   1.826   2.939 -0.2836 -0.4273  0.0392
 8948TIP3    H126808   4.506   1.803   2.846 -0.7026 -0.9968  0.1802
 8948TIP3    H226809   4.569   1.899   2.945 -0.0922 -0.5272 -0.6512
 8949TIP3   OH226810   0.413   6.541   1.492  0.4390 -0.1224 -0.0373
 8949TIP3    H126811   0.491   6.489   1.510 -0.0147 -1.0175 -0.6026
 8949TIP3    H226812   0.363   6.489   1.429 -1.3473 -0.2764  1.4173
 8950TIP3   OH226813   5.561   1.029   1.836  0.2719 -0.0277 -0.4586
 8950TIP3    H126814   5.479   1.074   1.814  1.1541  0.9498 -1.9000
 8950TIP3    H226815   5.625   1.065   1.775  1.9746 -0.1970  1.1532
 8951TIP3   OH226816   2.949   1.121   1.768 -0.9313  0.2556  0.0528
 8951TIP3    H126817   2.985   1.042   1.726 -1.3864 -0.2294  0.5646
 8951TIP3    H226818   2.956   1.104   1.862  0.8379  1.6775  0.2425
 8952TIP3   OH226819   4.375   3.977   5.086  0.5811 -0.1532  0.3930
 8952TIP3    H126820   4.431   4.054   5.083 -3.5195  3.2412  0.6113
 8952TIP3    H226821   4.357   3.957   4.994 -0.7095  1.2752  0.2841
 8953TIP3   OH226822   1.175   1.907   2.979 -0.1719  0.1881 -0.4641
 8953TIP3    H126823   1.154   1.832   2.923 -0.8819 -1.2660  1.6348
 8953TIP3    H226824   1.211   1.868   3.058 -1.6308  1.9628  1.1558
 8954TIP3   OH226825   1.688   4.938   0.529  0.5815 -0.2644  0.2543
 8954TIP3    H126826   1.656   4.866   0.476  0.8477 -1.1376  1.2553
 8954TIP3    H226827   1.668   5.016   0.478  0.9747 -1.0840 -1.1892
 8955TIP3   OH226828   5.612   5.234   0.299  0.7260  0.4137 -0.1119
 8955TIP3    H126829   5.523   5.268   0.285  1.2488  1.0008 -2.3433
 8955TIP3    H226830   5.600   5.162   0.361 -1.6194 -0.7363 -1.7433
 8956TIP3   OH226831   2.819   4.155   2.296  0.0803  0.2372 -0.3197
 8956TIP3    H126832   2.797   4.083   2.355 -1.4303  0.5018 -0.5277
 8956TIP3    H226833   2.873   4.114   2.228 -1.0187 -0.7879 -0.6095
 8957TIP3   OH226834   2.861   5.219   1.708  0.5356 -0.0281  0.4520
 8957TIP3    H126835   2.880   5.133   1.746 -1.2569 -1.1765 -1.0328
 8957TIP3    H226836   2.941   5.243   1.662  1.4621 -0.3271  1.8468
 8958TIP3   OH226837   6.566   4.193   4.645 -0.1265  0.4086 -0.1583
 8958TIP3    H126838   6.582   4.208   4.551  0.1384 -0.6524 -0.2937
 8958TIP3    H226839   6.476   4.221   4.659 -0.5178 -0.3965 -0.9652
 8959TIP3   OH226840   5.349   3.803   2.297 -0.0580 -0.3955 -0.4181
 8959TIP3    H126841   5.355   3.731   2.360  0.5102  0.0307  0.0307
 8959TIP3    H226842   5.257   3.806   2.272 -0.7000  0.5837  1.7885
 8960TIP3   OH226843   0.695   4.386   5.698 -0.0066  0.0906  0.0523
 8960TIP3    H126844   0.725   4.445   5.767 -1.2375 -0.3627  1.0104
 8960TIP3    H226845   0.748   4.307   5.708 -0.5802 -0.1989  0.8760
 8961TIP3   OH226846   0.424   1.124   2.219 -0.1226 -0.2592  0.4584
 8961TIP3    H126847   0.493   1.171   2.172  1.4726 -0.9743  1.9646
 8961TIP3    H226848   0.405   1.049   2.164  1.2760 -0.7585  0.6115
 8962TIP3   OH226849   4.874   6.317   0.640 -0.7673 -0.2675 -0.4663
 8962TIP3    H126850   4.854   6.314   0.546 -0.1589 -0.3551 -0.5923
 8962TIP3    H226851   4.894   6.409   0.657 -0.0529 -0.3944 -0.5960
 8963TIP3   OH226852   2.401   1.720   0.201 -0.0324 -0.4603  0.2430
 8963TIP3    H126853   2.475   1.779   0.191 -1.3905  1.1228 -1.0914
 8963TIP3    H226854   2.326   1.778   0.218 -1.1479 -1.9098  0.4561
 8964TIP3   OH226855   6.662   1.701   5.125 -0.7445  0.9102  0.2287
 8964TIP3    H126856   6.697   1.784   5.093 -2.4018  1.4424 -0.3303
 8964TIP3    H226857   6.716   1.634   5.085  0.2546  1.7031  0.2305
 8965TIP3   OH226858   7.082   4.202   2.829  0.0542  0.1176  0.4522
 8965TIP3    H126859   7.089   4.286   2.875 -1.5844  0.5439 -0.0077
 8965TIP3    H226860   7.147   4.208   2.759  0.0741  0.9512  0.5267
 8966TIP3   OH226861   4.270  -0.011   3.562  0.2611 -0.0630 -0.3568
 8966TIP3    H126862   4.323   0.046   3.619  0.6189 -0.6950 -0.0481
 8966TIP3    H226863   4.189   0.038   3.548  0.0818  0.0110  0.8697
 8967TIP3   OH226864   3.557   5.244   5.034 -0.1264 -0.4516 -0.2366
 8967TIP3    H126865   3.467   5.215   5.016  0.5751 -1.4287 -2.5954
 8967TIP3    H226866   3.587   5.282   4.952  1.6531 -0.2089  0.4761
 8968TIP3   OH226867   6.511   5.041   2.475 -0.0546 -0.9442 -0.6177
 8968TIP3    H126868   6.592   5.048   2.526  0.3577  0.1743 -1.4006
 8968TIP3    H226869   6.533   5.076   2.389 -1.3150 -0.8191 -0.9134
 8969TIP3   OH226870   0.396   5.630   2.664 -0.2329  0.1140  0.1260
 8969TIP3    H126871   0.310   5.640   2.704  0.0259 -0.6884  0.9374
 8969TIP3    H226872   0.445   5.707   2.693  0.2734 -0.9293  2.3158
 8970TIP3   OH226873   6.369   4.416   4.852 -0.0790 -0.0563 -0.0442
 8970TIP3    H126874   6.404   4.460   4.774 -2.8821  0.5520 -1.1121
 8970TIP3    H226875   6.341   4.330   4.820 -2.0892  0.5325 -0.0263
 8971TIP3   OH226876   4.784   0.253   2.230  0.0477  0.0301  0.1620
 8971TIP3    H126877   4.693   0.222   2.227  0.0629 -0.0275  0.2998
 8971TIP3    H226878   4.790   0.315   2.157  0.8584 -2.5133 -2.1218
 8972TIP3   OH226879   3.897   2.272   5.737 -0.3661  0.2333 -0.4430
 8972TIP3    H126880   3.931   2.332   5.671 -0.3740  1.0308  0.2623
 8972TIP3    H226881   3.900   2.186   5.696 -1.1973  0.8287 -1.8026
 8973TIP3   OH226882   4.508   0.181   1.380  0.3265  0.2911  0.4776
 8973TIP3    H126883   4.428   0.187   1.431 -0.2614 -0.1810 -0.3576
 8973TIP3    H226884   4.537   0.090   1.391 -2.7886 -1.6836 -4.1942
 8974TIP3   OH226885   4.838   4.652   5.842 -0.1569  0.1403  0.2478
 8974TIP3    H126886   4.833   4.747   5.849  0.5692  0.0816  2.0290
 8974TIP3    H226887   4.772   4.620   5.903 -1.0602 -0.5339 -1.0303
 8975TIP3   OH226888   1.683   5.025   2.740  0.1022 -0.8126 -0.0613
 8975TIP3    H126889   1.766   5.072   2.729  0.5137 -1.0436  1.6976
 8975TIP3    H226890   1.687   4.954   2.676  0.0728  0.6907 -1.8293
 8976TIP3   OH226891   2.854   3.749   5.071  0.4110 -0.4453 -0.7924
 8976TIP3    H126892   2.931   3.788   5.030  0.5255 -0.7141 -0.8371
 8976TIP3    H226893   2.818   3.691   5.004  1.3008 -1.8348 -0.1221
 8977TIP3   OH226894   5.838   0.972   5.170  0.7100  0.7414 -0.1069
 8977TIP3    H126895   5.877   0.887   5.190 -1.9070 -0.3796  0.6405
 8977TIP3    H226896   5.809   0.964   5.080 -2.4622 -0.5137  0.8850
 8978TIP3   OH226897   6.805   0.354   4.032 -0.5882 -0.0768  0.0527
 8978TIP3    H126898   6.832   0.268   4.000  0.5376 -0.0329  0.8257
 8978TIP3    H226899   6.721   0.337   4.076 -0.8236 -0.6063 -0.5874
 8979TIP3   OH226900   1.006   1.203   4.844  0.3225 -0.2671 -0.2053
 8979TIP3    H126901   1.072   1.267   4.820  1.9488 -0.7294  2.5663
 8979TIP3    H226902   0.923   1.250   4.836  1.3018  1.5511 -0.1936
 8980TIP3   OH226903   1.622   0.034   4.284  0.1834  0.7086  0.1132
 8980TIP3    H126904   1.701  -0.016   4.261  0.2270  0.1568  1.3664
 8980TIP3    H226905   1.582   0.055   4.200  2.3440  2.1620 -0.6462
 8981TIP3   OH226906   4.010   4.450   2.603  0.0996 -0.0784 -0.7183
 8981TIP3    H126907   4.103   4.430   2.616  0.2012  0.3241 -0.8246
 8981TIP3    H226908   3.975   4.461   2.691  0.2168  0.0561 -0.6887
 8982TIP3   OH226909   2.877   2.954   1.713 -0.6396 -0.1778 -0.0974
 8982TIP3    H126910   2.802   2.985   1.764 -1.1143 -0.8258 -0.3987
 8982TIP3    H226911   2.850   2.869   1.679  0.4948 -0.7434  0.3638
 8983TIP3   OH226912   0.773   4.864   4.844 -0.8025 -0.1197 -0.0845
 8983TIP3    H126913   0.741   4.903   4.763 -1.5659  0.2488  0.3918
 8983TIP3    H226914   0.777   4.936   4.906 -0.5272 -0.4596  0.3003
 8984TIP3   OH226915   6.850   2.701   0.483  0.4014  0.0178 -0.1163
 8984TIP3    H126916   6.755   2.695   0.483  0.4154 -0.3591  0.4093
 8984TIP3    H226917   6.877   2.650   0.560  1.0911 -1.0267 -1.0173
 8985TIP3   OH226918   5.752   5.684   1.043 -0.0460 -0.1096 -0.3596
 8985TIP3    H126919   5.800   5.688   0.960 -1.2087  1.8509 -1.0295
 8985TIP3    H226920   5.777   5.764   1.089  0.4710 -1.1029  1.1630
 8986TIP3   OH226921   3.954   4.332   2.037 -0.1973  0.1981  0.3084
 8986TIP3    H126922   4.019   4.315   2.104 -1.0251 -0.6263  0.9197
 8986TIP3    H226923   3.893   4.259   2.043 -3.8106  3.0693  2.9015
 8987TIP3   OH226924   0.919   0.908   1.734  0.1905  0.5102 -0.6691
 8987TIP3    H126925   0.948   0.898   1.825  1.7151  0.1009 -1.1721
 8987TIP3    H226926   0.878   0.825   1.712  1.1656  0.0531 -0.8053
 8988TIP3   OH226927   2.213   0.282   3.708  0.6020  0.1464 -0.6104
 8988TIP3    H126928   2.254   0.369   3.701 -1.5547  1.8822  3.9743
 8988TIP3    H226929   2.134   0.298   3.760 -0.9969 -4.3586 -1.2842
 8989TIP3   OH226930   0.720   1.536   1.368  0.3712 -0.2537  0.7322
 8989TIP3    H126931   0.655   1.604   1.385 -0.3174 -1.1948  2.0591
 8989TIP3    H226932   0.716   1.523   1.273 -0.7407  0.3421  0.6815
 8990TIP3   OH226933   4.117   1.585   4.406  0.2959 -0.3698 -0.5069
 8990TIP3    H126934   4.179   1.651   4.438 -0.3668 -0.7142  1.6703
 8990TIP3    H226935   4.086   1.542   4.486 -0.7183 -2.0298 -1.7509
 8991TIP3   OH226936   6.887   0.536   1.548  0.1769 -0.7658 -0.3525
 8991TIP3    H126937   6.973   0.500   1.526  0.0081 -1.1223 -0.4332
 8991TIP3    H226938   6.832   0.515   1.473  0.0090 -0.5649 -0.2874
 8992TIP3   OH226939   5.672   0.669   5.222 -1.0068  0.3277 -0.3504
 8992TIP3    H126940   5.721   0.751   5.216 -2.0364  1.0706  0.8679
 8992TIP3    H226941   5.689   0.625   5.139  1.5055  0.6492 -0.0800
 8993TIP3   OH226942   6.340   1.586   3.382 -0.5252  0.0053  0.2184
 8993TIP3    H126943   6.383   1.583   3.296  0.0313  1.2588  0.4322
 8993TIP3    H226944   6.262   1.532   3.372 -1.5048  1.6669 -1.6678
 8994TIP3   OH226945   1.664   4.771   4.579  0.1643 -0.5837 -0.1198
 8994TIP3    H126946   1.658   4.727   4.494 -0.8845 -0.2137 -0.2491
 8994TIP3    H226947   1.630   4.707   4.641  1.2116 -0.9681  0.0802
 8995TIP3   OH226948   2.184   2.055   4.873  0.0222  0.0278  0.3364
 8995TIP3    H126949   2.145   2.035   4.958 -1.8895  0.5556 -0.3809
 8995TIP3    H226950   2.196   1.969   4.832 -0.1060 -0.1610  0.6850
 8996TIP3   OH226951   3.112   0.087   3.477 -0.0118  0.4700  0.3381
 8996TIP3    H126952   3.066   0.123   3.553  0.6557  0.6759  0.6449
 8996TIP3    H226953   3.043   0.044   3.426 -0.5142  0.5994  0.8994
 8997TIP3   OH226954   1.187   1.773   4.620 -0.4751  0.8306  0.2578
 8997TIP3    H126955   1.253   1.835   4.589  0.8722 -0.8066 -0.2873
 8997TIP3    H226956   1.125   1.766   4.547  1.8431 -1.8257 -1.6386
 8998TIP3   OH226957   1.406   2.258   4.787  0.6104 -0.1476  1.0330
 8998TIP3    H126958   1.392   2.353   4.781 -0.5137 -0.2119  2.1401
 8998TIP3    H226959   1.319   2.220   4.783  0.8352 -0.9702  2.8208
 8999TIP3   OH226960   6.118   2.797   3.717 -0.2330  0.2631  0.4534
 8999TIP3    H126961   6.101   2.765   3.805 -0.3960  0.6831  0.5773
 8999TIP3    H226962   6.188   2.740   3.684 -0.9946 -0.6690  0.4008
 9000TIP3   OH226963   6.231   2.038   1.441 -0.3547  0.2173 -0.3615
 9000TIP3    H126964   6.244   2.113   1.499 -1.7886  0.7844 -0.7502
 9000TIP3    H226965   6.238   2.073   1.353 -1.9659  0.0912 -0.5560
 9001TIP3   OH226966   6.494   3.776   4.649 -0.0294 -0.3223 -0.2357
 9001TIP3    H126967   6.550   3.712   4.694 -0.5912  0.9781  2.5593
 9001TIP3    H226968   6.555   3.844   4.619  0.2143 -0.4812 -0.1047
 9002TIP3   OH226969   2.533   4.347   4.579  0.1587 -0.1283  0.0545
 9002TIP3    H126970   2.457   4.397   4.607 -1.2678 -1.5841 -0.9961
 9002TIP3    H226971   2.554   4.381   4.492  0.1564 -0.3070 -0.0175
 9003TIP3   OH226972   6.482   2.297   1.821  0.2988 -0.5030  0.0444
 9003TIP3    H126973   6.423   2.320   1.893  0.9044  1.8306 -0.1035
 9003TIP3    H226974   6.535   2.225   1.855 -1.7447 -1.8310  0.6204
 9004TIP3   OH226975   3.846   1.560   2.433  0.6089 -0.1963  0.1411
 9004TIP3    H126976   3.807   1.511   2.506 -0.9497  0.1761 -0.4007
 9004TIP3    H226977   3.773   1.576   2.374  1.5268  0.9289 -0.7219
 9005TIP3   OH226978   1.792   3.093   2.924 -0.0495  0.3035 -0.4530
 9005TIP3    H126979   1.870   3.131   2.965 -0.5219  0.3570  0.4427
 9005TIP3    H226980   1.814   3.085   2.832  0.8507  0.7353 -0.2869
 9006TIP3   OH226981   2.166   5.926   0.700  0.1295  0.1531 -0.0755
 9006TIP3    H126982   2.082   5.885   0.722 -1.9471  3.7396 -0.5645
 9006TIP3    H226983   2.177   5.907   0.606  0.3276 -0.9981  0.1632
 9007TIP3   OH226984   3.185   0.478   3.094 -0.3896 -0.0673 -0.0511
 9007TIP3    H126985   3.203   0.438   3.179 -1.3239 -0.0553  0.1655
 9007TIP3    H226986   3.125   0.418   3.052 -1.6495  0.9772  0.1892
 9008TIP3   OH226987   2.827   4.560   4.173  0.5972 -0.2861  0.0004
 9008TIP3    H126988   2.862   4.621   4.108  2.3118 -1.6723 -0.4657
 9008TIP3    H226989   2.903   4.510   4.203 -0.5894 -1.5615  1.0602
 9009TIP3   OH226990   2.625   1.745   2.408  0.4053  0.8691 -0.3215
 9009TIP3    H126991   2.605   1.747   2.314 -0.9063  0.3464 -0.0783
 9009TIP3    H226992   2.688   1.816   2.421  1.4013  0.3086 -1.7560
 9010TIP3   OH226993   1.563   6.663   3.344  0.0375  0.4713  0.2425
 9010TIP3    H126994   1.649   6.633   3.314 -0.5966 -0.7951 -0.3803
 9010TIP3    H226995   1.514   6.583   3.361 -1.7599  1.1218 -1.5089
 9011TIP3   OH226996   6.719   1.020   2.151 -0.5975 -0.6533 -0.2582
 9011TIP3    H126997   6.802   0.988   2.117 -1.3994 -1.5313 -1.4938
 9011TIP3    H226998   6.716   1.112   2.126 -0.8774 -1.1207 -2.0923
 9012TIP3   OH226999   6.562   6.186   5.446 -0.1692 -0.3031 -0.0354
 9012TIP3    H127000   6.502   6.122   5.484 -1.4930 -0.0574 -1.5934
 9012TIP3    H227001   6.521   6.271   5.464 -0.0197 -0.0982 -0.6310
 9013TIP3   OH227002   6.190   6.500   0.415 -0.4514 -0.0784  0.6515
 9013TIP3    H127003   6.116   6.446   0.388 -2.1019  0.7983  3.1806
 9013TIP3    H227004   6.153   6.566   0.473  1.5895  3.3630 -1.5648
 9014TIP3   OH227005   2.234   4.556   4.634 -0.7523  0.4979 -0.1044
 9014TIP3    H127006   2.199   4.489   4.692 -1.3585  0.2451 -0.7476
 9014TIP3    H227007   2.240   4.634   4.689 -0.8529  0.1429  0.4211
 9015TIP3   OH227008   0.298   5.269   5.554  0.1214 -0.1317 -0.7152
 9015TIP3    H127009   0.208   5.245   5.534 -0.3497  0.4817  0.5388
 9015TIP3    H227010   0.350   5.235   5.481 -1.0079 -1.2864 -1.0028
 9016TIP3   OH227011   5.345   0.297   1.020 -0.4720  0.1138 -0.6509
 9016TIP3    H127012   5.300   0.374   1.055  0.4158  1.0971 -1.6047
 9016TIP3    H227013   5.438   0.317   1.029 -0.2118 -1.4444  0.3226
 9017TIP3   OH227014   6.427   1.402   4.870  0.2226 -0.1597  0.3834
 9017TIP3    H127015   6.388   1.481   4.907  1.3897  1.4454 -1.6117
 9017TIP3    H227016   6.355   1.359   4.824  0.1062  1.1248 -0.6740
 9018TIP3   OH227017   3.655   3.408   5.403 -0.1477  0.0720 -0.3120
 9018TIP3    H127018   3.642   3.497   5.437 -1.4291 -0.3607  0.3947
 9018TIP3    H227019   3.723   3.418   5.337  1.0719  1.2709  1.0531
 9019TIP3   OH227020   3.959   0.690   1.447 -0.1366  0.0854 -0.8334
 9019TIP3    H127021   3.875   0.678   1.403 -1.6451 -1.1315  2.1257
 9019TIP3    H227022   3.959   0.782   1.475  0.1232  0.4241 -1.8996
 9020TIP3   OH227023   5.989   4.779   2.820  0.0716 -0.2204  0.3001
 9020TIP3    H127024   5.944   4.714   2.874 -1.6092  0.2275 -0.4605
 9020TIP3    H227025   6.025   4.842   2.882 -0.7233 -0.3929  0.9572
 9021TIP3   OH227026   6.099   0.804   1.798 -0.2146 -0.1834  0.3911
 9021TIP3    H127027   6.185   0.845   1.801 -0.2810 -0.0290  0.2131
 9021TIP3    H227028   6.039   0.872   1.828 -0.2072 -0.4880  1.1370
 9022TIP3   OH227029   3.042   6.383   5.239 -0.2785 -0.5637 -0.0286
 9022TIP3    H127030   3.136   6.399   5.234 -0.1574 -0.7955  1.2120
 9022TIP3    H227031   3.025   6.366   5.332 -1.8113  1.0942  0.0529
 9023TIP3   OH227032   1.034   2.836   0.119 -0.1901  0.1631  0.3577
 9023TIP3    H127033   1.032   2.928   0.145 -0.9188 -0.1166  1.3411
 9023TIP3    H227034   0.947   2.803   0.140 -0.7475 -0.1821 -2.1736
 9024TIP3   OH227035   0.110   4.290   5.096  0.3331 -0.0175 -0.1793
 9024TIP3    H127036   0.062   4.373   5.095  0.5189  0.1056  0.7053
 9024TIP3    H227037   0.083   4.246   5.015  0.1155  0.8350 -0.5789
 9025TIP3   OH227038   1.593   5.440   4.155  0.4053  0.2405  0.0090
 9025TIP3    H127039   1.580   5.345   4.152  2.0904 -0.0345  0.4446
 9025TIP3    H227040   1.551   5.472   4.075 -0.2757 -0.8558 -0.0983
 9026TIP3   OH227041   4.552   2.901   4.991  0.1588 -0.0659 -0.3658
 9026TIP3    H127042   4.589   2.972   5.043  2.0523  0.3239 -2.1175
 9026TIP3    H227043   4.553   2.934   4.901 -0.5149 -1.6852 -1.0100
 9027TIP3   OH227044   1.943   2.815   4.036 -0.2862  0.1809 -0.1474
 9027TIP3    H127045   1.854   2.849   4.029 -0.7260 -0.8831  0.0306
 9027TIP3    H227046   1.954   2.761   3.957  0.7003  1.3780 -0.8617
 9028TIP3   OH227047   2.956   1.806   1.175 -0.5996 -0.0814  0.1555
 9028TIP3    H127048   2.906   1.785   1.095  0.5748 -2.6473 -0.0040
 9028TIP3    H227049   2.903   1.873   1.219 -2.3772 -0.1434 -1.7198
 9029TIP3   OH227050   5.959   2.348   5.168 -0.0076  0.1358 -0.4492
 9029TIP3    H127051   5.953   2.443   5.174 -0.2897  0.0266  1.8171
 9029TIP3    H227052   5.974   2.331   5.075  1.0159  2.4241 -0.7699
 9030TIP3   OH227053   6.532   1.220   5.053 -0.3793  0.0532  0.2361
 9030TIP3    H127054   6.562   1.142   5.006 -1.5895 -1.0550  1.2455
 9030TIP3    H227055   6.507   1.281   4.983  0.5778 -0.4292 -0.5711
 9031TIP3   OH227056   4.425   0.493   1.442 -0.1562  0.0709  0.4240
 9031TIP3    H127057   4.421   0.482   1.347 -1.6610  0.0187  0.4743
 9031TIP3    H227058   4.381   0.416   1.477  1.0180 -0.2744  1.2096
 9032TIP3   OH227059   5.294   6.530   1.697  0.6999  0.7847  0.3761
 9032TIP3    H127060   5.334   6.584   1.630 -0.7647  0.8803 -0.4699
 9032TIP3    H227061   5.200   6.533   1.678  0.3468 -0.0849  1.7674
 9033TIP3   OH227062   2.664   6.412   4.160 -0.0936  0.6763  0.1051
 9033TIP3    H127063   2.652   6.369   4.245  0.2041  0.0914 -0.1503
 9033TIP3    H227064   2.757   6.437   4.159 -0.2462  1.2804  0.2231
 9034TIP3   OH227065   0.311   5.978   0.469  0.0549  0.7185 -0.2404
 9034TIP3    H127066   0.377   5.962   0.402  0.0665 -0.9389  0.1229
 9034TIP3    H227067   0.228   5.964   0.423  0.0796 -1.4502  0.2735
 9035TIP3   OH227068   0.394   2.502   2.196 -0.5942  0.4313 -0.1535
 9035TIP3    H127069   0.371   2.486   2.105 -0.3624  0.2593 -0.1851
 9035TIP3    H227070   0.359   2.588   2.216  0.2515  0.9202 -0.7138
 9036TIP3   OH227071   4.084   3.310   1.266 -0.7357 -0.3621  0.6059
 9036TIP3    H127072   4.072   3.359   1.348 -1.3461 -0.1896  0.4167
 9036TIP3    H227073   4.073   3.375   1.197 -1.1375 -0.6805  0.3637
 9037TIP3   OH227074   3.607   0.460   0.474  0.3409  0.2152  0.3499
 9037TIP3    H127075   3.613   0.417   0.389  0.4429 -1.3450  1.0968
 9037TIP3    H227076   3.541   0.409   0.522  0.4935  0.8773  1.3062
 9038TIP3   OH227077   3.322   1.268   5.824  0.0896 -0.1635 -0.2428
 9038TIP3    H127078   3.239   1.247   5.780 -0.0714 -0.2249  0.0814
 9038TIP3    H227079   3.296   1.286   5.915  0.6093 -1.7172  0.2388
 9039TIP3   OH227080   5.162   3.059   0.130  0.1513 -0.3107  0.1579
 9039TIP3    H127081   5.075   3.093   0.153  1.1197  1.3443  1.6479
 9039TIP3    H227082   5.222   3.131   0.151  1.7935 -0.9864 -1.9573
 9040TIP3   OH227083   6.775   1.176   3.958 -0.1402 -0.5012  0.0568
 9040TIP3    H127084   6.830   1.109   3.916 -0.3376 -0.7342  0.1682
 9040TIP3    H227085   6.695   1.178   3.906 -0.6528 -1.2423  0.7754
 9041TIP3   OH227086   1.866   3.441   1.592 -0.1220  0.3014 -0.4628
 9041TIP3    H127087   1.903   3.461   1.507 -0.7377  0.4148 -0.7087
 9041TIP3    H227088   1.845   3.348   1.588 -0.2165  0.3220 -0.4643
 9042TIP3   OH227089   5.377   1.552   5.462 -0.5311 -0.2847  0.0867
 9042TIP3    H127090   5.315   1.624   5.469 -0.2171 -0.1790  2.4568
 9042TIP3    H227091   5.461   1.590   5.486 -0.3227 -1.3703  1.1531
 9043TIP3   OH227092   4.099   3.782   3.062  0.4000  0.0130  0.0745
 9043TIP3    H127093   4.061   3.869   3.054  0.1603 -0.0933  0.0453
 9043TIP3    H227094   4.114   3.754   2.971  1.0365  0.2679  0.1016
 9044TIP3   OH227095  -0.007   2.121   2.395 -0.5187  0.0117  0.7969
 9044TIP3    H127096   0.037   2.184   2.452  0.1716  0.3729 -0.1012
 9044TIP3    H227097  -0.005   2.039   2.443  0.2334  0.2614  1.2024
 9045TIP3   OH227098   2.525   0.193   1.467 -0.4077  0.3118  0.0716
 9045TIP3    H127099   2.530   0.097   1.462  1.0555  0.1106  2.9240
 9045TIP3    H227100   2.438   0.211   1.503 -1.5851  0.2941 -2.5546
 9046TIP3   OH227101   0.355   0.544   4.584  0.3097 -0.1766  0.0285
 9046TIP3    H127102   0.278   0.598   4.600  0.3422  0.1521 -0.8952
 9046TIP3    H227103   0.415   0.602   4.537  0.4797 -0.9137 -0.6674
 9047TIP3   OH227104   2.429   2.133   5.766 -0.4244  0.0289  0.1554
 9047TIP3    H127105   2.430   2.229   5.768  2.9954  0.2486 -2.3676
 9047TIP3    H227106   2.375   2.111   5.690 -1.3601 -0.1054  0.8412
 9048TIP3   OH227107   2.121   4.658   3.467 -0.4589  0.4922 -0.0714
 9048TIP3    H127108   2.062   4.707   3.524  1.2415  0.9127  1.4211
 9048TIP3    H227109   2.064   4.596   3.422 -2.0678  0.9934  1.1562
 9049TIP3   OH227110   5.088   3.517   5.795 -0.1655  0.4340  0.1957
 9049TIP3    H127111   5.012   3.485   5.746  0.1699 -0.0283 -0.0241
 9049TIP3    H227112   5.058   3.600   5.832 -0.1896  1.1739 -1.4069
 9050TIP3   OH227113   6.551   5.858   2.221 -0.2694 -0.3543 -0.2855
 9050TIP3    H127114   6.594   5.819   2.145  1.1594  0.2540  0.1665
 9050TIP3    H227115   6.545   5.786   2.284 -0.8481 -0.6924 -0.7165
 9051TIP3   OH227116   5.933   2.157   1.354  0.5698 -0.4567 -0.3205
 9051TIP3    H127117   5.841   2.167   1.377  0.2049 -0.5355 -1.6931
 9051TIP3    H227118   5.978   2.223   1.407 -0.2259 -0.6126  0.5724
 9052TIP3   OH227119   1.994   0.743   2.248  0.1661  0.0935 -0.3426
 9052TIP3    H127120   1.996   0.807   2.177 -0.8635  0.8550  0.2915
 9052TIP3    H227121   2.081   0.746   2.286  0.6854 -0.2153 -1.4575
 9053TIP3   OH227122   6.124   5.405   3.859  0.0629  0.1854  0.3430
 9053TIP3    H127123   6.089   5.485   3.899 -0.7478 -0.5916  1.2614
 9053TIP3    H227124   6.052   5.342   3.866  0.8339 -0.7488  0.0386
 9054TIP3   OH227125   6.212   2.281   4.720  0.1847  0.1804  0.1741
 9054TIP3    H127126   6.163   2.272   4.639  1.0317 -0.0952 -0.3292
 9054TIP3    H227127   6.292   2.229   4.705  0.3629  0.1517  1.1686
 9055TIP3   OH227128   6.325   5.089   5.101  0.0731  0.5922  0.3002
 9055TIP3    H127129   6.289   5.009   5.063 -2.4169  1.2702  1.0703
 9055TIP3    H227130   6.300   5.086   5.193 -0.2905  2.3655  0.2862
 9056TIP3   OH227131   1.708   0.224   4.830  0.2011  0.3958  0.2646
 9056TIP3    H127132   1.764   0.174   4.771 -0.5769  0.3786 -0.4718
 9056TIP3    H227133   1.769   0.274   4.884  1.0216 -1.5176  1.2061
 9057TIP3   OH227134   1.269   0.301   4.739  0.2877 -0.0103  0.0649
 9057TIP3    H127135   1.307   0.311   4.826 -1.2644 -0.9677  0.9009
 9057TIP3    H227136   1.337   0.331   4.679  1.0891  1.4499  1.6375
 9058TIP3   OH227137   0.085   6.331   2.138  0.3563  0.3278 -0.5228
 9058TIP3    H127138   0.085   6.398   2.069  2.7537  0.5309 -0.4292
 9058TIP3    H227139   0.024   6.364   2.203 -0.3495  1.1915 -1.5780
 9059TIP3   OH227140   2.971   1.080   1.210 -0.2881  0.0863 -0.1113
 9059TIP3    H127141   2.918   1.017   1.258 -0.0042 -1.1851 -1.3681
 9059TIP3    H227142   3.058   1.073   1.249 -1.1461  3.1200  2.8403
 9060TIP3   OH227143   6.870   1.273   1.689  0.4293  0.4797 -0.0064
 9060TIP3    H127144   6.824   1.289   1.771  0.1096 -0.3717 -0.0172
 9060TIP3    H227145   6.824   1.327   1.624 -0.0087  0.2976  0.1519
 9061TIP3   OH227146   1.537   4.718   0.642 -0.3304  0.5876  0.0598
 9061TIP3    H127147   1.595   4.788   0.609  0.1748 -0.1973 -0.7508
 9061TIP3    H227148   1.569   4.701   0.731  0.6836  0.1769 -0.3722
 9062TIP3   OH227149   6.406   3.675   1.546 -0.7235 -0.0192  0.0458
 9062TIP3    H127150   6.452   3.642   1.623 -0.4092 -0.3427 -0.2763
 9062TIP3    H227151   6.475   3.714   1.492 -0.1651 -3.5972 -2.1131
 9063TIP3   OH227152   6.723   0.984   3.125  0.1285 -0.2037  0.1192
 9063TIP3    H127153   6.783   0.926   3.078  0.2229 -1.2706  1.4915
 9063TIP3    H227154   6.649   0.928   3.148 -1.1906  0.9661 -1.0787
 9064TIP3   OH227155   4.515   4.747   2.261 -0.3678  0.2397  0.4135
 9064TIP3    H127156   4.541   4.666   2.305 -1.6705  0.2127  1.1768
 9064TIP3    H227157   4.438   4.724   2.210  0.4891  0.5310 -1.0791
 9065TIP3   OH227158   1.991   1.993   0.627 -0.2320  0.2224  0.3162
 9065TIP3    H127159   2.022   2.075   0.667  1.1307 -0.6877  1.2417
 9065TIP3    H227160   2.065   1.964   0.574 -1.1544  0.1887 -0.9776
 9066TIP3   OH227161   0.830   6.557   1.129 -0.5015 -0.4304  0.2625
 9066TIP3    H127162   0.809   6.650   1.130 -0.5803 -0.4482  0.6737
 9066TIP3    H227163   0.913   6.551   1.081 -0.0939 -0.0513  0.9004
 9067TIP3   OH227164   4.802   0.375   5.102  0.0443 -1.0995 -0.1909
 9067TIP3    H127165   4.803   0.421   5.018  0.2458 -1.0648 -0.1711
 9067TIP3    H227166   4.756   0.435   5.161  0.5773 -0.7820 -0.0889
 9068TIP3   OH227167   3.911   0.328   2.285 -0.0074  0.0357 -0.1683
 9068TIP3    H127168   3.922   0.233   2.277 -1.8149 -0.1760 -0.5386
 9068TIP3    H227169   3.922   0.361   2.196 -1.1546 -0.0576 -0.3577
 9069TIP3   OH227170   6.546   0.546   3.057  0.4458  0.3887  0.1570
 9069TIP3    H127171   6.458   0.576   3.033 -0.0555  0.2181  1.7064
 9069TIP3    H227172   6.598   0.625   3.063  1.0513  0.3612 -3.0297
 9070TIP3   OH227173   4.647   2.989   5.350 -0.4217 -0.0335  0.5032
 9070TIP3    H127174   4.621   3.026   5.435 -0.5281  0.5130  0.2316
 9070TIP3    H227175   4.652   2.895   5.367  3.0039  0.2807  2.0774
 9071TIP3   OH227176   4.743   0.407   5.811 -0.2842  0.3874  0.0973
 9071TIP3    H127177   4.724   0.338   5.748 -0.9972  0.7894 -0.1361
 9071TIP3    H227178   4.699   0.379   5.891  1.1466 -0.4379  0.6322
 9072TIP3   OH227179   1.084   1.671   5.349  0.4337 -0.5811  0.1775
 9072TIP3    H127180   1.002   1.623   5.333  1.0082 -1.8897  0.9806
 9072TIP3    H227181   1.143   1.641   5.281  0.3869  0.0458 -0.1455
 9073TIP3   OH227182   4.568   0.754   1.490  0.4658 -0.5496  0.0457
 9073TIP3    H127183   4.653   0.731   1.452  0.7052  0.7584 -0.2608
 9073TIP3    H227184   4.508   0.686   1.457  1.3980 -1.5473  0.3503
 9074TIP3   OH227185   3.556   2.762   5.219  0.0920 -0.0674 -0.1426
 9074TIP3    H127186   3.516   2.700   5.280  1.2472 -1.8531 -1.1094
 9074TIP3    H227187   3.640   2.783   5.259  0.6118 -0.8127 -0.7932
 9075TIP3   OH227188   4.876   3.610   2.812  0.0422 -0.0163 -0.6554
 9075TIP3    H127189   4.933   3.556   2.865  0.4334  1.0488  0.0383
 9075TIP3    H227190   4.798   3.624   2.865  0.8232  1.8392  0.1062
 9076TIP3   OH227191   2.230   4.606   3.780  0.0035 -0.4333  0.1957
 9076TIP3    H127192   2.207   4.683   3.832 -2.3381 -0.7256 -0.2893
 9076TIP3    H227193   2.167   4.539   3.807  0.6040 -1.5050 -0.9453
 9077TIP3   OH227194   7.182   0.044   3.307 -0.1028 -0.6134  0.2372
 9077TIP3    H127195   7.131  -0.021   3.353 -0.1031 -0.4321  0.4947
 9077TIP3    H227196   7.125   0.074   3.236 -0.4943 -0.1527  0.7373
 9078TIP3   OH227197   3.468   0.596   2.420  0.3634  0.2646 -0.0401
 9078TIP3    H127198   3.545   0.545   2.396  1.4142  1.4454  0.6731
 9078TIP3    H227199   3.403   0.531   2.447  1.0706 -0.7548 -0.7392
 9079TIP3   OH227200   5.992   6.570   5.744 -0.6810  0.6003  0.0722
 9079TIP3    H127201   5.947   6.579   5.661 -2.0417  0.4030  0.7587
 9079TIP3    H227202   6.079   6.535   5.721 -1.0963  0.3794 -1.2316
 9080TIP3   OH227203   3.895   0.422   4.289 -0.0599 -0.5176  0.2723
 9080TIP3    H127204   3.901   0.351   4.225  3.3547  1.2108 -1.6157
 9080TIP3    H227205   3.956   0.397   4.359 -0.1997 -0.2624  0.4874
 9081TIP3   OH227206   1.250   1.970   1.114 -0.0296  0.3913  0.2578
 9081TIP3    H127207   1.242   1.968   1.209  0.0761  0.1672  0.2622
 9081TIP3    H227208   1.325   1.913   1.095  0.1922  0.7436  0.0684
 9082TIP3   OH227209   0.491   3.146   5.046  0.2119 -0.0062 -0.0309
 9082TIP3    H127210   0.475   3.082   4.976 -2.0825 -1.2269  1.4717
 9082TIP3    H227211   0.575   3.119   5.084  0.9650  0.0276 -1.5779
 9083TIP3   OH227212   3.386   3.048   4.600  0.3720  0.5302  0.0960
 9083TIP3    H127213   3.304   3.079   4.561 -0.4929 -1.7052 -0.0083
 9083TIP3    H227214   3.426   2.995   4.532  0.5205 -0.6597  1.0824
 9084TIP3   OH227215   1.292   1.536   0.640 -0.0946 -0.1539 -0.1938
 9084TIP3    H127216   1.346   1.520   0.718  0.2140 -1.0917 -0.5899
 9084TIP3    H227217   1.265   1.449   0.611 -4.2207  0.2855  1.6070
 9085TIP3   OH227218   3.987   2.413   2.978  0.2852 -0.2667  0.1466
 9085TIP3    H127219   3.967   2.333   2.930  2.9602 -0.3239 -1.0477
 9085TIP3    H227220   3.953   2.484   2.924  0.6048 -0.4796 -0.3397
 9086TIP3   OH227221   1.485   5.091   0.841  0.2548 -0.1283  0.3386
 9086TIP3    H127222   1.543   5.081   0.766  0.0187  0.8043  0.0215
 9086TIP3    H227223   1.397   5.082   0.805  0.0363  2.4610  0.0934
 9087TIP3   OH227224   6.052   5.126   0.899 -0.3413  0.0798 -0.1132
 9087TIP3    H127225   5.982   5.184   0.870  0.2231  0.9073  0.1436
 9087TIP3    H227226   6.121   5.185   0.929  0.9453 -0.6777 -1.4443
 9088TIP3   OH227227   2.842   2.044   4.401 -0.3044  0.2794  0.0063
 9088TIP3    H127228   2.753   2.010   4.391 -0.3176  0.5489 -0.8343
 9088TIP3    H227229   2.894   1.997   4.336  0.9413 -2.3831  2.6664
 9089TIP3   OH227230   1.314   1.772   5.617 -0.1745  0.2758 -0.5024
 9089TIP3    H127231   1.406   1.748   5.606 -0.3539 -1.0315  0.6219
 9089TIP3    H227232   1.310   1.814   5.702 -0.9107 -1.4900  0.3895
 9090TIP3   OH227233   1.706   6.673   2.457 -0.0550 -0.2961  0.5020
 9090TIP3    H127234   1.637   6.667   2.522  0.5480 -0.7609  1.1053
 9090TIP3    H227235   1.786   6.689   2.507  0.4706 -1.0119 -0.0846
 9091TIP3   OH227236   0.764   4.965   1.198 -0.5018  0.0893  0.4477
 9091TIP3    H127237   0.829   4.915   1.248  0.1931 -0.9104 -1.3577
 9091TIP3    H227238   0.694   4.983   1.260  0.4747 -0.8006  1.8520
 9092TIP3   OH227239   4.339   6.023   2.608  0.9458 -0.5705  0.5649
 9092TIP3    H127240   4.423   6.028   2.563 -0.1502 -3.0621 -2.0514
 9092TIP3    H227241   4.274   6.042   2.540 -0.7157  1.3610  2.5072
 9093TIP3   OH227242   0.730   2.399   0.851  0.3201 -0.9183  0.1127
 9093TIP3    H127243   0.699   2.470   0.907  1.7701 -0.3920  0.2843
 9093TIP3    H227244   0.747   2.440   0.767 -0.3390 -1.3878 -0.2524
 9094TIP3   OH227245   2.722   5.935   0.506  0.1912  0.4100  0.5311
 9094TIP3    H127246   2.780   5.928   0.582  0.1621  0.9233  0.6041
 9094TIP3    H227247   2.648   5.987   0.537  0.7041  1.6016 -0.1452
 9095TIP3   OH227248   7.103   5.700   2.715 -0.4017  0.0282 -0.0601
 9095TIP3    H127249   7.085   5.781   2.668  2.1650 -0.1287 -1.4730
 9095TIP3    H227250   7.132   5.638   2.648 -0.3084 -1.4378  1.2596
 9096TIP3   OH227251   3.785   4.886   5.707 -0.0291 -0.0911 -0.0068
 9096TIP3    H127252   3.748   4.891   5.619  0.1497  1.8239 -0.0204
 9096TIP3    H227253   3.709   4.887   5.765 -0.1095  1.7052 -0.0920
 9097TIP3   OH227254   6.388   1.501   4.048 -0.0508  0.4376  0.3109
 9097TIP3    H127255   6.323   1.569   4.033 -0.2215  0.6124  1.7485
 9097TIP3    H227256   6.443   1.502   3.969 -1.5726  0.5130 -0.7812
 9098TIP3   OH227257   4.424   0.809   4.056  0.4378 -0.2902 -0.1276
 9098TIP3    H127258   4.409   0.717   4.076  0.5193  0.0635  1.7058
 9098TIP3    H227259   4.490   0.808   3.987 -2.1314 -1.6662 -2.8116
 9099TIP3   OH227260   4.566   0.143   3.957  0.6996  0.1526 -0.0658
 9099TIP3    H127261   4.643   0.089   3.977  1.7800  1.9419  0.9567
 9099TIP3    H227262   4.506   0.125   4.029  0.6090 -0.4581 -0.2909
 9100TIP3   OH227263   3.437   5.618   4.896 -0.0131 -0.6789  0.1136
 9100TIP3    H127264   3.383   5.665   4.960 -0.1370  1.3161 -1.3716
 9100TIP3    H227265   3.378   5.604   4.821  1.3320  1.0619 -1.3290
 9101TIP3   OH227266   0.688   1.304   4.242 -0.3373 -0.2441  0.3481
 9101TIP3    H127267   0.770   1.272   4.204 -0.0586  1.3258 -0.4880
 9101TIP3    H227268   0.637   1.335   4.166 -0.5153  1.3646  1.0813
 9102TIP3   OH227269   2.049   5.452   4.120  0.4898  0.7031 -0.2333
 9102TIP3    H127270   2.091   5.367   4.112  0.0743  0.4250  0.4999
 9102TIP3    H227271   1.986   5.442   4.191 -0.2120  1.3571 -0.7408
 9103TIP3   OH227272   3.258   2.915   4.340  0.3281  0.1918 -1.0726
 9103TIP3    H127273   3.209   2.837   4.364  0.6802  0.1129 -0.5983
 9103TIP3    H227274   3.202   2.961   4.278 -0.1288 -0.1447 -0.9083
 9104TIP3   OH227275   0.129   4.264   0.764 -0.0239 -0.1520  0.1823
 9104TIP3    H127276   0.051   4.318   0.755  0.5915  0.6798 -0.3248
 9104TIP3    H227277   0.159   4.279   0.853 -0.5069 -0.5711  0.4189
 9105TIP3   OH227278   4.771   3.645   4.747 -0.3140  0.0980  0.3915
 9105TIP3    H127279   4.678   3.667   4.756 -1.5537 -3.9917 -0.2861
 9105TIP3    H227280   4.783   3.633   4.652  0.7108 -0.1572  0.5415
 9106TIP3   OH227281   1.319   3.600   3.741  0.0503 -0.0949 -0.7697
 9106TIP3    H127282   1.360   3.573   3.659  1.3200 -1.3528  0.2421
 9106TIP3    H227283   1.347   3.691   3.753  0.0447  0.0206 -1.6021
 9107TIP3   OH227284   4.088   3.081   3.330 -0.3532  0.2651 -0.0200
 9107TIP3    H127285   4.107   3.143   3.260  3.0274  0.3197  0.7471
 9107TIP3    H227286   4.026   3.126   3.386 -0.0681  1.8423 -0.9014
 9108TIP3   OH227287   5.896   1.868   3.215  0.2355  0.1070 -0.0051
 9108TIP3    H127288   5.856   1.894   3.298  0.6229 -4.0994  1.7424
 9108TIP3    H227289   5.990   1.872   3.232  0.3331  0.0802 -0.5371
 9109TIP3   OH227290   3.842   3.460   5.223  0.1994 -0.2159 -0.3119
 9109TIP3    H127291   3.890   3.394   5.172  1.2906  0.8487 -0.7119
 9109TIP3    H227292   3.870   3.544   5.186 -2.3247  0.4850 -0.8941
 9110TIP3   OH227293   3.807   1.992   1.693 -0.1931 -0.0565  0.2036
 9110TIP3    H127294   3.824   1.928   1.761  0.0460 -0.8958 -0.6262
 9110TIP3    H227295   3.721   1.968   1.658  0.8056 -1.2745 -1.5387
 9111TIP3   OH227296   5.500   2.528   3.916  0.1445  0.0698 -0.5095
 9111TIP3    H127297   5.518   2.549   4.008  0.8608  0.2133 -0.6767
 9111TIP3    H227298   5.461   2.440   3.919 -2.1684  1.0446  0.1297
 9112TIP3   OH227299   2.324   3.566   4.165  0.1169 -0.3892 -0.6583
 9112TIP3    H127300   2.366   3.485   4.135  1.5695  0.7525 -1.8422
 9112TIP3    H227301   2.392   3.611   4.214 -0.5140  0.3676 -0.4702
 9113TIP3   OH227302   3.630   6.141   4.436  0.1341 -0.2490  0.3297
 9113TIP3    H127303   3.700   6.134   4.371  1.2648 -1.0041  1.5731
 9113TIP3    H227304   3.609   6.050   4.458 -1.3146 -0.0349 -0.0749
 9114TIP3   OH227305   3.455   5.013   0.221  0.1688  0.0793 -0.2873
 9114TIP3    H127306   3.489   5.057   0.144 -0.4397  0.4149 -0.3724
 9114TIP3    H227307   3.371   4.976   0.193  1.3295 -2.5089 -0.6726
 9115TIP3   OH227308   2.145   1.857   5.363 -0.6576 -0.0257 -0.0819
 9115TIP3    H127309   2.107   1.897   5.442 -0.6202 -1.3398  0.6371
 9115TIP3    H227310   2.238   1.852   5.382 -0.5210  0.4871 -0.6038
 9116TIP3   OH227311   0.203   3.392   4.794  0.3678 -0.2947 -0.1281
 9116TIP3    H127312   0.144   3.330   4.750  1.6992 -1.6563 -0.0775
 9116TIP3    H227313   0.145   3.450   4.843 -1.2922  1.6003 -3.8727
 9117TIP3   OH227314   5.147   4.861   2.091  0.5668 -0.1566 -0.5618
 9117TIP3    H127315   5.217   4.927   2.091  0.0903  0.3969 -2.2550
 9117TIP3    H227316   5.075   4.903   2.137  0.9619 -0.3177  0.2259
 9118TIP3   OH227317   5.703   1.542   4.465 -0.2319 -0.0326  0.2118
 9118TIP3    H127318   5.722   1.496   4.384 -0.6059 -1.2680  0.8027
 9118TIP3    H227319   5.772   1.514   4.525 -1.3809 -1.1524  1.0695
 9119TIP3   OH227320   0.429   2.722   0.638 -0.3335  0.0102  0.0724
 9119TIP3    H127321   0.421   2.697   0.546  3.9583  0.3620 -0.5675
 9119TIP3    H227322   0.401   2.814   0.640 -1.9207 -0.4174 -0.4816
 9120TIP3   OH227323   3.999   4.532   3.905 -0.2907 -0.2767 -0.2058
 9120TIP3    H127324   3.944   4.476   3.959 -1.3713  1.7699  0.9406
 9120TIP3    H227325   4.079   4.481   3.892 -0.6917 -1.5692  1.8565
 9121TIP3   OH227326   3.815   3.083   2.756 -0.3136  0.6662 -0.1705
 9121TIP3    H127327   3.805   3.005   2.810  1.2887 -0.4694 -1.4191
 9121TIP3    H227328   3.797   3.053   2.667  3.1720  0.9294 -1.1031
 9122TIP3   OH227329   7.046   5.132   1.934 -0.4690  0.4691  0.5539
 9122TIP3    H127330   7.054   5.216   1.889  0.1078  0.6003  0.8930
 9122TIP3    H227331   7.134   5.096   1.932 -0.6318  0.0568  0.7718
 9123TIP3   OH227332   4.447   3.278   0.518 -0.4398  0.7926 -0.6307
 9123TIP3    H127333   4.536   3.310   0.505 -0.7391  1.8397 -0.2896
 9123TIP3    H227334   4.442   3.197   0.467  0.2675  1.4670 -1.8235
 9124TIP3   OH227335   6.830   0.849   4.477  0.8205  0.8845 -0.4025
 9124TIP3    H127336   6.892   0.884   4.413  0.5346  3.1140  0.4487
 9124TIP3    H227337   6.803   0.925   4.528  1.0069 -0.7794  2.3891
 9125TIP3   OH227338   0.214   6.250   0.133  0.0788 -0.5286 -0.5617
 9125TIP3    H127339   0.258   6.243   0.218  1.6428  0.4930 -1.2509
 9125TIP3    H227340   0.129   6.208   0.147  0.7377 -1.3911  1.1903
 9126TIP3   OH227341   0.807   4.271   2.544  0.1495  0.2358 -0.1012
 9126TIP3    H127342   0.861   4.245   2.618  0.8900  0.8408 -0.4144
 9126TIP3    H227343   0.853   4.346   2.506 -0.3432  0.0831 -1.0257
 9127TIP3   OH227344   5.625   5.685   1.822 -0.1288 -0.2750 -0.2893
 9127TIP3    H127345   5.532   5.699   1.804 -0.0585  0.0263 -0.4265
 9127TIP3    H227346   5.639   5.592   1.806 -0.3071 -0.2289 -0.7275
 9128TIP3   OH227347   3.056   1.452   1.426 -0.0869  0.0298  0.0236
 9128TIP3    H127348   3.004   1.376   1.453 -1.0899  0.9552  0.7671
 9128TIP3    H227349   2.992   1.521   1.409  0.7767  0.5809 -1.1501
 9129TIP3   OH227350   5.906   1.154   1.948  0.2336  0.4225 -0.0857
 9129TIP3    H127351   5.904   1.248   1.934  0.8877  0.4334 -0.1760
 9129TIP3    H227352   5.991   1.138   1.991  0.1609 -0.1267 -0.1359
 9130TIP3   OH227353   5.155   6.254   4.901 -0.5385 -0.3185 -0.5300
 9130TIP3    H127354   5.124   6.208   4.823  0.8740 -0.1840 -1.2120
 9130TIP3    H227355   5.077   6.293   4.940 -1.2763 -0.4701 -1.8262
 9131TIP3   OH227356   0.290   6.418   1.284 -0.6061  0.1579 -0.7445
 9131TIP3    H127357   0.217   6.417   1.222  1.1106 -0.4005 -2.8653
 9131TIP3    H227358   0.304   6.326   1.305  0.3033  0.1458 -1.3790
 9132TIP3   OH227359   5.531   5.442   3.722  0.2764  0.2096  0.2993
 9132TIP3    H127360   5.564   5.353   3.734 -1.6664 -0.5169  0.7217
 9132TIP3    H227361   5.438   5.436   3.746 -0.4024  1.9007 -1.6250
 9133TIP3   OH227362   4.466   4.053   0.258  0.2818 -0.1122  0.3550
 9133TIP3    H127363   4.489   3.962   0.240  1.1441  0.4303 -1.4130
 9133TIP3    H227364   4.372   4.058   0.242  0.4367 -0.4409 -0.7210
 9134TIP3   OH227365   5.835   5.300   4.780  0.5271  0.1919  0.1212
 9134TIP3    H127366   5.741   5.298   4.797  0.2303  0.7767 -1.2940
 9134TIP3    H227367   5.871   5.231   4.836 -0.5565  0.8240  1.6594
 9135TIP3   OH227368   0.959   5.570   0.484  0.1418  0.8330 -0.2178
 9135TIP3    H127369   1.002   5.506   0.426 -0.3149  1.3899 -1.1975
 9135TIP3    H227370   0.888   5.521   0.524 -0.9617  0.9877 -1.8841
 9136TIP3   OH227371   4.103   6.581   3.629 -0.1718  0.0085  0.0587
 9136TIP3    H127372   4.066   6.549   3.547  0.9673 -0.4374 -0.2960
 9136TIP3    H227373   4.083   6.675   3.630  0.2971  0.1326 -1.0105
 9137TIP3   OH227374   7.142   3.058   2.354 -0.1308 -0.2456  0.6049
 9137TIP3    H127375   7.176   2.974   2.385 -2.1733 -1.7616 -0.9714
 9137TIP3    H227376   7.154   3.056   2.259  0.7427  1.7637  0.6137
 9138TIP3   OH227377   0.017   2.806   2.455 -0.2345  0.0132 -0.9421
 9138TIP3    H127378   0.034   2.765   2.540 -1.7438  0.7386 -0.2561
 9138TIP3    H227379   0.029   2.735   2.391 -1.2006 -1.0903  0.0738
 9139TIP3   OH227380   5.088   6.153   0.735  0.4021 -0.0600  0.1849
 9139TIP3    H127381   5.021   6.208   0.693 -0.3771 -0.1896  1.2221
 9139TIP3    H227382   5.118   6.095   0.665  1.7732  2.1073 -1.1441
 9140TIP3   OH227383   1.702   3.433   1.324  0.2937 -0.5022 -0.5738
 9140TIP3    H127384   1.615   3.472   1.326 -0.3520 -1.8547 -0.9848
 9140TIP3    H227385   1.762   3.507   1.319 -0.6897  0.6134  2.2073
 9141TIP3   OH227386   1.303   3.024   3.908 -0.1721 -0.2814  0.3229
 9141TIP3    H127387   1.369   3.079   3.950 -0.0922  0.3204 -0.5587
 9141TIP3    H227388   1.348   2.942   3.891  0.6552  0.4101 -1.0432
 9142TIP3   OH227389   5.750   6.128   5.734 -0.0535  0.5625 -0.4024
 9142TIP3    H127390   5.818   6.178   5.689 -0.7398  1.5317 -0.3686
 9142TIP3    H227391   5.796   6.050   5.766  1.2034  1.4982  0.1599
 9143TIP3   OH227392   2.076   2.130   1.648  0.7327  0.3597  0.2233
 9143TIP3    H127393   2.003   2.068   1.654  0.2001  0.9926  0.4970
 9143TIP3    H227394   2.067   2.169   1.561  0.7835  0.3908  0.2322
 9144TIP3   OH227395   5.151   6.138   4.653  0.0491  0.0052  0.2442
 9144TIP3    H127396   5.227   6.118   4.709 -1.3281 -0.6575  2.0005
 9144TIP3    H227397   5.161   6.230   4.631 -0.1530  0.8115  3.0657
 9145TIP3   OH227398   4.633   2.633   5.045 -0.8424 -0.2488 -0.0605
 9145TIP3    H127399   4.632   2.724   5.016  0.2415 -0.0032  0.6488
 9145TIP3    H227400   4.709   2.594   5.001  0.1101 -0.1832  1.4695
 9146TIP3   OH227401   1.294   1.281   0.525  1.2518 -0.2123 -0.0114
 9146TIP3    H127402   1.324   1.196   0.557 -0.5595 -0.9433 -0.1859
 9146TIP3    H227403   1.355   1.303   0.454  2.3712 -0.8377  0.7212
 9147TIP3   OH227404   1.337   4.882   0.442  0.0064 -0.4963 -0.2349
 9147TIP3    H127405   1.410   4.844   0.392 -0.1528 -0.8507 -0.1954
 9147TIP3    H227406   1.344   4.843   0.529 -0.1573 -0.4325 -0.1929
 9148TIP3   OH227407   0.716   3.698   2.602  0.6087  0.4457 -0.0350
 9148TIP3    H127408   0.735   3.648   2.523 -0.4942 -0.5432  0.3068
 9148TIP3    H227409   0.787   3.762   2.607  2.6731 -1.7228  0.0516
 9149TIP3   OH227410   6.838   0.689   1.282  0.0924 -0.0777 -0.1944
 9149TIP3    H127411   6.805   0.778   1.269 -1.2757 -0.3050  1.3727
 9149TIP3    H227412   6.855   0.656   1.193 -1.8736  0.8481 -0.9718
 9150TIP3   OH227413   0.930   5.065   0.683  0.4071 -0.0078 -0.8388
 9150TIP3    H127414   0.901   4.989   0.632  0.6900 -0.4518 -0.3544
 9150TIP3    H227415   0.853   5.091   0.734  0.4525 -0.2904 -0.6235
 9151TIP3   OH227416   6.751   5.131   4.417 -0.1545  0.0469 -0.5201
 9151TIP3    H127417   6.768   5.059   4.356 -0.0877 -0.3576 -0.0361
 9151TIP3    H227418   6.724   5.204   4.361 -1.0291 -0.5959 -0.9706
 9152TIP3   OH227419   5.824   4.999   3.311  0.3697  0.3832 -0.8086
 9152TIP3    H127420   5.893   4.935   3.328  1.0194  0.9070 -1.4083
 9152TIP3    H227421   5.869   5.083   3.311 -0.7117  1.0485  1.5483
 9153TIP3   OH227422   5.633   4.687   0.178  0.1159 -0.2940  0.2257
 9153TIP3    H127423   5.540   4.665   0.170  0.0422  0.1231 -0.1294
 9153TIP3    H227424   5.635   4.764   0.234  0.2634 -0.4045  0.3731
 9154TIP3   OH227425   6.819   5.270   5.842 -0.3981 -0.3081 -0.0650
 9154TIP3    H127426   6.797   5.263   5.749 -3.0275  0.3066  0.4297
 9154TIP3    H227427   6.762   5.340   5.874  0.6783 -0.3015  1.9638
 9155TIP3   OH227428   6.768   2.710   2.001  0.0202 -0.0708 -0.1036
 9155TIP3    H127429   6.793   2.620   1.979 -1.8488 -0.1082 -2.4443
 9155TIP3    H227430   6.791   2.719   2.093  1.0665 -2.6606 -0.0274
 9156TIP3   OH227431   3.343   6.739   2.604 -0.3921 -0.0089 -0.0734
 9156TIP3    H127432   3.414   6.801   2.619 -0.8483  0.8012 -1.1308
 9156TIP3    H227433   3.346   6.680   2.680  1.3260  0.0702 -0.0366
 9157TIP3   OH227434   5.365   3.449   1.736 -0.0617  0.7828  0.1654
 9157TIP3    H127435   5.341   3.360   1.709  0.2219 -0.2813  3.0430
 9157TIP3    H227436   5.282   3.489   1.762  0.0001  0.7787  0.3717
 9158TIP3   OH227437   6.313   5.801   2.995 -0.3014 -0.0319  0.1245
 9158TIP3    H127438   6.336   5.709   2.996  0.4659  0.0603 -2.5280
 9158TIP3    H227439   6.225   5.804   3.033 -0.9253 -2.0719 -1.0064
 9159TIP3   OH227440   4.295   5.351   5.090 -0.0148  0.1693  0.0754
 9159TIP3    H127441   4.271   5.271   5.138  1.5183  0.7265  1.8906
 9159TIP3    H227442   4.217   5.372   5.039 -1.0649 -1.5340  0.8622
 9160TIP3   OH227443   6.527   1.610   3.141 -0.6763  0.1831 -0.4412
 9160TIP3    H127444   6.537   1.696   3.101 -1.9735  0.1397 -0.8845
 9160TIP3    H227445   6.617   1.580   3.155 -0.1880  2.1181  0.8948
 9161TIP3   OH227446   6.918   4.979   3.325  0.2017 -0.1036 -0.8452
 9161TIP3    H127447   6.882   4.920   3.259 -1.3332  1.8696 -1.8549
 9161TIP3    H227448   6.897   5.066   3.293  0.0493  0.9478  1.9055
 9162TIP3   OH227449   1.854   0.078   2.938 -0.0475  0.4111 -0.2816
 9162TIP3    H127450   1.814   0.128   3.009  0.8970  0.8802 -0.0678
 9162TIP3    H227451   1.947   0.075   2.960  0.2763  0.6378 -1.5342
 9163TIP3   OH227452   6.065   6.646   4.271 -0.2914 -0.2988 -0.1789
 9163TIP3    H127453   6.103   6.606   4.193  0.0002  0.5972 -0.5044
 9163TIP3    H227454   6.111   6.603   4.344 -1.1384 -1.7268 -0.4452
 9164TIP3   OH227455   6.461   6.423   2.840  0.3744 -0.2220  0.1845
 9164TIP3    H127456   6.439   6.366   2.914  0.1568 -0.2975  0.0619
 9164TIP3    H227457   6.523   6.486   2.877 -0.6934  0.5205  0.7672
 9165TIP3   OH227458   6.237   5.763   2.160  0.1936  0.3748  0.2926
 9165TIP3    H127459   6.286   5.843   2.177  0.1379  0.7782 -1.3257
 9165TIP3    H227460   6.303   5.693   2.166  0.3605  0.5939  1.0917
 9166TIP3   OH227461   2.952  -0.023   5.745  0.2611 -0.5627 -0.2005
 9166TIP3    H127462   2.981  -0.016   5.654 -0.0536  0.2667 -0.2433
 9166TIP3    H227463   2.974   0.062   5.784  1.4515 -1.2898  0.8153
 9167TIP3   OH227464   6.069   5.811   3.202 -0.0351 -0.3082 -0.7205
 9167TIP3    H127465   6.135   5.841   3.264 -0.4403 -0.1919 -0.3389
 9167TIP3    H227466   6.061   5.882   3.139  2.1973 -1.4289 -2.4148
 9168TIP3   OH227467   4.444   4.893   5.218 -0.1430  0.1634 -0.1928
 9168TIP3    H127468   4.440   4.800   5.241 -2.7847  0.0916 -0.6146
 9168TIP3    H227469   4.478   4.936   5.296 -2.1030 -0.8355  1.2912
 9169TIP3   OH227470   1.902   4.435   2.192  0.6068 -0.7398  0.4653
 9169TIP3    H127471   1.885   4.441   2.098  1.7532  0.0654  0.2899
 9169TIP3    H227472   1.859   4.353   2.219 -1.7941  0.1940 -0.2762
 9170TIP3   OH227473   2.889   1.629   0.664 -0.1792  0.1887  0.8100
 9170TIP3    H127474   2.914   1.538   0.647  2.3136  1.1800 -1.7651
 9170TIP3    H227475   2.829   1.651   0.593  0.7456  1.0523  0.2709
 9171TIP3   OH227476   5.960   5.089   2.288  0.3514  0.2575 -0.5802
 9171TIP3    H127477   5.980   5.168   2.238  2.8595  0.1755  0.1657
 9171TIP3    H227478   5.932   5.025   2.222 -0.0769  1.2585 -1.3902
 9172TIP3   OH227479   2.156   1.784   5.761  0.4611  0.2589  0.3642
 9172TIP3    H127480   2.091   1.827   5.705  0.2207 -0.7571 -0.1665
 9172TIP3    H227481   2.222   1.751   5.699  0.4730 -0.4123  0.7313
 9173TIP3   OH227482   0.003   1.903   2.559 -0.2868  0.5206  0.1653
 9173TIP3    H127483  -0.062   1.873   2.623 -0.2472 -0.9450 -0.4442
 9173TIP3    H227484   0.060   1.827   2.545 -0.7933  0.5223 -2.2269
 9174TIP3   OH227485   0.526   6.481   3.438 -0.0487  0.2162  0.3955
 9174TIP3    H127486   0.543   6.389   3.458  0.4551  0.3653  0.6663
 9174TIP3    H227487   0.598   6.506   3.380 -1.1582 -0.0447 -1.1754
 9175TIP3   OH227488   1.268   4.093   2.482  0.2366  0.4586  0.2451
 9175TIP3    H127489   1.255   4.065   2.572  0.1016 -1.4492 -0.3166
 9175TIP3    H227490   1.321   4.024   2.442 -2.0171 -0.2182 -1.8331
 9176TIP3   OH227491   1.729   1.573   0.929  0.0416 -0.2457  0.4655
 9176TIP3    H127492   1.781   1.504   0.887  0.7507  0.1703  0.6392
 9176TIP3    H227493   1.794   1.634   0.963 -0.5780  0.5477  0.2486
 9177TIP3   OH227494   5.131   0.314   2.614 -0.1511 -0.9207 -0.0924
 9177TIP3    H127495   5.163   0.399   2.646 -0.1260 -1.1944  0.6177
 9177TIP3    H227496   5.103   0.332   2.524  0.8155 -0.3952 -0.3031
 9178TIP3   OH227497   4.390   1.131   5.267 -0.2654 -0.1789 -0.1168
 9178TIP3    H127498   4.379   1.138   5.172  0.0378 -1.1378 -0.2385
 9178TIP3    H227499   4.450   1.056   5.279 -0.2756 -0.0523  0.8239
 9179TIP3   OH227500   1.774   2.041   1.466 -0.4954 -0.6118 -0.2347
 9179TIP3    H127501   1.718   2.094   1.523 -0.5046  0.5168 -1.2611
 9179TIP3    H227502   1.855   2.090   1.459 -0.7111 -0.4246 -1.6660
 9180TIP3   OH227503   2.955   5.154   5.557  0.4142 -0.6107  0.1344
 9180TIP3    H127504   2.889   5.154   5.626  1.5198 -0.3712  1.2303
 9180TIP3    H227505   2.919   5.096   5.490 -1.2205  0.0805  0.3642
 9181TIP3   OH227506   6.605   0.039   2.440  0.0585 -0.7991 -0.1043
 9181TIP3    H127507   6.551   0.070   2.367 -0.4507 -1.1507  0.1141
 9181TIP3    H227508   6.695   0.044   2.408  0.0455  1.3250  0.0786
 9182TIP3   OH227509   5.567   3.879   0.750  0.3999 -0.4431 -0.6200
 9182TIP3    H127510   5.623   3.829   0.692 -0.3643 -1.4904 -0.4967
 9182TIP3    H227511   5.620   3.895   0.828  0.5857 -1.3124 -0.5543
 9183TIP3   OH227512   3.306   4.390   3.118  0.2369  0.2841 -0.3499
 9183TIP3    H127513   3.272   4.352   3.199 -3.1907 -2.6471 -2.8756
 9183TIP3    H227514   3.369   4.325   3.086 -0.5226  0.0096 -1.3369
 9184TIP3   OH227515   6.632   0.658   3.477 -0.0689 -0.1670  0.4026
 9184TIP3    H127516   6.596   0.588   3.422  0.3198  0.4327 -0.6612
 9184TIP3    H227517   6.569   0.729   3.469  0.4727  0.2764 -0.0921
 9185TIP3   OH227518   6.931   4.076   4.684 -0.3539 -0.3856 -0.3302
 9185TIP3    H127519   7.012   4.123   4.668  0.7084 -2.0053 -0.0162
 9185TIP3    H227520   6.886   4.127   4.751  1.0174 -0.1025  0.4046
 9186TIP3   OH227521   4.667   2.640   3.804 -0.0392 -0.5313  0.2318
 9186TIP3    H127522   4.718   2.582   3.860  0.5780  1.7269  2.1787
 9186TIP3    H227523   4.641   2.585   3.729  1.3055 -2.9753  1.4429
 9187TIP3   OH227524   4.084   0.517   3.260  0.5813 -0.2195  0.3830
 9187TIP3    H127525   4.050   0.594   3.215  0.2791 -0.5440  0.0394
 9187TIP3    H227526   4.090   0.542   3.352  1.3219  0.4978  0.1504
 9188TIP3   OH227527   3.713   3.690   3.231 -0.1927 -0.0122  0.0309
 9188TIP3    H127528   3.643   3.694   3.295  0.3215 -1.2024  0.6983
 9188TIP3    H227529   3.714   3.777   3.191  0.1889  1.1421  2.3880
 9189TIP3   OH227530   0.407   4.003   0.115  0.3154  0.0585  0.1829
 9189TIP3    H127531   0.420   4.057   0.194 -0.5492  0.4762  0.0513
 9189TIP3    H227532   0.375   4.064   0.049 -0.0314 -0.4991 -0.1716
 9190TIP3   OH227533   6.621   6.264   4.240  0.1099 -0.1775  0.0144
 9190TIP3    H127534   6.542   6.317   4.231 -0.3255 -0.7700  0.2918
 9190TIP3    H227535   6.693   6.327   4.230 -0.3891  0.3643 -0.2506
 9191TIP3   OH227536   3.850   5.502   2.469  0.4294  0.0644 -0.2726
 9191TIP3    H127537   3.852   5.562   2.544  1.4399 -1.8482  1.3160
 9191TIP3    H227538   3.938   5.506   2.433  0.1696  0.3769 -0.8859
 9192TIP3   OH227539   0.486   2.897   5.857  0.1819 -0.1662 -0.1080
 9192TIP3    H127540   0.493   2.978   5.907  1.1583 -0.6488  0.5522
 9192TIP3    H227541   0.559   2.901   5.795  0.9800 -1.0750  0.7359
 9193TIP3   OH227542   0.881   0.719   5.531 -0.0870  0.3204 -0.6715
 9193TIP3    H127543   0.961   0.684   5.569 -0.1725  2.3887  1.6477
 9193TIP3    H227544   0.849   0.649   5.474  4.2356  0.0406 -3.2026
 9194TIP3   OH227545   1.212   5.626   5.224  0.4416  0.4254  0.8656
 9194TIP3    H127546   1.265   5.605   5.147  0.4645 -0.3795  1.0899
 9194TIP3    H227547   1.162   5.704   5.199 -0.6677 -0.6773 -0.4991
 9195TIP3   OH227548   3.415   4.612   0.244  0.1392 -0.4995  0.2652
 9195TIP3    H127549   3.341   4.660   0.280 -0.7029 -0.8848 -0.9046
 9195TIP3    H227550   3.445   4.666   0.171  2.2316  0.5966  1.8268
 9196TIP3   OH227551   2.772   0.295   3.826  0.1040 -0.4053  0.2840
 9196TIP3    H127552   2.705   0.305   3.758  0.5197 -0.8994 -0.2104
 9196TIP3    H227553   2.751   0.363   3.890  0.0169  0.4330 -0.5968
 9197TIP3   OH227554   5.711   6.494   2.995  0.0784  0.0569  0.5462
 9197TIP3    H127555   5.777   6.431   2.966  0.6760  0.5454  0.8283
 9197TIP3    H227556   5.660   6.514   2.915  0.7997  0.3070  0.1433
 9198TIP3   OH227557   6.210   3.095   5.512  0.5901  0.4153  0.3753
 9198TIP3    H127558   6.139   3.127   5.457  0.3212  0.1363  0.5614
 9198TIP3    H227559   6.208   3.151   5.590  0.7570  0.5905  0.2559
 9199TIP3   OH227560   0.415   0.735   3.875 -0.3498  0.0073  0.3460
 9199TIP3    H127561   0.321   0.752   3.872 -0.3674  0.0776  1.1903
 9199TIP3    H227562   0.441   0.758   3.964  0.1224 -1.8697  0.7348
 9200TIP3   OH227563   6.369   3.568   0.124 -0.2963  0.2598 -0.3229
 9200TIP3    H127564   6.359   3.514   0.046  1.8326 -1.3091  0.3928
 9200TIP3    H227565   6.436   3.632   0.101  0.1411 -0.0309  0.1272
 9201TIP3   OH227566   4.896   4.339   2.487  0.0167 -0.0126 -0.3355
 9201TIP3    H127567   4.844   4.333   2.407  1.0576 -2.7960 -0.9072
 9201TIP3    H227568   4.851   4.280   2.548  1.0167 -0.3764  0.0578
 9202TIP3   OH227569   0.677   5.303   5.254  0.1479  0.0377  0.1999
 9202TIP3    H127570   0.657   5.307   5.348  0.0789  1.0043  0.1489
 9202TIP3    H227571   0.596   5.270   5.215  0.0630 -0.0458  0.4389
 9203TIP3   OH227572   7.012   4.533   0.087  0.5281 -0.3086  0.0290
 9203TIP3    H127573   7.094   4.545   0.039  0.8891 -0.7056  0.5283
 9203TIP3    H227574   6.955   4.486   0.026  0.0639  1.4128 -0.9342
 9204TIP3   OH227575   7.023   5.720   0.750 -0.4644  0.2452  0.2648
 9204TIP3    H127576   7.083   5.782   0.791  0.0626 -0.4322  0.5332
 9204TIP3    H227577   6.936   5.753   0.771 -0.1974  0.3432  1.2566
 9205TIP3   OH227578   2.787   0.009   3.830 -0.1960  0.1024 -0.0157
 9205TIP3    H127579   2.801   0.083   3.771 -1.8372  0.8765  0.4917
 9205TIP3    H227580   2.761   0.049   3.913  0.8031 -1.0051  0.8577
 9206TIP3   OH227581   1.862   3.139   0.860  0.2114 -0.5189 -0.3828
 9206TIP3    H127582   1.810   3.176   0.931  2.1938  0.9126  0.3990
 9206TIP3    H227583   1.928   3.084   0.904 -0.0835 -1.6562 -1.2945
 9207TIP3   OH227584   5.847   3.310   5.870  0.1359 -0.0587  0.1003
 9207TIP3    H127585   5.877   3.220   5.884 -0.6347 -0.4509 -0.6540
 9207TIP3    H227586   5.774   3.302   5.809  0.6592  1.1817 -0.7315
 9208TIP3   OH227587   2.232   3.092   2.931  0.5374 -0.2137  0.0424
 9208TIP3    H127588   2.296   3.023   2.915  0.1607 -0.5081 -0.2191
 9208TIP3    H227589   2.261   3.133   3.012  0.0598 -1.5166  0.9149
 9209TIP3   OH227590   0.664   3.520   5.018 -0.2193  0.2294  0.2475
 9209TIP3    H127591   0.608   3.514   5.095 -0.0233  2.8049  0.6729
 9209TIP3    H227592   0.749   3.547   5.052 -0.0770  1.2215 -0.8388
 9210TIP3   OH227593   7.011   4.585   3.349 -0.1642  0.0981  0.3623
 9210TIP3    H127594   7.017   4.661   3.406  3.8782 -0.5420  1.0883
 9210TIP3    H227595   7.071   4.604   3.277 -0.0498 -1.8450 -0.1149
 9211TIP3   OH227596   2.759   2.812   1.314 -0.5520 -0.2225  0.0039
 9211TIP3    H127597   2.761   2.781   1.405  0.4451  0.1057  0.1083
 9211TIP3    H227598   2.850   2.833   1.294 -0.9141  0.7785 -0.7049
 9212TIP3   OH227599   4.395   1.370   1.325  0.0999 -0.4239 -0.2080
 9212TIP3    H127600   4.490   1.370   1.338  0.2047  0.7975 -0.7803
 9212TIP3    H227601   4.376   1.286   1.284  1.3840  0.4662 -2.8780
 9213TIP3   OH227602   4.244   0.685   3.700 -0.2702 -0.3882  0.4500
 9213TIP3    H127603   4.255   0.776   3.672 -0.0932 -0.3730  0.5618
 9213TIP3    H227604   4.320   0.639   3.663 -1.0592 -0.7668 -0.7287
 9214TIP3   OH227605   6.010   6.516   3.272 -0.0105  0.7526  0.6215
 9214TIP3    H127606   5.942   6.482   3.330  1.1077  0.8315  2.0556
 9214TIP3    H227607   6.017   6.609   3.295  0.0215  0.9300 -0.0924
 9215TIP3   OH227608   6.668   0.584   1.881 -0.2703  0.0713 -0.1906
 9215TIP3    H127609   6.687   0.601   1.788  4.0082  0.6476  0.6080
 9215TIP3    H227610   6.638   0.669   1.914  0.7047  0.5876 -0.5661
 9216TIP3   OH227611   0.149   6.063   3.914  0.0140  0.7742  0.1712
 9216TIP3    H127612   0.204   6.003   3.964 -1.3504  0.9670  2.0093
 9216TIP3    H227613   0.163   6.148   3.956 -0.4609  1.1285 -0.3793
 9217TIP3   OH227614   5.079   6.544   5.659  0.0450  0.5152 -0.1815
 9217TIP3    H127615   5.131   6.463   5.664  0.0836  0.5862  0.7595
 9217TIP3    H227616   5.133   6.610   5.702  0.0786  1.0931 -1.0796
 9218TIP3   OH227617   3.289   5.528   4.137 -0.1260 -0.0409 -0.0205
 9218TIP3    H127618   3.250   5.475   4.068  1.6666  0.3384 -1.4013
 9218TIP3    H227619   3.273   5.619   4.111  1.4055  0.1165 -0.5007
 9219TIP3   OH227620   1.809   1.033   0.984 -0.0295 -0.1570  0.1991
 9219TIP3    H127621   1.815   0.947   1.025  1.0239 -0.2347 -0.0880
 9219TIP3    H227622   1.852   1.092   1.047  2.7644 -0.4688 -1.2484
 9220TIP3   OH227623   7.168   2.115   2.736  0.2341  1.1624 -0.1147
 9220TIP3    H127624   7.198   2.046   2.677  0.1690  2.1060 -1.2722
 9220TIP3    H227625   7.248   2.163   2.760  0.2723  0.7404  0.6441
 9221TIP3   OH227626   3.173   3.988   3.524  0.6438 -0.2039 -0.2028
 9221TIP3    H127627   3.079   4.004   3.516  0.1722 -1.4671  1.8933
 9221TIP3    H227628   3.179   3.910   3.579  2.9329 -0.0058 -0.0874
 9222TIP3   OH227629   5.352   2.697   3.776  0.0112  0.7756 -0.1533
 9222TIP3    H127630   5.395   2.771   3.819 -1.7436  0.9062  1.5437
 9222TIP3    H227631   5.398   2.620   3.808 -0.0546  0.9820  0.4464
 9223TIP3   OH227632   2.771   1.006   3.932 -0.4327  0.1610  0.0757
 9223TIP3    H127633   2.812   0.935   3.883 -1.5504 -1.9745  2.0447
 9223TIP3    H227634   2.678   0.985   3.933 -0.5569  0.5179  2.3531
 9224TIP3   OH227635   7.040   0.017   3.722  0.6364  0.4606 -0.1100
 9224TIP3    H127636   7.133   0.040   3.721  1.2966 -1.8832  0.2600
 9224TIP3    H227637   7.002   0.066   3.649  2.8252 -0.8668 -2.2983
 9225TIP3   OH227638   1.467   0.780   1.078 -0.5938  0.3581  0.4362
 9225TIP3    H127639   1.391   0.739   1.037 -1.0199  0.3287  1.2286
 9225TIP3    H227640   1.533   0.783   1.009 -0.5629 -1.6476  0.3265
 9226TIP3   OH227641   4.962   4.093   1.401 -0.1196 -0.5490  0.6914
 9226TIP3    H127642   4.939   4.157   1.468 -0.5783 -2.1211  2.0813
 9226TIP3    H227643   4.889   4.095   1.339  0.8576  1.7757 -0.4934
 9227TIP3   OH227644   3.720   1.937   2.204 -0.7240 -0.5908  0.3274
 9227TIP3    H127645   3.751   1.973   2.286 -1.1676 -0.5890  0.4977
 9227TIP3    H227646   3.683   2.012   2.157 -0.2245 -0.5414  0.0075
 9228TIP3   OH227647   6.108   1.438   5.838 -0.7324 -0.0485 -0.5499
 9228TIP3    H127648   6.202   1.422   5.830 -0.8185 -1.3287  0.6515
 9228TIP3    H227649   6.102   1.523   5.881 -0.0883 -0.5108  0.4832
 9229TIP3   OH227650   0.374   1.184   4.670 -0.3961  0.1015 -0.4782
 9229TIP3    H127651   0.300   1.224   4.715 -0.7273 -0.9587 -0.0469
 9229TIP3    H227652   0.365   1.211   4.579 -1.8485 -0.7671 -0.6068
 9230TIP3   OH227653   1.620   0.790   3.816  0.7447  0.2765 -0.0862
 9230TIP3    H127654   1.634   0.805   3.722  1.2754 -0.2977 -0.1069
 9230TIP3    H227655   1.682   0.720   3.838  0.5262  0.3165  0.6642
 9231TIP3   OH227656   5.044   4.377   1.061  0.0724  0.5389 -0.1377
 9231TIP3    H127657   4.962   4.336   1.090 -0.1164  1.9085  1.3691
 9231TIP3    H227658   5.104   4.365   1.134  0.6156  1.2691 -0.4541
 9232TIP3   OH227659   3.781   6.425   4.959 -0.2561 -0.5319  0.0212
 9232TIP3    H127660   3.761   6.486   4.888 -1.9046 -1.6016 -0.4958
 9232TIP3    H227661   3.708   6.436   5.020  0.0119 -1.1774  0.4636
 9233TIP3   OH227662   3.412   4.629   3.045  0.2844 -0.6951 -0.6961
 9233TIP3    H127663   3.373   4.558   3.094 -1.2747  0.8977  0.5112
 9233TIP3    H227664   3.338   4.681   3.014  1.3483  0.4690 -1.4410
 9234TIP3   OH227665   0.608   6.814   1.157 -0.0616 -0.4017 -0.1989
 9234TIP3    H127666   0.536   6.754   1.172  1.8438 -2.7123  0.2866
 9234TIP3    H227667   0.616   6.819   1.061 -1.4952  0.7545 -0.2859
 9235TIP3   OH227668   5.211   3.962   1.418  0.1485  0.3344  0.2993
 9235TIP3    H127669   5.132   4.017   1.419  0.6003  1.0166  1.5046
 9235TIP3    H227670   5.281   4.022   1.392  0.6282  0.3356  1.5208
 9236TIP3   OH227671   6.010   2.218   0.168  0.1194 -0.5147  0.3779
 9236TIP3    H127672   5.915   2.222   0.179  0.1290  3.1146  0.3052
 9236TIP3    H227673   6.039   2.160   0.238 -2.0288 -0.7474  1.1726
 9237TIP3   OH227674   2.132   1.427   5.427  0.3494  0.1075 -0.3174
 9237TIP3    H127675   2.212   1.459   5.384 -0.4503  2.8635  0.0562
 9237TIP3    H227676   2.068   1.497   5.415 -2.0946 -2.0299 -0.6452
 9238TIP3   OH227677   2.690   4.895   5.127  0.9476 -0.3985  0.0708
 9238TIP3    H127678   2.654   4.808   5.144 -2.4569  0.8330 -0.2362
 9238TIP3    H227679   2.669   4.913   5.036  0.3709  1.2651  0.4986
 9239TIP3   OH227680   3.574   3.010   2.492  0.2392 -0.7077  0.2235
 9239TIP3    H127681   3.501   3.063   2.523  0.4180 -1.3570  1.8594
 9239TIP3    H227682   3.544   2.920   2.502  0.8634 -0.9579 -0.1218
 9240TIP3   OH227683   7.103   5.529   2.504  0.0692 -0.3454  0.1298
 9240TIP3    H127684   7.127   5.550   2.413  1.7274  1.4709  0.9082
 9240TIP3    H227685   7.174   5.473   2.534  1.5491  1.9683  1.3020
 9241TIP3   OH227686   0.814   0.763   3.651  0.0554 -0.6947  0.1713
 9241TIP3    H127687   0.815   0.667   3.657 -0.9533 -0.9004 -1.8582
 9241TIP3    H227688   0.847   0.781   3.563  0.2907  0.8313  0.5528
 9242TIP3   OH227689   4.443   5.060   3.698  0.2085 -0.2873  0.8718
 9242TIP3    H127690   4.349   5.052   3.712 -0.1149  0.8983 -0.3923
 9242TIP3    H227691   4.482   4.999   3.761 -1.4048 -1.0942  1.1410
 9243TIP3   OH227692   5.167   4.821   3.295 -0.2313  0.1009  0.5094
 9243TIP3    H127693   5.119   4.738   3.295 -1.2003  0.6448  0.0677
 9243TIP3    H227694   5.127   4.872   3.365 -2.1381  1.5390 -1.4835
 9244TIP3   OH227695   1.692   3.218   5.340 -0.5645 -0.1971 -0.3840
 9244TIP3    H127696   1.660   3.276   5.409  0.5385 -1.3610  1.1884
 9244TIP3    H227697   1.633   3.143   5.342 -0.3487 -0.3729 -0.4972
 9245TIP3   OH227698   4.483   2.537   2.819  0.2799  0.2612  0.2568
 9245TIP3    H127699   4.401   2.534   2.868  0.1263  1.3065  0.1013
 9245TIP3    H227700   4.479   2.620   2.772  0.9750 -0.1484 -0.5572
 9246TIP3   OH227701   3.870   1.233   5.481  0.1488 -0.0482  0.2535
 9246TIP3    H127702   3.779   1.254   5.458 -0.3123 -0.7970  1.3528
 9246TIP3    H227703   3.867   1.210   5.574  1.6472  0.9528  0.5827
 9247TIP3   OH227704   5.365   2.927   1.542  0.3838 -0.2922  0.3270
 9247TIP3    H127705   5.388   2.895   1.455 -0.5472  0.9247 -0.4017
 9247TIP3    H227706   5.318   2.854   1.582  1.1416 -0.9979 -0.0411
 9248TIP3   OH227707   5.539   3.028   5.592  0.5769  0.2733  0.4681
 9248TIP3    H127708   5.597   2.999   5.662  0.8665 -0.5987 -0.1119
 9248TIP3    H227709   5.451   3.007   5.624  0.6345  0.8025  0.9840
 9249TIP3   OH227710   2.663   1.893   4.885 -0.4721 -0.1475 -0.2523
 9249TIP3    H127711   2.720   1.876   4.960  1.7024 -2.1427 -2.2136
 9249TIP3    H227712   2.604   1.963   4.915 -0.1176 -1.2423  3.4566
 9250TIP3   OH227713   5.341   4.927   4.175  0.1484  0.3402  0.1399
 9250TIP3    H127714   5.324   4.834   4.161  0.2138  0.2811  0.4302
 9250TIP3    H227715   5.337   4.938   4.270 -1.7444  0.9936  0.0275
 9251TIP3   OH227716   1.353   0.763   2.292 -0.2309 -0.1545  0.1939
 9251TIP3    H127717   1.370   0.716   2.374  2.1540 -1.5676 -0.9984
 9251TIP3    H227718   1.287   0.710   2.248 -0.9257  0.1728  0.8056
 9252TIP3   OH227719   2.906   3.674   3.837  0.0747  0.0078 -0.1156
 9252TIP3    H127720   2.897   3.718   3.922 -3.5080 -0.4997 -0.0768
 9252TIP3    H227721   2.851   3.725   3.777 -0.5993 -1.8310 -1.1394
 9253TIP3   OH227722   1.403   2.006   3.547  0.4403 -0.3849 -0.6370
 9253TIP3    H127723   1.308   2.017   3.544  0.1174 -0.5111  3.4151
 9253TIP3    H227724   1.416   1.912   3.541  0.2597 -0.3897 -0.9464
 9254TIP3   OH227725   6.502   3.813   0.088  0.2208 -0.9900  0.2544
 9254TIP3    H127726   6.503   3.861   0.005 -0.2545 -1.4810 -0.0417
 9254TIP3    H227727   6.412   3.821   0.119  0.1922 -1.5150  0.3063
 9255TIP3   OH227728   6.473   1.049   4.803  0.2618 -0.0412  0.3390
 9255TIP3    H127729   6.422   1.126   4.779  1.0043 -0.0016 -1.2387
 9255TIP3    H227730   6.408   0.982   4.823 -0.3908  0.6643  0.6509
 9256TIP3   OH227731   4.054   0.915   2.759 -0.3200  0.4025  0.9114
 9256TIP3    H127732   4.131   0.857   2.754  0.4535  1.4682 -0.5218
 9256TIP3    H227733   4.066   0.965   2.839 -0.3423 -0.5390  1.5074
 9257TIP3   OH227734   4.573   4.951   4.447  0.0474  0.4980 -0.2722
 9257TIP3    H127735   4.569   5.020   4.380 -0.3876  0.9841  0.2396
 9257TIP3    H227736   4.502   4.973   4.507 -0.5841 -0.8343 -0.5038
 9258TIP3   OH227737   4.621   3.570   1.398  0.1478  0.4324  0.7263
 9258TIP3    H127738   4.579   3.522   1.327 -1.0859 -0.6126  2.0848
 9258TIP3    H227739   4.705   3.527   1.410 -0.6202 -0.9464  1.4112
 9259TIP3   OH227740   3.722   0.533   2.344  0.4313 -0.3311  0.1530
 9259TIP3    H127741   3.735   0.439   2.328 -0.7657 -0.2654 -1.5406
 9259TIP3    H227742   3.789   0.575   2.289  0.1384 -0.1824 -0.0902
 9260TIP3   OH227743   5.002   2.122   2.398 -0.2872 -0.2682  0.3501
 9260TIP3    H127744   5.059   2.107   2.473 -0.9322 -0.2107  0.8645
 9260TIP3    H227745   5.039   2.199   2.354 -0.0745 -0.1282  0.7741
 9261TIP3   OH227746   5.596   5.353   4.538 -0.2313  0.0192 -0.0988
 9261TIP3    H127747   5.593   5.449   4.533 -3.3770  0.0198 -0.1287
 9261TIP3    H227748   5.605   5.335   4.632  0.9082  0.3329 -0.1408
 9262TIP3   OH227749   2.665   5.303   5.369  0.3337  0.9635 -0.0056
 9262TIP3    H127750   2.570   5.289   5.362  0.3011  0.4489  1.2697
 9262TIP3    H227751   2.674   5.379   5.426  0.6998 -0.1511  1.4777
 9263TIP3   OH227752   3.999   2.584   1.446  0.2338 -0.6889 -0.5064
 9263TIP3    H127753   4.004   2.493   1.476 -0.3679 -0.3169  0.8054
 9263TIP3    H227754   4.079   2.624   1.481  0.1987 -0.5738 -0.5615
 9264TIP3   OH227755   4.485   3.423   2.788  0.5128  0.1616  0.4612
 9264TIP3    H127756   4.400   3.380   2.787  0.3127  0.5285  1.3254
 9264TIP3    H227757   4.527   3.393   2.869  1.6707 -0.8968 -0.4848
 9265TIP3   OH227758   2.923   1.254   1.521  0.1019  0.0620  0.9872
 9265TIP3    H127759   2.927   1.204   1.603 -0.1385 -1.6812 -0.0047
 9265TIP3    H227760   2.895   1.190   1.456 -0.2607  1.5376 -0.3669
 9266TIP3   OH227761   1.829   6.322   5.246 -0.3640  0.0013  0.2653
 9266TIP3    H127762   1.783   6.288   5.170 -1.1744 -0.1428  0.8096
 9266TIP3    H227763   1.799   6.412   5.254 -0.7443 -0.1615  0.7546
 9267TIP3   OH227764   6.312   6.111   0.384 -0.4102 -0.0004  0.3308
 9267TIP3    H127765   6.260   6.034   0.360 -0.9919  0.7724 -1.0095
 9267TIP3    H227766   6.357   6.136   0.303  2.0085 -0.5609  1.4170
 9268TIP3   OH227767   7.124   3.081   3.562  0.2667 -0.1188 -0.2118
 9268TIP3    H127768   7.186   3.153   3.570  0.7648 -0.6069  0.4774
 9268TIP3    H227769   7.109   3.052   3.652 -1.6221  0.5174 -0.2794
 9269TIP3   OH227770   3.466   6.165   2.007 -0.9151 -0.3282  0.0814
 9269TIP3    H127771   3.504   6.250   1.984 -0.0897 -0.4248  1.0602
 9269TIP3    H227772   3.530   6.125   2.066 -2.0330 -0.9626  0.8905
 9270TIP3   OH227773   0.053   2.694   0.654 -0.1734 -0.0781 -0.1358
 9270TIP3    H127774   0.142   2.719   0.629 -0.1739 -0.3617 -0.4305
 9270TIP3    H227775   0.039   2.736   0.739  0.5445 -0.7019  0.3079
 9271TIP3   OH227776   5.159   1.757   2.751 -0.4044 -0.0147 -0.3994
 9271TIP3    H127777   5.255   1.750   2.757  0.0805  2.7314 -2.4412
 9271TIP3    H227778   5.140   1.739   2.659 -1.2909  3.0391 -0.9222
 9272TIP3   OH227779   3.902   0.376   1.990 -0.0950 -0.1661  0.1404
 9272TIP3    H127780   3.882   0.460   1.948  0.8393  0.3522  0.6941
 9272TIP3    H227781   3.861   0.311   1.934 -0.1034  0.6091 -0.7782
 9273TIP3   OH227782   1.795   2.532   2.215 -0.2743  0.6930  0.3939
 9273TIP3    H127783   1.737   2.528   2.291  1.9893 -0.9858  2.1555
 9273TIP3    H227784   1.820   2.624   2.208  0.2665  0.7259  2.3326
 9274TIP3   OH227785   3.559   2.929   1.997 -0.5149 -0.2718 -0.2534
 9274TIP3    H127786   3.529   2.887   2.077 -0.3421 -2.5900 -1.3199
 9274TIP3    H227787   3.532   2.869   1.927 -0.8556  1.7571 -1.9736
 9275TIP3   OH227788   3.600   3.304   4.080  0.5005  0.4854 -0.0936
 9275TIP3    H127789   3.587   3.331   3.989  0.3039  2.9319  0.5905
 9275TIP3    H227790   3.537   3.357   4.130  1.6297  0.3100  1.5968
 9276TIP3   OH227791   1.517   3.851   5.182  0.1410  0.5888 -0.3652
 9276TIP3    H127792   1.509   3.937   5.224 -0.8817 -0.5366  1.9411
 9276TIP3    H227793   1.577   3.803   5.239 -0.3778 -0.6399 -0.8412
 9277TIP3   OH227794   1.191   0.601   1.323 -0.4828  0.2275  0.6281
 9277TIP3    H127795   1.283   0.609   1.350 -0.3966  0.0628  0.3825
 9277TIP3    H227796   1.142   0.630   1.400 -0.2467 -0.7675  1.1706
 9278TIP3   OH227797   6.950   5.939   4.131  0.3098  0.3682 -0.0010
 9278TIP3    H127798   6.999   5.993   4.193  2.3004 -1.3379  0.0173
 9278TIP3    H227799   6.890   5.888   4.186  1.7268 -0.7874  0.5292
 9279TIP3   OH227800   3.930   3.684   3.470 -0.1048 -0.1466 -0.1287
 9279TIP3    H127801   4.004   3.744   3.467 -1.2464  1.2856 -1.6475
 9279TIP3    H227802   3.929   3.643   3.383 -0.0890 -1.4619  0.4696
 9280TIP3   OH227803   4.652   0.105   0.817 -0.0599  0.2327  0.5033
 9280TIP3    H127804   4.653   0.200   0.805 -0.8973  0.3106  0.9138
 9280TIP3    H227805   4.736   0.084   0.855  0.7923  0.5857 -1.0803
 9281TIP3   OH227806   3.720   3.951   3.092  0.2997 -0.3567  0.0132
 9281TIP3    H127807   3.639   3.933   3.044 -0.3023 -1.9015  1.4859
 9281TIP3    H227808   3.696   4.017   3.156  0.6071  0.2894 -0.5297
 9282TIP3   OH227809   1.611   0.787   0.856 -0.4102 -0.0946  0.5180
 9282TIP3    H127810   1.594   0.880   0.843 -1.9361 -0.7282 -3.5707
 9282TIP3    H227811   1.702   0.775   0.829 -0.6873  0.0492 -0.5351
 9283TIP3   OH227812   0.677   0.160   0.899  0.2022 -0.4792  0.1647
 9283TIP3    H127813   0.695   0.228   0.964  0.5729 -0.2516 -0.1703
 9283TIP3    H227814   0.586   0.173   0.873 -0.0975 -0.8695  0.9843
 9284TIP3   OH227815   5.319   5.595   0.119  0.0512  0.0585 -0.2609
 9284TIP3    H127816   5.324   5.640   0.035 -1.4926 -2.4053 -1.7938
 9284TIP3    H227817   5.410   5.589   0.148  0.5633  1.3987 -1.4789
 9285TIP3   OH227818   6.791   1.738   5.402 -0.0872 -0.4214  0.1891
 9285TIP3    H127819   6.743   1.695   5.331 -1.5993  0.2893  0.7378
 9285TIP3    H227820   6.865   1.781   5.359 -0.1734 -1.1887 -0.7492
 9286TIP3   OH227821   3.644   4.317   5.643 -0.2233  0.1184  0.2017
 9286TIP3    H127822   3.562   4.326   5.692 -0.5807 -0.6501 -0.2423
 9286TIP3    H227823   3.707   4.288   5.708 -0.2110  1.0445  0.6206
 9287TIP3   OH227824   2.495   3.685   1.246  0.2997  0.5940  0.2484
 9287TIP3    H127825   2.543   3.741   1.186  1.3860 -1.4608 -0.9232
 9287TIP3    H227826   2.406   3.681   1.210  0.9052 -0.5185 -1.2241
 9288TIP3   OH227827   0.205   5.792   5.608 -0.7626  0.3817 -0.1069
 9288TIP3    H127828   0.171   5.751   5.529 -0.9221 -1.8454  1.0514
 9288TIP3    H227829   0.298   5.771   5.608 -0.6577  0.8281  0.0498
 9289TIP3   OH227830   1.052   0.659   3.810  0.4922 -0.0569  0.3128
 9289TIP3    H127831   1.099   0.684   3.890 -1.3924  0.2993  1.3797
 9289TIP3    H227832   1.052   0.738   3.756 -1.0315  0.7579  1.4338
 9290TIP3   OH227833   1.078   6.380   1.664 -0.0242 -0.0499 -0.2240
 9290TIP3    H127834   1.085   6.459   1.719 -1.3896 -0.9369  1.3227
 9290TIP3    H227835   1.164   6.339   1.672 -0.0208  0.1221  0.8542
 9291TIP3   OH227836   5.216   4.845   4.555  0.2172  0.1368 -0.1103
 9291TIP3    H127837   5.278   4.814   4.489 -0.0144 -0.8937  0.1345
 9291TIP3    H227838   5.258   4.826   4.639 -0.0802  0.1638  0.0483
 9292TIP3   OH227839   5.559   5.245   4.822  0.1515 -0.4749 -0.5118
 9292TIP3    H127840   5.510   5.272   4.899 -0.9219 -1.0302 -0.9793
 9292TIP3    H227841   5.547   5.150   4.818 -0.0264 -0.4202 -1.4953
 9293TIP3   OH227842   2.814   6.635   5.134 -0.4422  0.4132  0.0695
 9293TIP3    H127843   2.839   6.572   5.066  1.0573  0.4774  0.5099
 9293TIP3    H227844   2.784   6.581   5.207 -0.2080  0.2523  0.0489
 9294TIP3   OH227845   2.868   0.407   5.524  0.0539 -0.5244 -0.1882
 9294TIP3    H127846   2.837   0.420   5.614 -2.5131 -0.1381 -1.0411
 9294TIP3    H227847   2.953   0.451   5.522 -1.4984  2.9439  1.0923
 9295TIP3   OH227848   2.718   6.321   4.820 -0.0683 -0.0544  0.0890
 9295TIP3    H127849   2.688   6.363   4.739 -2.5935  1.1277  1.5190
 9295TIP3    H227850   2.788   6.379   4.851  0.2637  0.0131 -0.7508
 9296TIP3   OH227851   4.822   0.531   4.898  0.2858 -0.1351 -0.6022
 9296TIP3    H127852   4.909   0.570   4.908 -0.6530  1.6262  1.6339
 9296TIP3    H227853   4.769   0.599   4.857 -0.3684 -0.7166 -0.7483
 9297TIP3   OH227854   0.723   5.381   4.587  0.2311  0.0924  0.4263
 9297TIP3    H127855   0.665   5.456   4.601 -0.0775  0.1808 -1.0950
 9297TIP3    H227856   0.805   5.420   4.556  0.2341 -0.1562  0.1096
 9298TIP3   OH227857   6.340   2.382   5.324  0.0105  0.2799 -0.2830
 9298TIP3    H127858   6.328   2.300   5.373  0.8403  0.5874  0.4586
 9298TIP3    H227859   6.304   2.449   5.382 -1.9691  0.3282 -1.4758
 9299TIP3   OH227860   0.051   2.096   5.463  0.1571 -0.1122 -0.0931
 9299TIP3    H127861   0.025   2.145   5.542 -1.0250  2.0961 -1.7470
 9299TIP3    H227862   0.143   2.072   5.479  0.1053  0.7092  1.7236
 9300TIP3   OH227863   6.183   4.841   2.215 -0.1562  0.2074  0.0447
 9300TIP3    H127864   6.187   4.786   2.294  2.5535 -1.0359 -0.8509
 9300TIP3    H227865   6.259   4.898   2.222 -1.9194  2.7104  0.0352
 9301TIP3   OH227866   2.656   5.249   0.807  0.2908 -0.2921  0.1280
 9301TIP3    H127867   2.730   5.218   0.858 -0.6495 -0.8802  1.1837
 9301TIP3    H227868   2.594   5.176   0.808 -1.0158  0.7774  0.7421
 9302TIP3   OH227869   0.424   1.271   1.747  0.5826  0.2325  0.1137
 9302TIP3    H127870   0.400   1.300   1.659 -1.6524  0.1592  0.6299
 9302TIP3    H227871   0.460   1.184   1.736  1.8572  0.8593 -0.8673
 9303TIP3   OH227872   1.417   0.037   5.763  0.8088 -0.4062 -0.3833
 9303TIP3    H127873   1.436  -0.032   5.826  1.0637 -0.1785 -0.2135
 9303TIP3    H227874   1.475   0.019   5.689  2.1208  0.6254  0.3721
 9304TIP3   OH227875   5.565   5.117   2.158  0.2644 -0.0335 -0.4855
 9304TIP3    H127876   5.474   5.113   2.187  0.3226  0.2943 -0.2409
 9304TIP3    H227877   5.610   5.050   2.210  0.6476  1.4906  1.3065
 9305TIP3   OH227878   1.433   6.136   4.129  0.7137  0.6348  0.2904
 9305TIP3    H127879   1.516   6.163   4.168  0.2551  0.8884  1.1227
 9305TIP3    H227880   1.457   6.091   4.048  1.7220 -0.1054  0.9750
 9306TIP3   OH227881   5.056   6.104   5.243 -0.2649  0.4689  0.5864
 9306TIP3    H127882   4.976   6.099   5.191  0.6773  0.4515 -0.8992
 9306TIP3    H227883   5.101   6.022   5.225  1.1154  1.3957 -0.3170
 9307TIP3   OH227884   4.809   4.433   1.326  0.2151  0.0462  0.1827
 9307TIP3    H127885   4.760   4.500   1.279  0.6278  1.5518  1.7855
 9307TIP3    H227886   4.742   4.379   1.367 -0.1773  1.6208  1.7244
 9308TIP3   OH227887   4.829   3.747   1.168 -0.5545  0.1032  0.5295
 9308TIP3    H127888   4.817   3.655   1.143 -1.9383  0.9695 -2.5036
 9308TIP3    H227889   4.919   3.768   1.142 -1.4407  0.5259 -2.5725
 9309TIP3   OH227890   0.982   5.133   2.547 -0.0112 -0.0910  0.5037
 9309TIP3    H127891   0.912   5.075   2.579 -0.3145  0.2223  0.4109
 9309TIP3    H227892   0.949   5.166   2.463  0.7244 -0.8030 -0.0760
 9310TIP3   OH227893   5.307   6.552   2.968  0.0936 -0.0407  0.1684
 9310TIP3    H127894   5.264   6.636   2.951  1.4048  0.7982  0.7972
 9310TIP3    H227895   5.296   6.539   3.063 -0.6432 -0.9164 -0.0192
 9311TIP3   OH227896   1.550   3.433   3.925 -0.5699  0.2166  0.4034
 9311TIP3    H127897   1.518   3.516   3.960 -2.2364  0.5032 -1.6011
 9311TIP3    H227898   1.591   3.456   3.842  0.0555 -0.8197  0.4096
 9312TIP3   OH227899   1.998   3.813   4.986  0.0624  0.1069 -0.2100
 9312TIP3    H127900   1.960   3.875   5.048 -1.2673  0.5016 -1.3652
 9312TIP3    H227901   1.984   3.727   5.026 -0.4684  0.3717  0.1942
 9313TIP3   OH227902   4.475   5.828   1.798 -0.3370 -0.0266 -0.2657
 9313TIP3    H127903   4.526   5.906   1.780  0.6293 -0.4132  0.6912
 9313TIP3    H227904   4.385   5.852   1.775 -0.1234  1.4956  0.3948
 9314TIP3   OH227905   6.544   6.469   5.574 -0.1036 -0.6643 -0.1978
 9314TIP3    H127906   6.521   6.559   5.553  0.1482 -0.6774 -0.5493
 9314TIP3    H227907   6.634   6.459   5.541 -0.0450 -0.9729  0.0467
 9315TIP3   OH227908   0.920   0.422   0.803 -0.0935  0.1007  0.4564
 9315TIP3    H127909   0.828   0.435   0.782 -0.0166 -1.5519 -1.2215
 9315TIP3    H227910   0.966   0.493   0.758 -0.3774 -0.4878 -0.7990
 9316TIP3   OH227911   0.274   1.347   0.882 -0.4044  0.0174  0.1996
 9316TIP3    H127912   0.242   1.284   0.947 -1.9468 -0.4515 -0.9455
 9316TIP3    H227913   0.298   1.293   0.806 -0.6384  0.7077 -0.3732
 9317TIP3   OH227914   2.242   1.862   3.297 -0.1948  0.0824  0.5156
 9317TIP3    H127915   2.298   1.866   3.375  1.6739 -2.6320 -0.5341
 9317TIP3    H227916   2.297   1.896   3.226 -1.0860  0.4952  0.0075
 9318TIP3   OH227917   5.443   0.576   5.672 -0.1910  0.0859  0.2821
 9318TIP3    H127918   5.381   0.649   5.666 -0.1908  0.0532 -0.1327
 9318TIP3    H227919   5.516   0.603   5.617 -1.0008 -1.0258 -1.4081
 9319TIP3   OH227920   2.882   4.341   1.129  0.1722  0.5324 -0.6140
 9319TIP3    H127921   2.855   4.432   1.132  0.1946  0.5398 -0.6322
 9319TIP3    H227922   2.935   4.334   1.049  1.0662  0.7559 -0.0632
 9320TIP3   OH227923   1.957   5.122   5.897 -0.1945 -0.0634 -0.1399
 9320TIP3    H127924   1.890   5.189   5.905  0.3263  0.4154  0.3511
 9320TIP3    H227925   2.022   5.160   5.838 -0.3815 -0.5482 -0.6638
 9321TIP3   OH227926   0.696   6.530   3.201 -0.4388  0.6785 -0.2082
 9321TIP3    H127927   0.720   6.475   3.126 -0.3271 -0.9331  0.9454
 9321TIP3    H227928   0.726   6.618   3.177  0.3970  0.0361 -1.6752
 9322TIP3   OH227929   4.258   2.336   2.681 -0.4923  0.6932 -0.4692
 9322TIP3    H127930   4.261   2.429   2.658  1.4780  0.1689 -2.7964
 9322TIP3    H227931   4.348   2.305   2.668 -0.9489 -1.4215  0.8801
 9323TIP3   OH227932   0.238   3.516   3.353  0.3402  0.2671 -0.5066
 9323TIP3    H127933   0.219   3.494   3.261 -1.0370 -0.8920  0.0238
 9323TIP3    H227934   0.153   3.535   3.391  1.1417  3.6550 -0.1077
 9324TIP3   OH227935   1.246   1.622   4.159  0.7534  0.2564  0.0295
 9324TIP3    H127936   1.207   1.538   4.183 -0.8496  1.1988  0.9213
 9324TIP3    H227937   1.245   1.622   4.063 -2.2204  0.4712 -0.0485
 9325TIP3   OH227938   3.382   0.261   1.286  0.4590 -0.2654 -0.0025
 9325TIP3    H127939   3.442   0.221   1.223  0.9646  0.0022  0.2997
 9325TIP3    H227940   3.344   0.187   1.333 -0.1184 -0.4805 -0.7823
 9326TIP3   OH227941   0.952   2.120   1.413  0.2140  0.0514 -0.2379
 9326TIP3    H127942   1.010   2.189   1.381 -0.9410  0.1606 -2.3405
 9326TIP3    H227943   1.000   2.079   1.485  2.4166  0.8380 -1.1471
 9327TIP3   OH227944   6.846   5.244   3.319 -0.3847  0.2658  0.1539
 9327TIP3    H127945   6.780   5.226   3.386  0.8201 -1.1466  1.0119
 9327TIP3    H227946   6.795   5.272   3.242 -1.7937  2.1379  1.6618
 9328TIP3   OH227947   6.244   4.455   2.348 -0.3552 -0.6210  0.3046
 9328TIP3    H127948   6.173   4.391   2.350  0.0201 -1.2882 -2.7814
 9328TIP3    H227949   6.244   4.488   2.258 -0.0259  3.2147  1.5189
 9329TIP3   OH227950   2.360   1.388   5.865 -0.0338 -0.6932  0.2309
 9329TIP3    H127951   2.367   1.322   5.796 -1.4777 -0.3260 -0.2824
 9329TIP3    H227952   2.415   1.354   5.936  0.9397 -1.3939 -0.8317
 9330TIP3   OH227953   1.314   3.531   0.351 -0.3074 -0.3553 -0.5750
 9330TIP3    H127954   1.269   3.469   0.293 -0.1436 -1.8035  0.7635
 9330TIP3    H227955   1.248   3.556   0.416  0.5792 -2.0683  1.0747
 9331TIP3   OH227956   3.337   5.277   1.482 -0.1444 -0.3984  0.3423
 9331TIP3    H127957   3.369   5.333   1.553  0.5795 -0.0044 -0.2775
 9331TIP3    H227958   3.389   5.197   1.491 -0.6996 -0.7154  0.8087
 9332TIP3   OH227959   6.639   2.337   3.522 -0.0185 -0.0461  0.1654
 9332TIP3    H127960   6.623   2.408   3.585 -0.6137 -0.5418  0.5949
 9332TIP3    H227961   6.590   2.263   3.558  0.2403 -0.5490 -0.5056
 9333TIP3   OH227962   2.648   5.937   1.678 -0.2923 -0.0105  0.1465
 9333TIP3    H127963   2.610   5.986   1.751 -0.0462  0.3436  0.0397
 9333TIP3    H227964   2.665   6.004   1.611 -0.9050 -0.3912 -0.4000
 9334TIP3   OH227965   0.449   2.161   5.051  0.1341 -0.5162  0.1027
 9334TIP3    H127966   0.370   2.185   5.100  1.1550 -0.9548  2.1019
 9334TIP3    H227967   0.445   2.065   5.045  0.5417 -0.5488  0.3059
 9335TIP3   OH227968   5.650   0.603   5.495 -0.2261 -0.1913  0.5469
 9335TIP3    H127969   5.727   0.549   5.508 -0.2114 -0.4144 -0.4206
 9335TIP3    H227970   5.654   0.631   5.404 -0.1337  1.6094  1.0542
 9336TIP3   OH227971   7.125   0.504   4.887  0.0227  0.4428  0.2185
 9336TIP3    H127972   7.145   0.597   4.894  0.0782  0.6840 -2.2107
 9336TIP3    H227973   7.065   0.499   4.812  0.4869 -1.5194 -0.0651
 9337TIP3   OH227974   6.853   6.485   4.474 -0.6804 -0.1068 -0.3241
 9337TIP3    H127975   6.886   6.508   4.561  0.7577 -1.1809 -0.5459
 9337TIP3    H227976   6.781   6.546   4.459  0.1293  1.2272  0.9037
 9338TIP3   OH227977   6.257   2.416   1.926 -0.8389  0.5135 -0.0408
 9338TIP3    H127978   6.218   2.389   2.009 -1.3861 -0.2723 -0.5360
 9338TIP3    H227979   6.279   2.508   1.938  1.4752 -0.1940  1.8750
 9339TIP3   OH227980   7.131   2.711   0.038  0.2449  0.5284 -0.1111
 9339TIP3    H127981   7.128   2.699   0.133  0.9330 -0.0479 -0.1535
 9339TIP3    H227982   7.110   2.804   0.025  0.4141  0.6767  0.6207
 9340TIP3   OH227983   0.949   1.882   2.691  0.4591  0.2536  0.1331
 9340TIP3    H127984   0.922   1.937   2.617  1.4037  2.3599  1.2621
 9340TIP3    H227985   0.869   1.837   2.717 -0.3588  1.0580 -0.8863
 9341TIP3   OH227986   3.028   4.331   1.723 -0.3879  0.2303  0.2179
 9341TIP3    H127987   2.976   4.276   1.782 -3.1324  2.9193  0.5673
 9341TIP3    H227988   3.052   4.406   1.776  0.8199  0.7199 -0.9804
 9342TIP3   OH227989   3.863   0.936   4.071 -0.4728 -0.1971 -0.0383
 9342TIP3    H127990   3.958   0.936   4.064 -0.1399  2.1608  2.6206
 9342TIP3    H227991   3.836   1.017   4.029 -1.2224 -0.3393  0.1581
 9343TIP3   OH227992   2.616   1.182   1.808 -0.1772  0.1562  0.1578
 9343TIP3    H127993   2.640   1.247   1.742 -0.2788  0.5111  0.4668
 9343TIP3    H227994   2.622   1.098   1.762 -1.9338  0.5026 -0.8185
 9344TIP3   OH227995   1.936   1.361   0.892 -0.0603  0.2282  0.3092
 9344TIP3    H127996   1.928   1.311   0.811 -0.6301 -0.1638  0.5928
 9344TIP3    H227997   1.973   1.300   0.955  1.8194  0.9709 -0.0252
 9345TIP3   OH227998   0.127   5.420   2.966 -0.0327 -0.5198  0.1846
 9345TIP3    H127999   0.181   5.424   3.045 -0.6117  1.7820  0.5366
 9345TIP3    H228000   0.038   5.406   2.998 -0.3248  0.8042  0.0108
 9346TIP3   OH228001   3.450   0.246   1.638  0.3685 -0.1995 -0.2197
 9346TIP3    H128002   3.487   0.164   1.605  0.2989 -0.7147  0.9329
 9346TIP3    H228003   3.470   0.245   1.732  1.4122  1.6595 -0.3616
 9347TIP3   OH228004   0.290   5.593   0.339 -0.6944  0.0497  0.4765
 9347TIP3    H128005   0.255   5.677   0.369 -0.2331  0.1085  0.8620
 9347TIP3    H228006   0.245   5.576   0.256 -1.1808  0.4175  0.6611
 9348TIP3   OH228007   6.713   2.177   4.836  0.2143  0.1425 -0.1651
 9348TIP3    H128008   6.718   2.255   4.780  0.3524 -0.0394 -0.4088
 9348TIP3    H228009   6.625   2.179   4.873  0.5317  0.9374  0.5925
 9349TIP3   OH228010   5.057   2.222   0.481  0.1937  0.0552 -0.1452
 9349TIP3    H128011   5.056   2.259   0.393  3.2477 -1.9454 -1.1704
 9349TIP3    H228012   5.017   2.136   0.470  0.6433 -0.2237  0.3782
 9350TIP3   OH228013   5.978   6.454   4.641  0.1104  0.3028 -0.5490
 9350TIP3    H128014   6.057   6.405   4.622  0.6217  1.2241 -0.8743
 9350TIP3    H228015   6.003   6.516   4.710 -0.8318 -0.6713  0.7239
 9351TIP3   OH228016   1.814   6.586   3.263  0.3551  0.5877 -0.3513
 9351TIP3    H128017   1.842   6.522   3.329 -0.7245  0.6216  0.1784
 9351TIP3    H228018   1.887   6.647   3.256  1.5818 -0.9079 -1.1775
 9352TIP3   OH228019   6.526   5.478   5.714  0.9168 -0.1281 -0.8178
 9352TIP3    H128020   6.580   5.475   5.793 -0.2333 -2.9434 -0.0100
 9352TIP3    H228021   6.439   5.503   5.745  1.2645  2.7505 -1.8701
 9353TIP3   OH228022   1.274   1.148   4.607 -0.0073 -0.0507 -0.2005
 9353TIP3    H128023   1.259   1.053   4.607  1.4975 -0.3183 -0.5203
 9353TIP3    H228024   1.330   1.163   4.530 -0.5110  1.1507 -0.3483
 9354TIP3   OH228025   6.450   0.638   5.164  0.4317  0.0862  0.2720
 9354TIP3    H128026   6.538   0.614   5.133  0.7622  0.4388  0.9054
 9354TIP3    H228027   6.403   0.555   5.169  0.2625  0.0426 -1.4270
 9355TIP3   OH228028   2.687   0.588   2.340 -0.6187  0.2717 -0.4345
 9355TIP3    H128029   2.668   0.657   2.276  0.7252 -0.1063 -1.2940
 9355TIP3    H228030   2.680   0.507   2.290 -1.3574 -0.1754  0.3684
 9356TIP3   OH228031   1.596   0.508   5.872  0.1143  0.1605  0.7693
 9356TIP3    H128032   1.637   0.591   5.851  0.8308 -0.3843 -0.0511
 9356TIP3    H228033   1.506   0.517   5.839 -0.9001  1.7988  3.6496
 9357TIP3   OH228034   2.788   2.595   1.977 -0.2221  0.2839  0.1310
 9357TIP3    H128035   2.881   2.619   1.981 -0.1506  0.1075 -0.4028
 9357TIP3    H228036   2.764   2.607   1.885  0.1043 -2.7037 -0.4261
 9358TIP3   OH228037   1.043   1.286   2.962  0.2855  0.4767 -0.4355
 9358TIP3    H128038   1.028   1.272   2.868 -0.2668 -0.0787 -0.2696
 9358TIP3    H228039   0.964   1.252   3.004  0.1235  1.5872  0.1720
 9359TIP3   OH228040   1.579   4.014   1.216  0.0870  0.5644 -0.2981
 9359TIP3    H128041   1.552   4.096   1.174 -0.5976  0.6899  0.3732
 9359TIP3    H228042   1.501   3.960   1.218  0.3075  0.2484  0.0858
 9360TIP3   OH228043   3.715   2.506   4.837 -0.1521 -0.4911  0.4895
 9360TIP3    H128044   3.764   2.586   4.855  0.8270 -0.3123 -2.5541
 9360TIP3    H228045   3.629   2.521   4.877 -0.0741  2.1976 -0.1843
 9361TIP3   OH228046   0.466   4.393   2.105 -0.6179  0.1585 -0.3473
 9361TIP3    H128047   0.371   4.406   2.100 -0.8700 -0.2856  2.0164
 9361TIP3    H228048   0.493   4.449   2.178  0.9463  0.2253 -0.9459
 9362TIP3   OH228049   2.222   2.197   0.452  0.3873 -0.5109 -0.3785
 9362TIP3    H128050   2.133   2.217   0.480  0.0159 -0.3544 -1.6038
 9362TIP3    H228051   2.235   2.251   0.374  1.6621 -0.3160 -0.0534
 9363TIP3   OH228052   1.379   5.325   3.038 -0.3093  0.4107 -0.3715
 9363TIP3    H128053   1.332   5.333   3.121 -0.0279 -2.0133  0.1102
 9363TIP3    H228054   1.312   5.302   2.974 -0.3559  1.1412 -0.5968
 9364TIP3   OH228055   2.754   0.827   5.619 -0.5213  0.3544  0.1100
 9364TIP3    H128056   2.810   0.835   5.542 -2.6279  1.3635 -1.4075
 9364TIP3    H228057   2.801   0.874   5.688  0.6841  0.7881 -0.9720
 9365TIP3   OH228058   3.227   6.034   5.508 -1.0031 -0.4568 -0.7039
 9365TIP3    H128059   3.281   6.043   5.586  0.7227  2.8054 -2.1137
 9365TIP3    H228060   3.254   5.950   5.470 -1.7416 -2.0244  1.9584
 9366TIP3   OH228061   1.985   3.664   3.543 -0.0857  0.6402  0.3197
 9366TIP3    H128062   2.030   3.583   3.564  0.7045  0.3057 -2.2373
 9366TIP3    H228063   2.000   3.721   3.617 -0.4462 -1.4293  2.0828
 9367TIP3   OH228064   4.213   1.547   1.928  0.1218  0.1037  0.1073
 9367TIP3    H128065   4.118   1.540   1.942 -0.0137  0.4025 -0.6314
 9367TIP3    H228066   4.250   1.484   1.990 -0.5462  0.1139  0.5345
 9368TIP3   OH228067   2.725   2.994   0.910  0.4079  0.0655  0.4327
 9368TIP3    H128068   2.687   3.049   0.842  2.7316 -0.2785 -1.2718
 9368TIP3    H228069   2.678   2.911   0.903 -1.3002  0.9220  1.2269
 9369TIP3   OH228070   2.687   4.492   3.716  0.0500  0.5797  0.1303
 9369TIP3    H128071   2.730   4.447   3.789  1.1035  1.7406  0.2507
 9369TIP3    H228072   2.709   4.439   3.639  1.2582  0.8470  0.2712
 9370TIP3   OH228073   3.104   1.555   3.700  0.0571  0.0548  0.3704
 9370TIP3    H128074   3.033   1.507   3.742  1.3125 -1.5295  0.7848
 9370TIP3    H228075   3.178   1.546   3.760  1.3766 -0.6541 -1.2786
 9371TIP3   OH228076   0.666   4.044   3.821 -0.2355  0.3433 -0.4881
 9371TIP3    H128077   0.640   4.010   3.736 -1.5488 -1.0098  0.4068
 9371TIP3    H228078   0.643   3.974   3.883  2.3251  0.5273  0.8025
 9372TIP3   OH228079   4.142   3.556   2.491 -0.0013 -0.1010  0.1851
 9372TIP3    H128080   4.237   3.561   2.482 -0.0350 -0.4564 -0.3861
 9372TIP3    H228081   4.109   3.588   2.407 -0.3607 -1.2744 -0.1380
 9373TIP3   OH228082   6.851   0.248  -0.001 -0.1958 -0.0114 -0.1431
 9373TIP3    H128083   6.820   0.178   0.056  0.4371  0.6061  1.0046
 9373TIP3    H228084   6.856   0.325   0.057  0.0705  0.7389 -1.1333
 9374TIP3   OH228085   2.471   4.470   0.966 -0.0632 -0.2268 -0.0827
 9374TIP3    H128086   2.473   4.497   0.874  0.4941 -0.5856 -0.1806
 9374TIP3    H228087   2.379   4.452   0.983 -0.0293 -1.4698 -0.9738
 9375TIP3   OH228088   3.888   3.845   5.531  0.2965 -0.3666  0.0033
 9375TIP3    H128089   3.965   3.883   5.575 -0.3000  0.3128  0.4893
 9375TIP3    H228090   3.839   3.921   5.499 -0.4719 -0.7631  0.2152
 9376TIP3   OH228091   1.417   3.861   5.814 -0.5338 -0.1151  0.2886
 9376TIP3    H128092   1.397   3.842   5.906 -2.3008 -0.7709 -0.2046
 9376TIP3    H228093   1.370   3.943   5.796 -2.4824 -1.3925 -0.7379
 9377TIP3   OH228094   3.628   3.729   1.179 -0.2054 -0.0664  0.0407
 9377TIP3    H128095   3.547   3.781   1.184  0.0866  0.5424 -1.3147
 9377TIP3    H228096   3.599   3.644   1.145 -0.3500 -0.0415  0.0973
 9378TIP3   OH228097   2.297   5.243   1.008  0.1409 -0.1907 -0.3862
 9378TIP3    H128098   2.286   5.154   1.042  1.5466 -0.4851 -0.6471
 9378TIP3    H228099   2.230   5.250   0.940 -0.3663 -0.8329  0.0215
 9379TIP3   OH228100   3.820   3.855   0.304 -0.4835  0.1436  0.6394
 9379TIP3    H128101   3.763   3.844   0.380 -0.0387 -1.2962  0.7881
 9379TIP3    H228102   3.908   3.842   0.338 -0.2916 -0.6504 -0.1413
 9380TIP3   OH228103   6.129   4.031   2.101 -0.0842 -0.4983  0.0284
 9380TIP3    H128104   6.131   4.105   2.040  1.3099  0.4492  1.1519
 9380TIP3    H228105   6.220   4.021   2.129 -0.8647  0.1961  3.1929
 9381TIP3   OH228106   6.947   6.468   3.919 -0.1134  0.3174  0.3981
 9381TIP3    H128107   7.016   6.534   3.922 -0.1897  0.4421 -0.4939
 9381TIP3    H228108   6.987   6.395   3.871 -0.8754  0.7253 -0.8923
 9382TIP3   OH228109   4.711   3.558   1.921 -0.3287  0.3391  0.4347
 9382TIP3    H128110   4.770   3.488   1.951 -1.1858  0.0200  1.4148
 9382TIP3    H228111   4.630   3.543   1.969 -0.5179  2.0502  0.6958
 9383TIP3   OH228112   5.855   1.790   5.766 -0.4573 -0.3810 -0.3849
 9383TIP3    H128113   5.800   1.849   5.818 -1.4310 -1.9407  0.4261
 9383TIP3    H228114   5.800   1.766   5.691 -0.5864 -1.2726 -0.0195
 9384TIP3   OH228115   3.822   3.464   2.385  0.2969 -0.6296 -0.3385
 9384TIP3    H128116   3.730   3.443   2.365  0.4216 -1.9371  0.3671
 9384TIP3    H228117   3.871   3.417   2.318  0.4460  1.3069 -1.6856
 9385TIP3   OH228118   3.607   1.015   3.671  0.3792 -0.0934  0.0598
 9385TIP3    H128119   3.631   0.942   3.614 -2.8701 -0.5602 -0.9140
 9385TIP3    H228120   3.531   0.984   3.720  0.0177  2.0319  0.9885
 9386TIP3   OH228121   0.557   4.186   4.391  0.1042  0.2284  0.1702
 9386TIP3    H128122   0.583   4.269   4.351  0.1553  0.3241  0.4035
 9386TIP3    H228123   0.464   4.177   4.370 -0.0925  0.7221  0.8081
 9387TIP3   OH228124   3.532   5.860   5.845  0.0689 -0.2159 -0.3030
 9387TIP3    H128125   3.517   5.911   5.765 -0.4728 -0.5251 -0.3992
 9387TIP3    H228126   3.594   5.792   5.819  0.6317  0.2544 -0.2252
 9388TIP3   OH228127   3.865   0.538   5.086 -0.0464 -0.3925  0.0659
 9388TIP3    H128128   3.884   0.558   5.178 -2.2843  1.3546  0.2297
 9388TIP3    H228129   3.830   0.449   5.087 -2.3757  0.4484  1.3529
 9389TIP3   OH228130   2.385   4.398   2.419 -0.5396 -0.2595 -0.6253
 9389TIP3    H128131   2.321   4.429   2.355 -1.1251  1.4733  0.7380
 9389TIP3    H228132   2.334   4.383   2.499  0.6024  0.3486  0.2486
 9390TIP3   OH228133   0.936   4.277   3.575  0.3297 -0.7191 -0.2778
 9390TIP3    H128134   1.020   4.316   3.554  1.2672 -2.1190  0.6487
 9390TIP3    H228135   0.900   4.249   3.491 -0.4095  2.0576 -0.9727
 9391TIP3   OH228136   6.396   2.222   1.583 -0.5569  0.4931  0.9027
 9391TIP3    H128137   6.427   2.257   1.667  0.1434  0.7271  0.5517
 9391TIP3    H228138   6.414   2.128   1.588 -0.8354  0.4517  1.1503
 9392TIP3   OH228139   4.035   1.526   3.225 -0.2785  0.6426 -0.6392
 9392TIP3    H128140   3.983   1.494   3.151  1.9866  0.6473 -2.3543
 9392TIP3    H228141   4.045   1.620   3.209 -1.1122  0.9777  0.6155
 9393TIP3   OH228142   3.881   6.207   3.029  0.0623  0.4805 -0.0253
 9393TIP3    H128143   3.788   6.230   3.033  0.1008  0.4652  2.1238
 9393TIP3    H228144   3.887   6.125   3.078  1.3518  1.0237  0.7665
 9394TIP3   OH228145   6.701   6.234   2.161  0.6494  0.0407 -0.0673
 9394TIP3    H128146   6.726   6.324   2.180  0.2159  0.2820 -0.5972
 9394TIP3    H228147   6.656   6.205   2.240  2.0408 -0.1995  0.6551
 9395TIP3   OH228148   3.436   2.311   1.752  0.0774  0.3478  0.5647
 9395TIP3    H128149   3.359   2.293   1.806  0.8839 -1.5723  1.1541
 9395TIP3    H228150   3.461   2.226   1.716  0.7767  1.2595 -1.2243
 9396TIP3   OH228151   0.170   2.382   1.695  0.3619  0.0406  0.1859
 9396TIP3    H128152   0.162   2.298   1.650 -0.3821  0.1973  0.0166
 9396TIP3    H228153   0.094   2.385   1.753  1.3155 -0.1654  1.4893
 9397TIP3   OH228154   3.002   4.419   3.171 -0.1874  0.1109  0.2189
 9397TIP3    H128155   3.045   4.400   3.087 -0.6730  0.6877 -0.1659
 9397TIP3    H228156   3.022   4.511   3.188 -0.2178  0.0361  0.6614
 9398TIP3   OH228157   4.214   5.439   2.575  0.2500 -0.0540 -0.2154
 9398TIP3    H128158   4.150   5.465   2.641  0.0946  0.9098 -0.7317
 9398TIP3    H228159   4.170   5.455   2.491 -1.5170 -5.7573 -0.7899
 9399TIP3   OH228160   4.777   6.223   1.537  0.4628  0.0196 -0.1645
 9399TIP3    H128161   4.823   6.248   1.457 -1.1882  1.2134 -0.7864
 9399TIP3    H228162   4.816   6.278   1.605  1.5953 -0.7156 -0.1893
 9400TIP3   OH228163   6.828   5.407   3.754  0.0451 -0.1361  0.6018
 9400TIP3    H128164   6.912   5.377   3.721 -1.1144 -2.7329 -0.2330
 9400TIP3    H228165   6.800   5.474   3.691 -0.5269 -2.5403 -1.9111
 9401TIP3   OH228166   0.654   2.884   0.359  0.0808 -0.1070 -0.1144
 9401TIP3    H128167   0.600   2.816   0.320 -1.4516  0.2129  1.3341
 9401TIP3    H228168   0.593   2.936   0.411  1.3243  1.9704 -0.6132
 9402TIP3   OH228169   1.442   3.114   0.816 -0.3944 -0.0748  0.0843
 9402TIP3    H128170   1.417   3.184   0.755 -0.9694  0.2388  0.6707
 9402TIP3    H228171   1.408   3.142   0.901  0.1568 -0.6410  0.5069
 9403TIP3   OH228172   1.965   0.236   0.884  0.1989 -0.2072  0.4490
 9403TIP3    H128173   1.972   0.213   0.977  0.0850  0.1167  0.5377
 9403TIP3    H228174   1.953   0.152   0.840 -0.4237 -0.3022  0.7939
 9404TIP3   OH228175   0.857   6.390   3.462  0.1063  0.1475  0.2946
 9404TIP3    H128176   0.869   6.377   3.368 -2.8917  0.1721 -0.2021
 9404TIP3    H228177   0.808   6.313   3.490 -0.2574  0.8083  1.5339
 9405TIP3   OH228178   5.709   6.189   4.021 -0.5359 -0.1847 -0.3360
 9405TIP3    H128179   5.722   6.117   3.958 -0.0478  0.4219 -0.9511
 9405TIP3    H228180   5.615   6.194   4.032 -0.6662  0.0479 -1.4562
 9406TIP3   OH228181   6.326   1.536   4.435 -0.2996 -0.0655 -0.2656
 9406TIP3    H128182   6.416   1.547   4.467 -0.3706  0.9791 -0.3730
 9406TIP3    H228183   6.301   1.623   4.405 -1.4347 -0.2919 -0.0327
 9407TIP3   OH228184   4.404   1.797   4.375 -0.7631  0.2543 -0.4715
 9407TIP3    H128185   4.398   1.716   4.427  2.9493  0.5135  0.6495
 9407TIP3    H228186   4.422   1.766   4.286 -0.7799 -0.1708 -0.3327
 9408TIP3   OH228187   2.689   4.054   5.734 -0.0547 -0.1264 -0.0943
 9408TIP3    H128188   2.759   3.995   5.761  0.7837  0.0465 -1.7828
 9408TIP3    H228189   2.670   4.106   5.812 -1.7695 -3.4183  1.9400
 9409TIP3   OH228190   2.756   1.137   0.713  0.4162  0.4071  0.1380
 9409TIP3    H128191   2.782   1.121   0.803 -0.3302  0.4675  0.3742
 9409TIP3    H228192   2.804   1.072   0.662  0.5224  0.0975  0.6275
 9410TIP3   OH228193   1.777   1.227   2.599 -0.3759  0.0926 -0.0542
 9410TIP3    H128194   1.760   1.271   2.682  1.1700 -0.6392  0.6948
 9410TIP3    H228195   1.763   1.295   2.533 -3.3011  0.2540  0.6101
 9411TIP3   OH228196   5.446   6.039   0.676 -0.6198  0.3118 -0.2837
 9411TIP3    H128197   5.458   5.946   0.655  0.4097  0.2963  0.3162
 9411TIP3    H228198   5.434   6.081   0.591 -0.5211 -0.3012 -0.6082
 9412TIP3   OH228199   2.581   6.060   1.344 -0.5681 -0.4428 -0.0682
 9412TIP3    H128200   2.567   6.151   1.370  1.5501 -0.1866  0.2896
 9412TIP3    H228201   2.566   6.059   1.249  1.4363  0.7645 -0.4477
 9413TIP3   OH228202   4.900   6.436   3.300  0.1959 -0.8582  0.3575
 9413TIP3    H128203   4.978   6.382   3.304  0.4108 -0.4961  1.1597
 9413TIP3    H228204   4.908   6.497   3.373  1.1471  1.8402 -1.8074
 9414TIP3   OH228205   2.676   2.872   5.700 -0.1127 -0.1106  0.2256
 9414TIP3    H128206   2.624   2.889   5.779 -1.3020  0.7506 -0.7088
 9414TIP3    H228207   2.618   2.822   5.644 -1.1477  3.2250 -2.0093
 9415TIP3   OH228208   3.228   4.073   4.277  0.0573  0.4310 -0.0758
 9415TIP3    H128209   3.314   4.113   4.264  0.3648 -0.6239 -1.5026
 9415TIP3    H228210   3.211   4.025   4.196 -2.3859  1.5181 -0.2970
 9416TIP3   OH228211   2.482   3.792   1.498 -0.5609 -0.9954  0.6085
 9416TIP3    H128212   2.509   3.724   1.560 -2.9288 -1.2244  1.4998
 9416TIP3    H228213   2.493   3.752   1.412 -1.5549 -2.4356  1.1002
 9417TIP3   OH228214   1.551   2.753   1.998  0.1337  0.1104  0.2067
 9417TIP3    H128215   1.523   2.662   2.013  1.2690 -0.6256 -1.8066
 9417TIP3    H228216   1.619   2.768   2.064  0.1668 -0.6174  0.3547
 9418TIP3   OH228217   0.872   5.860   0.824 -0.0568  0.2318 -0.1789
 9418TIP3    H128218   0.958   5.852   0.865 -0.2659  2.3248  0.7594
 9418TIP3    H228219   0.888   5.916   0.747 -0.4880  0.1288 -0.3436
 9419TIP3   OH228220   0.151   2.978   2.717  0.0623  0.1430 -0.4089
 9419TIP3    H128221   0.156   3.061   2.669 -0.3189  1.1022  1.1341
 9419TIP3    H228222   0.219   2.986   2.784 -1.5301  0.2292  1.2510
 9420TIP3   OH228223   3.695   3.568   1.541 -0.7292 -0.0807  0.0743
 9420TIP3    H128224   3.646   3.494   1.576 -0.0775  0.2462  1.7313
 9420TIP3    H228225   3.629   3.635   1.523 -1.1172 -0.4093  0.2809
 9421TIP3   OH228226   1.739   2.590   0.928 -0.3880  0.2339 -0.0155
 9421TIP3    H128227   1.810   2.583   0.863 -0.2266  0.6206  0.1141
 9421TIP3    H228228   1.749   2.679   0.963  0.3966 -0.4402  1.5508
 9422TIP3   OH228229   6.255   5.560   1.046 -0.0304 -0.0261  0.3492
 9422TIP3    H128230   6.234   5.637   0.993 -0.3323 -1.2496 -1.4171
 9422TIP3    H228231   6.181   5.550   1.105 -0.0964  0.8920  0.4285
 9423TIP3   OH228232   1.253   4.219   3.144 -0.2943  0.4487 -0.4543
 9423TIP3    H128233   1.326   4.256   3.094 -1.9266  0.9684 -2.6295
 9423TIP3    H228234   1.250   4.127   3.118  0.0069  0.2484  0.2001
 9424TIP3   OH228235   3.985   2.094   5.079 -0.5535  0.0515 -0.0883
 9424TIP3    H128236   4.005   2.004   5.053 -0.5516  0.1137 -0.3077
 9424TIP3    H228237   3.921   2.123   5.014 -0.5461  0.2113 -0.0233
 9425TIP3   OH228238   5.136   4.727   0.799  0.5217 -0.1606 -0.2322
 9425TIP3    H128239   5.144   4.798   0.735 -2.1959 -0.3690 -0.9031
 9425TIP3    H228240   5.149   4.770   0.883  0.1227  0.9109 -0.6976
 9426TIP3   OH228241   5.800   0.353   5.523 -0.3318 -0.2953 -0.2012
 9426TIP3    H128242   5.894   0.338   5.533 -0.4377 -1.5653 -0.9486
 9426TIP3    H228243   5.784   0.343   5.430 -1.2421 -0.2513 -0.0582
 9427TIP3   OH228244   0.791   6.142   0.355 -0.0656 -0.4727  0.3675
 9427TIP3    H128245   0.815   6.119   0.445  1.5668  2.0974  0.6864
 9427TIP3    H228246   0.864   6.111   0.302 -0.2548 -0.5105  0.1277
 9428TIP3   OH228247   0.614   5.656   1.561 -0.0920  0.0527 -0.7083
 9428TIP3    H128248   0.618   5.751   1.554  0.3953  0.0161 -1.0385
 9428TIP3    H228249   0.704   5.627   1.543 -0.3578 -0.4972 -1.2180
 9429TIP3   OH228250   0.637   4.336   3.338 -0.2330  0.3501  0.2784
 9429TIP3    H128251   0.614   4.320   3.246  0.9736 -0.5396  0.1060
 9429TIP3    H228252   0.583   4.275   3.388 -0.5986  0.5546  0.1390
 9430TIP3   OH228253   3.163   6.612   5.545 -0.9282  0.2157  0.0372
 9430TIP3    H128254   3.151   6.528   5.590 -0.6038 -0.1383 -0.5337
 9430TIP3    H228255   3.253   6.638   5.566 -1.4091  1.0221  1.2044
 9431TIP3   OH228256   3.183   4.288   3.842  0.8531 -0.5248  0.1561
 9431TIP3    H128257   3.146   4.361   3.793  1.2397 -0.5576 -0.1882
 9431TIP3    H228258   3.119   4.218   3.834  1.2344 -0.7608 -0.8950
 9432TIP3   OH228259   6.713   3.228   1.064 -0.2258 -0.5229  0.0355
 9432TIP3    H128260   6.769   3.161   1.105  0.0398 -0.5959 -0.4486
 9432TIP3    H228261   6.656   3.178   1.005 -0.8827 -0.4619  0.6073
 9433TIP3   OH228262   0.441   0.481   0.236  0.3576 -0.4961 -0.2469
 9433TIP3    H128263   0.354   0.496   0.197  0.1429  2.0414  1.0328
 9433TIP3    H228264   0.487   0.564   0.226  1.4516 -0.7459  2.0066
 9434TIP3   OH228265   1.432   5.065   5.211  0.8107 -0.0183  0.4757
 9434TIP3    H128266   1.363   5.062   5.277  0.9250  0.5674  0.6266
 9434TIP3    H228267   1.513   5.062   5.260  0.9021 -0.4450  0.3096
 9435TIP3   OH228268   2.895   3.947   3.471  0.1121  0.2066  0.2592
 9435TIP3    H128269   2.834   3.969   3.400 -0.1714  1.1545  0.7855
 9435TIP3    H228270   2.838   3.931   3.546  0.5287  1.8873  0.9679
 9436TIP3   OH228271   1.942   4.554   0.612  0.1140 -0.0448 -0.2067
 9436TIP3    H128272   2.023   4.502   0.614 -0.8948 -1.8726 -2.2016
 9436TIP3    H228273   1.887   4.509   0.547 -1.3964  2.7812 -1.0311
 9437TIP3   OH228274   1.809   3.047   0.424 -0.0313 -0.3718 -0.1812
 9437TIP3    H128275   1.767   2.962   0.436  1.7732 -1.2927  0.0644
 9437TIP3    H228276   1.857   3.038   0.341 -1.0375  0.9702 -0.9471
 9438TIP3   OH228277   4.381   0.732   4.974  0.0280  0.2961  0.6436
 9438TIP3    H128278   4.415   0.720   4.886  0.2098  0.1944  0.7262
 9438TIP3    H228279   4.308   0.792   4.964  0.8731  1.3458  0.5999
 9439TIP3   OH228280   0.666   1.185   2.071 -0.2518 -0.6792  1.1577
 9439TIP3    H128281   0.715   1.259   2.104 -0.4765 -0.5724  1.2519
 9439TIP3    H228282   0.704   1.168   1.985  0.5014 -1.1203  1.5691
 9440TIP3   OH228283   5.126   0.752   2.165  0.0870 -0.0229  0.2863
 9440TIP3    H128284   5.167   0.799   2.092  2.0422 -3.1291 -0.7707
 9440TIP3    H228285   5.190   0.758   2.236 -0.7024  0.8480  0.9436
 9441TIP3   OH228286   3.502   4.920   0.734  0.2696 -0.3451  0.1946
 9441TIP3    H128287   3.517   4.930   0.640  0.3974 -0.7974  0.1632
 9441TIP3    H228288   3.564   4.852   0.761 -0.1001 -0.5593  0.5115
 9442TIP3   OH228289   7.126   5.282   0.659  0.1235 -0.0472 -0.5938
 9442TIP3    H128290   7.199   5.255   0.602 -0.4767 -0.6309 -1.1112
 9442TIP3    H228291   7.151   5.368   0.691  2.0798 -1.1507  1.0411
 9443TIP3   OH228292   2.503   2.469   5.660  0.4715 -0.0891 -0.2445
 9443TIP3    H128293   2.543   2.544   5.615  0.8147  0.5396  1.0630
 9443TIP3    H228294   2.480   2.408   5.590  1.1707  0.7712 -1.2449
 9444TIP3   OH228295   4.398   0.207   0.245 -0.8286 -0.4316  0.7207
 9444TIP3    H128296   4.462   0.277   0.233 -1.3456 -0.1811 -0.8859
 9444TIP3    H228297   4.361   0.222   0.332 -2.1555  2.3874 -0.2002
 9445TIP3   OH228298   0.791   0.584   2.034 -0.4898 -0.3600  0.1174
 9445TIP3    H128299   0.824   0.527   2.103 -0.4102 -0.2341  0.1836
 9445TIP3    H228300   0.858   0.653   2.025 -1.3262  0.6227  1.1360
 9446TIP3   OH228301   5.983   0.430   4.188  0.1407  0.1637  0.2161
 9446TIP3    H128302   6.072   0.433   4.223 -0.6088  2.1567  2.2401
 9446TIP3    H228303   5.984   0.494   4.117  0.1993  0.6565  0.6503
 9447TIP3   OH228304   3.617   6.334   3.096  0.3074 -0.4058  0.7159
 9447TIP3    H128305   3.591   6.367   3.183  0.1823  0.7029  0.2739
 9447TIP3    H228306   3.535   6.306   3.056  0.3421 -0.7564  0.8886
 9448TIP3   OH228307   5.517   2.064   2.803 -0.4838  0.2757  0.1444
 9448TIP3    H128308   5.525   1.982   2.755  0.9039  0.9498 -0.8515
 9448TIP3    H228309   5.583   2.058   2.872 -0.6762  0.3711  0.3360
 9449TIP3   OH228310   4.021   1.570   3.492  0.3051 -0.2800 -0.7445
 9449TIP3    H128311   3.960   1.633   3.531  0.1055 -0.5997 -0.5348
 9449TIP3    H228312   4.004   1.574   3.398  0.6059  0.3036 -0.7815
 9450TIP3   OH228313   6.359   0.735   3.481  0.1887  0.2466 -0.5251
 9450TIP3    H128314   6.291   0.757   3.417  0.1843  0.1271 -0.5628
 9450TIP3    H228315   6.322   0.662   3.531 -0.6105  1.5934  0.9223
 9451TIP3   OH228316   7.042   4.080   2.500  0.0877 -0.4359 -0.0134
 9451TIP3    H128317   6.986   4.058   2.575  1.5987 -1.6542  0.8028
 9451TIP3    H228318   7.052   4.175   2.505 -2.0259 -0.1470 -0.3029
 9452TIP3   OH228319   5.061   2.207   4.378 -0.1004 -0.4924  0.3265
 9452TIP3    H128320   5.116   2.280   4.407 -0.8667  0.4207 -0.4370
 9452TIP3    H228321   5.061   2.145   4.452  2.0088 -0.5706  0.2983
 9453TIP3   OH228322   3.421   2.266   4.988  0.0198  0.6937  0.3636
 9453TIP3    H128323   3.328   2.255   4.968  0.3637  0.2768 -1.1067
 9453TIP3    H228324   3.432   2.360   5.000 -0.5634  0.7596  0.4211
 9454TIP3   OH228325   0.525   1.313   3.985  0.0397  0.4306 -0.6388
 9454TIP3    H128326   0.430   1.321   3.982 -0.1256 -1.3601 -1.7363
 9454TIP3    H228327   0.541   1.219   3.998  1.6485  0.6947 -0.4718
 9455TIP3   OH228328   5.324   2.354   4.402  0.8906 -0.5464 -0.0990
 9455TIP3    H128329   5.302   2.427   4.344 -0.2711 -1.2674 -0.5927
 9455TIP3    H228330   5.409   2.323   4.370  0.9698  0.0160 -0.4541
 9456TIP3   OH228331   5.926   4.494   1.629 -0.4827 -0.1021 -0.0831
 9456TIP3    H128332   5.888   4.478   1.543  0.3419 -0.7195 -0.3404
 9456TIP3    H228333   5.865   4.554   1.671 -1.2797 -0.3820 -0.8148
 9457TIP3   OH228334   0.310   1.482   4.843 -0.0447  0.5128 -0.6961
 9457TIP3    H128335   0.326   1.387   4.841  0.7356  0.6483 -1.9532
 9457TIP3    H228336   0.260   1.496   4.923  0.2509 -0.8991 -0.2355
 9458TIP3   OH228337   3.647   0.311   0.246  0.4650 -0.4671  0.7632
 9458TIP3    H128338   3.739   0.283   0.251  1.0267  0.8503 -1.1542
 9458TIP3    H228339   3.599   0.233   0.219  1.5765 -0.3723 -1.7059
 9459TIP3   OH228340   4.533   3.152   3.630 -1.3103 -0.2528  0.0941
 9459TIP3    H128341   4.576   3.235   3.647  0.7242 -1.2856  0.3268
 9459TIP3    H228342   4.479   3.168   3.552  0.6008  0.7993 -1.1023
 9460TIP3   OH228343   2.644   3.872   2.673 -0.2038  0.4889  0.2780
 9460TIP3    H128344   2.591   3.950   2.688  1.8613  2.1528 -0.5396
 9460TIP3    H228345   2.653   3.833   2.760 -1.8693  0.7049  0.5903
 9461TIP3   OH228346   3.445   2.068   3.482  0.1865  0.0425  0.0244
 9461TIP3    H128347   3.533   2.068   3.520  0.7968 -1.5218 -1.3069
 9461TIP3    H228348   3.451   2.129   3.409 -0.0740  0.5174  0.3887
 9462TIP3   OH228349   2.433   6.789   0.206 -0.2220  0.2364  0.0733
 9462TIP3    H128350   2.415   6.734   0.283 -0.2475 -1.1397 -0.8907
 9462TIP3    H228351   2.525   6.773   0.186 -0.6680 -0.8022 -1.2376
 9463TIP3   OH228352   1.803   1.363   1.865  0.6723 -0.3242  0.2593
 9463TIP3    H128353   1.843   1.331   1.946 -0.5229 -1.3794  0.4676
 9463TIP3    H228354   1.812   1.290   1.804  1.0826  0.2705 -0.4063
 9464TIP3   OH228355   3.546   1.920   3.757  0.6561 -0.0267  0.2398
 9464TIP3    H128356   3.601   1.964   3.693 -1.4152  1.1467 -0.8486
 9464TIP3    H228357   3.533   1.984   3.826 -0.8289  0.4779 -0.4440
 9465TIP3   OH228358   4.331   6.194   2.829  0.4114  0.2092  0.6957
 9465TIP3    H128359   4.410   6.166   2.875  0.4844 -0.2552  0.3007
 9465TIP3    H228360   4.316   6.125   2.764 -0.8465 -0.2044  1.3761
 9466TIP3   OH228361   4.023   0.393   3.874  0.7357  0.3886  0.1230
 9466TIP3    H128362   4.103   0.443   3.891  1.2539 -0.1233 -0.7718
 9466TIP3    H228363   4.040   0.346   3.793  0.8804 -2.4797  1.7140
 9467TIP3   OH228364   6.091   0.582   3.215 -0.4477  0.7813  0.3092
 9467TIP3    H128365   6.104   0.664   3.263  1.3269  1.9356 -1.9795
 9467TIP3    H228366   6.006   0.594   3.172 -0.9658  0.6882  1.2608
 9468TIP3   OH228367   3.574   2.583   1.337  0.6920 -0.5025  0.0707
 9468TIP3    H128368   3.597   2.596   1.245  2.0289 -0.6735  0.3524
 9468TIP3    H228369   3.569   2.488   1.347  3.5120 -0.6548  0.7889
 9469TIP3   OH228370   5.136   2.303   2.229 -0.2762 -0.6803 -0.0756
 9469TIP3    H128371   5.132   2.389   2.271 -0.8890 -0.7185 -0.0437
 9469TIP3    H228372   5.217   2.306   2.178  0.0821 -0.3524  0.4903
 9470TIP3   OH228373   2.708   1.109   5.057 -0.2832  0.5525 -0.6341
 9470TIP3    H128374   2.710   1.202   5.077  0.9297  0.6503 -1.1000
 9470TIP3    H228375   2.616   1.085   5.059 -0.5027  1.4058  1.0664
 9471TIP3   OH228376   4.140   1.921   1.912  0.0965  0.2716 -0.0823
 9471TIP3    H128377   4.197   1.881   1.978 -0.7796  0.1741  0.6308
 9471TIP3    H228378   4.053   1.884   1.930 -0.0347 -0.2553 -1.7081
 9472TIP3   OH228379   0.378   3.360   1.509 -0.1395 -0.2675  0.1875
 9472TIP3    H128380   0.433   3.417   1.455  1.4173 -1.7231  0.1587
 9472TIP3    H228381   0.384   3.274   1.467 -1.0608 -0.8387  1.1777
 9473TIP3   OH228382   0.678   4.502   3.923 -0.0461  0.5886 -0.2507
 9473TIP3    H128383   0.647   4.420   3.882  0.4073  0.6654 -0.7528
 9473TIP3    H228384   0.773   4.491   3.930  0.2818  1.8229 -2.0649
 9474TIP3   OH228385   2.128   4.124   2.307  0.1984  0.3469 -0.1943
 9474TIP3    H128386   2.085   4.085   2.231 -0.4471  1.0504 -0.2037
 9474TIP3    H228387   2.110   4.218   2.298  0.1850  0.4407  0.7795
 9475TIP3   OH228388   5.510   6.006   3.397  0.1197  0.0650  0.0982
 9475TIP3    H128389   5.597   5.967   3.409 -0.8687 -1.8614  1.5110
 9475TIP3    H228390   5.449   5.932   3.403 -1.6624  1.4035 -0.5515
 9476TIP3   OH228391   4.155   6.739   0.145 -0.0493  0.2447  0.2731
 9476TIP3    H128392   4.240   6.782   0.155 -0.8536  1.8435  0.7170
 9476TIP3    H228393   4.165   6.654   0.187  1.4272  0.2405 -0.0335
 9477TIP3   OH228394   4.197   2.614   2.663 -0.1421 -0.0274  0.0593
 9477TIP3    H128395   4.164   2.638   2.576 -1.2255  0.1778  0.5116
 9477TIP3    H228396   4.267   2.678   2.680  0.1984 -0.1790 -0.7244
 9478TIP3   OH228397   2.911   2.277   2.875  0.4603 -0.2256  0.3356
 9478TIP3    H128398   2.990   2.310   2.918  1.2359  0.3299 -1.3766
 9478TIP3    H228399   2.848   2.349   2.883 -0.4890 -1.2505  3.0578
 9479TIP3   OH228400   1.381   6.396   1.099  0.4109 -0.4343 -0.0992
 9479TIP3    H128401   1.465   6.438   1.078  0.1716 -0.1499 -0.4989
 9479TIP3    H228402   1.389   6.372   1.191  0.0288  1.7995  0.5923
 9480TIP3   OH228403   6.051   6.413   2.658 -0.3503  0.3940 -0.0529
 9480TIP3    H128404   6.024   6.374   2.575  0.0134 -1.9409  0.8668
 9480TIP3    H228405   6.146   6.411   2.656 -0.3275  0.9930  0.1460
 9481TIP3   OH228406   6.349   0.042   0.828 -0.0994 -0.2711 -0.1768
 9481TIP3    H128407   6.297   0.051   0.908 -0.6814  0.2394 -0.6022
 9481TIP3    H228408   6.431   0.087   0.848  0.2573 -1.1974  0.5452
 9482TIP3   OH228409   1.190   4.331   5.746  0.1882  0.1431 -0.7718
 9482TIP3    H128410   1.114   4.389   5.749 -0.8776 -1.2189  1.9365
 9482TIP3    H228411   1.264   4.389   5.726 -1.0667  2.1266  0.0226
 9483TIP3   OH228412   1.662   1.869   0.075  0.3525 -0.3839 -0.1351
 9483TIP3    H128413   1.647   1.907   0.162 -0.0579  0.5006 -0.5850
 9483TIP3    H228414   1.575   1.843   0.044  0.1755  1.3301 -1.1859
 9484TIP3   OH228415   3.504   2.951   2.802 -0.1928  0.5566  0.0105
 9484TIP3    H128416   3.524   3.040   2.770  0.8108  1.1026  2.0053
 9484TIP3    H228417   3.589   2.910   2.814 -0.5523  0.1209  1.2239
 9485TIP3   OH228418   3.782   2.872   1.760 -0.0714 -0.2989  0.0792
 9485TIP3    H128419   3.699   2.831   1.784 -0.9569  0.4317 -1.5439
 9485TIP3    H228420   3.803   2.833   1.675 -0.8149  2.2992 -1.4119
 9486TIP3   OH228421   2.363   3.143   3.157 -0.0191  0.4026  0.2355
 9486TIP3    H128422   2.356   3.159   3.251  0.8870  0.3780  0.3193
 9486TIP3    H228423   2.442   3.091   3.148  0.6059  1.4600 -0.6603
 9487TIP3   OH228424   3.293   0.658   1.613  0.7701  1.0174  0.0409
 9487TIP3    H128425   3.377   0.676   1.654 -0.3386 -0.3392  3.2775
 9487TIP3    H228426   3.303   0.571   1.575  0.6526  0.4753  1.1908
 9488TIP3   OH228427   2.093   2.175   1.121  0.1400 -0.0184 -0.1301
 9488TIP3    H128428   2.097   2.084   1.150 -1.7492 -0.2926 -0.5850
 9488TIP3    H228429   2.016   2.178   1.063  0.0941  1.8895 -0.0238
 9489TIP3   OH228430   1.620   6.095   2.122 -0.1849  0.3834  0.3078
 9489TIP3    H128431   1.713   6.071   2.130  0.0530  1.6382  1.7878
 9489TIP3    H228432   1.592   6.054   2.040  1.6324 -0.1473 -0.1075
 9490TIP3   OH228433   7.077   0.631   2.207 -0.3374 -0.2074 -0.6244
 9490TIP3    H128434   7.052   0.665   2.121 -0.7899  1.3032  0.0594
 9490TIP3    H228435   6.996   0.635   2.258  0.4800  1.4857  0.6294
 9491TIP3   OH228436   5.753   6.648   4.870  0.0904 -0.3624  0.5393
 9491TIP3    H128437   5.784   6.731   4.833  0.1831 -0.1601  1.0611
 9491TIP3    H228438   5.673   6.629   4.821 -0.6137  0.6737  1.2479
 9492TIP3   OH228439   6.561   4.759   2.424 -0.1701  0.3067 -0.1378
 9492TIP3    H128440   6.526   4.737   2.337 -2.0628  3.5136 -0.3502
 9492TIP3    H228441   6.527   4.846   2.442  2.8080  1.1009  2.5085
 9493TIP3   OH228442   4.034   3.337   3.561 -0.1796 -0.1552  0.0494
 9493TIP3    H128443   3.961   3.342   3.499  1.0063 -0.5597 -1.4615
 9493TIP3    H228444   4.019   3.257   3.611 -0.2093 -0.8440 -1.0316
 9494TIP3   OH228445   5.747   2.808   5.456 -0.6270  0.0852 -0.0134
 9494TIP3    H128446   5.671   2.750   5.462  0.4121 -1.3067  0.1272
 9494TIP3    H228447   5.710   2.893   5.431 -2.2251 -0.5404  0.0944
 9495TIP3   OH228448   2.767   5.702   1.667 -0.6180 -0.0801 -0.0891
 9495TIP3    H128449   2.800   5.709   1.578 -3.0621 -1.6484 -1.2121
 9495TIP3    H228450   2.722   5.785   1.683  1.0034  0.7694  0.2692
 9496TIP3   OH228451   2.665   6.688   4.035 -0.2715 -0.0490  0.5098
 9496TIP3    H128452   2.749   6.668   3.992 -0.2902  1.3569 -0.2452
 9496TIP3    H228453   2.637   6.605   4.072  0.8165 -0.8444 -0.3681
 9497TIP3   OH228454   0.288   0.342   1.696  0.6992  0.1625 -0.5409
 9497TIP3    H128455   0.279   0.417   1.637 -2.0984  1.1462  0.9302
 9497TIP3    H228456   0.360   0.366   1.754 -1.0629  2.5228  0.8356
 9498TIP3   OH228457   0.943   1.312   5.438  0.3700 -0.5008 -0.0056
 9498TIP3    H128458   0.934   1.289   5.531  0.2455 -2.8074 -0.5241
 9498TIP3    H228459   1.024   1.269   5.411 -0.8445 -1.9776 -1.5156
 9499TIP3   OH228460   5.149   1.475   4.764  0.2142  0.1532  0.3746
 9499TIP3    H128461   5.223   1.520   4.805  1.7741 -0.6356 -1.4543
 9499TIP3    H228462   5.166   1.382   4.780  1.4665 -0.2800 -2.8264
 9500TIP3   OH228463   2.814   5.760   4.953  0.4795 -0.3738 -0.1436
 9500TIP3    H128464   2.901   5.797   4.939 -0.0595  1.6164  1.4194
 9500TIP3    H228465   2.757   5.835   4.971 -1.3406 -1.7085  0.0464
 9501TIP3   OH228466   1.346   5.611   4.978 -0.2590 -0.1898  0.2002
 9501TIP3    H128467   1.430   5.652   4.956 -0.9908  1.2249 -0.0710
 9501TIP3    H228468   1.313   5.578   4.895  0.8615 -2.4918  0.5809
 9502TIP3   OH228469   4.413   3.914   5.575  0.5871 -0.1622  0.6811
 9502TIP3    H128470   4.415   3.888   5.483 -0.5901  0.1012  0.5627
 9502TIP3    H228471   4.466   3.994   5.578  2.1871 -1.1887  0.5966
 9503TIP3   OH228472   3.688   4.468   4.271 -0.1260 -0.4875  0.8171
 9503TIP3    H128473   3.659   4.555   4.296  0.5772 -0.2462  0.8110
 9503TIP3    H228474   3.634   4.409   4.323  0.0955 -0.0242  1.5972
 9504TIP3   OH228475   0.171   0.433   5.474 -0.1904 -0.1144  0.3302
 9504TIP3    H128476   0.260   0.451   5.505  0.0674 -0.0799 -0.4092
 9504TIP3    H228477   0.183   0.400   5.385 -0.9756  0.6884 -0.0779
 9505TIP3   OH228478   1.967   1.728   0.995  0.5205 -0.4765 -0.5014
 9505TIP3    H128479   1.911   1.791   0.949  2.0454  0.1417 -1.6052
 9505TIP3    H228480   2.028   1.783   1.044  0.0053 -1.1437  0.9247
 9506TIP3   OH228481   0.564   6.667   4.427  0.3034 -0.1847 -0.1220
 9506TIP3    H128482   0.541   6.749   4.470 -2.2147  0.0211 -1.6076
 9506TIP3    H228483   0.609   6.694   4.347  1.0782 -0.3581  0.2483
 9507TIP3   OH228484   0.801   5.444   3.286  0.0519  0.0284  0.3233
 9507TIP3    H128485   0.731   5.421   3.225  0.6156  0.3706 -0.4691
 9507TIP3    H228486   0.798   5.539   3.291 -0.2794 -0.0158  1.1982
 9508TIP3   OH228487   0.298   4.015   2.056  0.6251 -0.6014 -0.1019
 9508TIP3    H128488   0.235   4.078   2.021  0.6508  0.1012  1.0458
 9508TIP3    H228489   0.344   4.064   2.125  0.1023 -2.1172  1.3669
 9509TIP3   OH228490   2.708   3.813   0.347 -0.2015 -0.2089 -0.3209
 9509TIP3    H128491   2.680   3.820   0.256 -0.5199 -1.8789 -0.3794
 9509TIP3    H228492   2.671   3.891   0.389  2.7391  2.4422 -2.2157
 9510TIP3   OH228493   0.883   0.406   0.119  0.6411 -0.8537 -0.3753
 9510TIP3    H128494   0.814   0.376   0.177 -2.3806  2.1173 -2.0817
 9510TIP3    H228495   0.957   0.424   0.177 -0.7107 -2.0692  1.8686
 9511TIP3   OH228496   2.491   6.153   1.809 -0.1431  0.2619 -0.7102
 9511TIP3    H128497   2.429   6.214   1.770 -0.5585  0.9452  0.9180
 9511TIP3    H228498   2.472   6.157   1.903 -0.3359 -2.5483 -0.5572
 9512TIP3   OH228499   2.480   3.837   2.033 -0.0912  0.4758 -0.3637
 9512TIP3    H128500   2.420   3.849   1.960 -0.3510  0.8175 -0.0991
 9512TIP3    H228501   2.458   3.908   2.094 -0.6786 -0.4991  0.5873
 9513TIP3   OH228502   3.132   3.253   0.288 -0.4170 -0.2164  0.5293
 9513TIP3    H128503   3.212   3.206   0.264 -0.4472  0.6648 -1.5477
 9513TIP3    H228504   3.154   3.298   0.369  0.5560 -1.4840  1.0032
 9514TIP3   OH228505   4.073   6.256   3.856 -0.1150 -0.3716 -0.3353
 9514TIP3    H128506   4.089   6.162   3.862 -1.9195 -0.7524 -0.7036
 9514TIP3    H228507   4.138   6.296   3.913  0.1309 -1.9037  0.5001
 9515TIP3   OH228508   3.592   2.440   1.964  0.6193  0.3768  0.1984
 9515TIP3    H128509   3.508   2.397   1.947  0.0561  1.8661 -1.0277
 9515TIP3    H228510   3.658   2.378   1.932 -0.0864 -0.1072 -0.3394
 9516TIP3   OH228511   7.139   5.162   4.536 -0.0796  0.5406  0.3999
 9516TIP3    H128512   7.064   5.190   4.590 -0.1481 -0.2575  0.7265
 9516TIP3    H228513   7.210   5.149   4.599 -0.1286 -0.2880  0.2947
 9517TIP3   OH228514   2.737   6.095   5.808 -0.2633  0.3962 -0.4205
 9517TIP3    H128515   2.715   6.119   5.718 -0.0245 -2.0974 -1.2109
 9517TIP3    H228516   2.666   6.038   5.837 -1.0958  2.3145  1.5676
 9518TIP3   OH228517   4.360   1.380   3.808 -0.0905 -0.5057 -0.3441
 9518TIP3    H128518   4.355   1.474   3.791 -0.7019 -0.6860 -1.1651
 9518TIP3    H228519   4.312   1.339   3.737 -2.3618 -1.2978  1.5249
 9519TIP3   OH228520   0.905   0.303   5.243  0.0484  0.5312 -0.0099
 9519TIP3    H128521   0.851   0.232   5.278  1.4338 -1.3000 -1.3714
 9519TIP3    H228522   0.843   0.361   5.200 -0.9725 -1.0305 -0.7647
 9520TIP3   OH228523   0.536   3.638   5.576 -0.0231 -0.4888  0.2705
 9520TIP3    H128524   0.451   3.605   5.607  0.5434 -1.6575  0.6236
 9520TIP3    H228525   0.558   3.707   5.638 -0.8832  0.0848 -0.0437
 9521TIP3   OH228526   4.643   4.124   3.430 -0.6582 -0.3544 -0.1592
 9521TIP3    H128527   4.735   4.110   3.449 -0.6661 -1.6932 -1.0101
 9521TIP3    H228528   4.601   4.132   3.515  0.3039  0.8794  0.2358
 9522TIP3   OH228529   4.626   2.753   1.653 -0.1812 -0.6441 -0.1791
 9522TIP3    H128530   4.708   2.732   1.610  0.6217  1.8313 -0.0059
 9522TIP3    H228531   4.560   2.744   1.584  0.8328  1.4210 -1.4932
 9523TIP3   OH228532   1.680   5.273   3.214  0.1325 -0.1224 -0.3618
 9523TIP3    H128533   1.640   5.216   3.280  1.0840 -2.7267 -1.9082
 9523TIP3    H228534   1.677   5.223   3.133  2.8811  1.1878 -1.4064
 9524TIP3   OH228535   6.698   3.597   1.965 -0.4092  0.5350 -0.3834
 9524TIP3    H128536   6.636   3.592   2.038 -1.3219  0.4189 -1.1507
 9524TIP3    H228537   6.762   3.663   1.993 -0.7798  0.5484  0.4851
 9525TIP3   OH228538   1.111   0.619   1.072 -0.5046 -0.4717 -0.1755
 9525TIP3    H128539   1.145   0.530   1.069 -1.1843 -0.7251 -2.2280
 9525TIP3    H228540   1.127   0.648   1.161 -0.7239 -2.8188  0.6971
 9526TIP3   OH228541   1.797   2.071   5.114  0.4572  0.2444  0.0157
 9526TIP3    H128542   1.721   2.032   5.157 -0.7443 -0.8352 -2.8247
 9526TIP3    H228543   1.784   2.165   5.122  0.4426  0.1119  2.1205
 9527TIP3   OH228544   0.050   4.904   3.057  0.1216 -0.1318  0.0794
 9527TIP3    H128545   0.083   4.976   3.004  0.4560 -0.4144 -0.1015
 9527TIP3    H228546   0.074   4.928   3.147  2.5185 -1.1944 -0.2034
 9528TIP3   OH228547   2.058   2.945   0.493  0.7975  0.0013 -0.8660
 9528TIP3    H128548   2.099   2.939   0.580 -0.8052 -0.7397 -0.1208
 9528TIP3    H228549   1.968   2.973   0.511  0.0526 -1.4371 -2.1647
 9529TIP3   OH228550   1.190   2.154   5.076  0.6225  0.6566 -1.0483
 9529TIP3    H128551   1.111   2.146   5.022  0.5914  0.7725 -1.0189
 9529TIP3    H228552   1.160   2.193   5.158  1.0676  2.7815 -1.8480
 9530TIP3   OH228553   0.698   6.675   0.260  0.5350 -0.3466  0.2295
 9530TIP3    H128554   0.680   6.660   0.167 -1.0022  1.9066  0.0734
 9530TIP3    H228555   0.729   6.590   0.292  0.5449 -1.3534 -2.1866
 9531TIP3   OH228556   0.128   6.351   3.959 -0.5354  0.7401 -0.9122
 9531TIP3    H128557   0.201   6.317   4.010 -1.5172 -0.2357 -0.0969
 9531TIP3    H228558   0.134   6.446   3.969 -0.1596  0.6127  0.2821
 9532TIP3   OH228559   4.045   4.778   0.361 -0.6164  0.1827 -0.2213
 9532TIP3    H128560   3.975   4.783   0.426 -0.1119  0.1229  0.3336
 9532TIP3    H228561   4.025   4.699   0.310 -0.7869 -0.0002  0.1293
 9533TIP3   OH228562   5.137   3.477   4.336 -0.0759  0.0580 -0.5619
 9533TIP3    H128563   5.094   3.408   4.387 -1.2740 -0.0927 -1.7250
 9533TIP3    H228564   5.230   3.466   4.356 -0.4873 -0.0542  1.4712
 9534TIP3   OH228565   1.657   1.722   4.140 -0.1449  0.4785 -0.6201
 9534TIP3    H128566   1.622   1.646   4.093  0.1959 -0.2432  0.2664
 9534TIP3    H228567   1.606   1.726   4.220 -0.6623  1.6481 -0.9881
 9535TIP3   OH228568   4.013   3.117   1.526 -0.2832  0.2058  0.5438
 9535TIP3    H128569   4.020   3.077   1.613  1.2992  1.1248  0.8636
 9535TIP3    H228570   4.069   3.194   1.529 -0.3000  0.3471 -1.2614
 9536TIP3   OH228571   2.931   5.752   4.018  0.3315 -0.1799 -0.4829
 9536TIP3    H128572   2.848   5.707   4.034  0.8893 -0.4955  1.8698
 9536TIP3    H228573   2.910   5.845   4.025 -0.5022 -0.0078 -3.7402
 9537TIP3   OH228574   3.770   3.449   2.664 -0.0809 -0.3347  0.1122
 9537TIP3    H128575   3.777   3.490   2.577  1.7952  0.4710  0.5939
 9537TIP3    H228576   3.691   3.487   2.702  1.1592  2.4144  0.2458
 9538TIP3   OH228577   5.431   6.553   1.454 -0.3534 -0.0186  0.0611
 9538TIP3    H128578   5.483   6.631   1.433 -0.7278  0.4361  0.7683
 9538TIP3    H228579   5.494   6.482   1.458  0.0363  0.3062 -0.3162
 9539TIP3   OH228580   0.590   3.058   1.617  0.6643  0.5378 -0.1689
 9539TIP3    H128581   0.542   3.059   1.534  2.0896 -0.5059 -1.0513
 9539TIP3    H228582   0.553   2.985   1.666  0.6932  0.3489 -0.4294
 9540TIP3   OH228583   5.575   0.905   5.451  0.2854 -0.5614  0.5885
 9540TIP3    H128584   5.535   0.971   5.507  0.8854 -0.4763  0.9350
 9540TIP3    H228585   5.630   0.854   5.511  1.4812 -0.0330 -0.0152
 9541TIP3   OH228586   0.625   0.440   3.091  0.1170 -0.5796 -0.2970
 9541TIP3    H128587   0.561   0.472   3.154  1.1635 -0.0497  0.5365
 9541TIP3    H228588   0.664   0.519   3.054  1.3773 -0.8501  0.3686
 9542TIP3   OH228589   0.238   6.672   0.195 -0.0770 -0.1421  0.3413
 9542TIP3    H128590   0.166   6.684   0.257 -1.0930 -2.4030 -0.3011
 9542TIP3    H228591   0.278   6.759   0.188 -2.2682  1.0255  1.2801
 9543TIP3   OH228592   6.496   6.121   2.898  0.2295 -0.3839 -0.2931
 9543TIP3    H128593   6.448   6.170   2.965  0.9353 -1.3754  0.9700
 9543TIP3    H228594   6.582   6.163   2.894  0.2041 -0.3542 -0.5662
 9544TIP3   OH228595   3.774   5.228   0.879  0.2979 -0.2998  0.1303
 9544TIP3    H128596   3.803   5.247   0.790  0.0565  0.1213  0.1391
 9544TIP3    H228597   3.679   5.233   0.875  0.3011  0.1416  0.5013
 9545TIP3   OH228598   4.674   0.359   1.500 -0.3693  0.3516 -0.1598
 9545TIP3    H128599   4.628   0.304   1.437  0.8210 -0.6010 -0.2340
 9545TIP3    H228600   4.740   0.302   1.538 -2.3773  0.2617  3.5723
 9546TIP3   OH228601   4.549   0.723   2.673  0.2910  0.5930  0.1809
 9546TIP3    H128602   4.565   0.653   2.610  1.6053 -0.8257  2.0033
 9546TIP3    H228603   4.533   0.801   2.619 -0.7634 -0.9777 -1.8975
 9547TIP3   OH228604   1.029   3.210   1.920 -0.0091 -0.0194  0.1408
 9547TIP3    H128605   1.084   3.169   1.854 -1.3796 -0.1030 -1.0089
 9547TIP3    H228606   0.940   3.183   1.896 -0.5544  0.0505  1.9617
 9548TIP3   OH228607   2.851   4.292   2.868  0.2471 -0.6404  0.3290
 9548TIP3    H128608   2.881   4.247   2.789 -1.1557 -2.5839  0.8140
 9548TIP3    H228609   2.925   4.286   2.928  0.8039 -0.4670 -0.3285
 9549TIP3   OH228610   3.443   3.162   1.374 -0.3222 -0.5361 -0.3340
 9549TIP3    H128611   3.486   3.080   1.349 -1.0625 -1.1221  0.2416
 9549TIP3    H228612   3.512   3.215   1.412  0.4433 -0.3450 -1.9404
 9550TIP3   OH228613   0.402   0.793   5.724  0.0859 -0.0836  0.3622
 9550TIP3    H128614   0.439   0.719   5.771 -0.4537 -0.1066  0.7611
 9550TIP3    H228615   0.316   0.807   5.765 -0.4985 -0.2600 -0.7629
 9551TIP3   OH228616   1.665   0.903   1.307 -0.2339  0.4017 -0.2089
 9551TIP3    H128617   1.677   0.853   1.226 -0.6678  0.1433 -0.1210
 9551TIP3    H228618   1.570   0.915   1.313 -0.2018  0.4332  0.2524
 9552TIP3   OH228619   3.949   0.255   4.712 -0.3985 -0.2056 -0.4476
 9552TIP3    H128620   3.987   0.327   4.762  0.8987 -0.7255 -0.6248
 9552TIP3    H228621   3.860   0.246   4.745  0.0919  0.1337  1.0386
 9553TIP3   OH228622   1.737   2.776   0.539 -0.8362 -0.1355 -0.7225
 9553TIP3    H128623   1.802   2.712   0.567  1.8001  1.2812 -2.9436
 9553TIP3    H228624   1.697   2.808   0.620  1.4470 -0.9420  0.8217
 9554TIP3   OH228625   5.879   3.821   1.090 -0.3870  0.3456 -0.3170
 9554TIP3    H128626   5.937   3.779   1.153 -0.2503  0.6291 -0.2516
 9554TIP3    H228627   5.871   3.911   1.122  2.9358  1.7593 -2.8583
 9555TIP3   OH228628   6.225   2.106   2.819  0.5399 -0.2207  0.0831
 9555TIP3    H128629   6.170   2.144   2.888  1.4298  0.6737  0.3412
 9555TIP3    H228630   6.215   2.166   2.745 -0.1115 -0.9661 -0.4397
 9556TIP3   OH228631   4.121   6.748   1.244  0.1038  0.2538 -0.5012
 9556TIP3    H128632   4.195   6.691   1.266  1.2789  1.3600 -1.4426
 9556TIP3    H228633   4.046   6.688   1.237  0.8300 -0.8555  0.7629
 9557TIP3   OH228634   0.188   6.725   1.432 -0.1255 -0.1300 -0.3602
 9557TIP3    H128635   0.270   6.677   1.444  0.2831  0.5441 -0.3898
 9557TIP3    H228636   0.177   6.730   1.337  0.9617  1.6624 -0.4399
 9558TIP3   OH228637   5.119   1.703   1.372  0.1670  0.4185 -0.0718
 9558TIP3    H128638   5.157   1.775   1.322  0.4553  0.6254  0.4307
 9558TIP3    H228639   5.094   1.743   1.456 -0.2695  0.0707 -0.0347
 9559TIP3   OH228640   2.046   3.820   5.662  0.4039 -0.1605  0.2956
 9559TIP3    H128641   2.055   3.743   5.719 -0.7337  0.1868  0.9963
 9559TIP3    H228642   2.018   3.784   5.578  1.5655 -0.6395  0.0965
 9560TIP3   OH228643   7.021   5.906   2.549 -0.3063 -0.4215  0.5314
 9560TIP3    H128644   6.987   5.909   2.459  2.2393 -1.0648 -0.5494
 9560TIP3    H228645   7.064   5.991   2.561  0.8546 -0.9765  0.4576
 9561TIP3   OH228646   6.970   2.318   3.724 -0.8983 -0.5348  0.1451
 9561TIP3    H128647   7.051   2.366   3.707 -1.4050 -0.0174 -0.9061
 9561TIP3    H228648   6.976   2.291   3.816  0.5115 -0.6082  0.0456
 9562TIP3   OH228649   3.625   3.124   4.384  0.2149  0.3593  0.2482
 9562TIP3    H128650   3.668   3.209   4.395  0.1961  0.7134 -1.8620
 9562TIP3    H228651   3.657   3.092   4.299 -1.1080 -0.9460  0.1973
 9563TIP3   OH228652   5.668   5.694   3.792  0.5296 -0.0711  0.2127
 9563TIP3    H128653   5.753   5.675   3.833 -0.4261 -0.3470  2.1925
 9563TIP3    H228654   5.624   5.609   3.789 -0.9572  0.5464  2.3730
 9564TIP3   OH228655   5.602   1.746   5.235 -0.6025  0.3560  0.2615
 9564TIP3    H128656   5.593   1.733   5.329 -0.3223  0.5641  0.3148
 9564TIP3    H228657   5.654   1.825   5.226 -0.0002 -0.0649 -0.0664
 9565TIP3   OH228658   4.653   6.294   3.639 -0.0268  0.0107  0.3538
 9565TIP3    H128659   4.669   6.273   3.547 -0.2965 -1.0634  0.5324
 9565TIP3    H228660   4.637   6.209   3.680  1.4167  0.3306  1.6753
 9566TIP3   OH228661   0.642   2.113   3.853  0.1395 -0.1817  0.2018
 9566TIP3    H128662   0.722   2.106   3.905  0.4109  0.2195 -0.1533
 9566TIP3    H228663   0.657   2.056   3.778  0.6991  1.0060 -0.6155
 9567TIP3   OH228664   3.087   3.526   1.274 -0.4703 -0.4135 -0.5413
 9567TIP3    H128665   3.103   3.434   1.295 -1.8611 -0.5246  0.0986
 9567TIP3    H228666   3.115   3.534   1.182 -0.8945 -1.6295 -0.7999
 9568TIP3   OH228667   2.708   4.524   2.092  0.7544 -0.1752  0.5548
 9568TIP3    H128668   2.705   4.438   2.050  1.5624  0.3955 -0.7478
 9568TIP3    H228669   2.636   4.522   2.156 -0.4578 -1.1444 -0.7655
 9569TIP3   OH228670   0.872   0.424   4.907 -0.4973  0.0702  0.2812
 9569TIP3    H128671   0.820   0.376   4.971 -0.5075 -0.0913  0.1504
 9569TIP3    H228672   0.832   0.511   4.904  0.5313  0.6501  1.7655
 9570TIP3   OH228673   0.896   6.163   4.215  0.1134  0.1969 -0.0088
 9570TIP3    H128674   0.816   6.214   4.232  0.3689  0.3260  0.8238
 9570TIP3    H228675   0.907   6.167   4.120 -0.5374  0.6849 -0.0682
 9571TIP3   OH228676   4.853   5.504   3.133 -0.2695 -0.4444 -0.4545
 9571TIP3    H128677   4.893   5.453   3.203  3.1603  0.7015 -1.3732
 9571TIP3    H228678   4.837   5.590   3.171  0.0467 -0.3049 -0.6356
 9572TIP3   OH228679   0.222   4.726   0.660  0.7245  0.2712  0.3942
 9572TIP3    H128680   0.212   4.768   0.745 -0.8951 -0.1440  0.4282
 9572TIP3    H228681   0.136   4.691   0.639  1.4787 -1.0775 -0.6668
 9573TIP3   OH228682   6.948   2.053   4.683  0.2098  0.1355  0.7420
 9573TIP3    H128683   6.961   2.148   4.674 -0.0809  0.3117  2.0491
 9573TIP3    H228684   6.915   2.041   4.772  1.4398 -1.3350  1.0320
 9574TIP3   OH228685   5.695   5.836   3.083  0.0037 -0.2047 -0.1954
 9574TIP3    H128686   5.670   5.924   3.111 -1.3659 -0.4522 -0.5693
 9574TIP3    H228687   5.790   5.840   3.072  0.2339  0.6854  1.6867
 9575TIP3   OH228688   5.122   1.816   2.030 -0.3510  0.2417 -0.3358
 9575TIP3    H128689   5.186   1.835   2.099 -0.2238 -0.6718 -0.1879
 9575TIP3    H228690   5.065   1.893   2.028 -0.1823  0.4036  0.5917
 9576TIP3   OH228691   1.956   5.748   4.281 -0.2694  0.0632  0.6378
 9576TIP3    H128692   2.042   5.730   4.244 -0.2095  1.1497  0.2246
 9576TIP3    H228693   1.918   5.815   4.224 -2.2882 -1.8770 -0.4650
 9577TIP3   OH228694   2.106   1.028   1.392  0.3614  0.3966 -0.3133
 9577TIP3    H128695   2.017   1.053   1.416  0.0859 -1.4801  0.8571
 9577TIP3    H228696   2.096   0.960   1.326  0.9444  0.5906 -0.6110
 9578TIP3   OH228697   1.457   5.686   4.718  0.2214 -0.1765  0.3801
 9578TIP3    H128698   1.516   5.717   4.650  0.4838 -2.5870 -0.5929
 9578TIP3    H228699   1.497   5.605   4.750 -0.0471  0.7046  3.2448
 9579TIP3   OH228700   3.576   2.239   3.754 -0.3198 -0.8180  0.8486
 9579TIP3    H128701   3.648   2.220   3.814 -0.2707  0.1892  1.1348
 9579TIP3    H228702   3.497   2.229   3.806 -0.6515 -4.5880 -0.1222
 9580TIP3   OH228703   2.081   3.265   3.471  0.5079 -0.0834 -0.0893
 9580TIP3    H128704   2.017   3.198   3.495  0.2565 -1.3303 -3.5647
 9580TIP3    H228705   2.165   3.218   3.471  0.7820  0.4022  0.2741
 9581TIP3   OH228706   3.927   0.157   2.643 -0.1717  0.5169 -0.5284
 9581TIP3    H128707   4.007   0.205   2.623 -1.1826  2.1221 -0.9221
 9581TIP3    H228708   3.911   0.174   2.736 -0.3680  0.7025 -0.5947
 9582TIP3   OH228709   4.656   1.698   3.973 -0.3258  0.3815 -0.5031
 9582TIP3    H128710   4.670   1.707   4.067  0.1687 -1.6888 -0.3436
 9582TIP3    H228711   4.624   1.784   3.946  1.6834  1.7521  1.1423
 9583TIP3   OH228712   3.732   0.292   5.103 -0.2024  0.1808  0.4474
 9583TIP3    H128713   3.700   0.270   5.191  1.6997 -1.4751  0.7941
 9583TIP3    H228714   3.652   0.298   5.050 -1.2497 -1.5068  1.7194
 9584TIP3   OH228715   6.145   6.205   5.194  0.4194 -0.0676 -0.2361
 9584TIP3    H128716   6.145   6.204   5.289  0.3315  0.4149 -0.2288
 9584TIP3    H228717   6.085   6.135   5.169 -0.3713  0.4952  0.0753
 9585TIP3   OH228718   5.157   5.301   2.371  0.3402 -0.0522  0.9161
 9585TIP3    H128719   5.131   5.351   2.448 -2.9716 -0.0271 -0.0354
 9585TIP3    H228720   5.137   5.210   2.394  0.5164 -0.1886  0.5355
 9586TIP3   OH228721   7.156   6.153   5.178  0.8352  0.8395  0.4607
 9586TIP3    H128722   7.085   6.164   5.241  2.1546 -0.4340  2.2879
 9586TIP3    H228723   7.112   6.153   5.092 -1.4739 -0.6615  1.5365
 9587TIP3   OH228724   6.488   3.368   1.531 -0.6737  0.1960 -0.2708
 9587TIP3    H128725   6.538   3.445   1.557 -0.5939  0.2245 -0.5079
 9587TIP3    H228726   6.501   3.361   1.436 -0.2427 -0.4273 -0.1698
 9588TIP3   OH228727   0.672   0.442   0.625  0.4926  0.1679  0.5268
 9588TIP3    H128728   0.662   0.534   0.601  0.0766  0.2169  0.8748
 9588TIP3    H228729   0.653   0.440   0.719  0.9635 -0.2003  0.6210
 9589TIP3   OH228730   1.434   5.030   5.704 -0.0564  0.4858  0.9498
 9589TIP3    H128731   1.406   5.009   5.615 -0.3280 -2.3178  1.5766
 9589TIP3    H228732   1.440   5.125   5.706  0.7598  0.6404 -2.2889
 9590TIP3   OH228733   1.899   4.114   3.193  0.2214  0.5880 -0.5931
 9590TIP3    H128734   1.956   4.043   3.225  0.4429  0.1920 -1.7949
 9590TIP3    H228735   1.958   4.171   3.143 -0.0461  1.3782 -0.0194
 9591TIP3   OH228736   0.333   2.248   3.926 -0.4948  0.9177  0.9917
 9591TIP3    H128737   0.335   2.338   3.893 -2.3835 -0.5316 -3.7446
 9591TIP3    H228738   0.423   2.216   3.914 -0.5526  1.2429 -0.3941
 9592TIP3   OH228739   1.091   0.130   0.572 -0.0367 -0.0094 -0.5667
 9592TIP3    H128740   1.031   0.119   0.646  0.9053 -2.2896 -0.0274
 9592TIP3    H228741   1.037   0.167   0.502 -1.4629  0.2758  0.6389
 9593TIP3   OH228742   6.246   1.900   1.098 -0.0185  0.2364 -0.2089
 9593TIP3    H128743   6.313   1.850   1.144 -0.5567 -0.2937  0.0200
 9593TIP3    H228744   6.210   1.838   1.034  0.7931  0.9844 -1.4468
 9594TIP3   OH228745   5.669   0.490   2.116  0.2195 -0.2354  0.0915
 9594TIP3    H128746   5.596   0.537   2.156  0.6250  0.1812  0.3525
 9594TIP3    H228747   5.654   0.496   2.022  0.3952  0.6371  0.1096
 9595TIP3   OH228748   5.363   2.586   5.109 -0.2051  0.2506 -0.7008
 9595TIP3    H128749   5.319   2.527   5.049 -0.8328 -1.7143  1.5341
 9595TIP3    H228750   5.293   2.637   5.149  0.2806  2.1689 -2.1580
 9596TIP3   OH228751   6.343   4.175   2.210  0.3636  0.0315 -0.0023
 9596TIP3    H128752   6.336   4.266   2.180 -0.4063 -0.6029 -1.9102
 9596TIP3    H228753   6.437   4.162   2.223  0.6855  0.6076 -1.4947
 9597TIP3   OH228754   2.428   1.908   1.049  0.6478  0.1037 -0.0595
 9597TIP3    H128755   2.512   1.913   1.094  0.6025  0.8667 -0.0527
 9597TIP3    H228756   2.451   1.912   0.956  0.5565  1.4335 -0.0388
 9598TIP3   OH228757   6.551   4.947   1.710 -0.1277 -0.4250  0.9149
 9598TIP3    H128758   6.589   5.005   1.643 -1.9867  0.5194  0.6195
 9598TIP3    H228759   6.568   4.859   1.677 -0.3816  0.0203 -0.4709
 9599TIP3   OH228760   3.241   3.648   4.551 -0.0536  0.1464 -0.1370
 9599TIP3    H128761   3.300   3.584   4.511 -1.1206 -0.6041 -0.5464
 9599TIP3    H228762   3.153   3.619   4.526 -0.5783  1.5569 -0.0089
 9600TIP3   OH228763   1.027   3.701   4.899  0.1996 -0.0949 -0.2922
 9600TIP3    H128764   0.992   3.651   4.973 -1.5160  0.8161 -0.4419
 9600TIP3    H228765   1.119   3.714   4.921  0.1827 -1.4456  0.7671
 9601TIP3   OH228766   5.886   4.788   1.434 -0.1269 -0.0161 -0.0285
 9601TIP3    H128767   5.951   4.737   1.482  0.5398 -0.2664 -1.1747
 9601TIP3    H228768   5.919   4.878   1.438 -2.1160  0.7734  3.4095
 9602TIP3   OH228769   5.471   0.890   1.309  0.0954 -0.9260 -0.0994
 9602TIP3    H128770   5.526   0.895   1.388 -0.2386 -0.3442  0.1028
 9602TIP3    H228771   5.389   0.852   1.340 -0.2105 -0.2498 -0.0648
 9603TIP3   OH228772   4.693   5.264   5.312  0.2375  0.0067 -0.1314
 9603TIP3    H128773   4.624   5.288   5.374  0.6108 -2.1709  1.2363
 9603TIP3    H228774   4.651   5.273   5.226 -1.9649 -1.7143  0.6545
 9604TIP3   OH228775   1.443   2.790   5.103 -0.0909 -0.6812  0.2610
 9604TIP3    H128776   1.459   2.817   5.193 -1.2994  0.8837  0.0566
 9604TIP3    H228777   1.440   2.872   5.054 -0.0952 -1.4639 -1.1122
 9605TIP3   OH228778   6.176   2.654   0.067 -0.0035  0.4040  0.1291
 9605TIP3    H128779   6.129   2.734   0.092  1.3363  0.8812  1.2338
 9605TIP3    H228780   6.209   2.619   0.150  1.4826  0.0183 -0.5910
 9606TIP3   OH228781   1.478   1.573   4.913  0.0450  0.0078  0.2006
 9606TIP3    H128782   1.564   1.582   4.955 -0.0030 -0.8934  0.5084
 9606TIP3    H228783   1.490   1.505   4.847 -0.4423 -0.1332  0.2535
 9607TIP3   OH228784   2.361   5.511   0.949 -0.3700 -0.1810 -0.2647
 9607TIP3    H128785   2.429   5.532   1.012 -2.1055  1.5934  1.1307
 9607TIP3    H228786   2.335   5.421   0.971  1.7933 -1.0887 -1.1701
 9608TIP3   OH228787   6.095   6.208   0.056 -0.4795 -0.2879 -0.2098
 9608TIP3    H128788   6.032   6.177  -0.009 -0.3660 -1.6802  0.2969
 9608TIP3    H228789   6.102   6.302   0.040 -1.3243 -0.4049 -1.4419
 9609TIP3   OH228790   2.620   1.167   3.341 -0.1934  0.0587  0.5384
 9609TIP3    H128791   2.711   1.147   3.363  0.1305  0.7367 -0.1437
 9609TIP3    H228792   2.572   1.149   3.421  0.7897  1.3338  1.4590
 9610TIP3   OH228793   3.168   3.266   2.548 -0.2235 -0.3369  0.0006
 9610TIP3    H128794   3.217   3.314   2.481  1.3875  0.8894  1.9401
 9610TIP3    H228795   3.089   3.318   2.561 -0.3384 -0.3479 -0.6139
 9611TIP3   OH228796   3.525   1.863   2.599 -0.3151 -0.0884  0.0548
 9611TIP3    H128797   3.553   1.832   2.514 -2.0851  1.3447 -1.1390
 9611TIP3    H228798   3.576   1.943   2.613  0.7811 -0.9042  0.9044
 9612TIP3   OH228799   5.405   4.734   4.419  0.0081  0.4841 -0.6374
 9612TIP3    H128800   5.361   4.655   4.388 -0.4562  0.6807 -0.4871
 9612TIP3    H228801   5.481   4.701   4.466 -0.0764  0.1317 -0.7434
 9613TIP3   OH228802   5.066   5.317   1.235  0.3772 -0.2996  0.3604
 9613TIP3    H128803   4.971   5.330   1.229  0.3167  0.0419  1.6707
 9613TIP3    H228804   5.104   5.399   1.203  0.2219 -0.2519  0.2984
 9614TIP3   OH228805   4.440   0.710   0.841 -0.2461 -0.2801  0.2588
 9614TIP3    H128806   4.517   0.750   0.883 -0.4089  2.1272 -1.5592
 9614TIP3    H228807   4.366   0.741   0.893 -0.1372 -1.5501  1.2284
 9615TIP3   OH228808   0.305   3.496   5.665  0.0893 -0.3258  0.0003
 9615TIP3    H128809   0.236   3.505   5.600 -0.8167 -1.0751  0.8334
 9615TIP3    H228810   0.321   3.402   5.671  3.2882 -0.0941 -2.2847
 9616TIP3   OH228811   6.467   1.966   2.781  0.5480  0.2443  0.5479
 9616TIP3    H128812   6.530   2.024   2.737  1.3685 -1.3161 -0.4059
 9616TIP3    H228813   6.384   2.014   2.777  1.0325  1.0365 -0.8890
 9617TIP3   OH228814   6.361   3.603   5.745 -0.0762 -0.2344 -0.2676
 9617TIP3    H128815   6.445   3.613   5.790 -1.1349 -0.3504  1.8280
 9617TIP3    H228816   6.370   3.521   5.696  1.3156  0.1928 -0.7828
 9618TIP3   OH228817   6.427   2.742   5.117  0.0190  0.0811 -0.3548
 9618TIP3    H128818   6.489   2.676   5.088  0.0991 -0.4201  0.9082
 9618TIP3    H228819   6.351   2.731   5.060  0.8770  0.3907 -1.6035
 9619TIP3   OH228820   4.722   3.100   0.410 -0.2460  0.3666 -0.1709
 9619TIP3    H128821   4.693   3.168   0.349 -2.0568 -1.0967 -1.0629
 9619TIP3    H228822   4.674   3.022   0.382 -0.6415 -0.5261  2.7337
 9620TIP3   OH228823   1.811   2.399   0.298  0.0195 -0.9625 -0.0928
 9620TIP3    H128824   1.787   2.327   0.239  0.1977 -0.4490 -0.8078
 9620TIP3    H228825   1.728   2.445   0.314 -0.2581 -1.8180  1.0702
 9621TIP3   OH228826   5.424   0.081   3.514  0.3405  0.3150 -0.4810
 9621TIP3    H128827   5.355   0.017   3.529  0.5860  0.1204 -0.1708
 9621TIP3    H228828   5.384   0.147   3.457 -0.1338  0.2619 -0.2131
 9622TIP3   OH228829   1.317   5.361   2.479 -0.4845  0.5976  0.2543
 9622TIP3    H128830   1.365   5.424   2.534 -0.2652 -0.1016  0.8717
 9622TIP3    H228831   1.385   5.311   2.435 -0.6578  1.1669 -0.7051
 9623TIP3   OH228832   5.523   1.385   5.135 -0.3443  0.6395  0.1512
 9623TIP3    H128833   5.582   1.460   5.125  0.6455 -0.2464 -1.0250
 9623TIP3    H228834   5.580   1.315   5.167 -0.6804 -0.2911 -1.1981
 9624TIP3   OH228835   2.008   1.190   0.677  0.3584  0.3495  0.3223
 9624TIP3    H128836   1.999   1.095   0.687  0.0536  0.0585 -2.2369
 9624TIP3    H228837   2.097   1.202   0.644  0.4989  1.0009  0.9211
 9625TIP3   OH228838   6.149   4.746   4.631  0.3713  0.1249 -0.4190
 9625TIP3    H128839   6.054   4.743   4.634  0.4040 -1.3269 -0.2070
 9625TIP3    H228840   6.169   4.819   4.573 -0.8287  1.6536  1.0245
 9626TIP3   OH228841   5.171   4.366   1.739  1.0083 -0.0183 -0.5815
 9626TIP3    H128842   5.242   4.429   1.753  0.6002  0.2501  0.3567
 9626TIP3    H228843   5.148   4.336   1.827  0.3536 -0.5435 -0.9254
 9627TIP3   OH228844   1.301   6.231   1.716  0.1694 -0.4248  0.5954
 9627TIP3    H128845   1.264   6.173   1.649  1.1372  0.4634 -0.7657
 9627TIP3    H228846   1.369   6.280   1.670  0.5256  0.5822  2.1252
 9628TIP3   OH228847   5.139   2.784   0.289  0.0809 -0.3368 -0.5310
 9628TIP3    H128848   5.215   2.732   0.265  1.2842  1.3396 -0.5875
 9628TIP3    H228849   5.174   2.853   0.346 -1.5380  0.0040  0.1201
 9629TIP3   OH228850   6.931   0.503   5.660 -0.5731 -0.5127  0.2314
 9629TIP3    H128851   6.872   0.545   5.722 -0.1875  1.1211 -0.4596
 9629TIP3    H228852   6.915   0.409   5.671 -2.9575 -0.1396  0.4000
 9630TIP3   OH228853   6.687   6.037   0.989  0.1533 -0.1109 -0.2613
 9630TIP3    H128854   6.631   6.100   0.945 -1.6151 -0.6248  1.1091
 9630TIP3    H228855   6.759   6.022   0.929  0.1231  2.4415 -1.0541
 9631TIP3   OH228856   1.694   5.836   5.620 -0.0581 -0.3839  0.4072
 9631TIP3    H128857   1.735   5.922   5.626 -0.7551 -0.0157  0.0509
 9631TIP3    H228858   1.633   5.834   5.694  1.3416 -1.3651  1.6137
 9632TIP3   OH228859   4.678   6.451   1.902 -0.3522 -0.1281  0.3847
 9632TIP3    H128860   4.647   6.366   1.871 -2.1285 -0.0526  1.7597
 9632TIP3    H228861   4.624   6.514   1.855  1.3932  0.3166 -1.1019
 9633TIP3   OH228862   1.573   3.588   2.024  0.0563 -0.6956 -0.1987
 9633TIP3    H128863   1.518   3.608   1.949 -0.1516  0.8095  0.3169
 9633TIP3    H228864   1.584   3.493   2.022 -1.4136 -0.8692 -1.0929
 9634TIP3   OH228865   6.238   6.511   5.655 -0.3837  0.2074  0.1380
 9634TIP3    H128866   6.256   6.550   5.741 -2.3882  0.9324  0.2880
 9634TIP3    H228867   6.278   6.424   5.659 -0.5521  0.1720  1.8689
 9635TIP3   OH228868   7.123   5.229   1.350  0.3416  0.2243  0.3559
 9635TIP3    H128869   7.068   5.274   1.285  1.4311  1.9588  0.5633
 9635TIP3    H228870   7.150   5.148   1.308 -1.0313  0.1138 -0.3700
 9636TIP3   OH228871   1.735   5.556   0.184 -0.0698 -0.2601 -0.0795
 9636TIP3    H128872   1.690   5.590   0.107 -2.0131  0.3767  1.2448
 9636TIP3    H228873   1.691   5.474   0.204  1.6772 -1.4052 -0.6803
 9637TIP3   OH228874   2.135   3.963   4.207 -0.4424  0.0280 -0.3211
 9637TIP3    H128875   2.043   3.957   4.183 -1.2692  2.5778  1.7090
 9637TIP3    H228876   2.139   3.927   4.296  0.2052  1.1450  0.1327
 9638TIP3   OH228877   0.476   6.174   4.508  0.2921  0.2236 -0.1726
 9638TIP3    H128878   0.560   6.204   4.473  0.0855  0.6765 -0.2878
 9638TIP3    H228879   0.411   6.232   4.468 -0.2037 -0.8927 -1.0617
 9639TIP3   OH228880   3.063   2.306   3.561 -0.4214 -0.2358 -0.0386
 9639TIP3    H128881   2.982   2.259   3.575 -0.0938 -0.3799  1.5550
 9639TIP3    H228882   3.066   2.323   3.467 -2.3670 -0.0648 -0.0967
 9640TIP3   OH228883   2.725   3.107   1.904  0.4053  0.0265  0.4995
 9640TIP3    H128884   2.662   3.096   1.975  1.8940  0.7777  1.9933
 9640TIP3    H228885   2.733   3.202   1.894 -1.0779  0.0023 -1.9393
 9641TIP3   OH228886   1.601   1.924   4.901  0.2692  0.5206  0.4426
 9641TIP3    H128887   1.675   1.918   4.963 -0.5535 -0.0838  1.3946
 9641TIP3    H228888   1.551   2.000   4.931 -0.3972 -0.0637  0.8193
 9642TIP3   OH228889   2.556   3.585   1.700 -0.1842 -0.3167  0.6009
 9642TIP3    H128890   2.465   3.554   1.708 -0.7839 -0.7423 -4.3691
 9642TIP3    H228891   2.607   3.505   1.688 -0.0519  0.0289 -1.5722
 9643TIP3   OH228892   4.345   6.184   1.817  0.5820 -0.0182 -0.2238
 9643TIP3    H128893   4.413   6.132   1.774  1.2451  2.3144 -2.1931
 9643TIP3    H228894   4.273   6.186   1.755  0.0282  0.2931  0.4154
 9644TIP3   OH228895   2.356   2.041   0.796  0.6754  0.4246 -0.0482
 9644TIP3    H128896   2.340   1.957   0.754  0.7635  0.5398 -0.3153
 9644TIP3    H228897   2.270   2.082   0.802  0.4333 -0.2223  1.2569
 9645TIP3   OH228898   5.125   0.139   0.459  0.6251 -0.3644  0.6580
 9645TIP3    H128899   5.194   0.198   0.488  0.6725 -0.6601  1.1564
 9645TIP3    H228900   5.048   0.196   0.448  1.5091  0.4202 -2.2605
 9646TIP3   OH228901   2.744   0.350   5.293  0.3380  0.2830  0.1876
 9646TIP3    H128902   2.777   0.377   5.379  1.4992 -1.7457  0.4626
 9646TIP3    H228903   2.820   0.359   5.235 -0.3753  1.4094 -0.5927
 9647TIP3   OH228904   6.436   5.251   4.263  0.1475 -0.4165 -0.1442
 9647TIP3    H128905   6.429   5.174   4.319 -1.3820 -1.8415 -2.1466
 9647TIP3    H228906   6.355   5.252   4.213  1.1483  1.1368 -1.8669
 9648TIP3   OH228907   1.066   5.041   4.773 -0.2404 -0.8213  0.1067
 9648TIP3    H128908   0.983   4.995   4.766  0.7571 -3.0720  1.7328
 9648TIP3    H228909   1.071   5.069   4.864  0.5523 -0.2961 -0.0888
 9649TIP3   OH228910   5.367   1.727   4.276 -0.4390 -0.3336  0.3708
 9649TIP3    H128911   5.361   1.661   4.345  0.9706 -0.7170  0.1630
 9649TIP3    H228912   5.461   1.741   4.265 -0.6921  1.6927  0.3859
 9650TIP3   OH228913   4.332   5.313   3.585 -0.8016 -0.6921  0.6725
 9650TIP3    H128914   4.410   5.265   3.613  0.4149  0.5737 -0.4152
 9650TIP3    H228915   4.276   5.247   3.545  0.6611 -1.3273 -0.4378
 9651TIP3   OH228916   3.925   2.450   3.916 -1.0477  0.4031  0.6122
 9651TIP3    H128917   3.857   2.517   3.916 -1.4258  0.0497 -0.5525
 9651TIP3    H228918   3.878   2.367   3.910 -0.5694  0.0361  1.7339
 9652TIP3   OH228919   1.282   3.286   2.235  0.0142 -0.0342 -0.0963
 9652TIP3    H128920   1.214   3.352   2.247 -0.1623  0.0566 -1.4943
 9652TIP3    H228921   1.360   3.336   2.211  0.7717 -0.0876  2.0154
 9653TIP3   OH228922   0.565   6.508   4.666 -0.1725  0.0338  0.1568
 9653TIP3    H128923   0.590   6.513   4.574 -0.6947 -0.9435 -0.0533
 9653TIP3    H228924   0.647   6.490   4.712  0.4569  2.5044  0.1484
 9654TIP3   OH228925   7.039   1.071   4.792  0.1178 -0.1764  0.0653
 9654TIP3    H128926   7.078   1.155   4.769  0.6438  0.4539  2.9028
 9654TIP3    H228927   6.949   1.077   4.759  0.2798  1.3354 -0.1719
 9655TIP3   OH228928   4.538   2.225   4.929 -0.7194 -0.0898 -0.1801
 9655TIP3    H128929   4.601   2.198   4.861  1.6158  1.8410  1.0681
 9655TIP3    H228930   4.501   2.307   4.896 -0.6783  0.0874  0.2084
 9656TIP3   OH228931   0.099   4.132   2.647 -0.2482 -0.1212  0.3129
 9656TIP3    H128932   0.138   4.051   2.677  2.1636  0.2894 -1.3891
 9656TIP3    H228933   0.051   4.108   2.568  1.0203  0.1349 -0.5744
 9657TIP3   OH228934   0.667   1.816   3.057 -0.0318 -0.7176 -0.1557
 9657TIP3    H128935   0.608   1.846   3.126 -0.0295 -1.8943  0.3801
 9657TIP3    H228936   0.749   1.796   3.102 -0.0987 -1.7205 -0.4341
 9658TIP3   OH228937   3.300   1.416   0.223 -0.3136 -0.1587 -0.3342
 9658TIP3    H128938   3.312   1.482   0.155 -1.2423 -0.2092 -0.5657
 9658TIP3    H228939   3.283   1.467   0.302  0.1471 -0.1058 -0.2697
 9659TIP3   OH228940   3.956   0.587   5.741  0.0403 -0.3215 -0.1310
 9659TIP3    H128941   3.919   0.528   5.676  0.2034 -0.2606 -0.2813
 9659TIP3    H228942   3.902   0.665   5.736  1.2107  0.4610 -1.5857
 9660TIP3   OH228943   2.781   4.534   4.846 -0.5516 -0.3763  0.0064
 9660TIP3    H128944   2.703   4.561   4.895  0.4541 -0.5038  1.7915
 9660TIP3    H228945   2.780   4.587   4.767 -1.6029  0.7858  0.7639
 9661TIP3   OH228946   5.724   4.192   4.884 -0.1491 -0.0609 -0.4852
 9661TIP3    H128947   5.816   4.206   4.910 -0.1244 -0.0324 -0.5853
 9661TIP3    H228948   5.722   4.217   4.791 -0.1318 -0.6213 -0.6384
 9662TIP3   OH228949   3.741   1.984   3.285 -0.0681  0.4765  0.3874
 9662TIP3    H128950   3.675   1.926   3.247 -0.2133  1.0089 -0.1864
 9662TIP3    H228951   3.819   1.970   3.232 -0.2380  1.1407 -0.0472
 9663TIP3   OH228952   4.946   4.147   4.173  0.3037  0.4207  0.0914
 9663TIP3    H128953   4.971   4.062   4.209 -0.4319  0.0937 -0.1389
 9663TIP3    H228954   5.028   4.185   4.142  0.4140 -1.1341 -1.7518
 9664TIP3   OH228955   6.270   1.122   3.278 -0.1488 -0.0335 -0.3235
 9664TIP3    H128956   6.331   1.053   3.252 -0.3013 -0.8013  1.2064
 9664TIP3    H228957   6.317   1.204   3.261  1.1521 -0.5947  0.4419
 9665TIP3   OH228958   4.632   5.370   4.786 -0.4056 -0.1172 -0.3566
 9665TIP3    H128959   4.661   5.293   4.738 -0.1467 -0.6853  0.6777
 9665TIP3    H228960   4.671   5.444   4.739  2.6104 -0.8178  0.8385
 9666TIP3   OH228961   5.653   0.539   1.829  0.4134  0.1661 -0.3009
 9666TIP3    H128962   5.745   0.565   1.820 -0.2219  2.3919 -0.9394
 9666TIP3    H228963   5.624   0.524   1.739 -0.5113  2.1331 -0.3877
 9667TIP3   OH228964   1.315   2.365   5.734 -0.4334 -0.2295  0.3805
 9667TIP3    H128965   1.285   2.440   5.682  1.4788  0.2904 -0.0600
 9667TIP3    H228966   1.343   2.300   5.670  0.8390 -0.0572  0.7364
 9668TIP3   OH228967   7.080   5.437   2.166 -0.0439 -0.1528 -0.2247
 9668TIP3    H128968   7.146   5.503   2.188 -1.6346  1.1590  0.8306
 9668TIP3    H228969   7.021   5.481   2.104 -0.7862 -0.7740  0.0224
 9669TIP3   OH228970   0.091   5.373   2.608 -0.3235 -0.5651  0.0738
 9669TIP3    H128971   0.167   5.408   2.655 -0.8089  0.4562  0.1241
 9669TIP3    H228972   0.119   5.287   2.578  0.1719 -1.0661  1.8292
 9670TIP3   OH228973   2.771   6.083   4.911 -0.3971  0.1916 -0.5739
 9670TIP3    H128974   2.818   6.124   4.983 -0.9573 -1.5090  0.8440
 9670TIP3    H228975   2.726   6.156   4.867 -0.4445  1.2336  1.1056
 9671TIP3   OH228976   6.609   2.648   5.518 -0.2647 -0.4600  0.3414
 9671TIP3    H128977   6.648   2.626   5.602  1.7810 -0.5152 -0.5492
 9671TIP3    H228978   6.539   2.583   5.506  0.0788 -1.0709  1.5434
 9672TIP3   OH228979   6.336   2.321   2.221 -0.3658  0.0832  0.1737
 9672TIP3    H128980   6.368   2.276   2.299 -2.2961  0.8434  1.4797
 9672TIP3    H228981   6.402   2.388   2.203  0.3704 -0.4567  0.8207
 9673TIP3   OH228982   5.574   2.321   4.606  0.1578 -0.2023 -0.4414
 9673TIP3    H128983   5.565   2.274   4.523 -0.5462 -1.0361  0.0941
 9673TIP3    H228984   5.615   2.257   4.665  1.1567  0.5581 -0.2850
 9674TIP3   OH228985   3.688   2.083   1.417 -0.1164  0.2742 -0.8073
 9674TIP3    H128986   3.675   2.106   1.325  2.6976 -0.2728 -1.4204
 9674TIP3    H228987   3.733   1.998   1.414  1.8970  1.2027  0.9728
 9675TIP3   OH228988   3.840   6.505   0.028 -0.0107  0.4210  0.2950
 9675TIP3    H128989   3.787   6.548   0.095  0.1326  1.0223  0.0279
 9675TIP3    H228990   3.789   6.428   0.003 -0.6067  0.8180  0.2698
 9676TIP3   OH228991   4.057   6.091   0.433  0.1809 -0.7356  0.4393
 9676TIP3    H128992   4.102   6.041   0.365  0.9303 -0.3646  0.6422
 9676TIP3    H228993   3.965   6.091   0.407  0.4048 -0.9155 -0.3716
 9677TIP3   OH228994   5.150   1.145   0.224  0.2533 -0.4530 -0.1862
 9677TIP3    H128995   5.172   1.162   0.132 -0.9661 -1.5585 -0.7112
 9677TIP3    H228996   5.071   1.091   0.220 -0.7668  0.8335  1.5475
 9678TIP3   OH228997   3.870   3.544   4.247 -0.8977  0.2372 -0.0723
 9678TIP3    H128998   3.796   3.604   4.243 -0.0515  1.2334 -3.0392
 9678TIP3    H228999   3.871   3.501   4.162  1.0244 -0.8785  0.4494
 9679TIP3   OH229000   3.251   5.052   0.743 -0.0713 -0.6885  0.0565
 9679TIP3    H129001   3.334   5.006   0.729  0.2699  0.4695 -2.1922
 9679TIP3    H229002   3.188   5.005   0.689 -0.6550 -0.9084  0.9109
 9680TIP3   OH229003   2.780   2.030   1.205 -0.4201 -0.1662 -0.7868
 9680TIP3    H129004   2.733   2.015   1.287 -1.0319  0.2193 -1.0535
 9680TIP3    H229005   2.773   2.124   1.191 -0.4745 -0.2508 -1.3614
 9681TIP3   OH229006   5.744   4.282   4.340 -0.1197  0.1618 -0.3319
 9681TIP3    H129007   5.681   4.280   4.268  0.4428 -0.2807 -0.8266
 9681TIP3    H229008   5.820   4.326   4.303  0.3082 -0.3869 -0.1256
 9682TIP3   OH229009   0.157   0.675   3.583  0.6682  0.4551  0.2111
 9682TIP3    H129010   0.092   0.626   3.535  1.2218 -0.7887  0.6841
 9682TIP3    H229011   0.165   0.758   3.536  2.3171 -1.2446 -2.8388
 9683TIP3   OH229012   0.735   5.418   0.767 -0.5129  0.2064 -0.0099
 9683TIP3    H129013   0.670   5.381   0.827 -0.3226  0.0992  0.1343
 9683TIP3    H229014   0.818   5.378   0.794 -0.3759  0.3936 -0.1453
 9684TIP3   OH229015   6.090   3.003   3.216  0.3458  0.3625 -0.1994
 9684TIP3    H129016   6.147   2.939   3.172  0.2272 -0.3716  0.6761
 9684TIP3    H229017   6.058   2.957   3.294 -2.2125  0.3939 -1.1204
 9685TIP3   OH229018   0.987   3.184   2.294  0.0190 -0.2765 -0.2073
 9685TIP3    H129019   0.923   3.125   2.333  0.7596 -0.9860 -0.0136
 9685TIP3    H229020   1.040   3.127   2.238  0.5025  0.2744 -0.3187
 9686TIP3   OH229021   5.627   1.699   0.611 -0.3440  0.1627 -0.5126
 9686TIP3    H129022   5.574   1.627   0.579 -1.3908 -0.2401  1.9164
 9686TIP3    H229023   5.717   1.672   0.594 -0.7809 -0.4713 -2.0147
 9687TIP3   OH229024   6.695   3.118   3.219 -0.2990 -0.1097 -0.0168
 9687TIP3    H129025   6.633   3.128   3.147 -0.5815 -0.1371  0.2260
 9687TIP3    H229026   6.717   3.208   3.243 -0.5645 -0.0967  0.1769
 9688TIP3   OH229027   3.030   3.678   1.859  0.0652 -0.1677  0.4356
 9688TIP3    H129028   3.042   3.622   1.782  1.3543 -0.1211  0.5803
 9688TIP3    H229029   2.969   3.629   1.915  2.2910 -2.1779  1.2472
 9689TIP3   OH229030   1.475   0.692   4.502  0.0210  0.1815 -0.5578
 9689TIP3    H129031   1.533   0.631   4.459 -0.1266 -0.2527 -0.1513
 9689TIP3    H229032   1.407   0.711   4.438  1.1535  1.5179 -1.4307
 9690TIP3   OH229033   2.890   2.321   0.318 -0.2050  0.5273 -0.8296
 9690TIP3    H129034   2.805   2.290   0.350  0.0272  1.2437  0.5795
 9690TIP3    H229035   2.872   2.406   0.278 -0.4504 -0.2437 -2.4219
 9691TIP3   OH229036   2.125   6.183   0.930 -0.4548 -0.2432  0.1271
 9691TIP3    H129037   2.032   6.167   0.912  0.0789 -2.6212 -1.0570
 9691TIP3    H229038   2.170   6.111   0.884  2.0345  1.3474 -0.1087
 9692TIP3   OH229039   5.129   6.215   1.647  0.3309 -0.2322 -0.1129
 9692TIP3    H129040   5.056   6.240   1.704  0.1946 -0.3718 -0.2272
 9692TIP3    H229041   5.139   6.121   1.662 -2.6276 -1.2942 -3.6441
 9693TIP3   OH229042   3.068   6.532   1.289  0.0032 -0.5162  0.1060
 9693TIP3    H129043   3.145   6.529   1.232  1.6683 -1.5549  2.2212
 9693TIP3    H229044   3.105   6.542   1.377 -2.2951 -1.2231  1.2304
 9694TIP3   OH229045   7.041   1.905   1.062  0.2542  0.0973  0.3284
 9694TIP3    H129046   6.987   1.925   0.985 -1.1696  1.0467  1.5319
 9694TIP3    H229047   7.059   1.990   1.102 -1.3113 -0.5070  2.5074
 9695TIP3   OH229048   5.630   0.084   3.293 -0.2378  0.2110  0.0245
 9695TIP3    H129049   5.692   0.012   3.298 -0.1405  0.3128  0.3207
 9695TIP3    H229050   5.582   0.080   3.375  1.4984  2.0187  1.2479
 9696TIP3   OH229051   1.666   2.306   5.149  0.0135 -0.2512 -0.0262
 9696TIP3    H129052   1.582   2.294   5.193 -0.4472  0.2966 -0.7376
 9696TIP3    H229053   1.646   2.359   5.072  0.5123 -2.4765 -1.8190
 9697TIP3   OH229054   6.251   5.093   2.471  0.1420 -0.3737 -0.5203
 9697TIP3    H129055   6.214   5.071   2.557 -0.8083  3.3691  0.2027
 9697TIP3    H229056   6.345   5.077   2.481 -0.1325 -1.3836  0.7061
 9698TIP3   OH229057   5.070   0.390   2.144 -0.3324 -0.5190  0.4825
 9698TIP3    H129058   5.067   0.375   2.049  1.7554 -0.7261  0.4080
 9698TIP3    H229059   5.067   0.302   2.182 -2.0146 -0.4081  0.6886
 9699TIP3   OH229060   0.303   6.142   1.293 -0.6248  0.1146  0.0546
 9699TIP3    H129061   0.249   6.065   1.311  0.9113 -1.0209  0.0084
 9699TIP3    H229062   0.393   6.111   1.301  0.0945  1.2651 -2.5194
 9700TIP3   OH229063   3.751   0.223   1.806 -0.5214  0.1663  0.0293
 9700TIP3    H129064   3.657   0.225   1.821 -0.5717  0.9338 -0.3341
 9700TIP3    H229065   3.761   0.193   1.716 -0.3497 -1.2989  0.5140
 9701TIP3   OH229066   0.977   0.886   1.336  0.4071 -0.4350  0.1576
 9701TIP3    H129067   0.917   0.813   1.338 -0.3558  0.1071 -1.6249
 9701TIP3    H229068   0.922   0.963   1.351  1.1292 -0.1425  1.5275
 9702TIP3   OH229069   5.490   0.249   5.470  0.1559 -0.2051  0.1558
 9702TIP3    H129070   5.578   0.237   5.432 -0.3145  1.1221 -1.4892
 9702TIP3    H229071   5.431   0.216   5.403 -0.6378 -0.9961  1.2140
 9703TIP3   OH229072   1.448   1.729   2.825  0.1740  0.5520  0.4120
 9703TIP3    H129073   1.390   1.779   2.769 -1.0616 -1.0457  0.1694
 9703TIP3    H229074   1.533   1.731   2.781 -0.9056 -1.2260 -1.9758
 9704TIP3   OH229075   4.846   3.068   3.635  0.2522 -0.5096  0.3175
 9704TIP3    H129076   4.751   3.078   3.630  0.3907  2.5502  1.4480
 9704TIP3    H229077   4.875   3.071   3.544 -0.5364  3.8020 -0.0358
 9705TIP3   OH229078   7.147   1.068   5.227 -0.4036 -0.1320  0.0818
 9705TIP3    H129079   7.128   1.016   5.149  0.7602 -1.6878  0.7721
 9705TIP3    H229080   7.190   1.146   5.193 -0.8959 -0.2654 -0.9011
 9706TIP3   OH229081   1.788   6.551   5.494 -0.5959 -0.2224  0.2449
 9706TIP3    H129082   1.723   6.619   5.477 -0.5242 -0.0335  0.7121
 9706TIP3    H229083   1.737   6.479   5.533 -0.4658  0.1041  1.0456
 9707TIP3   OH229084   1.172   3.508   2.939  0.4234 -0.3432 -0.0182
 9707TIP3    H129085   1.244   3.470   2.888  0.2407 -0.7217  0.0010
 9707TIP3    H229086   1.094   3.491   2.887  0.3299 -0.0539  0.0265
 9708TIP3   OH229087   1.583   1.828   0.334 -0.2108  0.0199 -0.2186
 9708TIP3    H129088   1.576   1.830   0.429 -1.1565 -0.2416 -0.2720
 9708TIP3    H229089   1.493   1.815   0.303 -0.0122  0.7589 -1.1734
 9709TIP3   OH229090   2.275   4.796   0.741  0.1968 -0.2384  0.8159
 9709TIP3    H129091   2.230   4.747   0.672 -1.8470  0.4426  1.6084
 9709TIP3    H229092   2.237   4.884   0.737  4.5598  1.9029 -1.3589
 9710TIP3   OH229093   0.504   1.531   0.896  0.5190 -0.6613  0.0790
 9710TIP3    H129094   0.422   1.483   0.881  1.3845 -2.0182 -0.4362
 9710TIP3    H229095   0.482   1.622   0.877 -0.8966 -0.9914  0.0328
 9711TIP3   OH229096   0.564   5.779   0.102 -0.7245 -0.2145  0.0344
 9711TIP3    H129097   0.570   5.834   0.180 -0.0154 -0.1632 -0.0503
 9711TIP3    H229098   0.474   5.792   0.070 -0.9467 -0.0645  0.7079
 9712TIP3   OH229099   1.538   0.584   4.056 -0.1195  0.5781 -0.4116
 9712TIP3    H129100   1.468   0.538   4.011 -2.1683  0.5024  2.5342
 9712TIP3    H229101   1.521   0.569   4.149  2.6668  2.2755  0.5228
 9713TIP3   OH229102   5.728   1.194   1.600  0.2472  0.4823  0.4589
 9713TIP3    H129103   5.641   1.224   1.572 -0.1260 -0.7420  0.2374
 9713TIP3    H229104   5.751   1.251   1.673 -2.1448 -1.1204  2.6371
 9714TIP3   OH229105   5.770   3.284   0.835 -0.5137 -0.2010 -0.1837
 9714TIP3    H129106   5.787   3.202   0.882 -3.1601 -0.7698 -0.0506
 9714TIP3    H229107   5.779   3.260   0.742  2.1660  0.2919 -0.1214
 9715TIP3   OH229108   0.417   3.304   1.167 -0.4572  0.3539  0.0714
 9715TIP3    H129109   0.452   3.359   1.236  0.8265 -1.0440  0.5917
 9715TIP3    H229110   0.471   3.323   1.091 -0.3823  0.2313  0.0935
 9716TIP3   OH229111   4.808   3.917   5.529  0.3040 -0.4127  0.0081
 9716TIP3    H129112   4.764   3.851   5.582  1.2492 -0.6045  0.5788
 9716TIP3    H229113   4.867   3.867   5.472  0.2108 -0.1270 -0.3447
 9717TIP3   OH229114   1.421   1.274   0.814 -0.0647  0.1265 -0.0414
 9717TIP3    H129115   1.423   1.370   0.815 -2.7242  0.2503 -0.1240
 9717TIP3    H229116   1.344   1.251   0.866 -0.3211 -1.9052 -1.2008
 9718TIP3   OH229117   0.983   0.656   0.638 -0.5463 -1.1189 -0.1855
 9718TIP3    H129118   1.022   0.674   0.552 -3.9435  1.1839 -1.4683
 9718TIP3    H229119   1.029   0.716   0.698 -1.7168  1.3554 -1.5936
 9719TIP3   OH229120   4.229   2.182   2.037 -0.4446 -0.5616  0.3454
 9719TIP3    H129121   4.163   2.251   2.052 -1.3253 -1.0275 -1.1083
 9719TIP3    H229122   4.178   2.108   2.005  0.8520 -0.6893 -1.5680
 9720TIP3   OH229123   6.608   6.114   0.009 -0.4980  0.0879 -1.1701
 9720TIP3    H129124   6.577   6.038   0.058 -0.3708  1.7073  1.6355
 9720TIP3    H229125   6.687   6.083  -0.035  0.9885 -0.9167  1.8774
 9721TIP3   OH229126   6.968   6.510   2.913 -0.0786 -0.3105 -0.6688
 9721TIP3    H129127   6.991   6.417   2.910 -1.1902 -0.7337  1.8473
 9721TIP3    H229128   7.050   6.555   2.933  0.1153 -0.9539  0.0247
 9722TIP3   OH229129   0.757   0.184   5.797  0.1787  0.6663  0.1995
 9722TIP3    H129130   0.726   0.107   5.749  1.0091  0.4143  0.0516
 9722TIP3    H229131   0.709   0.181   5.880 -1.1367  1.0052 -0.5070
 9723TIP3   OH229132   0.706   4.087   5.014 -0.4645 -1.0531  0.1022
 9723TIP3    H129133   0.753   4.055   5.091  1.9641  0.3964 -0.6840
 9723TIP3    H229134   0.615   4.060   5.028 -0.2380 -0.3509  3.7237
 9724TIP3   OH229135   7.018   2.580   4.227  0.5747 -0.2744 -0.1252
 9724TIP3    H129136   6.998   2.601   4.318 -0.9935 -1.2456 -0.2121
 9724TIP3    H229137   7.015   2.484   4.223  2.1777 -0.3446 -0.8879
 9725TIP3   OH229138   1.746   0.122   2.668 -0.1226 -0.0983 -0.0329
 9725TIP3    H129139   1.801   0.116   2.746 -1.3908 -0.1692  0.8724
 9725TIP3    H229140   1.667   0.074   2.690 -0.0867 -1.0274 -1.7572
 9726TIP3   OH229141   3.015   1.097   5.119 -0.5188 -0.2282  0.3639
 9726TIP3    H129142   2.934   1.147   5.131 -0.5636 -0.1107 -0.3831
 9726TIP3    H229143   3.030   1.099   5.025  1.3846  1.3949  0.6481
 9727TIP3   OH229144   3.987   5.909   4.876  0.0834  0.6567  0.1558
 9727TIP3    H129145   3.939   5.989   4.898 -2.2441 -0.2222 -1.2388
 9727TIP3    H229146   3.960   5.846   4.943  0.3543  0.5058  0.1249
 9728TIP3   OH229147   4.277   5.266   2.283 -0.2197  0.2491 -0.2462
 9728TIP3    H129148   4.304   5.191   2.337  1.4047 -0.0950 -1.4712
 9728TIP3    H229149   4.271   5.231   2.194  0.4800  1.5407 -0.8335
 9729TIP3   OH229150   3.702   4.508   2.550 -0.1675  0.3723  0.1916
 9729TIP3    H129151   3.760   4.443   2.511  0.0437 -0.4805  1.8314
 9729TIP3    H229152   3.615   4.485   2.519  0.0730  0.1898 -0.3630
 9730TIP3   OH229153   2.683   2.006   3.911 -0.2974  0.5434  0.3173
 9730TIP3    H129154   2.626   2.011   3.834 -0.0485 -0.8096  0.0128
 9730TIP3    H229155   2.723   1.919   3.905  1.4691  1.2769  0.7528
 9731TIP3   OH229156   2.364   2.496   2.867 -0.2686  0.3027 -0.0026
 9731TIP3    H129157   2.311   2.500   2.788 -1.3835 -1.0355  0.6473
 9731TIP3    H229158   2.319   2.434   2.924 -0.2130  2.1516  2.2112
 9732TIP3   OH229159   6.493   6.709   3.862  0.5641  0.5934 -0.0352
 9732TIP3    H129160   6.577   6.684   3.901 -0.4085  0.1695  1.9509
 9732TIP3    H229161   6.509   6.709   3.768  2.5553 -0.3394  0.2477
 9733TIP3   OH229162   2.567   5.418   2.200 -0.1746  0.5841  0.0498
 9733TIP3    H129163   2.581   5.503   2.158 -0.1067  0.5185 -0.0611
 9733TIP3    H229164   2.611   5.355   2.143 -2.7094  0.0700 -1.5231
 9734TIP3   OH229165   0.581   5.263   0.321 -0.0215  0.5262  0.2471
 9734TIP3    H129166   0.571   5.319   0.244  0.6379 -0.6202 -0.6976
 9734TIP3    H229167   0.654   5.303   0.370  1.5706 -0.3840 -1.2717
 9735TIP3   OH229168   5.340   5.285   2.690  0.1233 -0.4365  0.8250
 9735TIP3    H129169   5.293   5.202   2.699  0.3035 -0.7338 -0.6686
 9735TIP3    H229170   5.271   5.351   2.688 -0.0970 -0.6628  0.8774
 9736TIP3   OH229171   3.299   5.576   1.318  0.1087  0.1267  0.1836
 9736TIP3    H129172   3.232   5.552   1.382  1.4479  0.9430  1.9840
 9736TIP3    H229173   3.266   5.657   1.279 -1.4128 -1.1305 -1.3287
 9737TIP3   OH229174   5.669   2.028   0.306  0.0419 -0.2680  0.5337
 9737TIP3    H129175   5.678   2.123   0.304 -0.8637 -0.1639  0.7203
 9737TIP3    H229176   5.728   1.999   0.376  0.8855  0.0706 -0.0219
 9738TIP3   OH229177   6.686   1.729   1.148  0.2593 -0.0828  0.1852
 9738TIP3    H129178   6.652   1.732   1.058 -0.4932 -0.6598  0.4417
 9738TIP3    H229179   6.692   1.635   1.168  0.8901  0.0357  0.5654
 9739TIP3   OH229180   1.198   1.470   1.716  0.4160  0.0794 -0.8335
 9739TIP3    H129181   1.264   1.492   1.649  1.1736 -0.6347 -0.3449
 9739TIP3    H229182   1.240   1.495   1.798 -1.2767  2.8338 -0.6841
 9740TIP3   OH229183   1.949   1.673   2.724 -0.2885 -0.2399 -0.0515
 9740TIP3    H129184   1.897   1.625   2.787 -0.4101 -1.1732 -0.8471
 9740TIP3    H229185   1.901   1.755   2.710 -0.1317  0.0951  1.2182
 9741TIP3   OH229186   4.124   2.786   4.981  0.4515 -0.0382 -0.8744
 9741TIP3    H129187   4.159   2.734   4.909  1.9259  0.7559 -0.7806
 9741TIP3    H229188   4.201   2.806   5.035 -0.3954  0.5730  0.1458
 9742TIP3   OH229189   7.045   6.516   5.910  0.1102 -1.0932 -0.5905
 9742TIP3    H129190   7.008   6.520   5.821  0.4881  2.1050 -0.7064
 9742TIP3    H229191   7.140   6.515   5.896  0.1655 -1.1360 -0.2097
 9743TIP3   OH229192   3.993   2.009   5.670 -0.3831  0.5088 -0.5838
 9743TIP3    H129193   3.963   1.998   5.760 -0.2008 -0.3174 -0.6164
 9743TIP3    H229194   3.943   1.945   5.619 -1.6529  2.0379 -1.3627
 9744TIP3   OH229195   3.668   4.130   0.016 -0.1928 -0.1295  0.2988
 9744TIP3    H129196   3.750   4.155  -0.027 -0.9459  0.7353 -0.6878
 9744TIP3    H229197   3.679   4.037   0.035  0.3069 -0.4843 -1.5198
 9745TIP3   OH229198   0.327   3.459   1.775 -0.4657 -0.2513  0.4256
 9745TIP3    H129199   0.324   3.372   1.737  0.1226 -0.1457  0.1167
 9745TIP3    H229200   0.411   3.495   1.745 -1.4828  1.1024 -0.9409
 9746TIP3   OH229201   4.709   4.907   3.652  0.0831  0.4221 -0.0770
 9746TIP3    H129202   4.687   4.818   3.626  1.4513 -0.0161  0.1871
 9746TIP3    H229203   4.720   4.954   3.569  2.8380 -0.5712 -0.3840
 9747TIP3   OH229204   6.126   2.375   1.423 -0.3697  0.3601  0.1866
 9747TIP3    H129205   6.073   2.446   1.388 -2.2534 -1.1447 -0.1695
 9747TIP3    H229206   6.104   2.372   1.516 -2.1197 -1.1322 -0.1953
 9748TIP3   OH229207   3.755   1.245   0.468  0.0294 -0.0413  0.3444
 9748TIP3    H129208   3.805   1.283   0.395 -0.7460  0.3714  0.0143
 9748TIP3    H229209   3.804   1.166   0.492 -0.0349 -0.5356 -1.0465
 9749TIP3   OH229210   2.539   2.347   4.858  0.3545 -0.5312  0.3025
 9749TIP3    H129211   2.624   2.313   4.830  0.8920  0.2216  0.9717
 9749TIP3    H229212   2.484   2.343   4.780  1.3742  0.1321 -0.4632
   7.20830   6.79606   5.88555   0.00000   0.00000  -2.40277   0.00000  -2.40277  -3.39803
