Title
44400
    1GLY      N    1   6.332   4.688   3.757 -0.0607  0.3714 -0.4950
    1GLY    HT1    2   6.289   4.768   3.809 -1.9151 -2.9373  3.3087
    1GLY    HT2    3   6.338   4.706   3.655  0.7904 -0.4651 -0.6009
    1GLY    HT3    4   6.434   4.693   3.778 -0.3054 -0.7246  1.0601
    1GLY     CA    5   6.289   4.548   3.800 -0.5784  0.3031 -0.4432
    1GLY    HA1    6   6.271   4.558   3.906  1.8362  2.1582 -0.1373
    1GLY    HA2    7   6.367   4.477   3.777  1.6507  2.1019  1.2420
    1GLY      C    8   6.158   4.515   3.737 -0.5225  0.7492  0.9388
    1GLY      O    9   6.088   4.601   3.678  0.4826  0.0452 -0.5147
    2ASP      N   10   6.109   4.395   3.763 -0.1440  0.4142  0.8618
    2ASP     HN   11   6.156   4.322   3.813 -0.3576 -1.4845 -1.5952
    2ASP     CA   12   5.974   4.356   3.723 -0.6649 -0.6381  0.1470
    2ASP     HA   13   5.957   4.389   3.621  0.8477 -0.6758 -0.1200
    2ASP     CB   14   5.961   4.204   3.734 -0.4386  0.1808  0.1576
    2ASP    HB1   15   5.855   4.171   3.726 -1.0576  2.6142 -2.6890
    2ASP    HB2   16   5.990   4.175   3.837  0.3738  1.5266  0.3227
    2ASP     CG   17   6.040   4.130   3.633  0.0432  0.3466  0.1896
    2ASP    OD1   18   6.070   4.010   3.654  0.5851 -0.5694 -0.7101
    2ASP    OD2   19   6.062   4.182   3.519  0.3796  0.4693 -0.0441
    2ASP      C   20   5.875   4.426   3.808  0.1432 -0.1861  0.3176
    2ASP      O   21   5.909   4.466   3.919 -0.2449 -0.2595  0.6287
    3SER      N   22   5.750   4.444   3.754 -0.1687 -0.3313  0.1981
    3SER     HN   23   5.729   4.412   3.662 -2.0386 -1.9880  1.1634
    3SER     CA   24   5.652   4.525   3.808 -0.3912  0.2160 -0.5967
    3SER     HA   25   5.703   4.617   3.835 -1.0505  0.3982  0.0460
    3SER     CB   26   5.540   4.547   3.702 -0.0574  0.5527  0.1875
    3SER    HB1   27   5.442   4.579   3.745  0.4812  0.5458  1.4369
    3SER    HB2   28   5.516   4.451   3.652 -0.8204  1.2523 -0.8068
    3SER     OG   29   5.577   4.644   3.600 -0.0365  0.4921  0.5593
    3SER    HG1   30   5.493   4.684   3.580  0.1841  0.0919 -1.2445
    3SER      C   31   5.585   4.460   3.926 -0.3160 -0.0131  0.8762
    3SER      O   32   5.577   4.339   3.942 -0.0140 -0.4404 -0.5213
    4GLY      N   33   5.531   4.544   4.019  0.4496 -0.9574 -1.1144
    4GLY     HN   34   5.523   4.642   4.002  1.1627 -0.6512  0.1772
    4GLY     CA   35   5.432   4.504   4.121 -0.0027 -0.7110  0.6128
    4GLY    HA1   36   5.389   4.587   4.176  0.9745  0.0649  0.2124
    4GLY    HA2   37   5.490   4.439   4.185 -1.3972 -1.7260  0.8567
    4GLY      C   38   5.313   4.437   4.057 -0.5035 -0.6890 -0.2083
    4GLY      O   39   5.280   4.470   3.940 -0.0359 -0.4059 -0.4685
    5SER      N   40   5.247   4.345   4.123  0.5669 -0.4725 -1.2825
    5SER     HN   41   5.274   4.338   4.219  0.1709  1.1706 -1.0385
    5SER     CA   42   5.124   4.280   4.078  0.1241 -0.2642 -0.6088
    5SER     HA   43   5.128   4.234   3.980 -0.3495 -1.1002 -0.2367
    5SER     CB   44   5.074   4.166   4.178 -0.8978 -0.3663 -0.3481
    5SER    HB1   45   4.964   4.151   4.177 -0.8598 -1.0024  2.4676
    5SER    HB2   46   5.100   4.202   4.280 -1.5142  0.0712 -0.3445
    5SER     OG   47   5.154   4.050   4.161 -0.3383  0.1540  0.2330
    5SER    HG1   48   5.099   3.985   4.205 -0.5163 -1.0730 -1.7471
    5SER      C   49   5.013   4.385   4.069  0.5145  0.7540  1.4025
    5SER      O   50   5.009   4.482   4.145 -0.0904 -0.2833  0.2757
    6GLY      N   51   4.930   4.375   3.962  0.4081  0.2911  0.2984
    6GLY     HN   52   4.926   4.299   3.899 -0.6717  0.3200  0.3332
    6GLY     CA   53   4.814   4.463   3.951  0.2946  0.2906 -0.0004
    6GLY    HA1   54   4.768   4.438   3.857 -1.0123 -1.7699  1.1541
    6GLY    HA2   55   4.856   4.563   3.952  1.6885 -0.2647  3.4941
    6GLY      C   56   4.715   4.442   4.064 -0.8103 -0.1912 -0.3429
    6GLY      O   57   4.724   4.346   4.134  0.2847  0.6310 -0.1030
    7PRO      N   58   4.621   4.535   4.087 -0.3492 -0.0865  0.0209
    7PRO     CD   59   4.612   4.658   4.006 -0.0065 -0.2125  1.2018
    7PRO    HD1   60   4.638   4.646   3.899  0.8590  0.6117  1.3199
    7PRO    HD2   61   4.679   4.742   4.033  1.6752 -0.2316 -2.6311
    7PRO     CA   62   4.517   4.517   4.183  0.3862  0.2634  0.6299
    7PRO     HA   63   4.565   4.530   4.280 -1.8311 -1.5739  2.0206
    7PRO     CB   64   4.426   4.637   4.149  0.4089 -0.6378 -0.0972
    7PRO    HB1   65   4.437   4.720   4.222 -2.0403  0.2480 -0.7009
    7PRO    HB2   66   4.317   4.623   4.133  0.1219  1.9763 -0.6450
    7PRO     CG   67   4.469   4.686   4.011 -0.3842  0.1708 -0.0052
    7PRO    HG1   68   4.408   4.618   3.947  0.9485  0.6368 -1.7993
    7PRO    HG2   69   4.431   4.789   3.991  0.0131  0.1260 -1.0462
    7PRO      C   70   4.439   4.387   4.174 -0.0216  1.0015  0.1057
    7PRO      O   71   4.415   4.339   4.061  0.6116  0.3897 -0.5772
    8GLY      N   72   4.416   4.329   4.296 -0.2406  0.4152 -0.0952
    8GLY     HN   73   4.442   4.378   4.379  1.6858  0.5187 -0.7591
    8GLY     CA   74   4.346   4.198   4.313  0.2817  0.1848  0.2326
    8GLY    HA1   75   4.349   4.164   4.415 -0.8527 -1.3549 -0.2390
    8GLY    HA2   76   4.405   4.127   4.257 -0.4813 -1.1133  1.0659
    8GLY      C   77   4.195   4.213   4.272 -0.1940 -0.1226  0.2315
    8GLY      O   78   4.138   4.319   4.254  0.4178 -0.1691 -0.0764
    9ASP      N   79   4.136   4.092   4.245  0.0774 -0.1796  0.9718
    9ASP     HN   80   4.181   4.005   4.259  0.0944 -0.3943 -0.4041
    9ASP     CA   81   4.000   4.081   4.194 -0.5446 -0.5533 -0.3485
    9ASP     HA   82   3.994   4.125   4.096 -0.0436 -0.2823 -0.2625
    9ASP     CB   83   3.949   3.932   4.170  0.2299  0.2639  1.3032
    9ASP    HB1   84   3.842   3.932   4.139  0.9516  0.6695 -1.2974
    9ASP    HB2   85   3.964   3.873   4.263 -0.5479  0.2691  1.4338
    9ASP     CG   86   4.025   3.857   4.056  0.3260 -0.3924  0.0794
    9ASP    OD1   87   4.085   3.927   3.972 -0.1131  0.5158 -0.0182
    9ASP    OD2   88   4.015   3.736   4.042  0.2872  0.0237  0.2048
    9ASP      C   89   3.897   4.152   4.287 -0.8817 -0.0607  1.0719
    9ASP      O   90   3.921   4.152   4.402  0.4231 -0.9301  0.2214
   10PRO      N   91   3.794   4.210   4.235 -0.7559  0.0578 -0.6324
   10PRO     CD   92   3.779   4.250   4.096 -0.2860 -0.5849 -0.1073
   10PRO    HD1   93   3.740   4.162   4.039 -0.9585  0.3853 -1.1552
   10PRO    HD2   94   3.880   4.282   4.061  0.0672  0.2822  1.6647
   10PRO     CA   95   3.689   4.267   4.313  0.2311  0.2554  0.4932
   10PRO     HA   96   3.739   4.338   4.376 -0.2883  0.3667  0.7854
   10PRO     CB   97   3.590   4.335   4.212 -0.9451 -0.2399  0.4969
   10PRO    HB1   98   3.546   4.424   4.261  0.5780  1.3628 -1.0138
   10PRO    HB2   99   3.516   4.257   4.184 -0.7871  0.9009 -3.2571
   10PRO     CG  100   3.680   4.369   4.091 -0.0209  0.1297  0.2582
   10PRO    HG1  101   3.647   4.399   3.990  1.4004 -0.0836 -0.2786
   10PRO    HG2  102   3.741   4.458   4.119 -0.0796 -0.2935  1.7935
   10PRO      C  103   3.615   4.164   4.399  0.4489  0.4852 -1.1418
   10PRO      O  104   3.593   4.048   4.361 -0.0313  0.1370 -0.1540
   11GLY      N  105   3.578   4.214   4.524 -0.8891  0.3115 -0.0076
   11GLY     HN  106   3.603   4.305   4.557 -0.4068  0.3037 -0.3422
   11GLY     CA  107   3.491   4.146   4.618 -0.2831  0.7130  0.6378
   11GLY    HA1  108   3.455   4.228   4.678 -0.7027  0.4019  0.8201
   11GLY    HA2  109   3.541   4.064   4.668 -0.7149  0.1055  0.0820
   11GLY      C  110   3.359   4.101   4.557 -0.3808  0.1746  0.0507
   11GLY      O  111   3.305   4.173   4.473  0.6417  0.4498 -0.3178
   12SER      N  112   3.315   3.986   4.605  0.0357  0.6782  0.5002
   12SER     HN  113   3.361   3.933   4.675 -0.8091  0.7651  1.1292
   12SER     CA  114   3.176   3.940   4.576 -0.2256  0.0613 -0.0760
   12SER     HA  115   3.163   3.905   4.475 -0.7741 -0.4408  0.1626
   12SER     CB  116   3.140   3.826   4.674  0.7874  0.1243 -0.4075
   12SER    HB1  117   3.032   3.802   4.669  0.0976  2.7185  1.0897
   12SER    HB2  118   3.159   3.863   4.777 -2.1051 -1.0917  0.5939
   12SER     OG  119   3.211   3.710   4.640  0.4706 -0.2873  0.1364
   12SER    HG1  120   3.158   3.655   4.582  1.5728 -0.8978 -0.3101
   12SER      C  121   3.072   4.046   4.613 -0.3047 -0.2664  0.7014
   12SER      O  122   3.083   4.111   4.714 -0.7127 -0.1746 -0.1238
   13GLY      N  123   2.968   4.062   4.528 -0.3949  0.9070 -0.0506
   13GLY     HN  124   2.966   4.012   4.441  1.1223 -0.0468  0.4500
   13GLY     CA  125   2.861   4.160   4.552  0.3458  0.0892 -0.1471
   13GLY    HA1  126   2.798   4.150   4.466  0.9056  1.1561 -0.6959
   13GLY    HA2  127   2.906   4.256   4.574  0.0579 -0.0392  1.0527
   13GLY      C  128   2.769   4.119   4.668 -0.3062  0.0729  0.8769
   13GLY      O  129   2.781   4.013   4.727 -0.4338  0.1030 -0.0087
   14ASP      N  130   2.672   4.206   4.705  0.8029 -0.0238 -0.7986
   14ASP     HN  131   2.674   4.300   4.672  0.0053  0.5739  0.8430
   14ASP     CA  132   2.575   4.171   4.811 -0.4389  0.2347  0.6477
   14ASP     HA  133   2.635   4.138   4.894  1.2910 -1.8752 -1.3724
   14ASP     CB  134   2.492   4.300   4.837  0.8731 -0.4079  0.7269
   14ASP    HB1  135   2.413   4.275   4.911 -0.1717  0.6547  0.0034
   14ASP    HB2  136   2.453   4.334   4.738  0.4227 -0.1902  0.9760
   14ASP     CG  137   2.565   4.424   4.874 -0.3210 -0.8546 -0.3974
   14ASP    OD1  138   2.683   4.412   4.918  0.1478  0.0518  0.3623
   14ASP    OD2  139   2.509   4.536   4.864 -0.4152  0.1571 -0.4064
   14ASP      C  140   2.481   4.058   4.762 -0.0107  0.4904  0.8682
   14ASP      O  141   2.461   4.026   4.644 -0.2243 -0.3090  0.2756
   15SER      N  142   2.427   3.988   4.864  0.2330  0.3762 -0.1684
   15SER     HN  143   2.437   4.012   4.960  2.6982 -3.1903  0.5678
   15SER     CA  144   2.350   3.873   4.855  0.2202  0.1981 -0.0379
   15SER     HA  145   2.370   3.821   4.762  2.7120 -0.6580  0.9211
   15SER     CB  146   2.388   3.766   4.963  0.1387 -0.2867 -0.1162
   15SER    HB1  147   2.496   3.745   4.949  0.7581  1.1298  2.3666
   15SER    HB2  148   2.332   3.671   4.946  1.2610 -1.0877  0.5844
   15SER     OG  149   2.375   3.816   5.101  0.4240 -0.3202 -0.3314
   15SER    HG1  150   2.295   3.870   5.107 -1.5476 -2.9628 -1.5205
   15SER      C  151   2.203   3.895   4.875  0.3382 -0.0710 -0.1848
   15SER    OT1  152   2.168   3.992   4.948  0.2371  0.1283 -0.0658
   15SER    OT2  153   2.118   3.817   4.824  0.0898 -0.0553 -0.3598
   16SOD    SOD  154   4.486   5.440   2.608  0.0904 -0.2346  0.6399
   17SOD    SOD  155   6.181   3.292   3.749  0.5257  0.1172  0.0405
   18SOD    SOD  156   6.529   4.894   2.630 -0.2936 -0.0404 -0.1583
   19SOD    SOD  157   4.326   7.044   6.759  0.2031  0.2165 -0.5621
   20SOD    SOD  158   7.727   3.872   4.083  0.2060  0.7688 -0.3116
   21SOD    SOD  159   5.367   0.891   3.734  0.3285  0.2447 -0.1252
   22SOD    SOD  160   7.909   1.171   2.307  0.2648 -0.2441  0.3122
   23SOD    SOD  161   7.575   2.674   3.418  0.0222  0.4542 -0.3697
   24SOD    SOD  162   2.894   1.055   6.891 -0.4352 -0.0478  0.0902
   25SOD    SOD  163   5.196   7.373   2.883  0.5503 -0.0429  0.0591
   26SOD    SOD  164   1.126   0.130   1.715  0.1374  0.5160 -0.2548
   27SOD    SOD  165   4.928   2.077   0.642 -0.2705 -0.3483 -0.3691
   28SOD    SOD  166   2.661   3.509   2.193  0.1372  0.0887  0.5916
   29SOD    SOD  167   1.408   1.866   6.230  0.1334 -0.3708  0.0177
   30SOD    SOD  168   3.026   2.664   4.753  0.0020  0.1227 -0.2972
   31SOD    SOD  169   4.053   1.468   0.464 -0.3005 -0.0371 -0.4654
   32SOD    SOD  170   4.650   0.047   5.307 -0.1310 -0.3273 -0.1676
   33SOD    SOD  171   2.609   6.359   6.205  0.0252  0.1753  0.0736
   34SOD    SOD  172   7.852   0.448   5.372 -0.5044  0.2252 -0.1364
   35SOD    SOD  173   1.465   7.278   0.277 -0.1986 -0.3102  0.1435
   36SOD    SOD  174   6.090   5.804   5.365 -0.0305  0.0319 -0.6358
   37SOD    SOD  175   0.083   4.268   1.261 -0.0947 -0.2568  0.1407
   38SOD    SOD  176   4.695   7.592   5.869 -0.2246 -0.1162  0.0829
   39SOD    SOD  177   3.510   7.378   1.864  0.0785 -0.9620  0.3611
   40SOD    SOD  178   7.863   7.354   1.941 -0.0867  0.2153 -0.2964
   41SOD    SOD  179   3.556   2.789   2.972 -0.1516 -0.1493  0.0933
   42SOD    SOD  180   5.135   6.618   0.048 -0.4752  0.0662 -0.5364
   43SOD    SOD  181   3.159   6.477   2.928 -0.2751  0.2494 -0.0335
   44SOD    SOD  182   4.730   0.303   3.686 -0.2202  0.0309  0.2280
   45SOD    SOD  183   5.247   5.845   5.513  0.6630 -0.3476 -0.2268
   46SOD    SOD  184   3.867   4.049   2.064  0.4806 -0.3712 -0.3011
   47SOD    SOD  185   5.873   6.193   4.557  1.0270 -0.0093 -0.1523
   48SOD    SOD  186   4.732   1.746   4.958 -0.2609 -0.9082 -0.1256
   49SOD    SOD  187   7.990   1.709   6.618  0.1732 -0.6452 -0.1928
   50SOD    SOD  188   4.086   0.815   6.721 -0.1334  0.0595  0.4077
   51SOD    SOD  189   1.300   3.070   3.317  0.3196 -0.3786  0.0245
   52SOD    SOD  190   8.479   3.753   5.919  0.1855 -0.8357 -0.1100
   53SOD    SOD  191   2.887   3.234   0.841  0.5458  0.1858  0.0422
   54SOD    SOD  192   3.092   4.112   4.941  0.0038 -0.5435 -0.6560
   55SOD    SOD  193   0.768   5.492   4.295 -0.2292  0.3335 -0.3186
   56SOD    SOD  194   6.595   4.315   4.021  0.7428 -0.0014  0.0434
   57SOD    SOD  195   6.453   5.197   4.181  0.3602  0.4721 -0.0233
   58SOD    SOD  196   2.185   1.192   5.079 -0.5968 -0.2535  0.0097
   59SOD    SOD  197   0.192   2.948   5.188  0.3730  0.2664  0.4255
   60SOD    SOD  198   1.855   1.550   3.058 -0.1236 -0.1479  0.3687
   61CLA    CLA  199   5.266   3.413   6.681 -0.4182  0.2199 -0.1697
   62CLA    CLA  200   6.150   6.099   4.965  0.0592  0.1171 -0.5324
   63CLA    CLA  201   0.661   5.183   3.908 -0.0460 -0.1345  0.1641
   64CLA    CLA  202   0.177   2.505   2.002  0.1967 -0.4340  0.2142
   65CLA    CLA  203   8.339   0.528   6.359  0.3026  0.1616  0.2694
   66CLA    CLA  204   4.479   4.972   1.186  0.1285  0.3323 -0.0022
   67CLA    CLA  205   1.555   2.120   2.774 -0.1828  0.2187 -0.2533
   68CLA    CLA  206   7.638   7.191   1.975 -0.0626  0.0273  0.1268
   69CLA    CLA  207   4.939   6.537   5.514 -0.4397 -0.2442 -0.2856
   70CLA    CLA  208   5.279   5.139   4.768  0.6988  0.3520  0.0317
   71CLA    CLA  209   4.294   7.147   2.325 -0.2461 -0.2297  0.3344
   72CLA    CLA  210   6.341   4.223   3.968 -0.1073  0.1122 -0.1199
   73CLA    CLA  211   7.185   1.922   2.078 -0.1086 -0.6030  0.4038
   74CLA    CLA  212   3.717   2.165   5.224 -0.1599  0.2168 -0.2201
   75CLA    CLA  213   1.132   7.820   6.099 -0.0043  0.1668 -0.4892
   76CLA    CLA  214   6.112   0.348   5.112 -0.1062  0.0007 -0.3141
   77CLA    CLA  215   1.067   7.808   3.270 -0.0448 -0.3722  0.3034
   78CLA    CLA  216   0.348   0.768   5.902  0.3037  0.3121  0.0531
   79CLA    CLA  217   6.156   7.378   3.005  0.0505 -0.5321 -0.3402
   80CLA    CLA  218   2.910   0.652   1.685  0.3476 -0.2101  0.1806
   81CLA    CLA  219   6.131   2.514   5.698  0.2042 -0.1518 -0.4371
   82CLA    CLA  220   5.272   0.866   1.753  0.2495  0.0069  0.3937
   83CLA    CLA  221   5.607   4.615   0.764 -0.1153 -0.1015  0.0539
   84CLA    CLA  222   6.714   6.244   1.669  0.2503  0.0643  0.2828
   85CLA    CLA  223   6.342   5.213   2.837 -0.3847  0.1373  0.0535
   86CLA    CLA  224   6.517   5.266   5.725 -0.0340  0.3970 -0.0326
   87CLA    CLA  225   1.484   5.140   5.559 -0.0505 -0.5451 -0.3867
   88CLA    CLA  226   2.870   7.651   0.470  0.2142 -0.0814  0.1237
   89CLA    CLA  227   3.694   0.628   4.342  0.0742  0.4508 -0.2630
   90CLA    CLA  228   4.848   4.433   5.775  0.1191  0.1080  0.2781
   91CLA    CLA  229   8.371   3.601   5.411  0.5069 -0.1831 -0.2767
   92CLA    CLA  230   2.654   3.254   1.715 -0.3826  0.0356  0.1808
   93CLA    CLA  231   4.169   2.712   0.917  0.1260  0.3537  0.1730
   94CLA    CLA  232   2.665   5.210   3.162 -0.2273  0.0344  0.2196
   95CLA    CLA  233   0.946   2.146   3.191  0.1815 -0.3131  0.0669
   96CLA    CLA  234   5.523   1.118   2.553  0.2857 -0.3900 -0.0489
   97CLA    CLA  235   8.091   5.072   2.214 -0.1292 -0.2192  0.1532
   98CLA    CLA  236   3.897   4.207   2.283 -0.2692 -0.0901  0.0538
   99CLA    CLA  237   3.196   7.057   5.841 -0.1161  0.2247 -0.2916
  100CLA    CLA  238   1.969   7.999   4.662  0.0911  0.1417 -0.4441
  101CLA    CLA  239   4.356   0.952   6.814 -0.3140 -0.0759 -0.2520
  102CLA    CLA  240   2.461   2.785   0.229 -0.2953  0.1406 -0.3719
  103TIP3   OH2  241   8.295   7.472   3.596  0.0781  0.5327 -0.4513
  103TIP3    H1  242   8.246   7.495   3.675 -1.8607 -0.8317 -1.2093
  103TIP3    H2  243   8.324   7.382   3.612 -1.5824 -0.2814 -1.8575
  104TIP3   OH2  244   3.214   2.306   2.176 -0.1199  0.0428 -0.1278
  104TIP3    H1  245   3.176   2.345   2.097 -0.0097  0.7316  0.1577
  104TIP3    H2  246   3.180   2.359   2.248  2.1860  1.3172  0.0656
  105TIP3   OH2  247   4.302   0.671   2.057  0.3379 -0.0058 -0.0111
  105TIP3    H1  248   4.358   0.593   2.061  1.7635  1.0063  0.5426
  105TIP3    H2  249   4.215   0.641   2.083  1.2199 -1.1131  1.7348
  106TIP3   OH2  250   3.410   2.012   6.877 -0.3789  0.4123 -0.1270
  106TIP3    H1  251   3.459   1.969   6.807 -0.1695 -0.6890  0.6763
  106TIP3    H2  252   3.476   2.032   6.944 -0.7300  0.5634  0.1775
  107TIP3   OH2  253   0.140   0.734   2.880  0.1528  0.2485  0.8443
  107TIP3    H1  254   0.141   0.658   2.938  0.2433 -0.5161 -0.1462
  107TIP3    H2  255   0.216   0.786   2.906 -0.6423  0.6692  2.3840
  108TIP3   OH2  256   7.437   7.680   0.689 -0.0708 -0.1709 -0.4073
  108TIP3    H1  257   7.434   7.743   0.617 -2.1410 -0.6213 -0.7349
  108TIP3    H2  258   7.517   7.703   0.736  1.4485 -0.0408 -2.9687
  109TIP3   OH2  259   3.300   0.124   2.515 -0.1492 -0.0457  0.1831
  109TIP3    H1  260   3.369   0.119   2.449  0.2442  0.9064  0.5245
  109TIP3    H2  261   3.321   0.054   2.577  1.1187  0.9436  0.8766
  110TIP3   OH2  262   7.689   6.188   0.837 -0.1647 -0.3276 -0.0441
  110TIP3    H1  263   7.687   6.099   0.873 -2.1069 -0.4217 -0.3343
  110TIP3    H2  264   7.723   6.176   0.748 -0.5438 -0.8116 -0.1317
  111TIP3   OH2  265   1.054   0.353   4.125  0.4458 -0.5262  0.1096
  111TIP3    H1  266   1.082   0.382   4.039 -0.3471 -1.8173 -0.6150
  111TIP3    H2  267   1.135   0.343   4.175  0.8405  1.1453 -0.1763
  112TIP3   OH2  268   2.950   0.499   2.308 -0.1147  0.0217 -0.1337
  112TIP3    H1  269   3.008   0.557   2.259  1.1982  1.2241  2.7851
  112TIP3    H2  270   3.006   0.428   2.337 -0.8461 -0.5744 -0.1796
  113TIP3   OH2  271   5.009   0.951   0.412 -0.0322 -0.5897  0.5613
  113TIP3    H1  272   5.076   0.976   0.349  1.8581  0.6292  2.9858
  113TIP3    H2  273   4.999   0.856   0.401 -0.4945 -0.2605 -2.2256
  114TIP3   OH2  274   7.710   3.295   6.091  0.1770 -0.5625 -0.3346
  114TIP3    H1  275   7.682   3.210   6.125 -2.1397 -0.3759 -1.6310
  114TIP3    H2  276   7.640   3.321   6.030  0.9684  2.1481 -0.1804
  115TIP3   OH2  277   6.780   0.834   0.870 -0.0782 -0.2713  0.1937
  115TIP3    H1  278   6.723   0.759   0.888 -0.4457  0.4320  2.0887
  115TIP3    H2  279   6.764   0.855   0.779  1.6907 -3.9149 -1.0859
  116TIP3   OH2  280   1.077   7.784   2.713 -0.3380 -0.1609 -1.0231
  116TIP3    H1  281   1.116   7.767   2.799 -0.9266 -1.3071 -0.9631
  116TIP3    H2  282   1.142   7.751   2.650  0.4824  1.4977 -1.0491
  117TIP3   OH2  283   2.444   7.225   2.657  0.1582 -0.4596  0.2400
  117TIP3    H1  284   2.512   7.259   2.599 -0.2798 -2.7191 -1.6741
  117TIP3    H2  285   2.472   7.136   2.678 -0.5933 -0.2896  2.1111
  118TIP3   OH2  286   5.959   6.814   2.752  0.5097  0.3136  0.0675
  118TIP3    H1  287   5.881   6.850   2.710  1.0186 -0.5971 -1.6966
  118TIP3    H2  288   6.032   6.857   2.707  1.0608  1.3852  1.9024
  119TIP3   OH2  289   2.651   7.517   1.212 -0.5940 -0.2797  0.2063
  119TIP3    H1  290   2.742   7.533   1.186 -0.1651  0.1237  1.8679
  119TIP3    H2  291   2.607   7.600   1.199 -1.0962 -0.8591 -1.9909
  120TIP3   OH2  292   1.575   0.571   0.653  0.1706 -0.0088  0.5100
  120TIP3    H1  293   1.548   0.657   0.685  1.4826  0.3150  0.7722
  120TIP3    H2  294   1.623   0.590   0.573 -0.2707 -0.5672  0.1154
  121TIP3   OH2  295   5.864   2.725   1.894  0.2158  0.1450  0.1133
  121TIP3    H1  296   5.779   2.690   1.869 -0.8079  0.8063  2.5518
  121TIP3    H2  297   5.861   2.817   1.865 -1.2930  1.1467  3.1984
  122TIP3   OH2  298   8.166   4.669   6.705  0.2775 -0.2782  0.0154
  122TIP3    H1  299   8.209   4.638   6.626  0.8408  0.6596 -0.0523
  122TIP3    H2  300   8.075   4.684   6.678  0.8830  1.8554 -0.9731
  123TIP3   OH2  301   5.283   0.242   0.030 -0.9767  0.0774  0.1226
  123TIP3    H1  302   5.348   0.248  -0.040 -0.2825 -2.1117  0.5696
  123TIP3    H2  303   5.332   0.215   0.107 -2.0859  0.4204  0.9687
  124TIP3   OH2  304   6.303   0.879   2.107  0.3249 -0.2679  0.0975
  124TIP3    H1  305   6.233   0.944   2.106  0.3243 -0.2305 -2.7638
  124TIP3    H2  306   6.282   0.823   2.181 -1.4801  1.0855  0.6624
  125TIP3   OH2  307   3.132   0.856   2.378 -0.0005  0.0516  0.4850
  125TIP3    H1  308   3.105   0.848   2.287 -0.5385 -0.6957  0.7103
  125TIP3    H2  309   3.122   0.950   2.397 -0.2471  0.1501 -0.1092
  126TIP3   OH2  310   7.715   6.361   3.014 -0.5606  0.2166 -0.3702
  126TIP3    H1  311   7.621   6.370   3.034 -0.1081  2.4078  0.8725
  126TIP3    H2  312   7.733   6.432   2.952  0.0987 -0.7653 -1.3181
  127TIP3   OH2  313   5.721   0.098   0.190  0.4792  0.4700 -0.6943
  127TIP3    H1  314   5.748   0.042   0.117 -0.9486 -1.8442  0.4872
  127TIP3    H2  315   5.754   0.054   0.268 -1.2554  0.8995  0.3163
  128TIP3   OH2  316   4.282   1.732   0.526  0.2429  0.0672 -0.5528
  128TIP3    H1  317   4.249   1.821   0.542 -1.1986 -0.1613 -2.1685
  128TIP3    H2  318   4.221   1.675   0.572  1.4790 -0.0911  0.9464
  129TIP3   OH2  319   3.864   1.356   0.540 -0.2798  0.6033  0.2570
  129TIP3    H1  320   3.780   1.320   0.512  0.7742 -1.3886 -0.4324
  129TIP3    H2  321   3.856   1.365   0.635 -1.4243  0.8903  0.1420
  130TIP3   OH2  322   2.907   0.445   1.982 -0.3455  0.1480  0.0501
  130TIP3    H1  323   2.920   0.459   2.076 -1.1384 -1.2795  0.3974
  130TIP3    H2  324   2.956   0.515   1.940 -0.0611  0.8651  1.5379
  131TIP3   OH2  325   4.910   0.535   1.511  0.4838  0.5535 -0.3068
  131TIP3    H1  326   4.848   0.524   1.584 -0.5020  0.7914 -1.1041
  131TIP3    H2  327   4.989   0.569   1.552  0.8992 -1.9221  1.0862
  132TIP3   OH2  328   8.302   7.580   3.107 -0.5149  0.0029  0.1284
  132TIP3    H1  329   8.234   7.514   3.110  1.7308 -2.3083  2.6741
  132TIP3    H2  330   8.355   7.557   3.030 -1.8728  1.1319 -1.1833
  133TIP3   OH2  331   0.378   7.969   3.079 -0.0481 -0.3953  0.0543
  133TIP3    H1  332   0.463   7.933   3.105  1.0807  1.5715 -0.8198
  133TIP3    H2  333   0.358   7.924   2.997 -0.2651 -1.4762  0.6891
  134TIP3   OH2  334   1.086   7.538   3.441  0.0231 -0.0303  0.2728
  134TIP3    H1  335   1.079   7.621   3.394  2.5080 -0.4416 -0.9137
  134TIP3    H2  336   1.099   7.473   3.372 -0.3075 -1.2054  1.3029
  135TIP3   OH2  337   1.837   5.367   2.051  0.8158 -0.3550 -0.4910
  135TIP3    H1  338   1.908   5.321   2.095  0.5357  1.0031  1.4262
  135TIP3    H2  339   1.763   5.306   2.055  0.9599 -0.4718  0.3872
  136TIP3   OH2  340   0.166   7.569   2.355  0.0552  0.4281  0.4219
  136TIP3    H1  341   0.132   7.616   2.279  1.6880 -2.1605 -2.0006
  136TIP3    H2  342   0.248   7.614   2.375 -0.2617  0.9706  0.5208
  137TIP3   OH2  343   0.033   5.654   6.943  0.2661  0.7303  0.0188
  137TIP3    H1  344   0.110   5.682   6.992  0.7404 -0.6918  0.1136
  137TIP3    H2  345   0.066   5.589   6.881 -0.6948  0.8809 -0.6751
  138TIP3   OH2  346   5.840   0.283   2.151 -0.5063 -0.1276  0.3032
  138TIP3    H1  347   5.745   0.296   2.156 -0.6278 -1.2220  1.0779
  138TIP3    H2  348   5.856   0.206   2.206  0.5097 -1.4988 -1.8559
  139TIP3   OH2  349   1.763   5.382   0.827 -0.4417 -0.1462 -0.2552
  139TIP3    H1  350   1.750   5.406   0.918 -0.6466  0.7365 -0.5093
  139TIP3    H2  351   1.678   5.398   0.786  0.2719  1.7429 -1.0786
  140TIP3   OH2  352   6.478   0.065   2.324 -0.4702  0.8819  0.3089
  140TIP3    H1  353   6.388   0.087   2.299 -0.3130  0.2246 -0.8804
  140TIP3    H2  354   6.523   0.149   2.325 -0.3099  0.8745 -2.4143
  141TIP3   OH2  355   1.903   7.386   3.066 -0.4101  0.1474 -0.1165
  141TIP3    H1  356   1.918   7.304   3.113  3.8044  1.0367  0.2880
  141TIP3    H2  357   1.841   7.434   3.120  2.0501 -0.1124  3.1354
  142TIP3   OH2  358   0.997   6.456   0.324 -0.2720 -0.2216 -0.3983
  142TIP3    H1  359   0.943   6.402   0.267 -1.1957 -0.7979  0.9830
  142TIP3    H2  360   1.073   6.401   0.344 -0.4440 -0.4098 -0.2581
  143TIP3   OH2  361   2.739   7.450   0.238 -0.1431  0.1790 -0.2217
  143TIP3    H1  362   2.797   7.379   0.211  0.2030  0.1921  0.4849
  143TIP3    H2  363   2.791   7.503   0.297 -0.9818 -0.0004  0.6907
  144TIP3   OH2  364   5.422   1.294   0.355  0.1818 -0.3268  0.5863
  144TIP3    H1  365   5.433   1.285   0.261 -2.3843  2.1743  0.0068
  144TIP3    H2  366   5.359   1.226   0.379  0.7107 -0.8528  0.5110
  145TIP3   OH2  367   1.745   7.194   3.971  0.0484  0.2712 -0.0166
  145TIP3    H1  368   1.704   7.182   4.057 -1.7011  1.1117 -0.7102
  145TIP3    H2  369   1.694   7.138   3.912  0.0859  1.1134 -0.8492
  146TIP3   OH2  370   3.525   0.740   0.930 -0.0428  0.0671  0.1538
  146TIP3    H1  371   3.589   0.752   0.999 -0.4514 -0.6767  0.6632
  146TIP3    H2  372   3.576   0.720   0.852  0.5345  2.6184 -0.1788
  147TIP3   OH2  373   1.822  -0.003   3.768 -0.5462 -0.1580 -0.6596
  147TIP3    H1  374   1.748   0.058   3.760  0.9197  1.8778  1.0094
  147TIP3    H2  375   1.824  -0.026   3.861 -0.4121 -1.9426 -1.0918
  148TIP3   OH2  376   5.496   0.133   1.157  0.3562 -0.1341  0.9271
  148TIP3    H1  377   5.434   0.174   1.216  0.4459  2.3081 -0.6106
  148TIP3    H2  378   5.581   0.170   1.181  0.5319  0.1151 -0.0352
  149TIP3   OH2  379   3.450   2.780   2.750 -0.1567  0.0630  0.2435
  149TIP3    H1  380   3.400   2.702   2.727  1.3945 -0.8503 -0.0789
  149TIP3    H2  381   3.472   2.820   2.666  3.1552 -1.7851  0.1512
  150TIP3   OH2  382   8.352   7.180   3.337  0.0814 -0.1905 -0.5221
  150TIP3    H1  383   8.371   7.102   3.389  1.0325 -0.2622 -0.9657
  150TIP3    H2  384   8.416   7.245   3.367 -0.5809  0.3662 -0.2886
  151TIP3   OH2  385   5.076   0.546   2.884 -0.5189 -0.4022 -0.0117
  151TIP3    H1  386   4.997   0.588   2.851 -0.1073  0.0539 -0.4376
  151TIP3    H2  387   5.065   0.545   2.979 -0.8009  0.1309 -0.0373
  152TIP3   OH2  388   2.641   0.730   1.810 -0.0680  0.4836  0.5929
  152TIP3    H1  389   2.733   0.710   1.793  0.3414  1.8631  1.0709
  152TIP3    H2  390   2.643   0.798   1.877 -1.5471 -1.8481  3.1018
  153TIP3   OH2  391   4.535   0.509   2.311  0.2418  0.3019 -0.7056
  153TIP3    H1  392   4.559   0.437   2.369 -0.4190 -0.1501 -0.9780
  153TIP3    H2  393   4.599   0.507   2.240  1.0947  0.9049  0.0474
  154TIP3   OH2  394   4.584   2.016   1.946  0.0959 -0.5204  0.6358
  154TIP3    H1  395   4.596   2.107   1.920  1.3339 -0.5410  1.0780
  154TIP3    H2  396   4.666   1.993   1.990 -0.6285 -1.5182  1.4831
  155TIP3   OH2  397   0.202   7.130   4.353 -0.2550  0.0253 -0.3321
  155TIP3    H1  398   0.240   7.101   4.270  2.0083  0.0349  0.6357
  155TIP3    H2  399   0.245   7.075   4.419 -1.8339  0.1821  0.8611
  156TIP3   OH2  400   2.971   1.809   1.578 -0.4648 -0.1993  0.1772
  156TIP3    H1  401   3.005   1.725   1.610  0.7658  0.3457  0.3334
  156TIP3    H2  402   2.968   1.865   1.655  0.1514  0.3633 -0.2055
  157TIP3   OH2  403   1.312   7.717   1.457 -0.2147 -0.1643  0.1998
  157TIP3    H1  404   1.381   7.784   1.457 -1.2153  0.9039 -1.8472
  157TIP3    H2  405   1.262   7.734   1.537 -0.5033  1.6075 -0.3281
  158TIP3   OH2  406   1.886   2.490   2.453 -0.6926 -0.0764  0.6122
  158TIP3    H1  407   1.847   2.577   2.459 -0.9057 -0.1250 -0.0369
  158TIP3    H2  408   1.832   2.435   2.511 -0.3460  0.2957  1.2894
  159TIP3   OH2  409   5.554   7.963   3.709 -1.0278  0.0516 -0.4490
  159TIP3    H1  410   5.479   7.905   3.697  0.3126 -1.5142 -1.5192
  159TIP3    H2  411   5.542   8.032   3.643 -2.0017  0.3334  0.0157
  160TIP3   OH2  412   1.008   7.789   1.866 -0.5223  0.0904 -0.2062
  160TIP3    H1  413   0.960   7.709   1.847 -0.1459  0.1029 -1.2129
  160TIP3    H2  414   0.943   7.859   1.857 -0.0110  0.2474 -2.9861
  161TIP3   OH2  415   7.938   7.004   1.630 -0.6224 -0.2880 -0.1102
  161TIP3    H1  416   8.027   6.971   1.624 -0.1367  1.2847 -1.9850
  161TIP3    H2  417   7.883   6.926   1.624  0.6003 -1.2548  0.9414
  162TIP3   OH2  418   2.410   0.412   3.553  0.5761 -0.0678 -0.4921
  162TIP3    H1  419   2.473   0.446   3.488  0.6417 -2.0993 -1.5201
  162TIP3    H2  420   2.348   0.361   3.501 -2.0731  2.0507  0.4863
  163TIP3   OH2  421   4.875   0.350   4.382  0.3086 -0.1602  0.3100
  163TIP3    H1  422   4.842   0.399   4.457  0.1951 -0.7103  0.6225
  163TIP3    H2  423   4.796   0.317   4.338  0.3726  0.2032 -0.0792
  164TIP3   OH2  424   0.161   7.989   0.544 -0.0008 -0.0256 -0.0433
  164TIP3    H1  425   0.222   7.944   0.602  0.0293 -0.1698 -0.1856
  164TIP3    H2  426   0.075   7.969   0.579  0.1096  2.0782  1.5349
  165TIP3   OH2  427   0.444   7.503   1.070  0.3702 -0.1336 -0.7930
  165TIP3    H1  428   0.529   7.494   1.026 -0.1104 -0.9799 -1.5649
  165TIP3    H2  429   0.417   7.593   1.053  0.0392 -0.5483 -2.5026
  166TIP3   OH2  430   0.378   7.776   4.195  0.6414 -0.6810  0.4597
  166TIP3    H1  431   0.326   7.700   4.165 -0.2430  0.6530 -1.5081
  166TIP3    H2  432   0.347   7.792   4.284 -2.7383  0.3329 -0.8053
  167TIP3   OH2  433   5.373   1.564   0.397  0.5721 -0.7399  0.1682
  167TIP3    H1  434   5.429   1.632   0.360 -1.1253 -0.6083 -2.3209
  167TIP3    H2  435   5.425   1.484   0.393  1.5196 -0.1372  0.3620
  168TIP3   OH2  436   2.484   6.415   2.210  0.5331 -0.0375  0.4538
  168TIP3    H1  437   2.412   6.460   2.254 -1.8732 -3.3201  0.0187
  168TIP3    H2  438   2.538   6.381   2.282  0.1458  0.1381  0.8301
  169TIP3   OH2  439   4.808   1.674   2.399  0.1194  0.0822 -0.3148
  169TIP3    H1  440   4.867   1.749   2.406 -0.1286  0.1500  1.1312
  169TIP3    H2  441   4.860   1.607   2.354  1.0558  0.3947  0.2914
  170TIP3   OH2  442   3.589   1.263   0.558  0.0285  0.1996  0.3419
  170TIP3    H1  443   3.587   1.273   0.653 -1.7088  2.3618  0.1220
  170TIP3    H2  444   3.498   1.252   0.532  0.6157 -1.7390 -0.9635
  171TIP3   OH2  445   4.333   1.183   1.499  0.3136 -0.8467 -0.4074
  171TIP3    H1  446   4.376   1.099   1.511  0.7736 -0.3938  1.1848
  171TIP3    H2  447   4.292   1.202   1.583  2.3192  1.6977  0.0565
  172TIP3   OH2  448   1.857   7.103   2.201  0.3833 -0.6297  0.1833
  172TIP3    H1  449   1.920   7.167   2.165  0.0744  0.5961  1.7383
  172TIP3    H2  450   1.872   7.023   2.151  0.8712  0.6323 -1.7393
  173TIP3   OH2  451   1.141   7.444   3.161  0.0030 -0.1229  0.4636
  173TIP3    H1  452   1.139   7.357   3.122 -0.0018 -0.2420  0.7304
  173TIP3    H2  453   1.075   7.494   3.112 -0.7757 -0.5776  1.0405
  174TIP3   OH2  454   0.509   5.539   1.539 -0.1499  0.1215 -0.3915
  174TIP3    H1  455   0.445   5.568   1.473 -1.1545 -0.5488  0.2784
  174TIP3    H2  456   0.593   5.542   1.493 -1.0181 -1.7824 -2.1812
  175TIP3   OH2  457   4.234   1.328   0.481 -0.2420  0.1922  0.0036
  175TIP3    H1  458   4.304   1.329   0.546 -0.1245  0.2512 -0.1238
  175TIP3    H2  459   4.276   1.298   0.400 -0.3000  0.4988 -0.1416
  176TIP3   OH2  460   3.004   1.923   2.078 -0.0966  0.3959 -0.2702
  176TIP3    H1  461   3.000   1.850   2.016  0.3323  0.6920 -0.6499
  176TIP3    H2  462   3.092   1.959   2.067 -0.3062  0.9695 -0.0741
  177TIP3   OH2  463   5.292   0.582   1.325 -0.8420 -0.6496  0.2842
  177TIP3    H1  464   5.349   0.610   1.396 -1.2818  2.3453 -0.4607
  177TIP3    H2  465   5.241   0.510   1.362  0.6475 -0.7595  2.1934
  178TIP3   OH2  466   0.515   3.776   6.796  0.4185 -0.8867  0.1013
  178TIP3    H1  467   0.609   3.787   6.813  0.4215  0.8662 -0.9826
  178TIP3    H2  468   0.494   3.691   6.834  2.2586 -0.8952  1.1507
  179TIP3   OH2  469   4.141   1.139   1.707 -0.4573  0.1354  0.1479
  179TIP3    H1  470   4.107   1.214   1.756  0.9059 -0.1621  1.6119
  179TIP3    H2  471   4.211   1.105   1.762  0.8677 -0.4618 -1.8731
  180TIP3   OH2  472   7.785   7.115   2.800  0.1119 -0.4877 -0.0125
  180TIP3    H1  473   7.722   7.137   2.869 -0.5590 -1.1533 -0.4024
  180TIP3    H2  474   7.842   7.049   2.838  1.0442  0.6445  0.5862
  181TIP3   OH2  475   3.738   6.214   1.274  0.7548 -0.3799 -0.9492
  181TIP3    H1  476   3.740   6.118   1.280 -0.3907 -0.3233  0.4533
  181TIP3    H2  477   3.668   6.241   1.333  0.7038  1.3033 -1.7496
  182TIP3   OH2  478   7.064   3.138   6.482  0.0694 -0.3240 -0.1326
  182TIP3    H1  479   7.142   3.157   6.535 -0.8437 -0.6873  1.3958
  182TIP3    H2  480   6.996   3.121   6.547 -1.4685  0.7676 -1.4431
  183TIP3   OH2  481   5.980   7.682   1.315  0.1336 -0.5521 -0.0085
  183TIP3    H1  482   5.924   7.624   1.262  1.6584 -1.3115 -0.8354
  183TIP3    H2  483   6.065   7.637   1.318  0.8898  0.8830  0.6813
  184TIP3   OH2  484   3.163   3.035   1.336 -0.3892 -0.0984 -0.9167
  184TIP3    H1  485   3.228   3.092   1.295 -0.4645  0.2156 -0.6078
  184TIP3    H2  486   3.161   2.957   1.281 -0.2876  0.2001 -1.3461
  185TIP3   OH2  487   3.182   2.198   1.567  0.2238  0.1197 -0.1818
  185TIP3    H1  488   3.136   2.257   1.508  3.3173  1.9276 -0.9120
  185TIP3    H2  489   3.149   2.111   1.546 -1.2659  1.1262 -2.1144
  186TIP3   OH2  490   8.063   1.689   1.614  0.0813  0.2310 -0.3412
  186TIP3    H1  491   8.143   1.742   1.609  0.1397  0.0000 -2.1544
  186TIP3    H2  492   8.047   1.660   1.524 -1.5552 -0.4666  0.1468
  187TIP3   OH2  493   2.609   7.946   1.546  0.6436  0.2847 -0.1527
  187TIP3    H1  494   2.569   7.908   1.625  0.5216 -0.1499 -0.4192
  187TIP3    H2  495   2.657   8.023   1.578 -0.1453  0.6305  0.2143
  188TIP3   OH2  496   6.057   0.028   2.097 -0.4986  0.2075  0.1351
  188TIP3    H1  497   5.982   0.054   2.045 -0.0469 -1.3128 -1.3206
  188TIP3    H2  498   6.024  -0.040   2.157 -0.5503  0.4242  0.3533
  189TIP3   OH2  499   5.794   1.499   0.349 -0.6146  0.8628  0.0419
  189TIP3    H1  500   5.750   1.569   0.300  1.6950  0.8666 -2.0897
  189TIP3    H2  501   5.877   1.538   0.377  0.3592 -0.7819 -0.5203
  190TIP3   OH2  502   2.223   7.685   1.774 -0.2063  0.0451  0.6091
  190TIP3    H1  503   2.227   7.780   1.787  3.6121 -0.0366  0.5961
  190TIP3    H2  504   2.221   7.674   1.679  1.1581  0.1070  0.5633
  191TIP3   OH2  505   5.107   1.117   0.621 -0.2028 -0.4610 -0.2044
  191TIP3    H1  506   5.179   1.055   0.633  0.7060  0.6029 -0.0301
  191TIP3    H2  507   5.068   1.093   0.536 -0.7955 -2.1709  0.5303
  192TIP3   OH2  508   4.757   0.120   2.173 -0.6291 -0.1303  0.5614
  192TIP3    H1  509   4.687   0.080   2.121 -0.0033  0.2213 -0.5738
  192TIP3    H2  510   4.806   0.045   2.207  1.1439 -0.3888 -2.3929
  193TIP3   OH2  511   6.616   1.792   1.721  0.3495 -0.1375  0.8501
  193TIP3    H1  512   6.541   1.813   1.775  0.6019  1.8978  0.4300
  193TIP3    H2  513   6.647   1.876   1.687  0.9857 -1.2297 -1.4109
  194TIP3   OH2  514   8.394   4.914   6.866 -0.0315 -0.3881  0.0135
  194TIP3    H1  515   8.381   4.820   6.876 -0.2080 -0.4408 -0.6523
  194TIP3    H2  516   8.395   4.948   6.955 -0.4537 -0.9552  0.2388
  195TIP3   OH2  517   6.495   1.457   0.959  0.5575  0.0030 -0.9332
  195TIP3    H1  518   6.491   1.552   0.971 -2.6236 -0.1245 -0.6821
  195TIP3    H2  519   6.535   1.424   1.039 -2.4595  0.8006  0.9937
  196TIP3   OH2  520   5.504   0.663   0.261 -0.4629  0.1649 -0.8943
  196TIP3    H1  521   5.519   0.650   0.167 -1.7374 -2.0216 -0.8173
  196TIP3    H2  522   5.522   0.578   0.300 -0.7496  0.8532  0.7649
  197TIP3   OH2  523   5.924   3.140   1.119  0.3268 -0.4507 -0.2375
  197TIP3    H1  524   5.915   3.055   1.162  1.4431  0.2016  1.3528
  197TIP3    H2  525   5.971   3.121   1.038 -2.3727 -1.7900 -1.5591
  198TIP3   OH2  526   4.222   0.270   1.900 -0.2470  0.3876 -0.4101
  198TIP3    H1  527   4.270   0.338   1.947 -0.3586  0.4720 -0.4173
  198TIP3    H2  528   4.190   0.211   1.969  0.0057  0.2417 -0.4180
  199TIP3   OH2  529   4.870   0.857   0.802 -0.2903 -0.4433 -0.1857
  199TIP3    H1  530   4.805   0.826   0.738  0.4995  0.6253 -1.5434
  199TIP3    H2  531   4.870   0.953   0.791  1.8560 -0.4614 -0.5744
  200TIP3   OH2  532   6.668   0.615   0.707  0.0238 -0.3547  0.2712
  200TIP3    H1  533   6.658   0.552   0.636 -2.6884 -0.0178  0.3116
  200TIP3    H2  534   6.664   0.563   0.787 -1.7691 -0.1991  0.2920
  201TIP3   OH2  535   1.796   7.026   1.742 -0.5234  0.2781 -0.4371
  201TIP3    H1  536   1.725   6.962   1.751 -0.1992 -0.0283 -0.0318
  201TIP3    H2  537   1.776   7.093   1.808 -0.1910 -0.0420 -0.0089
  202TIP3   OH2  538   7.623   1.379   2.482  0.6188 -0.4826  0.2526
  202TIP3    H1  539   7.577   1.424   2.410  0.2347 -0.2009  0.6744
  202TIP3    H2  540   7.581   1.293   2.487 -1.0694  0.4061  1.7976
  203TIP3   OH2  541   3.987   0.108   1.791 -0.2252 -0.1911  0.9252
  203TIP3    H1  542   3.906   0.110   1.842  0.5446 -1.0094  2.1995
  203TIP3    H2  543   4.051   0.153   1.846 -0.1313  1.7042 -0.6717
  204TIP3   OH2  544   1.801   7.818   1.021 -0.1383 -0.1930  0.0283
  204TIP3    H1  545   1.806   7.794   0.928 -0.3670 -2.4217  0.5681
  204TIP3    H2  546   1.880   7.783   1.060 -2.2717 -3.5817  1.5662
  205TIP3   OH2  547   5.547   1.994   0.422 -0.3307 -0.7064 -0.1104
  205TIP3    H1  548   5.551   1.919   0.482 -2.0545  0.0813  1.0480
  205TIP3    H2  549   5.534   2.070   0.480  3.1069  0.7566 -1.1036
  206TIP3   OH2  550   4.303   1.192   3.007 -0.0422  0.2652  0.1094
  206TIP3    H1  551   4.367   1.127   2.978  0.2882  1.4124 -1.7661
  206TIP3    H2  552   4.336   1.221   3.092  1.3237  0.0220 -0.3284
  207TIP3   OH2  553   1.388   3.264   6.239 -0.3558 -0.1773 -0.6609
  207TIP3    H1  554   1.467   3.283   6.189 -0.6293 -1.7909 -1.7517
  207TIP3    H2  555   1.341   3.347   6.241  0.8754  0.5410 -0.8965
  208TIP3   OH2  556   4.463   7.153   2.062 -0.3816 -0.2599  0.3083
  208TIP3    H1  557   4.435   7.150   2.154  0.4347  0.2963  0.5771
  208TIP3    H2  558   4.401   7.096   2.017 -0.7608 -0.5800  1.2135
  209TIP3   OH2  559   7.162   0.870   1.876 -0.0178 -0.2087 -0.0628
  209TIP3    H1  560   7.207   0.941   1.830 -1.4475  0.2838 -0.7427
  209TIP3    H2  561   7.107   0.915   1.940 -0.4770 -0.7191 -0.0959
  210TIP3   OH2  562   5.319   1.243   1.535  0.5435 -0.1670  0.1360
  210TIP3    H1  563   5.326   1.150   1.513 -0.1552 -1.0845  3.4854
  210TIP3    H2  564   5.406   1.267   1.566  0.6330  0.2144 -0.4039
  211TIP3   OH2  565   5.593   1.682   0.276 -0.2260  0.1703 -0.0079
  211TIP3    H1  566   5.608   1.666   0.183  0.9824  0.4939  0.1172
  211TIP3    H2  567   5.592   1.777   0.284  2.2693  0.1871  0.6686
  212TIP3   OH2  568   1.075   1.941   1.969 -0.2241  0.5506 -0.0305
  212TIP3    H1  569   1.029   1.996   2.033  0.3564 -1.0907  1.8448
  212TIP3    H2  570   1.074   1.993   1.888 -1.7443  2.2956  1.0581
  213TIP3   OH2  571   6.079   5.395   6.450 -0.3499 -0.3906  0.2773
  213TIP3    H1  572   6.020   5.373   6.521  0.2479 -1.9494  0.2933
  213TIP3    H2  573   6.137   5.320   6.441  0.6167  0.4491 -0.7967
  214TIP3   OH2  574   0.720   4.273   1.317 -0.0916 -0.4632 -0.5233
  214TIP3    H1  575   0.638   4.250   1.360  0.1673  0.6647  0.5962
  214TIP3    H2  576   0.773   4.194   1.321 -0.6067 -0.7839 -0.0196
  215TIP3   OH2  577   2.451   2.711   3.098 -0.4182  0.4525 -0.0486
  215TIP3    H1  578   2.527   2.726   3.042  2.4949 -1.4238  3.1749
  215TIP3    H2  579   2.449   2.616   3.111 -2.3927  0.6217  1.1600
  216TIP3   OH2  580   4.149   2.135   3.689  0.3814  0.4433 -0.7862
  216TIP3    H1  581   4.145   2.231   3.691 -0.5692  0.3972  2.5959
  216TIP3    H2  582   4.060   2.107   3.711  0.1050 -1.2640 -3.9329
  217TIP3   OH2  583   1.602   1.048   3.982 -0.6610 -0.0533  0.1892
  217TIP3    H1  584   1.656   1.116   3.939  0.8747 -1.1519  0.3488
  217TIP3    H2  585   1.662   0.975   3.995 -2.6687 -2.0376 -1.3405
  218TIP3   OH2  586   3.161   1.051   0.313  0.4356  0.0312  0.0749
  218TIP3    H1  587   3.194   0.975   0.361  1.6189 -0.9296 -2.1622
  218TIP3    H2  588   3.177   1.030   0.221 -1.5163  1.9284 -0.7411
  219TIP3   OH2  589   2.640   0.728   2.166  0.5862 -0.0672 -0.3628
  219TIP3    H1  590   2.621   0.804   2.221 -0.3492 -0.5622  0.0169
  219TIP3    H2  591   2.719   0.752   2.117  0.6992  0.8683  0.2705
  220TIP3   OH2  592   8.467   1.398   3.116  0.1550  0.1725 -0.0809
  220TIP3    H1  593   8.555   1.427   3.142 -0.2110 -1.0243  2.6880
  220TIP3    H2  594   8.465   1.305   3.137 -0.6078 -0.6278 -3.4900
  221TIP3   OH2  595   2.036   1.688   0.589 -0.2476 -0.8872 -0.5618
  221TIP3    H1  596   1.978   1.709   0.517  0.6576  0.9275 -0.8048
  221TIP3    H2  597   1.994   1.726   0.666 -1.0140 -2.4756 -0.1616
  222TIP3   OH2  598   1.552   6.842   1.742  0.0716 -0.0904  0.1655
  222TIP3    H1  599   1.581   6.794   1.820  1.7425 -0.0449 -0.4133
  222TIP3    H2  600   1.548   6.775   1.673 -0.8506 -0.0252  0.1583
  223TIP3   OH2  601   3.836   0.534   3.623 -0.0660  0.2993  0.1320
  223TIP3    H1  602   3.879   0.495   3.547 -2.6805 -0.6798 -0.9062
  223TIP3    H2  603   3.859   0.627   3.619  2.4724 -0.2893  0.0349
  224TIP3   OH2  604   3.715   4.641   2.035 -0.0677  0.0745 -0.2430
  224TIP3    H1  605   3.725   4.588   2.114 -0.1245 -0.6113 -0.6917
  224TIP3    H2  606   3.803   4.646   1.999 -0.0331  0.4313 -0.1080
  225TIP3   OH2  607   8.380   7.837   3.164  0.5931 -0.1854  0.6556
  225TIP3    H1  608   8.472   7.846   3.185  0.3075 -1.3079  2.4719
  225TIP3    H2  609   8.372   7.747   3.131  0.4964  0.5821 -1.5403
  226TIP3   OH2  610   4.021   0.281   1.502 -0.1717 -0.0838 -0.3119
  226TIP3    H1  611   4.027   0.253   1.594  0.2068  0.1070 -0.2775
  226TIP3    H2  612   4.103   0.253   1.463 -0.3980 -0.3020 -0.6360
  227TIP3   OH2  613   5.161   5.022   0.257 -0.1555  0.3786  0.2147
  227TIP3    H1  614   5.131   5.015   0.167 -2.0317  2.0357  0.6706
  227TIP3    H2  615   5.252   5.051   0.250  1.2676 -3.9792 -1.1720
  228TIP3   OH2  616   0.828   0.560   2.305 -0.3487 -0.1869  0.0768
  228TIP3    H1  617   0.745   0.605   2.292  0.5789  0.8678 -2.5665
  228TIP3    H2  618   0.893   0.630   2.310  0.8474 -1.1157 -1.7989
  229TIP3   OH2  619   3.310   0.894   1.034 -0.4246  0.1637  0.3101
  229TIP3    H1  620   3.376   0.841   0.988 -0.8543  1.3522 -1.7685
  229TIP3    H2  621   3.360   0.964   1.076 -0.1923  0.1186  0.1109
  230TIP3   OH2  622   0.236   1.023   2.702 -0.5969  0.0312 -0.2405
  230TIP3    H1  623   0.237   1.067   2.786 -2.2590  0.8660 -0.6313
  230TIP3    H2  624   0.146   1.033   2.671 -0.2055 -0.9492 -1.7461
  231TIP3   OH2  625   2.576   0.411   2.677 -0.3167  0.2112 -0.0591
  231TIP3    H1  626   2.655   0.417   2.624  0.3694 -0.8620  0.8256
  231TIP3    H2  627   2.537   0.327   2.651 -1.2257  0.7822 -0.5673
  232TIP3   OH2  628   0.609   2.179   1.653 -0.4384  0.2178  0.2197
  232TIP3    H1  629   0.594   2.218   1.740  0.4541 -0.1757  0.5595
  232TIP3    H2  630   0.521   2.167   1.617 -0.8401  0.0482  1.2220
  233TIP3   OH2  631   1.339   0.952   2.634 -0.0155 -0.1581 -0.0069
  233TIP3    H1  632   1.309   0.976   2.546  1.0513  1.6733  0.0905
  233TIP3    H2  633   1.345   0.857   2.633  1.5609 -0.0607 -2.4441
  234TIP3   OH2  634   5.094   7.826   6.677  0.3246  0.1863  0.1452
  234TIP3    H1  635   5.055   7.739   6.680 -0.1232  0.3097 -1.8018
  234TIP3    H2  636   5.107   7.844   6.584  1.4391  1.7494  0.5738
  235TIP3   OH2  637   2.127   3.261   1.495  0.7318 -0.0939 -0.3094
  235TIP3    H1  638   2.144   3.202   1.568 -0.4378  0.0564  0.0996
  235TIP3    H2  639   2.191   3.331   1.504 -0.1031  0.4987  1.2150
  236TIP3   OH2  640   1.797   0.837   3.920 -0.2677  0.2545  0.1846
  236TIP3    H1  641   1.840   0.847   4.005  2.2877  0.2055 -1.0842
  236TIP3    H2  642   1.864   0.857   3.856 -2.2239  0.4533 -1.8601
  237TIP3   OH2  643   3.142   2.439   1.958 -0.0209 -0.4712  0.0004
  237TIP3    H1  644   3.186   2.396   1.884  1.3016 -0.2395  0.6446
  237TIP3    H2  645   3.170   2.531   1.952  0.8909 -0.6456  1.3596
  238TIP3   OH2  646   1.259   0.219   0.835 -0.3668 -0.1849 -0.2034
  238TIP3    H1  647   1.189   0.259   0.887  1.5169  0.6316  1.7412
  238TIP3    H2  648   1.296   0.292   0.786 -0.1415 -0.4254 -0.3861
  239TIP3   OH2  649   2.774   3.404   1.272 -0.2266 -0.2718  0.1773
  239TIP3    H1  650   2.829   3.391   1.349 -0.0599  1.1287  0.3128
  239TIP3    H2  651   2.685   3.384   1.303 -0.1155 -0.0841  0.6280
  240TIP3   OH2  652   0.672   1.839   0.764 -0.9369  0.3721  0.7259
  240TIP3    H1  653   0.697   1.762   0.813 -0.8875  0.6834  1.1875
  240TIP3    H2  654   0.706   1.824   0.676  0.5792  0.6434  1.2534
  241TIP3   OH2  655   1.088   0.488   1.980 -0.1722 -0.6965 -0.2362
  241TIP3    H1  656   1.003   0.533   1.979 -0.4184 -1.1557 -1.0932
  241TIP3    H2  657   1.139   0.533   2.047 -0.3897  0.9114 -1.1234
  242TIP3   OH2  658   2.283   1.718   3.135 -0.3692  0.1688 -0.2411
  242TIP3    H1  659   2.357   1.745   3.081 -1.3660  2.1043 -0.7162
  242TIP3    H2  660   2.294   1.768   3.216  0.3472 -1.6508  0.8038
  243TIP3   OH2  661   8.428   7.181   2.184  0.2399 -0.9299 -0.0441
  243TIP3    H1  662   8.501   7.209   2.129 -0.7356  1.4045 -0.2041
  243TIP3    H2  663   8.464   7.177   2.273  0.9144 -1.1771 -0.3293
  244TIP3   OH2  664   1.083   0.211   1.941  0.1826  0.0023 -0.4894
  244TIP3    H1  665   1.072   0.306   1.944  0.4542  0.0008  2.9950
  244TIP3    H2  666   1.069   0.183   2.031 -1.7040 -3.4954 -1.7623
  245TIP3   OH2  667   1.011   3.717   2.640  0.1980  0.1129  0.2374
  245TIP3    H1  668   1.020   3.767   2.559 -0.0848 -0.8273 -0.3808
  245TIP3    H2  669   1.092   3.735   2.689  0.1785  1.0121 -0.0678
  246TIP3   OH2  670   3.156   0.514   2.142 -0.2773 -0.0092  0.0434
  246TIP3    H1  671   3.163   0.565   2.061  0.7382 -0.2278 -0.0214
  246TIP3    H2  672   3.206   0.434   2.123 -0.4679 -0.2861  0.7102
  247TIP3   OH2  673   1.725   2.672   2.265  0.1133 -0.1533  0.5525
  247TIP3    H1  674   1.734   2.591   2.215  3.4439  0.6550 -0.3014
  247TIP3    H2  675   1.717   2.741   2.198 -2.1825  0.3116  1.2608
  248TIP3   OH2  676   3.308   1.290   2.245 -0.3767  0.7365 -0.1399
  248TIP3    H1  677   3.346   1.202   2.244  0.7612  1.1911  1.1707
  248TIP3    H2  678   3.222   1.279   2.205 -0.1231 -0.9121 -0.2871
  249TIP3   OH2  679   1.311   2.473   1.958 -0.2364  0.0262 -0.3709
  249TIP3    H1  680   1.397   2.516   1.964 -0.0556 -0.1830 -1.4615
  249TIP3    H2  681   1.258   2.518   2.024  1.3217 -1.2746  1.8456
  250TIP3   OH2  682   0.723   3.990   0.931 -0.2152 -0.5802 -0.4394
  250TIP3    H1  683   0.665   4.061   0.958  1.0812  0.8955 -1.4205
  250TIP3    H2  684   0.691   3.913   0.978 -1.8604  0.5735  0.3763
  251TIP3   OH2  685   0.285   1.952   1.468 -0.9911 -0.0440  0.4268
  251TIP3    H1  686   0.357   1.961   1.405 -0.7680 -1.5812  0.4607
  251TIP3    H2  687   0.272   1.858   1.477 -2.6131  0.2089  0.8872
  252TIP3   OH2  688   2.144   1.754   2.807  0.1626 -0.4272  0.0280
  252TIP3    H1  689   2.069   1.720   2.759  0.7020  0.5249 -1.5329
  252TIP3    H2  690   2.106   1.813   2.873 -0.4057  1.3648 -1.8449
  253TIP3   OH2  691   1.781   2.219   2.344 -0.0550  0.4558 -0.4688
  253TIP3    H1  692   1.692   2.192   2.319 -0.3805  0.3158  0.7924
  253TIP3    H2  693   1.838   2.175   2.281 -0.9118  1.1362 -1.7562
  254TIP3   OH2  694   0.922   2.297   3.851  0.0020 -0.2421  0.3131
  254TIP3    H1  695   0.968   2.214   3.863  0.7532  0.2708  1.0367
  254TIP3    H2  696   0.945   2.349   3.929  0.6074  1.1296 -0.7517
  255TIP3   OH2  697   0.735   0.732   3.667 -0.2008 -0.2293  0.5454
  255TIP3    H1  698   0.719   0.772   3.752 -0.0456  0.4734  0.2469
  255TIP3    H2  699   0.828   0.708   3.669  0.2170  1.2977 -0.0471
  256TIP3   OH2  700   3.477   0.232   4.439 -0.0023  0.0823  0.8036
  256TIP3    H1  701   3.561   0.250   4.480  1.1425 -0.4529 -1.2080
  256TIP3    H2  702   3.473   0.137   4.433  0.0670  0.1511 -0.6573
  257TIP3   OH2  703   0.601   3.790   1.981  0.1109  0.2004 -0.5762
  257TIP3    H1  704   0.601   3.701   1.946 -1.8572  0.5144 -1.4168
  257TIP3    H2  705   0.524   3.794   2.038  1.2733  0.7999  1.0044
  258TIP3   OH2  706   3.148   3.428   1.932  0.7975  0.4373  0.1603
  258TIP3    H1  707   3.066   3.389   1.900  0.9825  0.1145  0.0718
  258TIP3    H2  708   3.167   3.498   1.871  0.6670  0.4115  0.0897
  259TIP3   OH2  709   1.690   0.522   3.530  0.1849  0.3622 -0.4338
  259TIP3    H1  710   1.745   0.577   3.586  1.0080  0.2800 -1.1542
  259TIP3    H2  711   1.728   0.434   3.538 -1.0319 -0.0823  0.5920
  260TIP3   OH2  712   3.386   1.952   0.868  0.1747 -0.6021 -0.4698
  260TIP3    H1  713   3.331   1.939   0.944 -2.9252 -0.7304 -2.6550
  260TIP3    H2  714   3.411   1.864   0.841 -0.2781 -0.6568 -0.7076
  261TIP3   OH2  715   3.235   2.114   3.499 -0.1730 -0.3537  0.5804
  261TIP3    H1  716   3.195   2.044   3.551  0.4399  0.4386  2.1686
  261TIP3    H2  717   3.163   2.149   3.447 -1.1127 -0.3315  1.8474
  262TIP3   OH2  718   1.917   1.629   3.556  0.2461 -0.4266 -0.8534
  262TIP3    H1  719   1.906   1.723   3.541 -0.9082 -0.3062  0.7373
  262TIP3    H2  720   1.988   1.623   3.620  0.3254 -0.6611 -0.9592
  263TIP3   OH2  721   1.504   2.740   1.765  0.2073 -0.1199 -0.0780
  263TIP3    H1  722   1.557   2.731   1.686 -1.0831  2.1344 -1.2548
  263TIP3    H2  723   1.413   2.736   1.734 -0.3883 -3.4801  1.8467
  264TIP3   OH2  724   2.872   1.069   0.119  0.1116  0.0709 -0.2112
  264TIP3    H1  725   2.798   1.120   0.088 -0.9646 -1.1933  0.2517
  264TIP3    H2  726   2.917   1.041   0.039  0.8822  1.9412 -0.4674
  265TIP3   OH2  727   0.464   0.741   1.670 -0.1206  0.0384 -0.7313
  265TIP3    H1  728   0.375   0.728   1.635  0.2392 -0.4763 -1.4778
  265TIP3    H2  729   0.495   0.820   1.627 -1.1394  1.6618  1.4341
  266TIP3   OH2  730   1.181   0.795   2.077 -0.3684  0.1029 -0.1675
  266TIP3    H1  731   1.235   0.805   2.155  0.5661  0.1517 -0.8144
  266TIP3    H2  732   1.091   0.812   2.107 -0.0470 -0.1811  0.9493
  267TIP3   OH2  733   2.486   2.100   0.561 -0.3359  0.0458 -0.3343
  267TIP3    H1  734   2.482   2.180   0.613  0.8376  0.0961 -0.3054
  267TIP3    H2  735   2.493   2.130   0.471  0.0534 -0.0254 -0.3278
  268TIP3   OH2  736   0.347   6.706   0.774  0.1038 -0.2206  0.6301
  268TIP3    H1  737   0.430   6.733   0.815 -1.4781 -0.1935  4.0079
  268TIP3    H2  738   0.305   6.788   0.748  0.6308 -0.1640 -0.0459
  269TIP3   OH2  739   1.962   0.210   1.740  0.1769  0.1493  0.5042
  269TIP3    H1  740   1.997   0.123   1.724  0.5048  0.4800 -0.6116
  269TIP3    H2  741   2.016   0.245   1.811 -3.2513 -2.4929  4.7053
  270TIP3   OH2  742   2.821   2.135   2.519  0.0007 -0.1253  0.2034
  270TIP3    H1  743   2.880   2.133   2.594 -2.4592  0.7710  2.2367
  270TIP3    H2  744   2.791   2.044   2.509 -0.4426 -0.0616  0.9540
  271TIP3   OH2  745   1.490   1.955   4.282 -0.3425  0.3183 -0.3064
  271TIP3    H1  746   1.550   2.022   4.250  0.0858 -0.5264 -1.3298
  271TIP3    H2  747   1.414   2.003   4.314 -0.2856  1.2619 -1.5494
  272TIP3   OH2  748   0.485   1.174   2.632  0.3899 -0.1905  0.1005
  272TIP3    H1  749   0.406   1.123   2.647 -0.7947  1.4873 -0.1773
  272TIP3    H2  750   0.540   1.157   2.707 -0.8096 -0.3846  0.9497
  273TIP3   OH2  751   3.285   4.577   2.444 -0.0110 -0.4965 -0.3951
  273TIP3    H1  752   3.209   4.634   2.435 -0.0184 -0.4059  0.2679
  273TIP3    H2  753   3.342   4.601   2.371 -0.3794 -0.1998 -0.5824
  274TIP3   OH2  754   2.967   3.032   0.692 -0.0803  0.6542 -0.3560
  274TIP3    H1  755   2.944   3.005   0.603  0.8823  1.0809 -0.7396
  274TIP3    H2  756   3.018   2.958   0.726  1.5921  1.4677 -1.0121
  275TIP3   OH2  757   7.579   6.996   2.639 -0.0129 -0.2190 -0.3542
  275TIP3    H1  758   7.530   6.927   2.683 -1.0679  0.4674 -0.4475
  275TIP3    H2  759   7.658   7.008   2.693 -0.2830 -0.8433  0.1743
  276TIP3   OH2  760   1.782   1.518   1.413 -0.0968 -0.0530 -0.0333
  276TIP3    H1  761   1.824   1.466   1.482  0.4018 -0.0206 -0.3125
  276TIP3    H2  762   1.819   1.605   1.423 -0.4028  0.0773 -0.0237
  277TIP3   OH2  763   1.251   4.221   2.118  0.2940  0.0146  0.5382
  277TIP3    H1  764   1.256   4.302   2.168  2.6358  1.1330 -1.3908
  277TIP3    H2  765   1.269   4.152   2.182  2.9616  1.3888  1.3466
  278TIP3   OH2  766   2.125   2.257   1.065  0.6698  0.2144  0.8128
  278TIP3    H1  767   2.097   2.188   1.006  0.8433 -1.0963  2.2203
  278TIP3    H2  768   2.092   2.338   1.026  0.8222 -0.6159 -1.0634
  279TIP3   OH2  769   0.698   2.568   1.338  0.1458 -0.6017 -0.5184
  279TIP3    H1  770   0.708   2.497   1.401  1.0951 -0.5736 -0.6305
  279TIP3    H2  771   0.678   2.524   1.255 -3.2176 -0.5531  0.1892
  280TIP3   OH2  772   2.092   0.913   1.570 -0.3053  0.3629 -0.1812
  280TIP3    H1  773   2.122   0.859   1.643  0.5236  0.0982 -0.7046
  280TIP3    H2  774   2.039   0.982   1.611  0.3851  0.3827  0.6978
  281TIP3   OH2  775   4.607   0.635   0.487  0.7683  0.2235 -0.0643
  281TIP3    H1  776   4.609   0.653   0.394 -0.0782  0.8423  0.0382
  281TIP3    H2  777   4.552   0.556   0.495  0.1900  0.6284 -0.0169
  282TIP3   OH2  778   1.076   7.606   2.178  0.3051  0.0055  0.2793
  282TIP3    H1  779   1.129   7.533   2.210 -0.1137 -0.6646 -0.5229
  282TIP3    H2  780   1.069   7.591   2.084 -1.2200  0.1330  0.3550
  283TIP3   OH2  781   4.531   0.192   0.792  0.2714  0.3140  0.2910
  283TIP3    H1  782   4.455   0.138   0.817  1.5291 -0.5761  2.2882
  283TIP3    H2  783   4.604   0.130   0.789  0.9213  1.1365 -1.8153
  284TIP3   OH2  784   5.712   5.847   4.754  0.1679 -0.0514  0.1352
  284TIP3    H1  785   5.665   5.910   4.809  0.4086  0.5414 -0.3377
  284TIP3    H2  786   5.794   5.832   4.802  0.0251 -0.1649  0.3490
  285TIP3   OH2  787   3.813   2.352   1.570  0.1638 -0.4035 -0.2727
  285TIP3    H1  788   3.879   2.417   1.592  0.2472 -0.0535 -1.4903
  285TIP3    H2  789   3.740   2.369   1.630  1.0907 -0.6613  0.9408
  286TIP3   OH2  790   4.903   3.203   1.466  0.3152 -0.2555  0.5154
  286TIP3    H1  791   4.867   3.117   1.443 -0.2418 -0.1778  1.0510
  286TIP3    H2  792   4.965   3.224   1.396 -0.4933 -0.5214 -0.2881
  287TIP3   OH2  793   3.744   2.506   2.641  0.1411  0.2979  0.5593
  287TIP3    H1  794   3.799   2.569   2.689 -0.2564  1.8840 -0.9932
  287TIP3    H2  795   3.804   2.462   2.581  0.6402 -1.6909  2.4763
  288TIP3   OH2  796   4.279   3.891   3.109  0.1236  0.5144 -0.8831
  288TIP3    H1  797   4.209   3.830   3.086 -0.6486  0.9251  0.2645
  288TIP3    H2  798   4.257   3.971   3.061  0.4061  0.2991 -1.3682
  289TIP3   OH2  799   0.500   6.684   0.150 -0.4833  0.0482  0.4303
  289TIP3    H1  800   0.462   6.764   0.187 -1.5847 -0.5001  0.5295
  289TIP3    H2  801   0.479   6.688   0.057 -0.9187 -0.3173  0.5073
  290TIP3   OH2  802   4.775   2.685   2.536  0.1354  0.8390  0.0174
  290TIP3    H1  803   4.762   2.598   2.498  1.4848 -0.5147  2.4968
  290TIP3    H2  804   4.780   2.744   2.461 -1.0165 -1.1833 -1.6987
  291TIP3   OH2  805   2.618   2.033   0.897  0.1553  0.2850 -0.2137
  291TIP3    H1  806   2.522   2.033   0.898  0.1047 -1.9374 -0.8774
  291TIP3    H2  807   2.642   2.023   0.989 -0.2638  0.5941 -0.0686
  292TIP3   OH2  808   3.698   1.495   0.106  0.0315 -0.0453 -0.2970
  292TIP3    H1  809   3.770   1.436   0.127  0.4911  0.7888  0.5141
  292TIP3    H2  810   3.646   1.448   0.040 -0.9317 -2.3418  2.0337
  293TIP3   OH2  811   5.370   5.938   6.175  0.2846 -0.1027  0.1143
  293TIP3    H1  812   5.447   5.925   6.230  0.9501  1.1892 -0.5044
  293TIP3    H2  813   5.307   5.981   6.233  1.2239  1.8681 -0.3158
  294TIP3   OH2  814   4.253   1.085   1.269 -0.5629 -0.1429  0.0924
  294TIP3    H1  815   4.231   1.153   1.205 -0.2609 -0.0463  0.0876
  294TIP3    H2  816   4.303   1.132   1.336  1.7676 -0.7936 -1.1225
  295TIP3   OH2  817   5.240   0.596   0.479 -0.3146 -0.0282  0.0674
  295TIP3    H1  818   5.331   0.602   0.509 -0.7155 -0.2203  1.3222
  295TIP3    H2  819   5.224   0.502   0.468 -0.2056  0.0328 -0.6683
  296TIP3   OH2  820   2.633   0.607   1.551 -0.3004 -0.3280 -0.4076
  296TIP3    H1  821   2.590   0.662   1.616 -1.5838 -1.3119 -0.3973
  296TIP3    H2  822   2.721   0.591   1.587 -0.9247 -0.6900  0.9924
  297TIP3   OH2  823   2.179   1.873   1.472  0.0543 -0.5094  0.0996
  297TIP3    H1  824   2.166   1.884   1.378 -1.0188  1.4206  0.4319
  297TIP3    H2  825   2.274   1.883   1.485  0.3296 -1.8454 -0.8892
  298TIP3   OH2  826   5.572   3.735   1.030 -0.0533 -0.8035 -0.0134
  298TIP3    H1  827   5.620   3.742   0.948 -0.6619 -0.4066 -0.3304
  298TIP3    H2  828   5.619   3.666   1.078 -0.9547 -2.5616 -1.5644
  299TIP3   OH2  829   8.181   6.263   6.873  0.6393 -0.1456 -0.3121
  299TIP3    H1  830   8.248   6.195   6.880  0.2627 -0.3882  1.1569
  299TIP3    H2  831   8.105   6.219   6.836 -0.0732 -0.8924  1.9645
  300TIP3   OH2  832   4.036   1.648   1.290  0.5164 -0.6350 -0.0772
  300TIP3    H1  833   4.100   1.654   1.361  0.1659  2.1540  0.0469
  300TIP3    H2  834   4.075   1.698   1.218 -0.2445 -1.3584 -1.0179
  301TIP3   OH2  835   2.821   1.800   1.250 -0.8398  0.3438  0.0839
  301TIP3    H1  836   2.754   1.855   1.210  0.9428  0.9336 -2.2865
  301TIP3    H2  837   2.868   1.859   1.310 -1.6127  0.2732  0.7587
  302TIP3   OH2  838   5.981   2.935   1.305 -0.2490  0.5642 -0.1259
  302TIP3    H1  839   5.937   2.962   1.385 -1.5027  0.1790 -0.6829
  302TIP3    H2  840   6.014   2.847   1.325  1.0487  1.1865  0.5814
  303TIP3   OH2  841   3.626   2.698   1.523 -0.0676 -0.4482  0.3855
  303TIP3    H1  842   3.577   2.703   1.604 -0.4687  1.6092  0.0329
  303TIP3    H2  843   3.578   2.634   1.469 -1.4183  0.3256  0.6605
  304TIP3   OH2  844   0.797   6.661   0.207 -0.0639  0.1425  0.1852
  304TIP3    H1  845   0.704   6.679   0.193  0.2058  1.0464 -0.5562
  304TIP3    H2  846   0.800   6.569   0.232 -1.1064 -0.0571 -0.3563
  305TIP3   OH2  847   3.771   0.877   1.037  0.3196 -0.0458 -0.1680
  305TIP3    H1  848   3.729   0.956   1.002  1.7481  0.2808 -1.1662
  305TIP3    H2  849   3.808   0.906   1.121 -0.4879 -0.0565  0.1986
  306TIP3   OH2  850   5.622   4.061   6.266 -0.2340  0.2873 -0.2426
  306TIP3    H1  851   5.670   4.108   6.198 -0.6009  2.1958  0.7614
  306TIP3    H2  852   5.564   4.002   6.218  0.1253  0.9816 -1.5615
  307TIP3   OH2  853   2.633   1.572   1.876 -0.5324  0.3545 -0.2071
  307TIP3    H1  854   2.579   1.602   1.950 -0.6031 -0.0950 -0.0749
  307TIP3    H2  855   2.610   1.631   1.804 -0.3222  0.9166  0.1830
  308TIP3   OH2  856   2.112   1.608   1.326 -0.3880  0.0906 -0.1468
  308TIP3    H1  857   2.142   1.533   1.377 -0.3507 -0.0164 -0.3242
  308TIP3    H2  858   2.028   1.633   1.366 -0.8842 -0.6604 -0.7043
  309TIP3   OH2  859   6.607   0.887   0.380 -0.1783  0.7453 -0.4417
  309TIP3    H1  860   6.673   0.955   0.374  0.3690  0.2207 -0.3448
  309TIP3    H2  861   6.568   0.899   0.466  0.1324  0.7372 -0.3004
  310TIP3   OH2  862   2.316   0.773   0.638  0.2613  0.0307 -0.7312
  310TIP3    H1  863   2.334   0.718   0.561  0.2398  1.2699 -1.6389
  310TIP3    H2  864   2.230   0.811   0.620 -0.0042 -0.1247  0.1896
  311TIP3   OH2  865   3.925   0.154   2.291  0.0043  0.0559  0.1790
  311TIP3    H1  866   3.863   0.208   2.242 -1.1978  0.6242  2.2361
  311TIP3    H2  867   3.874   0.077   2.316  1.2172 -1.2352 -1.2618
  312TIP3   OH2  868   3.096   2.315   0.183 -0.5237 -0.2338  0.4265
  312TIP3    H1  869   3.178   2.353   0.214 -0.4583 -0.5372  0.6223
  312TIP3    H2  870   3.122   2.236   0.135 -0.5793  0.5060 -0.8497
  313TIP3   OH2  871   4.318   3.257   1.099  0.6020 -0.0166  0.1500
  313TIP3    H1  872   4.346   3.305   1.177  0.1504 -1.2890  1.1178
  313TIP3    H2  873   4.383   3.189   1.088 -0.5286 -1.2060  0.7166
  314TIP3   OH2  874   1.802   3.030   3.838  0.2893  0.1662  0.3876
  314TIP3    H1  875   1.791   2.942   3.874  0.0208 -0.8396 -2.0638
  314TIP3    H2  876   1.713   3.058   3.815  0.6597 -0.0046 -1.2858
  315TIP3   OH2  877   2.682   1.676   1.576  0.2235 -0.3155  0.1889
  315TIP3    H1  878   2.663   1.583   1.581  0.1272 -0.2768  0.5948
  315TIP3    H2  879   2.736   1.686   1.497  0.5016 -0.7574  0.3212
  316TIP3   OH2  880   3.079   1.546   1.679 -0.5452  0.7194  0.0791
  316TIP3    H1  881   3.090   1.467   1.732 -0.0426  1.7129  1.4885
  316TIP3    H2  882   3.168   1.576   1.660 -0.7254  1.6554  0.6551
  317TIP3   OH2  883   3.799   2.078   1.478 -0.8241  0.0559 -0.0086
  317TIP3    H1  884   3.875   2.083   1.421 -1.0835 -0.6488 -0.4260
  317TIP3    H2  885   3.790   2.166   1.514  1.0857 -0.2219  1.2209
  318TIP3   OH2  886   0.548   1.847   1.643  0.0812  0.4297  0.3410
  318TIP3    H1  887   0.494   1.860   1.720  0.2703 -0.4833  0.6325
  318TIP3    H2  888   0.486   1.842   1.570 -0.1989 -0.1235  0.6141
  319TIP3   OH2  889   5.788   2.256   0.161  0.2669  0.1507  0.9114
  319TIP3    H1  890   5.721   2.323   0.146 -0.8541 -0.9763  0.8058
  319TIP3    H2  891   5.871   2.301   0.144 -0.5897  0.7300 -2.0567
  320TIP3   OH2  892   3.809   3.917   3.278  0.8111 -0.0837  0.1056
  320TIP3    H1  893   3.855   3.990   3.237 -0.9321  0.7914 -0.3668
  320TIP3    H2  894   3.821   3.932   3.372 -0.3252  1.3964  0.0487
  321TIP3   OH2  895   6.179   4.130   6.430 -0.2629 -0.7297  0.5127
  321TIP3    H1  896   6.159   4.223   6.439 -0.3134 -0.2573 -3.6776
  321TIP3    H2  897   6.257   4.127   6.375  0.8439 -3.1448  2.1205
  322TIP3   OH2  898   1.530   1.954   2.473  0.4294 -0.1364 -0.2528
  322TIP3    H1  899   1.549   2.009   2.549  1.4125 -0.7165 -0.0760
  322TIP3    H2  900   1.530   2.015   2.399 -2.5275  0.7776  0.4222
  323TIP3   OH2  901   2.921   3.426   0.708 -0.2342 -0.0296  0.0795
  323TIP3    H1  902   2.848   3.460   0.656 -0.8326 -2.6474 -0.8526
  323TIP3    H2  903   2.991   3.490   0.695 -1.6715  1.4422 -0.6945
  324TIP3   OH2  904   3.490   3.133   0.652  0.4819  0.1184 -0.2524
  324TIP3    H1  905   3.529   3.099   0.572 -0.3632  0.4483 -0.8097
  324TIP3    H2  906   3.498   3.228   0.644  2.2838  0.1060  1.0146
  325TIP3   OH2  907   2.954   0.639   6.586 -0.4784  0.0072  0.2017
  325TIP3    H1  908   2.944   0.567   6.648 -1.5240 -0.0804 -0.0687
  325TIP3    H2  909   2.867   0.652   6.549 -0.1600  0.9902 -0.2230
  326TIP3   OH2  910   4.332   4.983   0.899  0.6795  0.8354 -0.1327
  326TIP3    H1  911   4.401   4.993   0.833  0.9256  0.4170  0.0583
  326TIP3    H2  912   4.380   4.969   0.981  0.3628 -0.3096 -0.1378
  327TIP3   OH2  913   6.823   5.158   5.985  0.1426  0.2671 -0.7546
  327TIP3    H1  914   6.886   5.212   6.032 -0.4130  0.7289 -0.5316
  327TIP3    H2  915   6.741   5.167   6.034 -0.2504  0.1551 -1.3731
  328TIP3   OH2  916   5.060   2.421   1.513 -0.1697 -0.2740 -0.4298
  328TIP3    H1  917   5.075   2.489   1.447 -2.3576  1.2362  0.5882
  328TIP3    H2  918   4.969   2.394   1.500 -0.5152 -0.2145  1.7093
  329TIP3   OH2  919   3.145   1.993   1.757 -0.8928 -0.0086 -0.1667
  329TIP3    H1  920   3.118   2.082   1.732  0.0612 -0.0548 -1.4205
  329TIP3    H2  921   3.191   2.005   1.841 -1.0889  0.6294 -0.1459
  330TIP3   OH2  922   4.768   2.968   2.283 -0.2392  0.1264  0.4511
  330TIP3    H1  923   4.700   3.008   2.337 -0.5345  0.0597  0.1280
  330TIP3    H2  924   4.790   3.036   2.219  1.0264  0.6810  1.4559
  331TIP3   OH2  925   1.683   7.502   2.009  0.2107 -0.0630 -0.1744
  331TIP3    H1  926   1.730   7.581   1.981 -0.3057  0.5673  0.7005
  331TIP3    H2  927   1.618   7.488   1.941 -0.5580  1.0397  0.3155
  332TIP3   OH2  928   1.011   7.008   0.737 -0.0391  0.6186  0.1299
  332TIP3    H1  929   0.942   6.955   0.698 -1.6550  3.5444 -1.1879
  332TIP3    H2  930   0.975   7.035   0.822  1.0430 -0.8845  1.0858
  333TIP3   OH2  931   5.528   0.826   2.648  0.0434  0.7016  0.1823
  333TIP3    H1  932   5.534   0.909   2.600 -0.6181 -0.7632 -2.5569
  333TIP3    H2  933   5.619   0.797   2.656  0.1150  0.5428 -1.0284
  334TIP3   OH2  934   4.965   0.211   0.498  0.1462  0.5020 -0.1701
  334TIP3    H1  935   5.050   0.246   0.522  0.9862  0.0402 -2.3727
  334TIP3    H2  936   4.918   0.285   0.460  0.8765 -0.0532 -2.1996
  335TIP3   OH2  937   3.962   0.951   1.261  0.0773 -0.5349  0.0379
  335TIP3    H1  938   4.055   0.928   1.269  0.6034  1.0270 -1.2469
  335TIP3    H2  939   3.936   0.979   1.348  0.6710 -1.4714  0.5276
  336TIP3   OH2  940   3.870   0.718   0.579  0.0993 -0.5299 -0.4502
  336TIP3    H1  941   3.828   0.714   0.665 -0.5689 -0.8269 -0.7931
  336TIP3    H2  942   3.804   0.686   0.518  1.0693 -1.7409 -0.9009
  337TIP3   OH2  943   4.858   5.174   5.932 -0.3161  0.2708 -0.1143
  337TIP3    H1  944   4.889   5.110   5.869 -0.3109 -0.1454  0.3102
  337TIP3    H2  945   4.777   5.208   5.894 -1.2687 -1.2731  0.5003
  338TIP3   OH2  946   5.355   1.483   1.346 -0.5001  0.5877 -0.2448
  338TIP3    H1  947   5.427   1.482   1.409 -1.1255  2.1647  0.5264
  338TIP3    H2  948   5.276   1.469   1.399 -0.8401 -0.3758 -0.9855
  339TIP3   OH2  949   5.662   4.256   6.052  0.8408  0.2064  0.1195
  339TIP3    H1  950   5.678   4.319   5.981  2.3417 -0.8247 -0.4892
  339TIP3    H2  951   5.587   4.206   6.021 -0.2276  1.5425  0.5098
  340TIP3   OH2  952   2.446   0.286   0.341  0.0964  0.7353 -0.0129
  340TIP3    H1  953   2.542   0.287   0.339  0.1141  1.6862  0.5310
  340TIP3    H2  954   2.424   0.323   0.427 -0.7548 -0.2380  0.2020
  341TIP3   OH2  955   1.940   3.571   1.944  0.6805 -0.1246  0.3799
  341TIP3    H1  956   1.949   3.499   1.881  1.1024  0.1870  0.0862
  341TIP3    H2  957   1.972   3.648   1.898 -1.7042  0.6624 -0.0642
  342TIP3   OH2  958   6.477   2.342   0.485  0.3591 -0.0762 -0.7243
  342TIP3    H1  959   6.430   2.351   0.403  0.2274  0.2758 -0.6109
  342TIP3    H2  960   6.569   2.354   0.461  0.3910 -0.7224 -0.9379
  343TIP3   OH2  961   5.424   1.507   1.067 -0.2541  0.5829 -0.5016
  343TIP3    H1  962   5.517   1.484   1.072 -0.4689  0.0765  1.8065
  343TIP3    H2  963   5.396   1.513   1.158 -1.8097  3.6416 -1.1158
  344TIP3   OH2  964   2.500   3.953   1.040 -0.0035 -0.4724  0.3543
  344TIP3    H1  965   2.427   4.010   1.062  0.1456 -0.8372  1.8703
  344TIP3    H2  966   2.576   3.992   1.084  0.4786 -0.7444 -0.2230
  345TIP3   OH2  967   5.329   0.390   1.087  0.5448  0.9052  0.1525
  345TIP3    H1  968   5.314   0.433   1.002  0.2364  1.8691  0.6834
  345TIP3    H2  969   5.357   0.461   1.144 -0.9633  0.5904  1.3185
  346TIP3   OH2  970   3.565   2.198   1.275 -0.1906  0.0473 -0.0255
  346TIP3    H1  971   3.648   2.243   1.267  1.0082 -1.7290  1.9373
  346TIP3    H2  972   3.537   2.182   1.185  0.5159  2.5142 -0.7086
  347TIP3   OH2  973   4.541   1.529   0.767  0.1903  0.4472 -0.0932
  347TIP3    H1  974   4.559   1.503   0.857  0.4671  1.0377  0.0253
  347TIP3    H2  975   4.494   1.455   0.729 -0.9324  0.6524  0.8709
  348TIP3   OH2  976   3.885   1.263   0.144  0.2152  0.3964  1.1376
  348TIP3    H1  977   3.834   1.200   0.195  0.5698  0.1305  1.1676
  348TIP3    H2  978   3.946   1.209   0.093 -0.1094  0.6586  0.4595
  349TIP3   OH2  979   2.291   0.592   1.837 -0.2900 -0.0039  0.5726
  349TIP3    H1  980   2.322   0.503   1.820  1.1108  0.8389 -1.3901
  349TIP3    H2  981   2.358   0.629   1.894 -0.5646  0.0197  0.8847
  350TIP3   OH2  982   4.211   0.571   3.133  0.3977 -0.2664  0.1567
  350TIP3    H1  983   4.241   0.603   3.218  0.0719  0.6446 -0.0613
  350TIP3    H2  984   4.256   0.628   3.069  2.1467 -2.1803 -0.3627
  351TIP3   OH2  985   5.974   4.571   6.586 -0.6874  0.0631 -0.4872
  351TIP3    H1  986   6.038   4.501   6.571  0.5525  1.5915 -2.5305
  351TIP3    H2  987   5.998   4.609   6.670 -2.1504 -2.7488  1.2843
  352TIP3   OH2  988   4.696   2.092   2.502 -0.1614 -0.1031  0.1575
  352TIP3    H1  989   4.646   2.080   2.582 -0.7007 -1.3382 -0.3499
  352TIP3    H2  990   4.664   2.024   2.443  2.2639 -1.0505 -0.1150
  353TIP3   OH2  991   0.012   5.221   6.888 -0.6913 -0.1587 -0.5339
  353TIP3    H1  992   0.099   5.209   6.927 -0.3553  0.7683 -0.9741
  353TIP3    H2  993  -0.006   5.138   6.844  0.5386  0.0674 -1.5086
  354TIP3   OH2  994   3.244   0.423   1.067 -0.1632 -0.6054 -0.0395
  354TIP3    H1  995   3.180   0.444   1.135 -0.1896 -0.2113 -0.1866
  354TIP3    H2  996   3.232   0.491   1.001  0.6592 -0.3190  0.1074
  355TIP3   OH2  997   2.903   2.253   1.723  0.2246  0.7993 -0.2814
  355TIP3    H1  998   2.924   2.230   1.814  1.0834 -0.0216 -0.6868
  355TIP3    H2  999   2.820   2.207   1.705  0.1628  0.7937  0.0137
  356TIP3   OH2 1000   3.494   3.644   1.124 -0.2290  0.4457 -0.3647
  356TIP3    H1 1001   3.573   3.698   1.117 -0.3278  0.4608 -1.4895
  356TIP3    H2 1002   3.527   3.555   1.136 -0.0527  0.5698  0.0884
  357TIP3   OH2 1003   5.769   6.140   6.026 -0.1447  0.0637  0.4784
  357TIP3    H1 1004   5.713   6.152   6.102 -2.2483 -1.7047 -0.7408
  357TIP3    H2 1005   5.741   6.207   5.964  0.6734  0.6544  0.7330
  358TIP3   OH2 1006   8.100   2.634   0.531  0.3547  0.2498 -0.4925
  358TIP3    H1 1007   8.089   2.546   0.498  1.9758  0.3539 -1.3845
  358TIP3    H2 1008   8.051   2.636   0.613  1.2808 -1.8374  0.1371
  359TIP3   OH2 1009   0.234   5.772   6.460  0.0379  0.6329  0.5611
  359TIP3    H1 1010   0.281   5.700   6.503  1.3769  0.2653 -1.4291
  359TIP3    H2 1011   0.220   5.741   6.371 -0.0439  2.5312 -0.1077
  360TIP3   OH2 1012   4.640   1.126   0.548  0.4553 -0.0861 -0.7015
  360TIP3    H1 1013   4.603   1.052   0.597  1.5158  0.8009  1.5028
  360TIP3    H2 1014   4.650   1.093   0.459 -1.2473 -1.8426 -0.2733
  361TIP3   OH2 1015   2.649   0.573   0.182 -0.3368  0.3957  0.0366
  361TIP3    H1 1016   2.644   0.615   0.268 -0.9190  0.3136  0.0473
  361TIP3    H2 1017   2.630   0.480   0.200  0.8979  0.1204  0.0099
  362TIP3   OH2 1018   5.471   4.756   5.361  0.2817 -0.0484  0.0980
  362TIP3    H1 1019   5.522   4.796   5.291  0.2734  1.3975  0.9024
  362TIP3    H2 1020   5.382   4.750   5.326  0.3369  0.3966 -0.1184
  363TIP3   OH2 1021   5.035   2.900   1.548 -0.4082 -0.1670 -0.2483
  363TIP3    H1 1022   4.992   2.838   1.489 -1.3785 -0.5093  0.8028
  363TIP3    H2 1023   5.122   2.913   1.509 -0.6778 -1.1356 -1.2136
  364TIP3   OH2 1024   3.789   0.630   1.156 -0.1297 -0.3305 -0.2981
  364TIP3    H1 1025   3.784   0.710   1.102  0.1253  0.0468  0.2325
  364TIP3    H2 1026   3.882   0.621   1.177 -0.5037  0.8489  2.0386
  365TIP3   OH2 1027   5.481   5.237   4.550  0.1466 -0.0211  0.2364
  365TIP3    H1 1028   5.558   5.191   4.582 -0.0048 -1.1844 -1.0117
  365TIP3    H2 1029   5.419   5.234   4.622  0.9373  0.1418  0.9342
  366TIP3   OH2 1030   6.561   4.990   5.872 -0.9713  0.5197 -0.0952
  366TIP3    H1 1031   6.475   4.954   5.892 -1.0936  0.9497  0.1367
  366TIP3    H2 1032   6.545   5.062   5.812 -0.8437  1.1136  0.5707
  367TIP3   OH2 1033   6.938   5.094   6.276  0.3448  0.1984  0.2233
  367TIP3    H1 1034   7.023   5.108   6.235  0.9374  0.7588  1.5989
  367TIP3    H2 1035   6.904   5.182   6.293 -0.2524 -0.0241  0.2035
  368TIP3   OH2 1036   7.248   5.537   5.780 -0.2021  0.6311  0.1068
  368TIP3    H1 1037   7.219   5.611   5.833  1.4714  1.2073  0.2376
  368TIP3    H2 1038   7.170   5.512   5.730 -1.3763  1.0544  1.6899
  369TIP3   OH2 1039   5.926   2.886   6.467  0.2557  0.0562  0.0251
  369TIP3    H1 1040   5.899   2.976   6.486 -0.2401 -0.3399  1.2628
  369TIP3    H2 1041   5.853   2.832   6.497  1.3642 -0.8702  1.1389
  370TIP3   OH2 1042   8.104   5.279   5.921 -0.0362 -0.4148 -0.3699
  370TIP3    H1 1043   8.039   5.323   5.976  0.2928 -0.0402 -0.2787
  370TIP3    H2 1044   8.069   5.287   5.832  0.2966  0.5197 -0.4185
  371TIP3   OH2 1045   2.598   2.752   0.733  0.2969 -0.3917  0.2182
  371TIP3    H1 1046   2.548   2.808   0.792  1.6628  1.8252 -0.6791
  371TIP3    H2 1047   2.532   2.713   0.675 -0.5708  1.2346  0.0954
  372TIP3   OH2 1048   3.738   2.006   0.213  0.0905  0.1207 -0.1362
  372TIP3    H1 1049   3.651   2.046   0.205 -0.6692 -1.2975  0.7134
  372TIP3    H2 1050   3.791   2.072   0.258  0.0100  1.7778 -2.4096
  373TIP3   OH2 1051   7.566   4.787   5.926 -0.5078  0.1867 -0.5083
  373TIP3    H1 1052   7.601   4.737   6.000 -1.5122  0.8209  0.4021
  373TIP3    H2 1053   7.618   4.867   5.925 -0.3091  0.0567 -0.6628
  374TIP3   OH2 1054   6.860   5.842   4.788  0.2766 -0.0112 -0.1331
  374TIP3    H1 1055   6.931   5.888   4.744  0.7331 -0.2721  0.3276
  374TIP3    H2 1056   6.848   5.889   4.871 -2.5346  2.2709 -1.7685
  375TIP3   OH2 1057   2.265   2.969   0.404 -0.6396  0.5376 -0.2898
  375TIP3    H1 1058   2.347   2.945   0.362 -1.5621  1.4801 -2.7049
  375TIP3    H2 1059   2.236   2.890   0.449  1.8866  0.3750  1.1448
  376TIP3   OH2 1060   2.086   0.798   0.470  0.0685 -0.1734  0.2636
  376TIP3    H1 1061   2.066   0.715   0.513  1.1376 -0.5201  0.1244
  376TIP3    H2 1062   2.142   0.774   0.396 -1.2821  0.4706 -1.0058
  377TIP3   OH2 1063   4.030   3.088   1.179  0.0720 -0.2483  0.4288
  377TIP3    H1 1064   4.013   3.054   1.091  0.8761  0.3163  0.0537
  377TIP3    H2 1065   3.953   3.143   1.198  1.2797  2.0733 -1.1521
  378TIP3   OH2 1066   4.571   0.255   1.477  0.5974  0.1602  0.5814
  378TIP3    H1 1067   4.506   0.313   1.517  1.1979  0.5114  1.0396
  378TIP3    H2 1068   4.539   0.166   1.497  0.1067  0.3290  0.5569
  379TIP3   OH2 1069   1.705   7.476   0.847 -0.1655 -0.3979 -0.9156
  379TIP3    H1 1070   1.650   7.551   0.828  0.8776  1.1983  2.0265
  379TIP3    H2 1071   1.757   7.463   0.767 -1.1942  1.2695 -1.8730
  380TIP3   OH2 1072   4.492   0.096   0.240  0.0776  0.1956  0.1996
  380TIP3    H1 1073   4.408   0.141   0.243 -0.1741 -0.3422  1.3076
  380TIP3    H2 1074   4.550   0.150   0.294  0.7042  1.0635 -1.2945
  381TIP3   OH2 1075   5.198   1.939   0.133  0.0690  0.6411 -0.6120
  381TIP3    H1 1076   5.293   1.946   0.120  0.3057 -0.1436  0.5678
  381TIP3    H2 1077   5.175   1.855   0.092  0.1102  0.2157  0.2180
  382TIP3   OH2 1078   6.842   3.278   0.344 -0.3318  0.4782  0.2537
  382TIP3    H1 1079   6.906   3.270   0.272 -1.5946 -2.4030 -0.6211
  382TIP3    H2 1080   6.796   3.360   0.325 -0.3506 -0.0062 -2.0229
  383TIP3   OH2 1081   2.421   2.938   0.877 -0.5545 -0.3087  0.2500
  383TIP3    H1 1082   2.459   3.025   0.892 -1.1739  0.0351 -0.1190
  383TIP3    H2 1083   2.333   2.957   0.844 -0.6604 -1.0803  0.0965
  384TIP3   OH2 1084   1.540   0.473   1.025  0.3246  0.1016  0.5624
  384TIP3    H1 1085   1.457   0.514   1.000  1.4757  2.0950 -0.0897
  384TIP3    H2 1086   1.521   0.431   1.109 -1.5338 -0.1135  0.0584
  385TIP3   OH2 1087   2.118   3.333   3.840 -0.3141  0.2483 -0.9773
  385TIP3    H1 1088   2.202   3.378   3.831  0.6906 -1.3314  0.3449
  385TIP3    H2 1089   2.057   3.402   3.867  1.8038  0.3961  3.8903
  386TIP3   OH2 1090   4.038   1.770   1.632 -0.2477  0.5944  0.1887
  386TIP3    H1 1091   4.023   1.686   1.588 -2.3749  0.7551  0.5359
  386TIP3    H2 1092   4.106   1.812   1.580  1.1221 -1.4989  0.2386
  387TIP3   OH2 1093   5.034   5.297   6.071  0.0594 -0.4738 -0.0101
  387TIP3    H1 1094   4.966   5.261   6.013  0.2225  3.2434 -2.6781
  387TIP3    H2 1095   5.116   5.261   6.037  0.1070  1.3104 -1.8970
  388TIP3   OH2 1096   2.843   1.836   2.625 -0.6534  0.6737  0.0612
  388TIP3    H1 1097   2.896   1.887   2.688 -0.2818  0.1130  0.2105
  388TIP3    H2 1098   2.870   1.870   2.539 -0.8827  1.1792  0.1849
  389TIP3   OH2 1099   5.876   7.725   6.563  0.6213  0.0987  0.2444
  389TIP3    H1 1100   5.934   7.653   6.585 -0.2535 -0.4905  0.6606
  389TIP3    H2 1101   5.788   7.690   6.574  0.1770  1.0184 -0.2353
  390TIP3   OH2 1102   2.560   0.643   0.944  0.6239 -0.4071 -0.4084
  390TIP3    H1 1103   2.628   0.601   0.995 -0.0853 -0.6919  0.3184
  390TIP3    H2 1104   2.478   0.617   0.986  0.0686  0.0159 -1.1976
  391TIP3   OH2 1105   1.986   2.402   1.986 -0.1880 -0.1802  0.2905
  391TIP3    H1 1106   2.002   2.459   1.910  1.3241 -0.0109  0.7050
  391TIP3    H2 1107   1.891   2.404   1.998 -0.3026  1.0228 -0.6526
  392TIP3   OH2 1108   3.726   2.957   1.464  0.4563 -0.1330  0.6170
  392TIP3    H1 1109   3.666   2.887   1.490 -0.4281  0.4562  0.1729
  392TIP3    H2 1110   3.810   2.912   1.451 -0.4027 -1.3437 -0.9405
  393TIP3   OH2 1111   2.357   6.963   1.062 -0.5897  0.2215 -0.4331
  393TIP3    H1 1112   2.341   6.885   1.115 -1.0544  0.8228  0.3335
  393TIP3    H2 1113   2.292   6.959   0.992 -1.4565  0.5558  0.3319
  394TIP3   OH2 1114   2.323   1.546   2.899 -0.2576 -0.1989 -0.2104
  394TIP3    H1 1115   2.289   1.457   2.908  0.5704 -0.6165 -1.1594
  394TIP3    H2 1116   2.248   1.597   2.868 -0.8219 -0.4893  0.6670
  395TIP3   OH2 1117   5.237   5.787   6.708 -0.5077 -0.3416 -0.1250
  395TIP3    H1 1118   5.263   5.867   6.752 -0.0390 -0.1920 -0.6588
  395TIP3    H2 1119   5.186   5.816   6.632 -1.7804 -0.6188  0.6216
  396TIP3   OH2 1120   2.882   1.611   0.805 -0.1625  0.6065  0.1869
  396TIP3    H1 1121   2.869   1.518   0.787 -0.3106  0.3604  1.4677
  396TIP3    H2 1122   2.813   1.632   0.869  1.6224  0.8928  2.0667
  397TIP3   OH2 1123   3.356   0.524   2.631 -0.6450 -0.2915 -0.0554
  397TIP3    H1 1124   3.384   0.610   2.663 -0.3868 -0.4822  0.2393
  397TIP3    H2 1125   3.310   0.543   2.550 -1.3025  0.2002  0.4212
  398TIP3   OH2 1126   3.262   2.540   1.276  0.3085 -0.2320 -0.4089
  398TIP3    H1 1127   3.265   2.636   1.274 -0.7333 -0.1929 -1.1587
  398TIP3    H2 1128   3.223   2.517   1.191  1.4581 -1.3625 -0.6387
  399TIP3   OH2 1129   0.443   6.807   1.855  0.2053  0.9812  0.0226
  399TIP3    H1 1130   0.528   6.773   1.883 -0.4914 -0.2562  0.6761
  399TIP3    H2 1131   0.393   6.729   1.832 -1.1111  1.6240  0.6729
  400TIP3   OH2 1132   5.080   1.544   0.610  0.4035 -0.1704 -0.1209
  400TIP3    H1 1133   5.133   1.475   0.648 -1.8213 -2.1221 -0.4135
  400TIP3    H2 1134   5.098   1.539   0.516 -0.2485 -0.8118 -0.2170
  401TIP3   OH2 1135   3.763   2.898   0.998 -0.0280  0.1385 -0.7881
  401TIP3    H1 1136   3.849   2.934   0.975  0.1667 -0.3599 -0.8507
  401TIP3    H2 1137   3.768   2.806   0.972 -1.1577  0.4893 -2.3471
  402TIP3   OH2 1138   3.555   3.040   0.410 -0.2629 -0.0907  0.1897
  402TIP3    H1 1139   3.555   2.946   0.430 -1.5410 -0.5102 -1.6989
  402TIP3    H2 1140   3.568   3.044   0.315 -2.2089  1.5720 -0.0207
  403TIP3   OH2 1141   5.542   5.658   6.635 -0.2989  0.6058  0.1892
  403TIP3    H1 1142   5.451   5.629   6.626 -0.3917  0.6636  0.9247
  403TIP3    H2 1143   5.560   5.653   6.729  0.7918 -0.3691 -0.0730
  404TIP3   OH2 1144   4.612   1.493   1.033  0.4182 -0.4261  0.4384
  404TIP3    H1 1145   4.676   1.423   1.017  0.9844  0.0261  0.6982
  404TIP3    H2 1146   4.550   1.454   1.095  1.2709 -0.3941  1.3294
  405TIP3   OH2 1147   3.493   2.137   0.173 -0.6385  0.0309 -0.0910
  405TIP3    H1 1148   3.540   2.153   0.091 -2.9995  1.3478 -1.2206
  405TIP3    H2 1149   3.414   2.091   0.147 -0.3851 -1.4966  1.7218
  406TIP3   OH2 1150   8.412   6.885   0.812 -0.0115 -0.0116 -0.3568
  406TIP3    H1 1151   8.321   6.884   0.842  1.0093 -0.5671  2.9165
  406TIP3    H2 1152   8.440   6.976   0.823  0.4035 -0.2412  0.5096
  407TIP3   OH2 1153   5.459   0.182   3.140  0.1355  0.3373 -0.2225
  407TIP3    H1 1154   5.475   0.276   3.132 -0.6789  0.5675  0.7693
  407TIP3    H2 1155   5.443   0.153   3.050  1.9234  0.8613 -0.7193
  408TIP3   OH2 1156   4.064   0.604   1.271 -0.1589  0.4636  0.4570
  408TIP3    H1 1157   4.048   0.517   1.233 -0.3098  0.1156  1.2971
  408TIP3    H2 1158   4.153   0.599   1.306 -0.4423  0.3839  1.1854
  409TIP3   OH2 1159   4.073   1.351   1.286  0.4099 -0.0454  0.6695
  409TIP3    H1 1160   4.149   1.345   1.228  0.6719  1.4796  0.8353
  409TIP3    H2 1161   4.053   1.445   1.289 -1.5005 -0.4324  0.5915
  410TIP3   OH2 1162   2.422   0.800   2.982 -0.2018  0.0477 -0.5790
  410TIP3    H1 1163   2.496   0.770   2.931  1.3079  1.5050  0.6844
  410TIP3    H2 1164   2.395   0.882   2.939 -2.7700 -1.7615 -2.5785
  411TIP3   OH2 1165   5.656   5.874   5.396 -0.1786  0.5031 -0.1399
  411TIP3    H1 1166   5.569   5.913   5.400  0.0264  1.2681 -2.5836
  411TIP3    H2 1167   5.640   5.781   5.382 -0.6009  0.2780  1.6477
  412TIP3   OH2 1168   0.788   3.235   3.195 -0.0362  0.1531 -0.1825
  412TIP3    H1 1169   0.847   3.297   3.152  2.6098 -0.7942  1.9779
  412TIP3    H2 1170   0.768   3.275   3.280 -1.1261 -0.3691 -0.1751
  413TIP3   OH2 1171   7.684   5.597   5.631  0.2661 -0.1939 -0.0505
  413TIP3    H1 1172   7.742   5.555   5.694  1.2877  2.0446  0.5564
  413TIP3    H2 1173   7.619   5.530   5.608  0.3166 -1.2646  2.8170
  414TIP3   OH2 1174   7.623   5.459   6.738  0.2105  0.2395  0.5775
  414TIP3    H1 1175   7.646   5.436   6.827  0.5448  2.2145  1.0383
  414TIP3    H2 1176   7.530   5.478   6.740  0.5287  1.8613  0.8864
  415TIP3   OH2 1177   4.794   3.921   0.663 -0.2349  0.0696  0.2715
  415TIP3    H1 1178   4.790   3.992   0.599  2.5597 -0.1234 -0.2054
  415TIP3    H2 1179   4.778   3.963   0.748 -2.4431  0.5786 -0.3731
  416TIP3   OH2 1180   3.211   1.560   1.429 -0.0281 -0.3775 -0.2700
  416TIP3    H1 1181   3.280   1.623   1.448 -0.5045  0.1595 -0.3136
  416TIP3    H2 1182   3.256   1.475   1.429  0.2198 -0.2782  1.9701
  417TIP3   OH2 1183   7.731   2.012   0.513  0.9316  0.3988  0.4592
  417TIP3    H1 1184   7.759   1.985   0.600  2.6590 -0.3384 -0.3185
  417TIP3    H2 1185   7.641   1.978   0.504  1.1740 -0.5126  1.4987
  418TIP3   OH2 1186   7.703   5.442   6.049 -0.0905  0.6295 -0.3644
  418TIP3    H1 1187   7.640   5.507   6.018  0.2424  2.0003  1.7442
  418TIP3    H2 1188   7.662   5.403   6.127 -0.3857 -1.8993 -1.7195
  419TIP3   OH2 1189   7.291   2.686   0.571  0.2536 -0.7183  0.6115
  419TIP3    H1 1190   7.229   2.704   0.500  1.7078 -1.1383 -0.7735
  419TIP3    H2 1191   7.326   2.772   0.594  1.5600 -0.8573 -0.8250
  420TIP3   OH2 1192   3.857   1.172   3.063 -0.0522  0.6896 -0.3116
  420TIP3    H1 1193   3.819   1.092   3.098  0.0692  1.1620  0.9167
  420TIP3    H2 1194   3.940   1.144   3.025  0.5452  0.4253  1.1721
  421TIP3   OH2 1195   3.503   2.385   0.354 -0.2821 -0.1871  0.1837
  421TIP3    H1 1196   3.421   2.432   0.345 -0.8876 -1.4176 -0.7825
  421TIP3    H2 1197   3.507   2.326   0.279  0.9635 -0.9235  0.7919
  422TIP3   OH2 1198   2.576   8.028   0.508  0.2394 -0.3497 -0.0750
  422TIP3    H1 1199   2.603   7.950   0.556  0.3986  0.3841  1.0344
  422TIP3    H2 1200   2.482   8.035   0.523  0.2093 -0.3832 -0.2482
  423TIP3   OH2 1201   1.908   6.146   6.804  0.1597 -0.2995  0.2924
  423TIP3    H1 1202   1.835   6.204   6.779  1.1440  0.2760 -1.3410
  423TIP3    H2 1203   1.905   6.076   6.739  0.9227 -0.3967  0.3615
  424TIP3   OH2 1204   2.957   2.479   0.341  0.2172  0.5795 -0.0916
  424TIP3    H1 1205   2.970   2.567   0.305 -1.2990  0.3984 -1.1196
  424TIP3    H2 1206   2.981   2.420   0.270  1.4314  0.1345  0.6651
  425TIP3   OH2 1207   3.259   1.442   3.327  0.3634  0.5526 -0.0586
  425TIP3    H1 1208   3.225   1.521   3.368 -0.4239 -0.4398  1.2479
  425TIP3    H2 1209   3.333   1.472   3.274  0.7365  2.0016  1.2653
  426TIP3   OH2 1210   6.704   2.164   0.735 -0.2047  0.1471 -0.2587
  426TIP3    H1 1211   6.649   2.239   0.757 -0.2556 -0.0032  0.1382
  426TIP3    H2 1212   6.708   2.113   0.816  0.8346  0.3579 -0.1774
  427TIP3   OH2 1213   3.024   2.062   2.764  0.3919  0.3394 -0.1058
  427TIP3    H1 1214   2.995   2.129   2.826  0.4490  0.5061 -0.2604
  427TIP3    H2 1215   3.117   2.049   2.784  0.1615 -0.3608  0.5443
  428TIP3   OH2 1216   5.859   2.596   1.230  0.2336  0.1586  0.5053
  428TIP3    H1 1217   5.856   2.650   1.308 -0.7383  1.6976 -0.5717
  428TIP3    H2 1218   5.950   2.604   1.199  0.1302  1.1139  0.4185
  429TIP3   OH2 1219   4.350   0.897   1.079  0.1298 -0.2063 -0.1709
  429TIP3    H1 1220   4.294   0.843   1.024  0.5195  1.7290 -2.5701
  429TIP3    H2 1221   4.295   0.971   1.105  0.8743  0.5124 -0.6117
  430TIP3   OH2 1222   5.691   2.797   1.549 -0.1264  0.4632 -0.7872
  430TIP3    H1 1223   5.638   2.815   1.626 -3.2958  1.8526 -3.2189
  430TIP3    H2 1224   5.669   2.707   1.525  0.4749  0.2101 -0.4245
  431TIP3   OH2 1225   7.548   0.554   2.142  0.2395  0.3720  0.0149
  431TIP3    H1 1226   7.478   0.588   2.086 -2.2943 -2.1188  1.5311
  431TIP3    H2 1227   7.605   0.507   2.081 -3.0145 -3.1363 -0.5207
  432TIP3   OH2 1228   5.249   0.064   1.046  0.1302  0.9350 -0.1897
  432TIP3    H1 1229   5.333   0.088   1.085 -0.4051  0.8852  1.0127
  432TIP3    H2 1230   5.220   0.143   1.000  0.7277  1.0216 -0.4212
  433TIP3   OH2 1231   5.548   7.443   0.504  0.3193 -0.0388  0.2605
  433TIP3    H1 1232   5.596   7.385   0.447  1.0787 -0.0514  0.9024
  433TIP3    H2 1233   5.615   7.493   0.550 -0.2398 -0.5894  1.7208
  434TIP3   OH2 1234   5.883   6.135   6.652 -0.1699 -0.2684  0.3023
  434TIP3    H1 1235   5.976   6.136   6.677  0.2845  0.6400 -1.3160
  434TIP3    H2 1236   5.843   6.073   6.712  1.3572 -0.1212  1.5137
  435TIP3   OH2 1237   0.621   5.005   6.583 -0.3203 -0.1724  0.3418
  435TIP3    H1 1238   0.652   4.939   6.644  0.9235 -0.3652 -0.4797
  435TIP3    H2 1239   0.668   5.085   6.607 -1.4559  0.3075  1.0210
  436TIP3   OH2 1240   6.592   1.494   0.700 -0.1524  0.0897  0.4335
  436TIP3    H1 1241   6.660   1.433   0.728  1.2353  2.1634  1.6711
  436TIP3    H2 1242   6.519   1.479   0.761 -0.0990 -0.8251  0.2780
  437TIP3   OH2 1243   0.589   7.727   2.836 -0.4807 -0.0186 -0.2717
  437TIP3    H1 1244   0.659   7.769   2.886 -1.3521  2.2416 -0.8546
  437TIP3    H2 1245   0.543   7.673   2.900  0.6729 -0.0829  0.5193
  438TIP3   OH2 1246   0.944   3.458   1.394 -0.2582 -0.5542 -0.2092
  438TIP3    H1 1247   0.871   3.400   1.417 -1.0369  0.4555 -0.1080
  438TIP3    H2 1248   1.008   3.444   1.463 -0.8389 -0.6190  0.3192
  439TIP3   OH2 1249   3.906   0.636   2.496 -0.6058 -0.4064 -0.3631
  439TIP3    H1 1250   3.898   0.688   2.575  1.2835 -1.5393  0.5885
  439TIP3    H2 1251   3.820   0.594   2.486 -1.9295  2.3102 -0.7953
  440TIP3   OH2 1252   1.826   1.924   1.798 -0.4128  0.1988 -0.4966
  440TIP3    H1 1253   1.861   1.982   1.865  1.0729 -1.6040  0.3365
  440TIP3    H2 1254   1.874   1.947   1.719 -0.2578  0.4983 -0.3167
  441TIP3   OH2 1255   4.601   4.203   1.725  0.0422  0.2897  0.6903
  441TIP3    H1 1256   4.523   4.251   1.755  0.4528  0.6571  1.1748
  441TIP3    H2 1257   4.630   4.156   1.802 -0.2753 -0.6376  0.2504
  442TIP3   OH2 1258   2.351   7.823   1.014  0.0931  0.0141  0.2196
  442TIP3    H1 1259   2.431   7.815   0.962  0.0226 -1.3579  0.2960
  442TIP3    H2 1260   2.356   7.910   1.053  2.0318 -0.4101  1.0003
  443TIP3   OH2 1261   3.715   2.789   0.720 -0.5028 -0.4515 -0.2143
  443TIP3    H1 1262   3.660   2.863   0.692  1.0263  0.8965  0.2353
  443TIP3    H2 1263   3.799   2.805   0.677  0.4488 -0.8834  1.4458
  444TIP3   OH2 1264   1.459   2.398   1.681 -0.5782 -0.4072  0.6349
  444TIP3    H1 1265   1.412   2.444   1.611  0.4660  0.3850  0.4603
  444TIP3    H2 1266   1.447   2.453   1.758  1.8677  0.8969  0.1048
  445TIP3   OH2 1267   3.936   3.493   0.671 -0.5247 -0.4705  0.2269
  445TIP3    H1 1268   3.891   3.571   0.702 -0.1445 -0.3336  0.4402
  445TIP3    H2 1269   3.996   3.470   0.742  0.7701  0.1785 -0.6294
  446TIP3   OH2 1270   4.102   1.947   0.766 -0.2026 -0.0163 -0.4231
  446TIP3    H1 1271   4.041   2.015   0.737 -1.1408 -1.6272 -2.3814
  446TIP3    H2 1272   4.045   1.876   0.797  0.6943 -0.8259 -0.6051
  447TIP3   OH2 1273   3.816   2.540   3.046  0.0763 -0.6555 -0.4244
  447TIP3    H1 1274   3.865   2.463   3.018 -0.5870 -1.1759 -0.1705
  447TIP3    H2 1275   3.826   2.542   3.141  1.3394  0.4359 -0.5559
  448TIP3   OH2 1276   4.617   3.896   1.089  0.1336  0.0039 -0.0016
  448TIP3    H1 1277   4.619   3.967   1.153 -0.5580  0.5910 -0.6285
  448TIP3    H2 1278   4.707   3.865   1.085  0.4191  0.7685  0.3659
  449TIP3   OH2 1279   3.153   2.960   0.429  0.5033  0.4684  0.1302
  449TIP3    H1 1280   3.166   3.042   0.382  1.1541 -0.2726 -1.0047
  449TIP3    H2 1281   3.196   2.974   0.513  0.2524  1.4336  0.1077
  450TIP3   OH2 1282   2.292   1.159   1.636 -0.1286  0.2337  0.0171
  450TIP3    H1 1283   2.362   1.182   1.576  0.9582 -0.4761  0.9893
  450TIP3    H2 1284   2.318   1.074   1.672 -1.2197  0.2064  0.7852
  451TIP3   OH2 1285   7.019   4.994   6.509 -0.1798  0.0821 -0.0451
  451TIP3    H1 1286   7.004   5.000   6.415 -0.9241  0.9003  0.1149
  451TIP3    H2 1287   7.114   5.004   6.519  0.2684 -2.7789 -0.8936
  452TIP3   OH2 1288   3.182   2.028   2.399 -0.6217  0.4044 -0.7842
  452TIP3    H1 1289   3.113   1.978   2.354  0.4579  0.5346 -2.6451
  452TIP3    H2 1290   3.150   2.118   2.400 -2.0415 -0.0830  1.5237
  453TIP3   OH2 1291   4.807   0.756   1.120  0.0508  0.0483  0.3967
  453TIP3    H1 1292   4.773   0.771   1.031  0.6999  0.1746  0.1711
  453TIP3    H2 1293   4.755   0.814   1.175 -1.4355 -1.1575  0.3248
  454TIP3   OH2 1294   1.788   1.766   2.984 -0.1209  0.2386 -0.2260
  454TIP3    H1 1295   1.695   1.772   3.006  0.2960 -0.3528  1.8432
  454TIP3    H2 1296   1.800   1.827   2.912 -1.8676  1.3187  0.3628
  455TIP3   OH2 1297   3.258   2.034   2.031  0.2612 -0.1662 -0.5039
  455TIP3    H1 1298   3.255   2.119   2.074  0.5257 -1.1053  1.4444
  455TIP3    H2 1299   3.347   2.003   2.048  0.0524 -0.9846 -0.9009
  456TIP3   OH2 1300   3.277   1.006   0.081 -0.0110 -0.5482 -0.0154
  456TIP3    H1 1301   3.255   1.041  -0.006 -1.4583 -0.4206  0.3919
  456TIP3    H2 1302   3.339   1.070   0.117 -0.1817 -0.0775 -0.5437
  457TIP3   OH2 1303   3.483   3.373   1.733 -0.1402  0.3070 -0.2017
  457TIP3    H1 1304   3.413   3.321   1.693 -0.7219  1.5266 -0.8097
  457TIP3    H2 1305   3.498   3.445   1.671 -0.2724  1.6065  1.2283
  458TIP3   OH2 1306   6.748   2.554   0.326  0.0811  0.5990 -0.0667
  458TIP3    H1 1307   6.818   2.549   0.390 -1.9590 -0.9929  2.1011
  458TIP3    H2 1308   6.689   2.621   0.360 -0.0494  1.1379 -1.3140
  459TIP3   OH2 1309   1.402   7.518   2.046  0.0151 -0.3461 -0.1411
  459TIP3    H1 1310   1.333   7.457   2.074  1.6866 -1.3933  1.8625
  459TIP3    H2 1311   1.448   7.472   1.976  0.4234 -0.8128  0.4347
  460TIP3   OH2 1312   6.786   3.465   5.355 -0.4662 -0.1551  0.3965
  460TIP3    H1 1313   6.818   3.444   5.268  1.6367  0.0912  1.0712
  460TIP3    H2 1314   6.822   3.552   5.374 -0.9089 -0.1932  1.4851
  461TIP3   OH2 1315   2.164   7.924   0.794 -0.0299  0.0571 -0.1636
  461TIP3    H1 1316   2.234   7.939   0.731  0.6595  1.6332  0.9695
  461TIP3    H2 1317   2.192   7.847   0.843  0.1583 -0.2416 -0.7250
  462TIP3   OH2 1318   3.838   1.836   2.841 -0.2316 -0.3770  0.6184
  462TIP3    H1 1319   3.816   1.766   2.903  0.4162 -0.7587  0.4174
  462TIP3    H2 1320   3.788   1.815   2.762  1.4964 -1.7388 -0.1510
  463TIP3   OH2 1321   2.241   6.445   6.388  0.3354  0.0275 -0.1203
  463TIP3    H1 1322   2.178   6.383   6.423  0.6512 -0.4290 -0.3612
  463TIP3    H2 1323   2.190   6.525   6.372 -0.0844 -0.1955  0.1093
  464TIP3   OH2 1324   4.182   3.107   1.426  0.4086 -0.1369  0.3825
  464TIP3    H1 1325   4.170   3.111   1.331  2.1121  1.0139  0.1936
  464TIP3    H2 1326   4.115   3.045   1.456 -1.9391  1.4938 -1.2345
  465TIP3   OH2 1327   6.114   2.010   0.922 -0.2745  0.1386  0.4331
  465TIP3    H1 1328   6.186   1.971   0.874  0.8542  0.0787  2.1231
  465TIP3    H2 1329   6.156   2.063   0.990 -1.8127  0.3332  1.2658
  466TIP3   OH2 1330   5.813   0.985   0.446 -0.6984 -0.4899 -0.5780
  466TIP3    H1 1331   5.896   0.959   0.486 -0.6174  0.8071  0.1249
  466TIP3    H2 1332   5.831   1.071   0.409 -2.1561  0.5211  0.9931
  467TIP3   OH2 1333   6.804   6.008   4.539  0.4254  0.0424  0.0525
  467TIP3    H1 1334   6.772   6.040   4.624  0.9110  1.5224 -0.3106
  467TIP3    H2 1335   6.801   6.084   4.482  0.6113 -0.8243 -1.1295
  468TIP3   OH2 1336   2.437   1.875   1.439 -0.6307 -0.3384  0.1656
  468TIP3    H1 1337   2.506   1.935   1.466 -1.1015 -0.1597  0.9878
  468TIP3    H2 1338   2.484   1.798   1.405 -0.0206 -0.6105  1.5925
  469TIP3   OH2 1339   4.914   4.090   2.182 -0.2608 -0.2722 -0.5167
  469TIP3    H1 1340   4.860   4.124   2.110  1.3526 -0.3746 -1.7999
  469TIP3    H2 1341   4.949   4.007   2.149  4.2287  1.8516 -1.5122
  470TIP3   OH2 1342   8.292   5.411   5.365  0.3654  0.3982 -0.8810
  470TIP3    H1 1343   8.249   5.353   5.428  1.2859 -0.8016 -1.3293
  470TIP3    H2 1344   8.342   5.472   5.419  1.5227 -0.9117 -0.4251
  471TIP3   OH2 1345   7.366   1.673   3.002  0.4178  0.0175  0.1524
  471TIP3    H1 1346   7.364   1.745   3.065 -0.1459  0.7586 -0.7031
  471TIP3    H2 1347   7.333   1.711   2.921  1.6803 -0.7864 -0.7457
  472TIP3   OH2 1348   6.625   0.808   1.444 -0.2509  0.3238  0.1132
  472TIP3    H1 1349   6.702   0.790   1.391 -1.5227  0.1837 -1.7367
  472TIP3    H2 1350   6.636   0.754   1.522  1.0764 -0.3908 -0.5495
  473TIP3   OH2 1351   5.704   1.989   0.193 -0.2239  0.1033 -0.3169
  473TIP3    H1 1352   5.650   2.002   0.271  0.8184  0.0193  0.4329
  473TIP3    H2 1353   5.747   2.074   0.180 -0.6517  0.2173 -1.0039
  474TIP3   OH2 1354   5.181   2.887   1.026 -0.1554 -0.4459  0.1788
  474TIP3    H1 1355   5.181   2.978   0.996  0.5993  0.4191  2.7008
  474TIP3    H2 1356   5.216   2.891   1.115 -0.2543 -3.1980  0.3785
  475TIP3   OH2 1357   7.798   3.243   0.811 -0.0785 -0.8197  0.0128
  475TIP3    H1 1358   7.845   3.161   0.796  0.0297 -0.6615 -0.5215
  475TIP3    H2 1359   7.803   3.290   0.727  0.9722  0.3065  0.6805
  476TIP3   OH2 1360   6.780   2.299   1.333 -0.7757  0.3853 -0.3094
  476TIP3    H1 1361   6.871   2.314   1.358 -0.4651  0.5068 -1.5004
  476TIP3    H2 1362   6.776   2.206   1.313 -0.6109  0.6144 -1.4504
  477TIP3   OH2 1363   6.796   1.098   2.016 -0.3563 -0.1348  0.7715
  477TIP3    H1 1364   6.798   1.185   1.976 -0.5504 -0.0333  0.9847
  477TIP3    H2 1365   6.740   1.047   1.958  0.0845 -0.2286  0.4220
  478TIP3   OH2 1366   1.351   7.286   6.643  0.0009 -0.8879 -0.0646
  478TIP3    H1 1367   1.367   7.192   6.633 -0.3776 -0.9381 -0.1915
  478TIP3    H2 1368   1.412   7.327   6.582  2.0457 -0.9363  1.8800
  479TIP3   OH2 1369   7.560   4.633   6.188  0.3751 -0.4478 -0.0672
  479TIP3    H1 1370   7.478   4.682   6.182 -0.6529 -2.2680 -1.2948
  479TIP3    H2 1371   7.543   4.566   6.254  0.3705 -1.7270 -1.3407
  480TIP3   OH2 1372   5.938   4.429   0.086 -0.4824  0.9006 -0.1215
  480TIP3    H1 1373   6.031   4.409   0.090 -0.1225  1.9359 -2.4051
  480TIP3    H2 1374   5.895   4.350   0.119  1.2085  0.9396  2.2458
  481TIP3   OH2 1375   3.181   1.949   1.411  0.2733 -0.2375  0.6961
  481TIP3    H1 1376   3.130   1.883   1.458 -0.2066 -0.5861 -0.2974
  481TIP3    H2 1377   3.219   1.901   1.337 -0.4872  0.7045 -0.3143
  482TIP3   OH2 1378   6.977   1.566   0.606  0.2584  0.0198 -0.5952
  482TIP3    H1 1379   6.908   1.622   0.569  0.1955 -0.3980 -1.1153
  482TIP3    H2 1380   6.938   1.530   0.685  0.2599  0.6263 -0.3169
  483TIP3   OH2 1381   7.454   3.902   0.554  0.1241  0.0406  0.4937
  483TIP3    H1 1382   7.469   3.992   0.525  1.3996  0.5739  2.6125
  483TIP3    H2 1383   7.497   3.848   0.488 -0.1118  1.0163 -0.4712
  484TIP3   OH2 1384   1.857   7.582   5.700 -0.5176  0.0424  0.2314
  484TIP3    H1 1385   1.824   7.493   5.696  0.6552 -0.4298  0.8294
  484TIP3    H2 1386   1.922   7.581   5.770 -1.4399  1.6916  1.1465
  485TIP3   OH2 1387   0.969   5.919   6.346 -0.7403  0.0589  0.0360
  485TIP3    H1 1388   0.881   5.918   6.384 -0.5373  1.8223  0.6387
  485TIP3    H2 1389   0.993   6.012   6.345  1.0797 -0.3875 -0.1925
  486TIP3   OH2 1390   4.981   3.761   1.914  0.3658 -0.4732  0.0086
  486TIP3    H1 1391   5.061   3.810   1.935 -0.1838  0.7183 -0.6299
  486TIP3    H2 1392   4.966   3.779   1.821 -0.0246 -1.6106 -0.1594
  487TIP3   OH2 1393   6.544   2.826   0.295  0.0629  0.1027  0.0642
  487TIP3    H1 1394   6.586   2.901   0.337 -1.7564  0.7302  0.8020
  487TIP3    H2 1395   6.521   2.768   0.368 -1.9960  0.6258 -0.1597
  488TIP3   OH2 1396   5.494   2.862   1.732 -0.3326  0.3396 -0.0264
  488TIP3    H1 1397   5.481   2.940   1.786 -0.1881  0.0657  0.4047
  488TIP3    H2 1398   5.446   2.880   1.652 -1.5053  0.2717  0.6543
  489TIP3   OH2 1399   4.795   1.695   1.113 -0.5344  0.1295  0.9549
  489TIP3    H1 1400   4.733   1.632   1.077  0.1018 -0.9707  1.7549
  489TIP3    H2 1401   4.881   1.659   1.092 -0.0792  2.7203 -2.0644
  490TIP3   OH2 1402   5.890   1.220   0.299 -0.0382  0.1412 -0.4600
  490TIP3    H1 1403   5.877   1.179   0.213  1.6350  1.8139 -1.5535
  490TIP3    H2 1404   5.863   1.310   0.286 -0.9172  0.1192  1.1313
  491TIP3   OH2 1405   6.626   3.025   0.082  0.8917  0.3119  0.0693
  491TIP3    H1 1406   6.640   2.946   0.134  2.2468 -0.5294 -1.5169
  491TIP3    H2 1407   6.713   3.065   0.076  0.6433  0.7112 -1.0032
  492TIP3   OH2 1408   5.869   4.389   1.379  0.2861 -0.0031  0.5642
  492TIP3    H1 1409   5.891   4.481   1.390 -0.1645 -0.0889  2.2863
  492TIP3    H2 1410   5.787   4.389   1.330  0.4944  0.4999  0.2131
  493TIP3   OH2 1411   5.042   1.118   1.462 -0.4876 -0.0625  0.2424
  493TIP3    H1 1412   5.064   1.050   1.399 -0.6607  0.5643 -0.5135
  493TIP3    H2 1413   5.126   1.158   1.484 -0.4784  0.0288  0.0425
  494TIP3   OH2 1414   2.288   7.458   1.358 -0.3795 -0.6210 -0.3752
  494TIP3    H1 1415   2.312   7.478   1.268  0.0071  0.9552  0.0766
  494TIP3    H2 1416   2.278   7.543   1.401  0.3545 -1.3612  1.3134
  495TIP3   OH2 1417   4.119   1.928   2.812  0.1739  0.2980 -0.2503
  495TIP3    H1 1418   4.024   1.929   2.817  0.1620 -1.4997  0.0592
  495TIP3    H2 1419   4.139   1.870   2.739  1.0636 -0.2431  0.4177
  496TIP3   OH2 1420   3.535   2.863   2.487  0.3505  0.0629  0.1830
  496TIP3    H1 1421   3.538   2.957   2.504  2.3310  0.3803 -1.7036
  496TIP3    H2 1422   3.590   2.851   2.409 -1.8596 -2.3188 -1.0932
  497TIP3   OH2 1423   5.686   3.569   1.232  0.5890 -0.5361 -0.4716
  497TIP3    H1 1424   5.774   3.533   1.241 -0.0375 -1.4606  3.0118
  497TIP3    H2 1425   5.629   3.498   1.263 -1.1428  1.0183 -0.0284
  498TIP3   OH2 1426   4.029   2.586   0.382  0.5830 -0.0678 -0.0941
  498TIP3    H1 1427   4.104   2.528   0.366  0.7545 -0.6033  2.3429
  498TIP3    H2 1428   3.953   2.535   0.357  0.9756  0.3107 -2.1645
  499TIP3   OH2 1429   4.181   1.048   0.658 -0.0173  0.3854 -0.6301
  499TIP3    H1 1430   4.199   1.023   0.568 -0.8857 -1.5502 -0.3095
  499TIP3    H2 1431   4.086   1.041   0.666  0.2486 -1.8223  1.0705
  500TIP3   OH2 1432   2.452   4.270   1.431  0.6111 -0.1948  0.0624
  500TIP3    H1 1433   2.458   4.366   1.427 -1.1686 -0.0841 -0.1924
  500TIP3    H2 1434   2.419   4.252   1.519 -1.3182 -0.4495 -0.7009
  501TIP3   OH2 1435   3.783   7.972   0.272 -0.2790  0.2214 -0.0060
  501TIP3    H1 1436   3.835   8.023   0.334  0.3468 -0.0992 -0.2594
  501TIP3    H2 1437   3.808   7.881   0.289 -0.0512  0.1363 -0.7682
  502TIP3   OH2 1438   0.593   7.545   4.890 -0.0827 -0.2775  0.5785
  502TIP3    H1 1439   0.599   7.612   4.822 -0.1880  0.1167  0.9616
  502TIP3    H2 1440   0.586   7.463   4.841  1.8748 -0.1902  0.1235
  503TIP3   OH2 1441   6.981   1.526   1.264 -0.2809  0.4400  0.3400
  503TIP3    H1 1442   7.038   1.551   1.190 -1.8470  1.8434 -0.4423
  503TIP3    H2 1443   6.955   1.610   1.303 -0.6753 -0.2405  1.5604
  504TIP3   OH2 1444   5.060   2.049   0.844 -0.7229  0.2802 -0.0431
  504TIP3    H1 1445   5.153   2.073   0.845 -0.9569  1.2119  1.5898
  504TIP3    H2 1446   5.051   1.986   0.916 -0.9552 -1.4969 -1.5763
  505TIP3   OH2 1447   4.701   1.017   3.324  0.3495  0.5169 -0.7493
  505TIP3    H1 1448   4.777   1.042   3.376 -0.7897  2.6704 -0.0314
  505TIP3    H2 1449   4.629   1.070   3.360 -1.6096 -1.8573 -1.0583
  506TIP3   OH2 1450   7.616   3.515   2.209  0.4229  0.2723 -0.0335
  506TIP3    H1 1451   7.652   3.429   2.229  1.0507  0.4141 -0.5275
  506TIP3    H2 1452   7.647   3.572   2.279 -2.1467 -0.4234  1.7709
  507TIP3   OH2 1453   6.060   2.335   0.156  0.0097 -0.7097 -0.0288
  507TIP3    H1 1454   6.103   2.273   0.215  0.3670 -0.5947 -0.1634
  507TIP3    H2 1455   6.118   2.411   0.155 -0.8763 -0.0137  0.8213
  508TIP3   OH2 1456   5.363   3.745   1.436 -0.1751  0.0332 -0.0349
  508TIP3    H1 1457   5.272   3.730   1.409  0.8062  1.1384 -4.2211
  508TIP3    H2 1458   5.363   3.725   1.530 -4.5044 -0.9442 -0.1276
  509TIP3   OH2 1459   5.292   3.291   1.147  0.0400  0.1173 -0.1298
  509TIP3    H1 1460   5.311   3.201   1.174 -0.9936  0.1637  0.7615
  509TIP3    H2 1461   5.259   3.282   1.057  0.6536 -0.3131 -0.3171
  510TIP3   OH2 1462   7.184   1.355   1.394  0.3552  0.4587 -0.5427
  510TIP3    H1 1463   7.234   1.420   1.444 -0.3548  1.2654 -0.8752
  510TIP3    H2 1464   7.116   1.406   1.350 -1.0515 -0.6820  0.2636
  511TIP3   OH2 1465   7.462   2.026   0.090  0.5701  0.3647  0.1418
  511TIP3    H1 1466   7.503   2.061   0.011 -1.0875 -2.7976 -2.2538
  511TIP3    H2 1467   7.493   1.936   0.095 -2.7897 -0.8468  0.5345
  512TIP3   OH2 1468   6.846   0.524   1.149  0.0588 -0.2123  0.2160
  512TIP3    H1 1469   6.865   0.430   1.141 -0.7956 -0.2699 -1.3844
  512TIP3    H2 1470   6.777   0.540   1.084 -1.0400  1.1832  1.7087
  513TIP3   OH2 1471   3.464   1.785   1.320 -0.0629  0.1816  0.4260
  513TIP3    H1 1472   3.502   1.774   1.407  0.9972  0.7578  0.0423
  513TIP3    H2 1473   3.458   1.880   1.309  0.5397  0.1274 -0.4390
  514TIP3   OH2 1474   7.216   3.860   4.871 -0.2366 -0.3569 -0.1645
  514TIP3    H1 1475   7.307   3.891   4.874 -0.4448  0.2813 -0.3335
  514TIP3    H2 1476   7.224   3.766   4.852  0.3761 -0.2200 -0.6318
  515TIP3   OH2 1477   5.691   0.381   1.483 -0.9241  0.4790 -0.1279
  515TIP3    H1 1478   5.742   0.383   1.563 -1.3329  0.0753  0.1429
  515TIP3    H2 1479   5.607   0.342   1.508 -0.7966 -0.3100 -0.9032
  516TIP3   OH2 1480   3.985   2.560   1.358 -0.2767  0.1665  0.0385
  516TIP3    H1 1481   4.014   2.470   1.345 -1.3664 -0.2998  0.7537
  516TIP3    H2 1482   4.021   2.608   1.284 -0.3831 -1.0221 -0.7892
  517TIP3   OH2 1483   2.256   6.129   5.129  0.3199 -0.2801 -0.2521
  517TIP3    H1 1484   2.276   6.135   5.036 -1.3626 -0.4305 -0.6308
  517TIP3    H2 1485   2.301   6.204   5.168 -0.9644  1.2002 -1.5399
  518TIP3   OH2 1486   8.317   2.685   0.157 -0.4717  0.7364 -0.6769
  518TIP3    H1 1487   8.405   2.691   0.121 -0.0671 -0.8412  0.0011
  518TIP3    H2 1488   8.266   2.640   0.090 -0.2232 -0.3384 -0.1430
  519TIP3   OH2 1489   6.193   3.077   1.237 -0.0891  0.1331 -0.1753
  519TIP3    H1 1490   6.217   3.057   1.146 -1.6468 -0.7473 -0.4238
  519TIP3    H2 1491   6.113   3.026   1.251  0.5130 -0.2621  1.9192
  520TIP3   OH2 1492   2.961   0.416   0.160 -0.3166 -0.2767 -0.2533
  520TIP3    H1 1493   3.032   0.352   0.150 -0.5136 -0.5082 -0.1540
  520TIP3    H2 1494   2.960   0.463   0.076 -2.3528 -2.6191 -1.6007
  521TIP3   OH2 1495   2.929   7.250   0.917  0.2547  0.0958 -0.4400
  521TIP3    H1 1496   2.966   7.282   1.000 -0.6002 -1.4056  0.5581
  521TIP3    H2 1497   3.004   7.218   0.868  0.7466  0.7860 -0.1435
  522TIP3   OH2 1498   5.462   0.464   2.691 -0.3501 -0.0808 -0.0603
  522TIP3    H1 1499   5.445   0.524   2.764  0.9106 -0.7727  0.8419
  522TIP3    H2 1500   5.377   0.450   2.651 -1.0194  0.5675  1.0935
  523TIP3   OH2 1501   4.283   1.747   0.137  0.9717  0.5519  0.2986
  523TIP3    H1 1502   4.288   1.722   0.045  1.6807  1.1085  0.1778
  523TIP3    H2 1503   4.237   1.832   0.135  0.6832  0.3987  0.4876
  524TIP3   OH2 1504   0.622   7.978   2.698  0.4632 -0.4008  0.8648
  524TIP3    H1 1505   0.700   8.032   2.681 -0.6730  1.1868  0.5214
  524TIP3    H2 1506   0.654   7.888   2.698  1.9918  0.0916 -1.2515
  525TIP3   OH2 1507   4.616   0.738   0.920  0.1288 -0.4440  0.2865
  525TIP3    H1 1508   4.654   0.657   0.886  0.4662 -0.4039  0.5700
  525TIP3    H2 1509   4.530   0.744   0.878 -0.0083 -1.0894  0.4689
  526TIP3   OH2 1510   4.734   1.986   0.746  0.7864  0.0354  0.4119
  526TIP3    H1 1511   4.692   1.905   0.717  1.1418 -0.7519  2.0352
  526TIP3    H2 1512   4.691   2.007   0.829  2.9386 -0.3070  1.6672
  527TIP3   OH2 1513   3.556   2.967   1.193 -0.3040 -0.1836  0.3416
  527TIP3    H1 1514   3.584   2.960   1.102 -1.0950 -0.4333  0.1201
  527TIP3    H2 1515   3.638   2.966   1.243  0.1774  0.8934 -0.4191
  528TIP3   OH2 1516   8.135   1.558   1.384  0.0294  1.0109 -0.2268
  528TIP3    H1 1517   8.185   1.595   1.311  0.2559 -0.1120 -0.6446
  528TIP3    H2 1518   8.141   1.464   1.372 -0.4775  0.8326  0.8889
  529TIP3   OH2 1519   6.957   0.605   2.046  0.0195  0.1579 -0.5449
  529TIP3    H1 1520   6.982   0.559   2.126 -0.2047  0.2009 -0.4513
  529TIP3    H2 1521   6.993   0.551   1.975 -0.8069 -0.5071 -0.4587
  530TIP3   OH2 1522   7.416   4.746   1.669 -0.1322 -0.0491 -0.2607
  530TIP3    H1 1523   7.425   4.666   1.721 -1.8872  1.7406  2.9941
  530TIP3    H2 1524   7.340   4.790   1.708  1.0968  3.4259 -1.6703
  531TIP3   OH2 1525   6.213   3.614   0.303  1.0407  0.8439 -0.0124
  531TIP3    H1 1526   6.167   3.531   0.294  0.8605  0.9070  0.3233
  531TIP3    H2 1527   6.283   3.610   0.237  2.3313 -0.4458  1.3940
  532TIP3   OH2 1528   5.180   1.118   0.087  0.4621 -0.1620  0.6361
  532TIP3    H1 1529   5.241   1.167   0.032 -0.2074 -0.2881 -0.2321
  532TIP3    H2 1530   5.231   1.044   0.119  0.9826  0.1536  0.5465
  533TIP3   OH2 1531   8.375   5.429   6.440 -0.1991 -0.0845  0.0675
  533TIP3    H1 1532   8.327   5.509   6.419 -0.1246  0.1562  0.8049
  533TIP3    H2 1533   8.307   5.364   6.454 -0.2324 -0.9093 -3.3746
  534TIP3   OH2 1534   2.411   7.806   0.689 -0.4891  0.2162 -0.1367
  534TIP3    H1 1535   2.344   7.743   0.712 -0.5087  0.3365  0.1320
  534TIP3    H2 1536   2.478   7.755   0.644 -0.6111  0.0435 -0.1211
  535TIP3   OH2 1537   7.159   4.598   6.078  0.0890 -0.3944 -0.2053
  535TIP3    H1 1538   7.067   4.619   6.096  0.1293 -1.7337  1.7339
  535TIP3    H2 1539   7.209   4.660   6.129  0.2205 -1.9524  1.6124
  536TIP3   OH2 1540   6.775   2.720   0.776 -0.2867  0.6046 -0.3418
  536TIP3    H1 1541   6.774   2.632   0.813 -2.3555  1.7631  2.4942
  536TIP3    H2 1542   6.866   2.734   0.749  0.2837 -1.9782  0.1747
  537TIP3   OH2 1543   3.801   0.823   6.299 -0.7633  0.6125  0.4473
  537TIP3    H1 1544   3.763   0.736   6.315 -0.4301  0.0047 -1.8545
  537TIP3    H2 1545   3.895   0.807   6.291 -0.8416  0.9239 -1.4237
  538TIP3   OH2 1546   5.478   2.630   0.642  0.1618 -0.7696  0.5811
  538TIP3    H1 1547   5.410   2.587   0.590 -0.0986  0.8206 -0.4226
  538TIP3    H2 1548   5.438   2.712   0.671  1.4915 -0.0232  0.3604
  539TIP3   OH2 1549   5.690   4.873   0.548 -0.1223 -0.2154  0.0357
  539TIP3    H1 1550   5.626   4.861   0.617 -0.2768  1.1739  0.1540
  539TIP3    H2 1551   5.650   4.835   0.470  0.0556 -1.7857  0.6986
  540TIP3   OH2 1552   5.935   1.858   1.097  0.0668 -0.2537 -0.2186
  540TIP3    H1 1553   5.963   1.918   1.027  0.6318  2.2177  2.0701
  540TIP3    H2 1554   5.878   1.911   1.153 -1.0702 -2.4421  0.7665
  541TIP3   OH2 1555   0.330   5.637   5.994 -0.0688 -0.0060 -0.6721
  541TIP3    H1 1556   0.395   5.578   6.031 -0.6045 -0.2288 -0.0700
  541TIP3    H2 1557   0.329   5.616   5.900  0.4371 -0.2749 -0.6170
  542TIP3   OH2 1558   6.437   6.130   5.514 -0.1086  0.4743  0.3952
  542TIP3    H1 1559   6.523   6.172   5.510 -1.1067  2.5086 -0.4994
  542TIP3    H2 1560   6.396   6.151   5.430 -1.4344 -0.6050  0.7436
  543TIP3   OH2 1561   2.485   2.383   0.726 -0.1566 -0.3944 -0.1793
  543TIP3    H1 1562   2.469   2.364   0.818  1.6079  0.0395  0.2415
  543TIP3    H2 1563   2.400   2.408   0.691 -0.3737  2.2577  2.0290
  544TIP3   OH2 1564   7.689   2.293   0.681 -0.1411 -0.3177 -0.1289
  544TIP3    H1 1565   7.732   2.209   0.694  0.9246  0.5096  2.0551
  544TIP3    H2 1566   7.607   2.286   0.730  1.3481  0.9069  2.6795
  545TIP3   OH2 1567   3.397   7.463   1.660  0.7259  0.2253  0.1409
  545TIP3    H1 1568   3.322   7.407   1.639  0.1211  0.8221  0.6668
  545TIP3    H2 1569   3.385   7.541   1.605  1.1865  0.1508 -0.0726
  546TIP3   OH2 1570   6.031   7.955   5.857 -0.1400  0.1938  0.3401
  546TIP3    H1 1571   6.083   7.959   5.777 -1.0862  1.0423 -0.2406
  546TIP3    H2 1572   6.082   8.004   5.922 -0.4046  1.3890 -0.3397
  547TIP3   OH2 1573   6.972   2.634   0.162  0.0258 -0.5982  0.0644
  547TIP3    H1 1574   6.932   2.702   0.108  0.6824 -1.3935 -1.4566
  547TIP3    H2 1575   6.899   2.596   0.210 -0.4074  0.8911  0.6192
  548TIP3   OH2 1576   0.326   2.189   1.602 -0.2174  0.6319 -0.4180
  548TIP3    H1 1577   0.316   2.258   1.537 -2.8672  1.8065  1.1440
  548TIP3    H2 1578   0.319   2.108   1.552 -1.0399  1.5149 -1.7740
  549TIP3   OH2 1579   7.413   1.374   1.817 -1.0038 -0.3560 -0.4497
  549TIP3    H1 1580   7.410   1.329   1.732 -3.4981  1.7496 -1.5367
  549TIP3    H2 1581   7.323   1.401   1.833 -0.0061  1.9740  1.4188
  550TIP3   OH2 1582   4.023   2.110   1.685  0.7358  0.2765  0.2587
  550TIP3    H1 1583   3.969   2.127   1.763  1.2275 -0.5726  0.7862
  550TIP3    H2 1584   3.959   2.101   1.614  0.1733 -0.8120  0.8975
  551TIP3   OH2 1585   5.543   5.977   6.897 -0.5573 -0.1989  0.1328
  551TIP3    H1 1586   5.477   5.910   6.916 -0.9485 -0.0508 -0.6945
  551TIP3    H2 1587   5.552   6.027   6.978 -1.0197 -0.6033  0.4275
  552TIP3   OH2 1588   3.958   2.060   2.239  0.5727 -0.5285  0.2374
  552TIP3    H1 1589   4.038   2.022   2.274  0.6058 -1.0398 -0.3857
  552TIP3    H2 1590   3.960   2.151   2.268  1.6786 -0.3775 -0.2698
  553TIP3   OH2 1591   4.324   1.337   2.786  0.6791 -0.0182  0.0634
  553TIP3    H1 1592   4.330   1.302   2.875 -1.1725 -0.5086  0.0140
  553TIP3    H2 1593   4.246   1.394   2.788  0.4035 -0.3288 -1.3398
  554TIP3   OH2 1594   5.888   1.354   2.344  0.1439 -0.0744 -0.1446
  554TIP3    H1 1595   5.881   1.404   2.263  0.2725 -0.6521 -0.5157
  554TIP3    H2 1596   5.830   1.280   2.332  0.5534 -0.4353  0.0839
  555TIP3   OH2 1597   6.981   2.015   1.405  0.4594  0.2032 -0.1017
  555TIP3    H1 1598   6.975   1.951   1.476 -1.9688  0.7223  0.2324
  555TIP3    H2 1599   6.971   1.963   1.325 -1.5874  0.1191  0.1701
  556TIP3   OH2 1600   3.883   2.645   1.610 -0.3345  0.0173  0.1879
  556TIP3    H1 1601   3.801   2.680   1.576  0.9536  1.4178 -1.6492
  556TIP3    H2 1602   3.937   2.631   1.532  0.9190 -1.5096  1.3036
  557TIP3   OH2 1603   5.383   2.289   1.040 -0.2505 -0.9004  0.1733
  557TIP3    H1 1604   5.404   2.290   1.133 -1.0834 -0.4457  0.3657
  557TIP3    H2 1605   5.421   2.370   1.006  0.4614 -1.2959  0.0206
  558TIP3   OH2 1606   0.805   6.321   6.447  0.0734 -0.3055 -0.1578
  558TIP3    H1 1607   0.735   6.282   6.500 -0.7422  0.0384 -0.9746
  558TIP3    H2 1608   0.760   6.382   6.389  0.7538 -1.8372 -2.3584
  559TIP3   OH2 1609   6.668   2.549   1.781 -0.1733  0.4374 -0.2028
  559TIP3    H1 1610   6.694   2.464   1.746 -1.5584 -0.1745  0.2129
  559TIP3    H2 1611   6.741   2.607   1.760  0.7129 -0.8134 -0.6411
  560TIP3   OH2 1612   5.257   0.878   0.684  0.1453 -0.3942 -0.7788
  560TIP3    H1 1613   5.326   0.813   0.670  0.4331 -0.1135 -0.6578
  560TIP3    H2 1614   5.211   0.848   0.763  2.2488  1.2400  1.1335
  561TIP3   OH2 1615   6.148   0.553   2.790  0.1482 -0.0303  0.1091
  561TIP3    H1 1616   6.227   0.574   2.840 -1.9885  2.3960  2.6314
  561TIP3    H2 1617   6.099   0.493   2.846 -0.2373 -0.7919 -1.0257
  562TIP3   OH2 1618   1.535   5.867   6.786 -0.1177 -0.4638 -0.2287
  562TIP3    H1 1619   1.486   5.868   6.868 -2.1938 -0.1428 -1.4167
  562TIP3    H2 1620   1.467   5.875   6.718  1.4571 -1.7760 -2.0044
  563TIP3   OH2 1621   4.771   0.065   0.698 -0.1212  0.2401  0.0429
  563TIP3    H1 1622   4.830   0.082   0.625 -0.5354  1.9258  0.0678
  563TIP3    H2 1623   4.801  -0.017   0.736  0.6965 -0.1492 -1.4279
  564TIP3   OH2 1624   3.858   0.317   6.861  0.1252  0.4088  0.3104
  564TIP3    H1 1625   3.849   0.318   6.766 -0.6940 -0.5544  0.3720
  564TIP3    H2 1626   3.906   0.237   6.880 -0.5145  0.1358  0.7746
  565TIP3   OH2 1627   4.983   0.956   2.444  0.0523 -0.9283  0.2904
  565TIP3    H1 1628   4.995   1.050   2.458  3.3421 -1.2281 -0.1677
  565TIP3    H2 1629   4.904   0.950   2.390  1.2617  1.7791 -1.9034
  566TIP3   OH2 1630   2.712   7.832   0.651 -0.4121 -0.8840  0.1800
  566TIP3    H1 1631   2.731   7.751   0.603 -0.0445  0.2058 -1.5527
  566TIP3    H2 1632   2.796   7.878   0.654 -1.1594  0.6089 -1.1290
  567TIP3   OH2 1633   4.222   0.353   3.574  0.0114  0.1939  0.5407
  567TIP3    H1 1634   4.211   0.258   3.575  1.1888  0.0644  1.3542
  567TIP3    H2 1635   4.163   0.385   3.642 -0.8068  0.1081 -0.1094
  568TIP3   OH2 1636   6.439   2.732   0.048 -0.0148  0.1826  0.3610
  568TIP3    H1 1637   6.478   2.768   0.128  0.0261  0.1208  0.3686
  568TIP3    H2 1638   6.407   2.809   0.000 -1.1192  0.1310  1.0012
  569TIP3   OH2 1639   5.675   0.582   0.856 -0.7590 -0.1202 -0.2868
  569TIP3    H1 1640   5.745   0.645   0.868  0.0482 -1.0647  0.0905
  569TIP3    H2 1641   5.616   0.596   0.931 -1.7769  1.6801 -1.4072
  570TIP3   OH2 1642   6.534   1.858   2.366  0.3322  0.5288  0.5181
  570TIP3    H1 1643   6.542   1.790   2.433  0.1078 -2.2834 -2.1853
  570TIP3    H2 1644   6.623   1.891   2.355  0.3960  0.8887  2.0393
  571TIP3   OH2 1645   6.230   0.223   0.738  0.8368 -0.1013 -0.4010
  571TIP3    H1 1646   6.177   0.301   0.754 -0.2798 -1.3371  2.1923
  571TIP3    H2 1647   6.202   0.192   0.652 -1.2127  0.4063  0.0601
  572TIP3   OH2 1648   2.975   7.279   1.190  0.1963  0.1010 -0.3218
  572TIP3    H1 1649   2.990   7.368   1.220 -0.1599  0.6162 -1.6236
  572TIP3    H2 1650   2.883   7.263   1.209  0.4124 -0.2181  0.4751
  573TIP3   OH2 1651   6.692   1.943   1.224  0.0046 -0.4399  0.3756
  573TIP3    H1 1652   6.616   1.947   1.283  0.2230  3.5804  0.5380
  573TIP3    H2 1653   6.766   1.923   1.281  0.0270  2.2356  1.3762
  574TIP3   OH2 1654   8.400   1.788   2.450  0.2070  0.1180 -0.0692
  574TIP3    H1 1655   8.446   1.763   2.370 -0.0676  1.0199 -0.5120
  574TIP3    H2 1656   8.322   1.732   2.451  0.3174 -0.0420 -0.3261
  575TIP3   OH2 1657   5.437   2.883   0.741  0.1387 -0.6164 -0.0716
  575TIP3    H1 1658   5.520   2.925   0.762 -0.0163 -0.3068 -0.0663
  575TIP3    H2 1659   5.375   2.920   0.804 -0.0652 -0.6131 -0.2716
  576TIP3   OH2 1660   7.738   0.740   1.982  0.0837 -0.0689 -0.5691
  576TIP3    H1 1661   7.708   0.827   1.956  1.7206  0.2454 -1.4557
  576TIP3    H2 1662   7.702   0.728   2.070  0.3534  1.7579 -0.1864
  577TIP3   OH2 1663   2.903   3.131   1.248 -0.2859  0.3020 -0.1342
  577TIP3    H1 1664   2.863   3.191   1.311  0.0288 -1.1779  1.5181
  577TIP3    H2 1665   2.997   3.142   1.261 -0.2234 -0.2191 -0.1377
  578TIP3   OH2 1666   6.412   1.525   0.485 -0.1728 -0.3939 -0.6418
  578TIP3    H1 1667   6.346   1.522   0.554  1.1892 -1.7317  0.6576
  578TIP3    H2 1668   6.495   1.535   0.532  0.5090  2.1647 -2.2885
  579TIP3   OH2 1669   3.759   3.177   1.848 -0.1633  0.2793  0.0758
  579TIP3    H1 1670   3.754   3.098   1.902  0.6185 -0.3175 -0.7105
  579TIP3    H2 1671   3.737   3.249   1.908  3.0211 -0.0922  1.8109
  580TIP3   OH2 1672   8.202   3.126   0.751  0.4079  0.5932 -0.0445
  580TIP3    H1 1673   8.198   3.220   0.765 -0.6274  0.5719 -0.1884
  580TIP3    H2 1674   8.116   3.103   0.716  1.1829 -0.1577 -1.5112
  581TIP3   OH2 1675   5.779   6.290   5.340 -0.2666  0.2384  0.1040
  581TIP3    H1 1676   5.731   6.335   5.409  0.5045 -1.4002  1.7712
  581TIP3    H2 1677   5.812   6.210   5.382  2.3458  0.4180 -1.4547
  582TIP3   OH2 1678   4.722   3.945   3.195 -0.0207  0.3473 -0.2686
  582TIP3    H1 1679   4.744   3.881   3.263  0.5710 -0.2296 -0.9932
  582TIP3    H2 1680   4.776   4.021   3.216  0.8548 -0.1640 -0.6055
  583TIP3   OH2 1681   0.553   2.125   0.543  0.0404  0.0617 -0.1426
  583TIP3    H1 1682   0.487   2.167   0.487 -0.5115 -2.2626 -1.3045
  583TIP3    H2 1683   0.518   2.038   0.560  1.7399 -0.3866  1.1792
  584TIP3   OH2 1684   8.203   5.448   6.839 -0.4248  0.2199 -0.2006
  584TIP3    H1 1685   8.214   5.543   6.834  1.2664  0.1135  1.0456
  584TIP3    H2 1686   8.175   5.423   6.751 -1.1989  1.8999 -0.4652
  585TIP3   OH2 1687   3.793   1.478   1.114 -0.3185  0.5544 -0.2424
  585TIP3    H1 1688   3.870   1.523   1.080  0.2769 -1.2192 -1.2997
  585TIP3    H2 1689   3.795   1.495   1.208  1.8903 -0.2707 -0.1221
  586TIP3   OH2 1690   2.226   6.083   6.890 -0.1402 -0.0636 -0.4726
  586TIP3    H1 1691   2.171   6.132   6.951  0.7759  0.1540  0.1960
  586TIP3    H2 1692   2.210   5.991   6.910  1.0582  0.0198  0.9295
  587TIP3   OH2 1693   6.240   2.830   0.322 -0.2513  0.4097 -0.2262
  587TIP3    H1 1694   6.232   2.769   0.395  1.8538 -0.0289 -0.3238
  587TIP3    H2 1695   6.335   2.843   0.312 -0.5449  1.1229 -2.3137
  588TIP3   OH2 1696   4.921   0.504   1.243 -0.0703 -0.4650  0.0611
  588TIP3    H1 1697   4.892   0.585   1.200  1.5065  0.1850  0.1818
  588TIP3    H2 1698   4.922   0.525   1.336 -0.2107 -0.8108  0.1416
  589TIP3   OH2 1699   4.798   5.033   1.545  0.3295 -0.0221  0.1154
  589TIP3    H1 1700   4.778   5.114   1.591 -1.5770 -0.9310  0.9498
  589TIP3    H2 1701   4.833   4.975   1.613  0.5609 -0.3120 -0.2452
  590TIP3   OH2 1702   6.100   1.049   2.137  0.1484  0.1337 -0.2015
  590TIP3    H1 1703   6.015   1.026   2.100 -0.1738  1.5536 -0.3770
  590TIP3    H2 1704   6.134   1.117   2.079 -0.0539  1.8818  1.6902
  591TIP3   OH2 1705   1.721   7.912   0.541 -0.2528 -0.3986  0.4608
  591TIP3    H1 1706   1.649   7.972   0.523 -0.1474 -0.6994 -1.0583
  591TIP3    H2 1707   1.788   7.966   0.583 -0.4923  0.3773 -0.1511
  592TIP3   OH2 1708   4.848   1.983   1.120  0.5888  0.2046 -0.6860
  592TIP3    H1 1709   4.943   1.998   1.128  0.7035 -1.3103  1.3471
  592TIP3    H2 1710   4.841   1.895   1.083  0.0013  0.0008 -0.1118
  593TIP3   OH2 1711   1.335   7.603   3.559 -0.0206 -0.2660  0.2808
  593TIP3    H1 1712   1.241   7.589   3.561 -0.4890  2.1647 -2.3848
  593TIP3    H2 1713   1.365   7.563   3.477  1.1732 -0.4490  0.7842
  594TIP3   OH2 1714   6.956   1.316   1.080 -0.1263  0.1143 -1.0059
  594TIP3    H1 1715   6.939   1.404   1.115  0.9883 -0.0534 -0.0359
  594TIP3    H2 1716   6.956   1.259   1.156 -0.7847 -0.7296 -1.6310
  595TIP3   OH2 1717   7.895   5.256   5.368  0.8474  0.1518 -0.0967
  595TIP3    H1 1718   7.804   5.253   5.396 -0.1258  0.4477 -3.0292
  595TIP3    H2 1719   7.941   5.298   5.440 -1.2571 -0.3852  1.6026
  596TIP3   OH2 1720   6.228   3.995   0.083 -0.5080  0.1569  0.6037
  596TIP3    H1 1721   6.139   4.010   0.052 -0.8390  0.2942  1.6117
  596TIP3    H2 1722   6.217   3.950   0.166  0.2957  2.4959  2.0079
  597TIP3   OH2 1723   1.593   7.153   2.100 -0.3427 -0.1153  0.0542
  597TIP3    H1 1724   1.664   7.119   2.154  0.4345 -1.6434 -1.8624
  597TIP3    H2 1725   1.638   7.186   2.022 -1.7032 -0.7789 -1.0215
  598TIP3   OH2 1726   4.528   1.791   1.209  0.4429  0.3674  0.0197
  598TIP3    H1 1727   4.618   1.823   1.199  1.0898 -1.6403 -0.8928
  598TIP3    H2 1728   4.477   1.842   1.146  0.6116  2.7106  1.7419
  599TIP3   OH2 1729   6.441   3.158   0.281 -0.3633  0.2024  0.2052
  599TIP3    H1 1730   6.352   3.123   0.288 -1.0185  2.0187  1.1762
  599TIP3    H2 1731   6.475   3.121   0.199 -1.8571 -0.8026  0.0201
  600TIP3   OH2 1732   3.738   1.118   6.630  0.2935 -0.5137 -0.4154
  600TIP3    H1 1733   3.658   1.170   6.621  1.4235  1.2770 -0.4142
  600TIP3    H2 1734   3.716   1.050   6.694  0.0962  2.6644  3.0508
  601TIP3   OH2 1735   6.392   3.531   1.245  0.3892 -0.0208 -0.2351
  601TIP3    H1 1736   6.460   3.509   1.309  0.2199  0.3383  0.0766
  601TIP3    H2 1737   6.401   3.466   1.176  2.0604  0.9243 -0.9516
  602TIP3   OH2 1738   6.569   3.398   1.430  0.0452 -0.6738  0.1230
  602TIP3    H1 1739   6.612   3.459   1.489  0.8749 -1.3860  0.2577
  602TIP3    H2 1740   6.509   3.348   1.486  0.6941 -1.2207  0.3325
  603TIP3   OH2 1741   4.912   1.138   0.821 -0.5045  0.5536 -0.3074
  603TIP3    H1 1742   4.990   1.129   0.767  0.1315  0.1670  0.6778
  603TIP3    H2 1743   4.901   1.232   0.833 -0.1892  0.6035 -0.4200
  604TIP3   OH2 1744   5.897   1.747   0.487 -0.1475 -0.3186  0.0176
  604TIP3    H1 1745   5.952   1.680   0.528 -0.6243  0.8524  2.6856
  604TIP3    H2 1746   5.907   1.824   0.544  0.0558  1.7585 -2.7247
  605TIP3   OH2 1747   6.050   3.260   0.905 -0.8204 -0.4570 -0.2784
  605TIP3    H1 1748   5.998   3.324   0.857  0.2384  0.0860 -0.6953
  605TIP3    H2 1749   6.108   3.312   0.961 -2.3877 -1.0653  2.0083
  606TIP3   OH2 1750   0.150   5.705   4.889 -0.6795 -0.2615  0.1316
  606TIP3    H1 1751   0.217   5.739   4.829 -1.5300  1.1569 -0.0439
  606TIP3    H2 1752   0.093   5.651   4.833 -0.7377  0.0274 -0.0908
  607TIP3   OH2 1753   5.032   2.302   1.788 -0.1215 -0.4191  0.0696
  607TIP3    H1 1754   5.036   2.308   1.693 -1.3566  1.2059  0.1117
  607TIP3    H2 1755   5.120   2.327   1.818 -0.0472  0.0895 -0.5825
  608TIP3   OH2 1756   1.160   6.820   6.160  0.2069 -0.1299  0.4860
  608TIP3    H1 1757   1.108   6.901   6.162  0.9663  0.3482  1.5165
  608TIP3    H2 1758   1.112   6.762   6.102 -0.4376  1.0130 -0.1504
  609TIP3   OH2 1759   4.326   2.017   0.617 -0.4387 -0.1311  0.1051
  609TIP3    H1 1760   4.266   2.011   0.692 -0.1342  0.8692  0.4412
  609TIP3    H2 1761   4.405   1.971   0.646  0.2513  1.5533  1.0003
  610TIP3   OH2 1762   7.535   6.429   4.486 -0.1554  0.1724  0.5530
  610TIP3    H1 1763   7.456   6.483   4.479 -1.3850 -1.8441 -1.7511
  610TIP3    H2 1764   7.511   6.358   4.545 -0.7446 -1.5059 -1.6417
  611TIP3   OH2 1765   5.688   2.672   2.226 -0.2511 -0.4628  0.0928
  611TIP3    H1 1766   5.693   2.710   2.138 -1.2282 -0.1786  0.1471
  611TIP3    H2 1767   5.685   2.578   2.211 -0.9132 -0.3968 -0.2120
  612TIP3   OH2 1768   3.650   2.688   2.200  0.7524  0.4442 -0.0502
  612TIP3    H1 1769   3.642   2.748   2.126 -1.0753 -0.5562 -0.7085
  612TIP3    H2 1770   3.624   2.603   2.164  0.6520 -0.2114  1.5434
  613TIP3   OH2 1771   8.205   5.210   6.416  0.5207 -0.7196  0.0112
  613TIP3    H1 1772   8.267   5.144   6.446  0.6768 -1.5527 -2.0730
  613TIP3    H2 1773   8.204   5.201   6.321 -0.8999  0.9943 -0.1662
  614TIP3   OH2 1774   6.515   0.034   1.136  0.7810 -0.2718  0.5789
  614TIP3    H1 1775   6.543   0.086   1.211 -2.1787  0.4911  1.2220
  614TIP3    H2 1776   6.591  -0.019   1.113  3.2061  2.8295  1.2159
  615TIP3   OH2 1777   5.968   3.676   1.054  0.3859 -0.0149  0.3541
  615TIP3    H1 1778   5.995   3.717   1.136 -2.1793  0.6594  0.9160
  615TIP3    H2 1779   5.932   3.592   1.080  1.0588 -0.5105 -0.2808
  616TIP3   OH2 1780   5.414   3.382   0.756  0.0243 -0.0706  0.3366
  616TIP3    H1 1781   5.341   3.325   0.777 -0.1388  0.2077  0.5208
  616TIP3    H2 1782   5.406   3.455   0.817  1.9483 -1.2983  2.1314
  617TIP3   OH2 1783   6.195   1.116   1.031 -0.6193  0.0376  0.0680
  617TIP3    H1 1784   6.179   1.138   0.939  0.3435 -0.5114 -0.2348
  617TIP3    H2 1785   6.176   1.023   1.037  0.2483 -0.1356  0.2041
  618TIP3   OH2 1786   3.556   0.424   5.629  0.3692  0.0057 -0.5597
  618TIP3    H1 1787   3.580   0.516   5.621  0.2735  0.0264 -0.6082
  618TIP3    H2 1788   3.480   0.414   5.572  0.9879 -0.3285 -1.3463
  619TIP3   OH2 1789   8.005   5.667   6.320 -0.2338 -0.7842  0.8126
  619TIP3    H1 1790   7.918   5.679   6.359  0.6689  1.0360  2.3292
  619TIP3    H2 1791   8.057   5.626   6.390  0.5040 -0.5829  0.3892
  620TIP3   OH2 1792   6.714   3.127   0.820 -0.4154  0.0088 -0.2143
  620TIP3    H1 1793   6.747   3.133   0.910 -0.6733 -1.2450 -0.0218
  620TIP3    H2 1794   6.770   3.186   0.770 -0.6259  1.1547  0.8649
  621TIP3   OH2 1795   5.341   1.025   0.439 -0.3540  0.3680 -0.1900
  621TIP3    H1 1796   5.318   0.963   0.369 -0.4339 -1.5406  1.4693
  621TIP3    H2 1797   5.389   0.972   0.503 -0.5726  2.0013  1.3667
  622TIP3   OH2 1798   1.074   5.869   6.879 -0.3276 -0.3297 -0.1125
  622TIP3    H1 1799   1.005   5.920   6.836 -1.7227 -2.2740 -0.2231
  622TIP3    H2 1800   1.035   5.838   6.960  0.9223 -0.2072  0.5527
  623TIP3   OH2 1801   3.210   7.833   0.261  0.4234 -0.3874 -0.6296
  623TIP3    H1 1802   3.169   7.839   0.347  1.2608  0.3226 -0.2801
  623TIP3    H2 1803   3.154   7.886   0.204 -0.0076 -0.6799 -0.4828
  624TIP3   OH2 1804   5.824   1.251   1.148 -0.5068  0.5539  0.2741
  624TIP3    H1 1805   5.737   1.265   1.186 -1.5399 -1.3278 -1.3578
  624TIP3    H2 1806   5.871   1.200   1.214 -0.8758  0.9569  0.8504
  625TIP3   OH2 1807   2.797   6.124   3.309 -0.4894  0.2776  0.3011
  625TIP3    H1 1808   2.834   6.178   3.379  0.8710  1.4488 -1.2909
  625TIP3    H2 1809   2.746   6.057   3.355 -0.8250  1.9021  2.3586
  626TIP3   OH2 1810   5.539   0.261   0.552 -0.0252  0.3229 -0.3124
  626TIP3    H1 1811   5.516   0.170   0.532  0.7946  0.1245 -0.3503
  626TIP3    H2 1812   5.551   0.263   0.647  0.4531  0.2800 -0.3717
  627TIP3   OH2 1813   4.849   0.387   2.534  0.1146  0.1283 -0.2645
  627TIP3    H1 1814   4.916   0.438   2.488  0.6365  1.3890  1.8101
  627TIP3    H2 1815   4.894   0.354   2.612 -1.0694 -0.9580 -0.0342
  628TIP3   OH2 1816   0.190   4.305   0.847 -0.4536 -0.4689 -0.0768
  628TIP3    H1 1817   0.147   4.247   0.785 -0.4479 -0.2660 -0.2743
  628TIP3    H2 1818   0.156   4.392   0.825 -0.8832 -0.4672  0.5767
  629TIP3   OH2 1819   1.452   7.021   6.632  0.1776 -0.2583 -0.3281
  629TIP3    H1 1820   1.404   6.952   6.586  0.5498  0.1520 -1.3283
  629TIP3    H2 1821   1.541   7.017   6.597  0.7280 -0.5722  1.0477
  630TIP3   OH2 1822   1.479   7.296   2.535 -0.0345  0.3771  0.6933
  630TIP3    H1 1823   1.571   7.269   2.526  0.0341  1.0236 -0.7573
  630TIP3    H2 1824   1.480   7.367   2.598  0.5916  0.9724  0.0176
  631TIP3   OH2 1825   2.575   7.363   5.557 -0.2333  0.4476  0.8117
  631TIP3    H1 1826   2.499   7.420   5.553  0.2213  0.9264 -1.8496
  631TIP3    H2 1827   2.645   7.413   5.516  1.0053 -0.7758  1.3991
  632TIP3   OH2 1828   7.333   4.419   2.611 -0.0847  0.0695 -0.1803
  632TIP3    H1 1829   7.299   4.338   2.649  0.5570  0.1525  0.5749
  632TIP3    H2 1830   7.348   4.398   2.519 -0.0396 -0.6398 -0.0135
  633TIP3   OH2 1831   6.167   2.589   0.486  0.0279 -0.2605 -0.3043
  633TIP3    H1 1832   6.073   2.574   0.483 -0.0618  0.4376 -1.1387
  633TIP3    H2 1833   6.199   2.560   0.401  0.3141  1.1066 -0.6733
  634TIP3   OH2 1834   8.057   3.915   1.501  0.2654  0.0483  0.1177
  634TIP3    H1 1835   8.035   3.884   1.589  0.7388  0.5384  0.4123
  634TIP3    H2 1836   8.029   4.007   1.501 -0.5108 -0.1834 -0.5217
  635TIP3   OH2 1837   2.485   7.936   5.942 -0.7881 -0.1724  0.1227
  635TIP3    H1 1838   2.570   7.961   5.977 -0.8424  1.1341 -0.6388
  635TIP3    H2 1839   2.500   7.850   5.902 -0.7471 -1.6985  3.3088
  636TIP3   OH2 1840   6.297   2.587   1.456  0.3750 -0.4397  0.0505
  636TIP3    H1 1841   6.255   2.630   1.530 -0.3683  0.8513 -1.1079
  636TIP3    H2 1842   6.388   2.618   1.459  0.9611 -2.1884  1.7527
  637TIP3   OH2 1843   3.984   0.225   5.725  0.9009  0.1435 -0.2176
  637TIP3    H1 1844   3.890   0.206   5.722  0.6112  1.3895  0.6458
  637TIP3    H2 1845   3.990   0.316   5.697  2.0631 -0.5221 -2.2591
  638TIP3   OH2 1846   8.228   0.825   3.360  0.3821 -0.0741  0.1329
  638TIP3    H1 1847   8.232   0.914   3.396 -1.4739 -0.4310  1.2902
  638TIP3    H2 1848   8.149   0.826   3.305  0.6617 -0.8517 -0.2815
  639TIP3   OH2 1849   7.776   1.295   3.990  0.0796 -0.1987 -0.2254
  639TIP3    H1 1850   7.743   1.375   3.947  0.3003  0.7792  1.4090
  639TIP3    H2 1851   7.703   1.266   4.044  1.0616  0.6302  1.5608
  640TIP3   OH2 1852   0.142   2.988   0.592  0.4929  0.0770 -0.2539
  640TIP3    H1 1853   0.145   3.082   0.614  2.2914 -0.3247  1.3445
  640TIP3    H2 1854   0.169   2.984   0.501  2.1326  0.9956  0.1619
  641TIP3   OH2 1855   8.048   2.120   1.536  0.1901  0.2183 -0.2218
  641TIP3    H1 1856   8.126   2.095   1.488  0.8163  1.6642  0.0021
  641TIP3    H2 1857   7.997   2.171   1.473  0.7574  1.6551  0.4653
  642TIP3   OH2 1858   2.094   7.881   6.452  0.0966 -0.0615  0.8478
  642TIP3    H1 1859   2.113   7.896   6.545 -2.8472  0.6968  1.3830
  642TIP3    H2 1860   2.092   7.786   6.443  0.6483 -0.1376  1.5299
  643TIP3   OH2 1861   0.832   6.372   5.390 -1.1016  0.1418 -0.2279
  643TIP3    H1 1862   0.868   6.297   5.437  0.1547  1.0313  0.2849
  643TIP3    H2 1863   0.822   6.440   5.457 -2.0272  0.4910 -0.7148
  644TIP3   OH2 1864   5.010   0.673   0.355  0.1426 -0.1576 -0.0806
  644TIP3    H1 1865   4.983   0.586   0.324  1.4366 -0.4837 -0.3318
  644TIP3    H2 1866   5.091   0.657   0.404 -0.0911  0.7961  0.6457
  645TIP3   OH2 1867   5.926   5.225   0.796 -0.3336 -0.5442  0.0329
  645TIP3    H1 1868   5.993   5.187   0.852 -0.3073  0.4402  0.6762
  645TIP3    H2 1869   5.844   5.187   0.827 -0.0822 -1.8605 -0.8488
  646TIP3   OH2 1870   2.024   7.740   5.539 -0.4136 -0.0100  0.6320
  646TIP3    H1 1871   1.968   7.682   5.590 -1.3347  2.1153  2.1023
  646TIP3    H2 1872   2.078   7.785   5.604 -0.1059  1.1913 -0.4225
  647TIP3   OH2 1873   0.889   5.984   6.707  0.2544  0.5809 -0.0846
  647TIP3    H1 1874   0.844   5.959   6.627  0.3905  0.0436  0.0055
  647TIP3    H2 1875   0.857   6.073   6.726 -2.1606 -0.4557  0.9656
  648TIP3   OH2 1876   5.211   0.301   5.843  0.0511  0.3042  0.1676
  648TIP3    H1 1877   5.179   0.227   5.791 -1.2519  0.7339  0.3407
  648TIP3    H2 1878   5.151   0.304   5.918 -0.1020  1.7279 -0.0039
  649TIP3   OH2 1879   4.791   2.089   0.027 -0.3838 -0.4502  0.3396
  649TIP3    H1 1880   4.846   2.153   0.073  0.6787 -0.5242 -0.8029
  649TIP3    H2 1881   4.853   2.023  -0.004 -1.1263 -0.5391 -0.9553
  650TIP3   OH2 1882   1.058   6.600   6.525  0.4448  0.0263 -0.0259
  650TIP3    H1 1883   0.997   6.595   6.451  3.0188 -0.9444 -2.1667
  650TIP3    H2 1884   1.087   6.691   6.525 -0.5893  0.3733  0.7056
  651TIP3   OH2 1885   1.155   6.456   6.740  0.2778  0.0109  0.1229
  651TIP3    H1 1886   1.110   6.481   6.658 -0.7738  0.7766  0.9114
  651TIP3    H2 1887   1.085   6.453   6.805  1.2818  0.5896  1.2521
  652TIP3   OH2 1888   8.228   4.867   5.647  0.1181 -0.5255  0.0184
  652TIP3    H1 1889   8.288   4.913   5.706  0.9548  0.4092 -1.5317
  652TIP3    H2 1890   8.218   4.926   5.573  0.9781 -2.7135 -1.8874
  653TIP3   OH2 1891   1.714   2.699   3.053  0.7118 -0.5081 -0.1109
  653TIP3    H1 1892   1.800   2.726   3.086 -0.3903  2.7316  0.2352
  653TIP3    H2 1893   1.713   2.726   2.962  0.9812 -2.9023 -0.8744
  654TIP3   OH2 1894   7.637   3.346   1.257 -0.1020 -0.3036  0.2047
  654TIP3    H1 1895   7.567   3.407   1.280  0.2323  0.1269  0.0692
  654TIP3    H2 1896   7.600   3.260   1.278 -0.6329 -0.0734  0.2385
  655TIP3   OH2 1897   1.202   1.712   1.414  0.0476 -0.8344 -0.1319
  655TIP3    H1 1898   1.286   1.754   1.434 -0.5200  0.5882 -0.6957
  655TIP3    H2 1899   1.148   1.781   1.377 -0.2389 -2.4946 -2.9880
  656TIP3   OH2 1900   8.511   2.262   2.413  0.0710  0.1282  0.1017
  656TIP3    H1 1901   8.485   2.247   2.322 -0.9924  1.0046  0.2470
  656TIP3    H2 1902   8.473   2.188   2.461  0.1876 -0.0541 -0.0816
  657TIP3   OH2 1903   1.658   3.988   3.793 -0.7711 -0.0854  0.5902
  657TIP3    H1 1904   1.699   3.911   3.755  0.1619  0.2159  0.9818
  657TIP3    H2 1905   1.566   3.982   3.766 -0.2236 -0.1059 -1.3441
  658TIP3   OH2 1906   0.304   5.767   2.684 -0.1609  0.4206 -0.4160
  658TIP3    H1 1907   0.272   5.714   2.756  0.4649  0.5776 -0.0182
  658TIP3    H2 1908   0.229   5.776   2.625 -0.0615 -1.5861 -0.8915
  659TIP3   OH2 1909   0.325   1.439   2.396  0.2692 -0.1201  0.0623
  659TIP3    H1 1910   0.417   1.446   2.370 -0.1264 -0.1391 -1.3552
  659TIP3    H2 1911   0.278   1.416   2.316 -0.8194 -1.3343  1.0321
  660TIP3   OH2 1912   0.013   2.797   2.968 -0.2232  0.2712  0.0006
  660TIP3    H1 1913   0.096   2.804   2.921 -0.2359  1.1344  0.1147
  660TIP3    H2 1914  -0.054   2.798   2.900 -0.0601 -2.5782 -0.2643
  661TIP3   OH2 1915   1.319   4.082   0.627 -0.2106 -0.2357  0.3717
  661TIP3    H1 1916   1.295   4.149   0.563  0.2786 -0.3832  0.0268
  661TIP3    H2 1917   1.396   4.039   0.589 -0.6953 -1.1956  0.4427
  662TIP3   OH2 1918   7.564   4.103   3.198 -0.0706 -0.4140  0.3297
  662TIP3    H1 1919   7.502   4.070   3.263 -0.3281  1.1045  0.8803
  662TIP3    H2 1920   7.530   4.072   3.114 -2.0811  1.1140  0.5433
  663TIP3   OH2 1921   0.314   2.739   0.041  0.5454 -0.2261 -0.1138
  663TIP3    H1 1922   0.393   2.790   0.063  0.2717 -0.7285  2.1393
  663TIP3    H2 1923   0.344   2.648   0.038  0.1098 -0.3957  0.5229
  664TIP3   OH2 1924   8.076   1.808   3.402  0.2470 -0.1499 -0.2165
  664TIP3    H1 1925   8.161   1.845   3.422  0.3059  0.2922 -1.2849
  664TIP3    H2 1926   8.087   1.713   3.414  0.7458 -0.0477  0.1165
  665TIP3   OH2 1927   0.590   3.210   2.523 -0.2402 -0.3695  0.2188
  665TIP3    H1 1928   0.557   3.143   2.464  0.3310 -0.3265 -0.1511
  665TIP3    H2 1929   0.657   3.256   2.472  0.4080 -0.4773  0.9740
  666TIP3   OH2 1930   0.731   2.805   0.452 -0.0828  0.1775 -0.3769
  666TIP3    H1 1931   0.691   2.763   0.529  0.4479  1.7688  0.8003
  666TIP3    H2 1932   0.659   2.853   0.411  0.2571  1.8798  0.9359
  667TIP3   OH2 1933   0.455   4.074   0.444  0.0424  0.1563  0.2698
  667TIP3    H1 1934   0.495   4.066   0.531 -0.1530  0.4482  0.3918
  667TIP3    H2 1935   0.524   4.050   0.383 -0.1478 -1.1010  0.5512
  668TIP3   OH2 1936   8.006   2.661   2.318 -0.1837 -0.3679  0.4645
  668TIP3    H1 1937   8.013   2.633   2.226 -0.7585  1.4555 -0.1538
  668TIP3    H2 1938   8.069   2.606   2.364  0.5903 -0.8626 -1.1337
  669TIP3   OH2 1939   0.136   2.727   0.960 -0.3796  0.0798 -0.2606
  669TIP3    H1 1940   0.050   2.751   0.995 -0.1921  1.8662 -0.9461
  669TIP3    H2 1941   0.173   2.810   0.930  1.4829 -0.7091 -0.2043
  670TIP3   OH2 1942   0.151   2.158   3.633  0.3671  0.5815 -0.1175
  670TIP3    H1 1943   0.239   2.194   3.625  0.7521 -0.4035 -0.4122
  670TIP3    H2 1944   0.163   2.063   3.624 -0.4607  0.2548  1.9016
  671TIP3   OH2 1945   7.348   1.548   3.609  0.0933  0.0896  0.2877
  671TIP3    H1 1946   7.362   1.628   3.658 -1.7915  0.7890 -0.2593
  671TIP3    H2 1947   7.375   1.570   3.520 -0.3814  0.1146  0.1479
  672TIP3   OH2 1948   7.290   3.577   3.025 -1.0386 -0.3392  0.0446
  672TIP3    H1 1949   7.264   3.513   2.959  0.6944 -0.1294 -0.8947
  672TIP3    H2 1950   7.282   3.662   2.981 -2.9136  0.0845  1.1426
  673TIP3   OH2 1951   2.084   1.869   4.976 -0.1202  0.6856  0.2807
  673TIP3    H1 1952   2.112   1.921   5.051  1.3694  1.6691 -0.9383
  673TIP3    H2 1953   2.138   1.790   4.980  1.0241  1.4211 -0.6124
  674TIP3   OH2 1954   0.040   1.974   1.114  0.5173 -0.0737 -0.6846
  674TIP3    H1 1955   0.128   1.992   1.082  0.6903  2.3628  0.9616
  674TIP3    H2 1956  -0.009   2.054   1.095 -1.0011 -0.9275 -0.4485
  675TIP3   OH2 1957   0.209   4.046   0.302  0.1668 -0.1619 -0.1307
  675TIP3    H1 1958   0.245   4.090   0.225  0.3682 -0.3345 -0.1361
  675TIP3    H2 1959   0.284   4.036   0.361 -0.3668  1.7327  0.9143
  676TIP3   OH2 1960   2.369   1.807   2.683  0.4740  0.2297  0.2284
  676TIP3    H1 1961   2.324   1.818   2.599  0.8473  0.6281  0.0803
  676TIP3    H2 1962   2.298   1.795   2.746  0.2357 -1.5326 -0.3553
  677TIP3   OH2 1963   8.380   4.161   1.330 -0.3547 -0.1109  0.3387
  677TIP3    H1 1964   8.382   4.072   1.366 -0.2015  0.3703  1.5702
  677TIP3    H2 1965   8.294   4.170   1.290  0.2959 -1.4234 -1.4166
  678TIP3   OH2 1966   0.351   4.610   4.144 -0.0096  0.4584  0.5114
  678TIP3    H1 1967   0.328   4.682   4.086  2.4607  0.8270 -0.0323
  678TIP3    H2 1968   0.362   4.651   4.230 -0.1044  0.4732  0.5172
  679TIP3   OH2 1969   1.461   2.396   2.917  0.8233  0.2652 -0.1144
  679TIP3    H1 1970   1.511   2.475   2.898  1.6272 -0.4326 -0.9454
  679TIP3    H2 1971   1.503   2.328   2.865 -0.4240 -0.5237 -0.1075
  680TIP3   OH2 1972   2.880   2.174   1.990 -0.4692  0.6732  0.3977
  680TIP3    H1 1973   2.931   2.096   2.012 -0.4091  0.4243 -0.6213
  680TIP3    H2 1974   2.790   2.150   2.011 -0.2887  0.7948  1.3325
  681TIP3   OH2 1975   0.623   0.424   1.408 -0.0796  0.5453 -0.1746
  681TIP3    H1 1976   0.673   0.498   1.443  1.7683 -0.1404 -1.3414
  681TIP3    H2 1977   0.563   0.464   1.344  1.5445  0.9419 -1.4770
  682TIP3   OH2 1978   7.546   3.224   2.622 -0.5031 -0.3956 -0.4226
  682TIP3    H1 1979   7.517   3.166   2.693  0.1378 -2.2611 -1.6423
  682TIP3    H2 1980   7.602   3.289   2.666  0.2308 -1.7727  0.7293
  683TIP3   OH2 1981   1.046   3.514   1.902  0.1218 -0.3019  0.0119
  683TIP3    H1 1982   1.005   3.511   1.989  0.7955 -0.5546  0.3335
  683TIP3    H2 1983   1.054   3.607   1.882  1.5649 -0.1846  1.0195
  684TIP3   OH2 1984   0.521   3.649   1.254 -0.1530 -0.3259 -0.2053
  684TIP3    H1 1985   0.578   3.596   1.198 -0.7938 -0.8238 -0.3816
  684TIP3    H2 1986   0.465   3.586   1.298  0.2589  0.0757  0.9117
  685TIP3   OH2 1987   1.045   2.409   0.383  0.2993 -0.2557  0.6541
  685TIP3    H1 1988   0.958   2.370   0.389  0.6688 -1.2873 -0.6006
  685TIP3    H2 1989   1.083   2.398   0.470 -1.0036  0.6613  1.3563
  686TIP3   OH2 1990   8.233   5.210   2.444 -0.4753 -0.5082  0.1034
  686TIP3    H1 1991   8.196   5.148   2.381  1.4593 -3.0224  1.3249
  686TIP3    H2 1992   8.316   5.238   2.404 -0.2530 -0.4818  0.5835
  687TIP3   OH2 1993   7.796   2.724   1.645 -0.2090 -0.1513  0.4320
  687TIP3    H1 1994   7.800   2.636   1.681  1.2729 -0.6216 -0.8161
  687TIP3    H2 1995   7.879   2.764   1.670 -0.8254  0.8682  0.8981
  688TIP3   OH2 1996   4.111   7.540   6.839 -0.3026 -0.1940  0.2285
  688TIP3    H1 1997   4.043   7.475   6.819  0.1736 -0.4638 -0.5026
  688TIP3    H2 1998   4.192   7.490   6.842  0.4027  0.7310 -2.6540
  689TIP3   OH2 1999   8.289   2.920   1.939  0.0112 -0.0393  0.6355
  689TIP3    H1 2000   8.297   2.884   1.850 -0.6339  0.0746  0.5295
  689TIP3    H2 2001   8.338   2.859   1.993 -0.4125 -0.6566  0.3371
  690TIP3   OH2 2002   0.301   5.205   3.460  0.2441  0.1263 -0.0144
  690TIP3    H1 2003   0.205   5.199   3.454  0.2144  0.4864  0.1078
  690TIP3    H2 2004   0.319   5.213   3.553  0.3837  0.2707 -0.0537
  691TIP3   OH2 2005   7.629   0.550   6.371 -0.6443  0.1093  0.1464
  691TIP3    H1 2006   7.724   0.551   6.379 -0.6718  0.8174  0.3886
  691TIP3    H2 2007   7.608   0.460   6.344  0.0314 -0.2488  0.8073
  692TIP3   OH2 2008   0.244   2.756   1.849 -0.3130  0.0417 -0.8003
  692TIP3    H1 2009   0.169   2.755   1.789  0.5617  0.5724 -1.9429
  692TIP3    H2 2010   0.236   2.675   1.899 -1.1326 -0.3601 -1.5604
  693TIP3   OH2 2011   0.195   3.366   3.030  0.3104 -0.4274 -0.9560
  693TIP3    H1 2012   0.119   3.368   3.088  0.5819 -1.1802 -0.5679
  693TIP3    H2 2013   0.190   3.449   2.982  0.7250  0.7563  0.9788
  694TIP3   OH2 2014   2.567   3.376   1.449 -0.1113 -0.2148 -0.0916
  694TIP3    H1 2015   2.480   3.414   1.461 -1.2059 -2.1834 -1.4440
  694TIP3    H2 2016   2.587   3.332   1.531  0.5485  1.9847  0.9694
  695TIP3   OH2 2017   8.105   2.152   3.248  0.2561 -0.1232 -0.2386
  695TIP3    H1 2018   8.185   2.191   3.283 -0.5811  0.0424  1.5354
  695TIP3    H2 2019   8.129   2.062   3.228  0.4268 -0.5870  1.9521
  696TIP3   OH2 2020   0.362   4.320   0.514 -0.2521 -0.1429 -0.1901
  696TIP3    H1 2021   0.436   4.378   0.530 -0.9088 -0.0529  2.8028
  696TIP3    H2 2022   0.400   4.233   0.504  0.2701 -0.0928  1.3071
  697TIP3   OH2 2023   1.283   4.637   0.169 -0.2570  0.4570 -0.1652
  697TIP3    H1 2024   1.287   4.706   0.235  0.2629 -0.4078  0.7149
  697TIP3    H2 2025   1.314   4.679   0.089 -0.3642  1.3634  0.2536
  698TIP3   OH2 2026   5.459   6.215   6.550 -0.2012  0.4843  0.1053
  698TIP3    H1 2027   5.476   6.123   6.530 -1.8891  0.3132 -0.5489
  698TIP3    H2 2028   5.544   6.249   6.578  0.4701 -1.2278  0.1988
  699TIP3   OH2 2029   4.415   4.906   0.083  0.1144  0.2866 -0.4618
  699TIP3    H1 2030   4.485   4.882   0.144 -0.5425 -0.5760 -0.0418
  699TIP3    H2 2031   4.359   4.965   0.133 -0.0451  0.1307 -0.4590
  700TIP3   OH2 2032   3.578   2.418   1.680  0.0502  0.3172 -0.8132
  700TIP3    H1 2033   3.559   2.426   1.586  0.4821  1.6890 -0.7809
  700TIP3    H2 2034   3.498   2.379   1.717  0.9009 -2.8513 -2.1596
  701TIP3   OH2 2035   8.047   4.501   0.029  0.4573  0.4837  0.6000
  701TIP3    H1 2036   7.968   4.456   0.001  0.7210  1.1704 -1.3647
  701TIP3    H2 2037   8.098   4.435   0.075  0.0677 -0.7829 -0.7471
  702TIP3   OH2 2038   2.541   4.935   1.552 -0.0939  0.3906  0.1215
  702TIP3    H1 2039   2.514   4.861   1.607 -0.1259  0.9866  0.9156
  702TIP3    H2 2040   2.595   4.895   1.483 -0.1066 -0.3672  0.5438
  703TIP3   OH2 2041   2.926   2.937   3.814  0.3700 -0.2341  0.3177
  703TIP3    H1 2042   3.018   2.951   3.792  0.0218  3.3806  0.7678
  703TIP3    H2 2043   2.877   2.982   3.745 -1.0291 -1.0406  0.7570
  704TIP3   OH2 2044   1.075   3.054   2.456  0.1479  0.0971  0.4259
  704TIP3    H1 2045   1.021   3.048   2.377  0.8845  1.1566 -0.1749
  704TIP3    H2 2046   1.127   2.973   2.456  1.6280  0.9985 -1.3051
  705TIP3   OH2 2047   0.026   3.187   4.111 -0.1645  0.8207 -0.4264
  705TIP3    H1 2048   0.087   3.119   4.081  2.4461  2.9265 -0.0984
  705TIP3    H2 2049  -0.003   3.156   4.197  0.2338 -0.3725 -0.7102
  706TIP3   OH2 2050   0.991   2.266   2.492 -0.2985 -0.0788  0.1906
  706TIP3    H1 2051   1.040   2.268   2.410 -1.5250 -0.2876 -0.5679
  706TIP3    H2 2052   1.047   2.219   2.553  1.0331  0.9100 -0.2576
  707TIP3   OH2 2053   0.147   3.662   2.989  0.1886  0.3741  0.2662
  707TIP3    H1 2054   0.201   3.709   3.053 -0.6070  1.2314  0.3055
  707TIP3    H2 2055   0.141   3.721   2.915 -0.5700  0.2159  0.1969
  708TIP3   OH2 2056   0.200   2.631   4.428 -0.4409  0.1029 -0.3933
  708TIP3    H1 2057   0.123   2.688   4.429 -0.8897 -0.4913 -0.9109
  708TIP3    H2 2058   0.274   2.692   4.435 -0.9146  0.7597 -0.9957
  709TIP3   OH2 2059   2.127   4.546   0.792  0.2735  0.1535 -0.0978
  709TIP3    H1 2060   2.180   4.623   0.769 -0.2110  0.8275  0.9949
  709TIP3    H2 2061   2.066   4.537   0.720  0.9438  0.2343 -0.6814
  710TIP3   OH2 2062   3.603   0.070   1.538  0.5903  0.1662 -0.1156
  710TIP3    H1 2063   3.616   0.162   1.561  1.1087  0.3431 -1.0740
  710TIP3    H2 2064   3.518   0.068   1.494  0.8575  0.2933 -0.6413
  711TIP3   OH2 2065   8.377   0.284   5.901 -0.6430 -0.5691 -0.3838
  711TIP3    H1 2066   8.422   0.201   5.887 -1.3130 -0.8420 -0.9520
  711TIP3    H2 2067   8.435   0.334   5.958  0.1073 -1.1377 -0.6495
  712TIP3   OH2 2068   7.238   1.249   6.860 -0.7971  0.6802  0.3096
  712TIP3    H1 2069   7.196   1.211   6.783 -0.8282  0.4362  0.4486
  712TIP3    H2 2070   7.215   1.342   6.856  0.9912  1.1000 -1.1656
  713TIP3   OH2 2071   1.028   1.065   5.858  0.6004  0.7530  0.4862
  713TIP3    H1 2072   1.055   0.978   5.886 -0.1832  0.1916 -0.4807
  713TIP3    H2 2073   0.944   1.052   5.815  0.4982  1.9790  0.2787
  714TIP3   OH2 2074   1.759   4.020   1.948 -0.0026  0.2446  0.5676
  714TIP3    H1 2075   1.733   3.999   1.858  1.3781 -1.2284  0.4994
  714TIP3    H2 2076   1.735   3.942   1.998 -0.3984  0.9067  1.4210
  715TIP3   OH2 2077   4.113   5.293   0.132 -0.3871  0.2699 -0.5927
  715TIP3    H1 2078   4.125   5.362   0.197 -0.0098  1.1952 -1.6283
  715TIP3    H2 2079   4.019   5.275   0.135 -0.6462  1.4615 -0.9265
  716TIP3   OH2 2080   3.814   5.796   5.892  0.0990 -0.1573  0.3637
  716TIP3    H1 2081   3.788   5.859   5.824 -0.2405 -1.7230 -0.9799
  716TIP3    H2 2082   3.735   5.785   5.945 -0.4741 -1.0819 -0.6866
  717TIP3   OH2 2083   2.825   1.099   1.321 -0.1947 -0.6031  0.5185
  717TIP3    H1 2084   2.899   1.152   1.350 -1.8372  1.2576  1.4627
  717TIP3    H2 2085   2.810   1.037   1.392 -1.0173  0.5989  1.4150
  718TIP3   OH2 2086   0.728   3.032   1.491 -0.1858  0.2706 -0.3372
  718TIP3    H1 2087   0.677   2.955   1.515  0.9259 -0.9999 -1.9683
  718TIP3    H2 2088   0.786   3.046   1.566 -0.7329 -0.1644  0.1806
  719TIP3   OH2 2089   6.719   0.134   5.257  0.2270  0.0579  0.4325
  719TIP3    H1 2090   6.682   0.202   5.200  1.9344 -1.2048 -2.2079
  719TIP3    H2 2091   6.811   0.130   5.234  0.3604 -2.4799  1.2882
  720TIP3   OH2 2092   7.770   1.731   5.283  0.3375 -0.0705  0.0354
  720TIP3    H1 2093   7.707   1.718   5.212  0.2138  0.8494 -0.0310
  720TIP3    H2 2094   7.783   1.643   5.320 -0.4277 -0.3816 -0.4167
  721TIP3   OH2 2095   3.032   2.180   1.047  0.3585  0.4202 -0.1604
  721TIP3    H1 2096   3.078   2.264   1.040  1.8134 -0.3210  0.4291
  721TIP3    H2 2097   3.012   2.156   0.956 -1.6265  2.2266 -0.2514
  722TIP3   OH2 2098   0.913   3.705   3.290 -0.6989 -0.5618  0.4515
  722TIP3    H1 2099   0.868   3.772   3.237 -0.5989 -0.9531 -0.1312
  722TIP3    H2 2100   0.845   3.673   3.350 -1.2626 -1.3196 -0.5867
  723TIP3   OH2 2101   4.817   5.740   6.642 -0.0733  0.2005  0.4194
  723TIP3    H1 2102   4.818   5.647   6.668 -0.1624  0.1011  0.0618
  723TIP3    H2 2103   4.730   5.753   6.604  0.0480  0.3592  0.2027
  724TIP3   OH2 2104   2.333   3.491   1.508  0.4487 -0.0383  0.1310
  724TIP3    H1 2105   2.321   3.523   1.597 -1.1850  2.0191 -0.7724
  724TIP3    H2 2106   2.248   3.506   1.465  0.9641 -1.7151 -1.5558
  725TIP3   OH2 2107   2.360   7.466   5.849 -0.0259 -0.5488  0.4415
  725TIP3    H1 2108   2.267   7.463   5.870 -0.7089 -1.0502 -2.4100
  725TIP3    H2 2109   2.376   7.387   5.797  1.9231 -0.3280  0.6569
  726TIP3   OH2 2110   1.577   2.536   2.504  0.0465  0.0599  0.0900
  726TIP3    H1 2111   1.493   2.547   2.460  0.5943  0.5321 -0.8552
  726TIP3    H2 2112   1.636   2.505   2.436 -0.0126 -3.0257  1.3476
  727TIP3   OH2 2113   2.240   3.945   2.361  0.6865 -0.0490 -0.0481
  727TIP3    H1 2114   2.164   3.965   2.307  0.3776 -0.6244  0.1731
  727TIP3    H2 2115   2.313   3.936   2.299  0.1721 -1.5377 -0.4550
  728TIP3   OH2 2116   8.354   1.130   2.049  0.6878 -0.2204  0.4144
  728TIP3    H1 2117   8.403   1.185   2.109 -0.2251 -1.7984  2.7289
  728TIP3    H2 2118   8.398   1.045   2.053 -1.1416 -1.1825  1.2383
  729TIP3   OH2 2119   5.497   6.743   5.386 -0.0716 -0.1272 -1.0566
  729TIP3    H1 2120   5.547   6.700   5.316 -0.4808 -1.4936 -0.5227
  729TIP3    H2 2121   5.468   6.671   5.442  1.0653  1.0136  1.0645
  730TIP3   OH2 2122   0.053   5.534   1.455 -0.0814  0.3610 -0.6556
  730TIP3    H1 2123   0.012   5.616   1.429  0.1144  0.6694 -0.0116
  730TIP3    H2 2124   0.019   5.517   1.543 -0.6409 -0.5974 -1.0594
  731TIP3   OH2 2125   0.325   1.682   1.646  0.4577  0.1924  0.1820
  731TIP3    H1 2126   0.283   1.599   1.626  0.5519  0.3605 -0.7663
  731TIP3    H2 2127   0.324   1.688   1.741 -1.7192  0.2125  0.1891
  732TIP3   OH2 2128   8.079   0.579   6.858 -0.0389 -0.1116 -0.0758
  732TIP3    H1 2129   8.032   0.502   6.826  1.0434 -0.8155  0.0068
  732TIP3    H2 2130   8.139   0.601   6.786  0.5994 -0.1563  0.4425
  733TIP3   OH2 2131   2.475   3.101   1.331 -0.2033  0.5721  0.7802
  733TIP3    H1 2132   2.520   3.075   1.251 -1.1354 -0.9574  0.7076
  733TIP3    H2 2133   2.486   3.195   1.337  1.0516  0.5030 -0.4187
  734TIP3   OH2 2134   7.677   4.612   2.454  0.1514  0.1755 -0.0770
  734TIP3    H1 2135   7.715   4.549   2.515 -2.6369 -1.2831  0.2081
  734TIP3    H2 2136   7.743   4.621   2.385  0.4169 -3.4410 -0.3806
  735TIP3   OH2 2137   1.933   1.675   1.939  0.1561 -0.5199  0.1130
  735TIP3    H1 2138   2.027   1.689   1.926  0.1051 -0.4909 -0.2187
  735TIP3    H2 2139   1.892   1.755   1.907 -0.0733 -1.0673 -0.9741
  736TIP3   OH2 2140   2.686   6.006   2.303 -0.0777  0.2754  0.0457
  736TIP3    H1 2141   2.605   6.021   2.254 -0.5230  3.0509  1.4838
  736TIP3    H2 2142   2.722   5.925   2.268 -2.8679 -0.3573 -1.4585
  737TIP3   OH2 2143   6.493   0.771   6.015  0.0065 -0.6644 -0.0767
  737TIP3    H1 2144   6.408   0.770   6.059 -0.2315  0.7336 -0.5104
  737TIP3    H2 2145   6.493   0.692   5.961 -0.3772 -1.4988  1.1267
  738TIP3   OH2 2146   5.054   7.849   6.394 -0.5246  0.9771  0.3942
  738TIP3    H1 2147   5.069   7.941   6.370  0.8677  0.8016  0.5656
  738TIP3    H2 2148   5.089   7.799   6.320  0.3296  0.5372  1.0956
  739TIP3   OH2 2149   3.002   2.974   1.933  0.5446 -0.3158  0.0104
  739TIP3    H1 2150   2.965   2.892   1.900  1.4235 -1.1290  0.9960
  739TIP3    H2 2151   3.064   3.001   1.866 -1.5354  0.8830 -1.4949
  740TIP3   OH2 2152   1.631   1.133   1.239  0.2692 -0.2804  0.1760
  740TIP3    H1 2153   1.580   1.205   1.202  0.0537 -0.2043  0.6184
  740TIP3    H2 2154   1.565   1.075   1.279  0.2522 -1.7311 -1.8840
  741TIP3   OH2 2155   1.615   1.311   0.684  0.1977 -0.2521 -0.2570
  741TIP3    H1 2156   1.677   1.360   0.630  0.7895  1.4042  1.8561
  741TIP3    H2 2157   1.668   1.275   0.755 -0.9180 -0.6719  0.3805
  742TIP3   OH2 2158   5.200   6.697   5.564  0.0907  0.0985  0.1941
  742TIP3    H1 2159   5.254   6.632   5.517  0.3592  1.0712 -0.8690
  742TIP3    H2 2160   5.111   6.664   5.555  0.2526 -0.2742 -0.1185
  743TIP3   OH2 2161   2.096   2.013   0.620 -0.1043  0.0789  0.1568
  743TIP3    H1 2162   2.138   2.099   0.613  1.6066 -0.6631  0.9539
  743TIP3    H2 2163   2.159   1.952   0.581 -2.4451 -0.5327 -2.9504
  744TIP3   OH2 2164   3.130   4.645   0.328  0.2201  0.5204 -0.6065
  744TIP3    H1 2165   3.071   4.620   0.400  1.2873 -0.6156 -0.1072
  744TIP3    H2 2166   3.091   4.604   0.250  0.7134 -0.8025 -0.1669
  745TIP3   OH2 2167   0.479   1.246   3.702 -0.2408  0.2255  0.2434
  745TIP3    H1 2168   0.464   1.185   3.775  1.8834  0.5646  0.9839
  745TIP3    H2 2169   0.549   1.206   3.651 -1.1332  0.4207 -1.1605
  746TIP3   OH2 2170   2.228   0.817   1.151  0.3826  0.2125  0.5570
  746TIP3    H1 2171   2.239   0.774   1.236 -1.1655  0.4811  0.9008
  746TIP3    H2 2172   2.254   0.751   1.087 -1.9080 -1.2503  1.0787
  747TIP3   OH2 2173   1.907   2.823   1.418 -0.0146 -0.0123  0.0792
  747TIP3    H1 2174   1.931   2.913   1.439  1.9536 -0.3049 -0.8342
  747TIP3    H2 2175   1.880   2.827   1.326  2.9538 -0.8450 -0.8839
  748TIP3   OH2 2176   1.703   4.019   3.232  0.3047  0.3488  0.5644
  748TIP3    H1 2177   1.697   4.087   3.165  0.1221 -1.9591 -1.8592
  748TIP3    H2 2178   1.788   4.033   3.273  0.3744  1.8694 -0.0720
  749TIP3   OH2 2179   2.011   3.153   0.921  0.2411 -0.3062 -0.1592
  749TIP3    H1 2180   2.021   3.088   0.990  0.3307  1.1790  1.2637
  749TIP3    H2 2181   2.082   3.135   0.860  1.0149 -0.7540  0.8687
  750TIP3   OH2 2182   2.603   1.352   2.768 -0.0560  0.0582 -0.4660
  750TIP3    H1 2183   2.628   1.289   2.836 -0.6035 -0.7937 -1.0484
  750TIP3    H2 2184   2.637   1.436   2.800  2.1259 -0.7886 -0.4637
  751TIP3   OH2 2185   2.867   3.108   2.904 -0.1272  0.3726 -0.7096
  751TIP3    H1 2186   2.788   3.160   2.887  0.0097  0.7555 -0.1725
  751TIP3    H2 2187   2.926   3.129   2.831 -0.8296 -0.5392 -1.5587
  752TIP3   OH2 2188   3.302   3.957   1.038  0.1124 -0.0679  0.6621
  752TIP3    H1 2189   3.293   3.931   1.129 -1.5223 -0.6626  0.3419
  752TIP3    H2 2190   3.213   3.958   1.004  0.7409 -0.2674 -1.0447
  753TIP3   OH2 2191   1.249   4.417   2.320 -0.3012  1.0180 -0.4262
  753TIP3    H1 2192   1.330   4.457   2.352  0.1007  0.3014 -0.5169
  753TIP3    H2 2193   1.193   4.411   2.397  0.6367 -0.6416  0.1652
  754TIP3   OH2 2194   3.699   4.933   0.059  0.7466  0.1813 -0.3194
  754TIP3    H1 2195   3.713   4.859   0.118 -0.0282  1.3541  1.3738
  754TIP3    H2 2196   3.606   4.929   0.037  0.5654  1.0516  0.3063
  755TIP3   OH2 2197   0.888   0.779   6.740 -0.5990 -0.1944  0.8107
  755TIP3    H1 2198   0.975   0.785   6.702 -0.9663  0.8072  0.1250
  755TIP3    H2 2199   0.891   0.834   6.819 -1.0059  0.9639  0.0320
  756TIP3   OH2 2200   1.234   3.181   0.680 -0.5398  0.1737  0.1840
  756TIP3    H1 2201   1.167   3.212   0.742 -1.2789  1.1979 -1.1121
  756TIP3    H2 2202   1.281   3.260   0.654  0.4842 -0.4026  0.2493
  757TIP3   OH2 2203   1.165   2.314   2.261 -0.0522  0.0963 -0.0794
  757TIP3    H1 2204   1.109   2.325   2.185  0.4440  0.6976 -0.3579
  757TIP3    H2 2205   1.164   2.220   2.278 -3.4986  0.3613  1.7021
  758TIP3   OH2 2206   0.533   3.071   3.056  0.8462 -0.0706 -0.0719
  758TIP3    H1 2207   0.591   3.000   3.028  0.2775  0.7212 -3.3573
  758TIP3    H2 2208   0.586   3.150   3.046 -0.2580  0.4986 -1.5834
  759TIP3   OH2 2209   0.645   0.074   1.082  0.4215 -0.4833 -0.2910
  759TIP3    H1 2210   0.632   0.005   1.148 -0.8721 -0.6353 -0.6996
  759TIP3    H2 2211   0.666   0.026   1.002 -0.7388 -0.4173 -0.6384
  760TIP3   OH2 2212   2.706   4.447   1.579 -0.3730 -0.2248 -0.5343
  760TIP3    H1 2213   2.763   4.476   1.651 -0.6876  1.7756 -1.0579
  760TIP3    H2 2214   2.620   4.437   1.620 -0.0558 -1.4507 -0.1382
  761TIP3   OH2 2215   1.914   4.984   0.195 -0.0007  0.6353 -0.2329
  761TIP3    H1 2216   1.976   5.053   0.171 -1.0049  1.6791  0.1029
  761TIP3    H2 2217   1.850   5.028   0.251 -1.7294 -0.1210 -1.5588
  762TIP3   OH2 2218   2.385   7.776   6.235 -0.0863  0.1031 -0.2155
  762TIP3    H1 2219   2.310   7.796   6.179 -0.7301 -0.8310  0.2947
  762TIP3    H2 2220   2.441   7.720   6.180 -0.3068 -0.1118 -0.2227
  763TIP3   OH2 2221   4.920   6.203   4.605 -0.3682 -0.6522  0.2141
  763TIP3    H1 2222   4.997   6.259   4.603 -0.8048 -0.0242  1.0010
  763TIP3    H2 2223   4.939   6.139   4.674  0.2633 -1.6784 -0.8896
  764TIP3   OH2 2224   5.892   6.006   2.705 -0.3032 -0.2158 -0.4241
  764TIP3    H1 2225   5.969   5.950   2.708  1.4332  2.1087  1.1900
  764TIP3    H2 2226   5.893   6.044   2.617  0.1961 -0.4798 -0.5351
  765TIP3   OH2 2227   2.634   4.711   1.044 -0.3823  0.7413 -0.5217
  765TIP3    H1 2228   2.595   4.734   0.959 -2.9227 -0.9955  0.1172
  765TIP3    H2 2229   2.681   4.629   1.027 -1.5267 -0.0147 -0.1207
  766TIP3   OH2 2230   2.982   3.954   1.406 -0.0102  0.0067  0.4237
  766TIP3    H1 2231   2.905   3.981   1.356 -0.2701 -2.0516 -0.3487
  766TIP3    H2 2232   3.005   4.030   1.459 -2.3949  0.7312  0.4537
  767TIP3   OH2 2233   2.039   3.497   0.819 -0.2917 -0.5653 -0.1699
  767TIP3    H1 2234   2.125   3.467   0.848 -0.6016 -1.4628 -0.1614
  767TIP3    H2 2235   1.981   3.422   0.835 -0.8134 -0.4399 -1.4131
  768TIP3   OH2 2236   8.411   4.934   2.354  0.5210 -0.1728  0.4472
  768TIP3    H1 2237   8.443   4.878   2.284  1.3889 -0.2518  0.8993
  768TIP3    H2 2238   8.432   5.023   2.325 -3.8381  0.2607 -1.8437
  769TIP3   OH2 2239   1.728   2.925   2.094  0.5696  0.3877 -0.4551
  769TIP3    H1 2240   1.758   3.013   2.074 -1.0625  0.5877 -2.2034
  769TIP3    H2 2241   1.639   2.921   2.060  0.0192 -1.4266  1.0581
  770TIP3   OH2 2242   1.977   2.860   0.327 -0.4504 -0.1650  0.1745
  770TIP3    H1 2243   2.058   2.824   0.292  0.4995  2.9845 -1.0153
  770TIP3    H2 2244   1.913   2.848   0.257  0.4718  2.5643 -1.1918
  771TIP3   OH2 2245   0.063   4.124   1.053 -0.6861  0.6207 -0.4994
  771TIP3    H1 2246   0.085   4.159   0.967 -0.4250 -0.5632 -0.9318
  771TIP3    H2 2247  -0.009   4.064   1.036 -0.5713  0.3149  0.0927
  772TIP3   OH2 2248   3.654   4.291   1.057  0.0258  0.0273 -0.1289
  772TIP3    H1 2249   3.730   4.239   1.033  1.1870  2.6918 -2.3772
  772TIP3    H2 2250   3.675   4.327   1.143  0.5740 -0.5963 -0.0034
  773TIP3   OH2 2251   1.526   2.061   0.994 -0.6755  0.1803  0.0634
  773TIP3    H1 2252   1.615   2.076   1.026 -1.2431  0.7957  1.3753
  773TIP3    H2 2253   1.492   2.148   0.976 -1.1379 -0.0314 -0.0941
  774TIP3   OH2 2254   2.388   6.489   0.428  0.0848 -0.3962 -0.6847
  774TIP3    H1 2255   2.413   6.509   0.518  0.1939 -1.5753 -0.4469
  774TIP3    H2 2256   2.462   6.440   0.393  0.1561  0.2990 -1.5064
  775TIP3   OH2 2257   8.434   2.491   2.865 -0.0542 -0.5465 -0.0978
  775TIP3    H1 2258   8.497   2.451   2.805  0.9625 -0.0991  0.6590
  775TIP3    H2 2259   8.408   2.572   2.822  0.3528 -0.4307 -0.1245
  776TIP3   OH2 2260   2.498   2.577   1.044  0.8670 -0.8342 -0.4251
  776TIP3    H1 2261   2.464   2.491   1.018 -0.3374 -0.1926 -1.0499
  776TIP3    H2 2262   2.591   2.562   1.063  0.1331 -2.7419  1.8432
  777TIP3   OH2 2263   2.330   5.121   3.708 -0.3418 -0.5101  0.3427
  777TIP3    H1 2264   2.253   5.095   3.657  0.5471 -0.0769 -1.2780
  777TIP3    H2 2265   2.401   5.070   3.670  0.4633  0.3320  0.7073
  778TIP3   OH2 2266   7.932   1.019   6.393  0.4438 -0.1593  0.4574
  778TIP3    H1 2267   7.863   0.980   6.446 -0.2968  0.8536  0.2336
  778TIP3    H2 2268   7.900   1.106   6.371  1.9401  0.4532  0.6515
  779TIP3   OH2 2269   2.072   4.800   2.431  0.0986  0.5413 -0.3478
  779TIP3    H1 2270   2.072   4.767   2.521 -0.3728 -0.8646 -0.8518
  779TIP3    H2 2271   1.994   4.854   2.426 -1.6539 -1.9687 -0.8152
  780TIP3   OH2 2272   3.699   2.839   3.159  0.1825 -0.3987  0.4676
  780TIP3    H1 2273   3.792   2.822   3.172  0.3953  0.6797  0.4100
  780TIP3    H2 2274   3.691   2.934   3.170 -0.3496 -0.0030 -2.9201
  781TIP3   OH2 2275   3.531   1.728   0.699  0.4015 -0.4188 -0.1179
  781TIP3    H1 2276   3.467   1.658   0.713 -1.9222  1.9899  2.0040
  781TIP3    H2 2277   3.593   1.720   0.772  0.6718 -0.8455 -0.3982
  782TIP3   OH2 2278   7.279   4.380   3.866 -0.1592 -0.3760 -0.3045
  782TIP3    H1 2279   7.321   4.448   3.813 -0.7967 -0.5837 -1.0848
  782TIP3    H2 2280   7.348   4.352   3.927  1.1015 -1.2428 -2.0766
  783TIP3   OH2 2281   1.813   4.003   0.795  0.6737 -0.3325 -0.0745
  783TIP3    H1 2282   1.752   3.985   0.866 -1.8485 -1.3868 -2.3965
  783TIP3    H2 2283   1.823   4.098   0.796 -2.0133  0.0129 -0.3633
  784TIP3   OH2 2284   2.783   4.203   1.463  0.6452 -0.5447 -0.2772
  784TIP3    H1 2285   2.760   4.281   1.513 -1.3214  0.4085 -2.5835
  784TIP3    H2 2286   2.792   4.134   1.528 -0.8304  0.8987  1.4932
  785TIP3   OH2 2287   2.760   3.097   3.248 -0.5103  0.0822  0.2610
  785TIP3    H1 2288   2.777   3.179   3.295 -1.1993  0.4697 -0.1508
  785TIP3    H2 2289   2.724   3.125   3.164  0.5543 -0.6096 -0.4423
  786TIP3   OH2 2290   2.063   3.278   2.031  0.0569 -0.2570  0.1164
  786TIP3    H1 2291   2.133   3.218   2.060  0.1998  0.1203  0.5530
  786TIP3    H2 2292   2.109   3.358   2.006 -0.1286 -0.3484 -0.5487
  787TIP3   OH2 2293   0.385   2.294   3.636 -0.1833  0.1160 -0.0043
  787TIP3    H1 2294   0.367   2.379   3.678  1.4948 -0.2771  1.6078
  787TIP3    H2 2295   0.475   2.273   3.663 -0.9008 -2.6148  0.4062
  788TIP3   OH2 2296   3.918   4.499   2.906  0.5374 -0.1172  0.3804
  788TIP3    H1 2297   3.830   4.505   2.944  0.6348  0.9052  0.4668
  788TIP3    H2 2298   3.975   4.538   2.972  0.7605  1.3145 -0.6314
  789TIP3   OH2 2299   1.746   3.114   1.159  0.8950  0.3744 -0.4336
  789TIP3    H1 2300   1.682   3.127   1.229  0.2508  1.1967 -1.1596
  789TIP3    H2 2301   1.755   3.019   1.153 -0.1636  0.2480 -0.2170
  790TIP3   OH2 2302   0.839   0.050   5.269 -0.0969 -0.5481 -0.7142
  790TIP3    H1 2303   0.850  -0.040   5.299  0.3505  0.4032  2.0177
  790TIP3    H2 2304   0.751   0.051   5.231 -0.6911 -1.7620  0.5976
  791TIP3   OH2 2305   3.858   0.918   0.029 -0.5459 -0.2228 -0.3047
  791TIP3    H1 2306   3.819   0.924  -0.058 -1.3847 -2.5303 -0.1052
  791TIP3    H2 2307   3.876   0.825   0.041 -0.3226  0.0947  1.9434
  792TIP3   OH2 2308   1.857   4.274   0.822 -0.1266 -0.0738  0.3298
  792TIP3    H1 2309   1.788   4.314   0.875 -0.4112 -0.0425 -0.0633
  792TIP3    H2 2310   1.896   4.347   0.774  0.6415  0.0103  1.0724
  793TIP3   OH2 2311   1.286   1.746   2.348 -0.1004 -0.2813  0.5318
  793TIP3    H1 2312   1.335   1.790   2.278 -1.3836 -0.3220 -0.4091
  793TIP3    H2 2313   1.312   1.654   2.341 -1.8156 -0.6644 -1.2949
  794TIP3   OH2 2314   2.245   4.372   3.986 -0.1890  0.0486  0.1035
  794TIP3    H1 2315   2.250   4.421   3.904 -0.0682 -2.3381 -1.3627
  794TIP3    H2 2316   2.154   4.343   3.991 -0.4038  0.8890  1.2641
  795TIP3   OH2 2317   2.432   2.874   1.489 -0.1180  0.0216 -0.4959
  795TIP3    H1 2318   2.357   2.926   1.517 -1.1299 -0.9358 -1.3347
  795TIP3    H2 2319   2.474   2.927   1.422  0.3407  0.8500  0.4442
  796TIP3   OH2 2320   1.113   2.337   1.805 -0.0095  0.8216 -0.0208
  796TIP3    H1 2321   1.189   2.370   1.853  0.7383 -0.2781 -0.4122
  796TIP3    H2 2322   1.140   2.250   1.775 -0.9935  0.8943 -1.1698
  797TIP3   OH2 2323   1.906   4.046   2.728  0.5046  0.1377 -0.1725
  797TIP3    H1 2324   1.876   3.958   2.705 -1.9593  0.5270  1.3187
  797TIP3    H2 2325   1.982   4.061   2.673  1.2575 -3.1089 -0.1095
  798TIP3   OH2 2326   1.616   3.703   0.055  0.5108  0.3341 -0.4020
  798TIP3    H1 2327   1.538   3.758   0.058  0.3523  0.1378 -0.7759
  798TIP3    H2 2328   1.687   3.758   0.087  0.2759  0.6174 -0.3733
  799TIP3   OH2 2329   3.662   4.793   1.774 -0.1925  0.5054 -1.1695
  799TIP3    H1 2330   3.713   4.789   1.694 -0.2440 -0.8761 -1.1484
  799TIP3    H2 2331   3.714   4.745   1.838 -0.6562  0.6683 -0.6647
  800TIP3   OH2 2332   4.408   7.878   6.095  0.4653 -0.4850  0.1875
  800TIP3    H1 2333   4.362   7.914   6.171  0.1325  0.1244 -0.2921
  800TIP3    H2 2334   4.339   7.856   6.032  0.7210 -1.2265  0.1600
  801TIP3   OH2 2335   2.391   5.596   0.714  0.3829  0.2632  0.5871
  801TIP3    H1 2336   2.455   5.525   0.713 -0.6384 -0.6445 -0.8433
  801TIP3    H2 2337   2.308   5.554   0.736 -0.1170  1.1199  0.3803
  802TIP3   OH2 2338   1.120   2.058   1.726 -0.2819 -0.6831 -0.1822
  802TIP3    H1 2339   1.027   2.057   1.703 -0.6018 -0.3626  1.0257
  802TIP3    H2 2340   1.166   2.059   1.643 -1.3684 -0.7900 -0.7901
  803TIP3   OH2 2341   3.709   4.711   0.235 -0.0879 -0.0445 -0.5800
  803TIP3    H1 2342   3.649   4.692   0.307 -0.5660  1.2262 -0.6281
  803TIP3    H2 2343   3.743   4.625   0.209 -0.4864 -0.5866  0.6522
  804TIP3   OH2 2344   1.110   3.446   0.720  0.2115  0.4210 -0.5664
  804TIP3    H1 2345   1.113   3.536   0.752 -0.9524  0.1606  0.3192
  804TIP3    H2 2346   1.018   3.421   0.727  0.5370 -0.8729 -0.7025
  805TIP3   OH2 2347   2.624   2.423   2.273  0.3251  0.5761  0.1147
  805TIP3    H1 2348   2.529   2.426   2.261  0.3620  2.3493  0.2497
  805TIP3    H2 2349   2.658   2.495   2.220  1.6907 -0.6671 -0.7470
  806TIP3   OH2 2350   3.228   2.262   0.670  0.6860  0.2158  0.0117
  806TIP3    H1 2351   3.142   2.236   0.638  1.7470 -1.0871 -1.9014
  806TIP3    H2 2352   3.286   2.190   0.645  2.2757  0.9214  1.5535
  807TIP3   OH2 2353   0.880   2.104   2.826 -0.2927  0.4713 -0.1017
  807TIP3    H1 2354   0.867   2.071   2.737  0.6142  0.3550 -0.1898
  807TIP3    H2 2355   0.798   2.083   2.871  0.6108 -2.7659  0.1206
  808TIP3   OH2 2356   2.131   4.111   2.578  0.0107  0.2917  0.1612
  808TIP3    H1 2357   2.167   4.058   2.506 -0.4798 -0.9716  0.8319
  808TIP3    H2 2358   2.207   4.130   2.633 -0.2050 -1.8964  1.2734
  809TIP3   OH2 2359   2.875   3.260   1.502  0.2931 -0.0742 -0.8238
  809TIP3    H1 2360   2.811   3.247   1.572  0.9552 -1.8709 -0.5284
  809TIP3    H2 2361   2.932   3.330   1.535 -1.0331  1.0109 -0.7677
  810TIP3   OH2 2362   5.852   5.725   6.587 -0.2343  0.4941  0.9146
  810TIP3    H1 2363   5.825   5.775   6.664 -2.1979  0.1588  0.4541
  810TIP3    H2 2364   5.787   5.655   6.580 -0.0778  0.5248 -1.0659
  811TIP3   OH2 2365   5.144   5.161   6.333 -0.3410 -0.7790 -0.5288
  811TIP3    H1 2366   5.076   5.102   6.366 -0.0269 -1.3068 -0.7977
  811TIP3    H2 2367   5.110   5.193   6.250 -0.6724 -0.2959 -0.2017
  812TIP3   OH2 2368   2.244   4.421   2.187 -0.2189  0.0884  0.3531
  812TIP3    H1 2369   2.161   4.447   2.228 -0.7146 -0.0485 -0.5265
  812TIP3    H2 2370   2.289   4.503   2.170 -0.4194  0.2017  0.3622
  813TIP3   OH2 2371   0.198   4.108   3.464 -0.0355 -0.1281 -0.0790
  813TIP3    H1 2372   0.148   4.189   3.455  0.6762  0.2039 -1.2060
  813TIP3    H2 2373   0.278   4.135   3.509  1.8379  0.5314 -3.6237
  814TIP3   OH2 2374   1.528   4.302   3.306 -0.0338 -0.1251  0.2788
  814TIP3    H1 2375   1.605   4.307   3.249 -0.5104  0.5484 -0.3029
  814TIP3    H2 2376   1.486   4.388   3.299 -1.0072 -0.5839  0.3630
  815TIP3   OH2 2377   2.692   3.667   1.205  0.1205  0.1436  0.4626
  815TIP3    H1 2378   2.770   3.711   1.171  0.3606  0.0520  0.8949
  815TIP3    H2 2379   2.725   3.588   1.247 -0.5412 -1.9872 -2.8247
  816TIP3   OH2 2380   1.374   2.214   1.359 -0.3329  0.1407  0.1893
  816TIP3    H1 2381   1.433   2.181   1.427  1.4724 -0.2451 -1.5179
  816TIP3    H2 2382   1.292   2.167   1.374  0.4973 -1.0056  1.2218
  817TIP3   OH2 2383   2.185   3.166   4.059 -0.1738 -0.0861  0.2625
  817TIP3    H1 2384   2.099   3.126   4.071 -0.8334  0.4001 -2.5006
  817TIP3    H2 2385   2.196   3.171   3.964  1.7771  2.2490  0.5686
  818TIP3   OH2 2386   4.073   7.085   6.772  0.1101  0.2297  0.4566
  818TIP3    H1 2387   3.989   7.052   6.741  0.1123  0.2356  0.4446
  818TIP3    H2 2388   4.052   7.172   6.807  0.5523  1.2740 -1.8057
  819TIP3   OH2 2389   0.162   4.976   1.176 -0.4939  0.0593 -0.1490
  819TIP3    H1 2390   0.205   4.899   1.214 -0.8611 -1.0807 -1.9569
  819TIP3    H2 2391   0.234   5.026   1.135 -0.2452  0.7409  1.0903
  820TIP3   OH2 2392   0.913   3.007   1.046 -0.3224  0.6973 -0.4415
  820TIP3    H1 2393   0.821   3.029   1.032 -0.4649 -0.2810 -1.0337
  820TIP3    H2 2394   0.950   3.085   1.088 -1.5977  0.7906  0.5366
  821TIP3   OH2 2395   2.695   3.997   1.678  0.1632 -0.1236 -0.0703
  821TIP3    H1 2396   2.653   3.915   1.652  1.0485  0.0999 -2.2908
  821TIP3    H2 2397   2.765   3.971   1.738  0.2492 -0.9589 -0.5288
  822TIP3   OH2 2398   1.790   0.719   6.918 -0.1878 -0.2007  0.3247
  822TIP3    H1 2399   1.764   0.632   6.888 -0.5015  0.4110 -1.2430
  822TIP3    H2 2400   1.709   0.758   6.951 -0.3512  0.0574 -0.3843
  823TIP3   OH2 2401   1.328   3.395   5.331 -0.1513 -0.1052 -0.3442
  823TIP3    H1 2402   1.408   3.428   5.289  1.6626 -1.5251  1.8539
  823TIP3    H2 2403   1.315   3.454   5.406  0.0281 -1.0998  0.4811
  824TIP3   OH2 2404   1.706   3.260   3.430  0.1233 -0.3610 -0.2166
  824TIP3    H1 2405   1.632   3.291   3.482 -0.9481 -2.1762 -0.6336
  824TIP3    H2 2406   1.714   3.167   3.452  1.0536 -0.6336 -1.6452
  825TIP3   OH2 2407   0.776   3.192   1.909  0.1421  0.8471 -0.7156
  825TIP3    H1 2408   0.770   3.233   1.996  2.4667 -0.1316 -0.0540
  825TIP3    H2 2409   0.795   3.265   1.850  1.2434  1.1809  0.0143
  826TIP3   OH2 2410   4.086   6.511   3.077 -0.6855 -0.2586  0.8462
  826TIP3    H1 2411   4.084   6.488   2.984 -2.1589 -1.8103  1.2401
  826TIP3    H2 2412   4.153   6.454   3.115 -0.3188  0.1372  0.7903
  827TIP3   OH2 2413  -0.002   5.531   3.671 -0.5593  0.2448 -0.9920
  827TIP3    H1 2414   0.085   5.497   3.650 -0.3584  0.5134 -0.6001
  827TIP3    H2 2415  -0.019   5.598   3.605 -1.1659 -0.9541 -2.0699
  828TIP3   OH2 2416   0.444   5.594   0.170 -0.2806 -0.0621  1.1866
  828TIP3    H1 2417   0.402   5.634   0.246 -1.2204 -0.7426  1.0232
  828TIP3    H2 2418   0.446   5.501   0.190 -0.4493 -0.2325  0.4169
  829TIP3   OH2 2419   2.042   4.597   1.280  0.2125 -0.4675  0.4563
  829TIP3    H1 2420   2.051   4.503   1.267 -1.7823 -0.3731 -1.7516
  829TIP3    H2 2421   1.948   4.613   1.283  0.4343  1.8783 -2.5803
  830TIP3   OH2 2422   2.475   4.414   0.663 -0.0492  0.0354 -0.0246
  830TIP3    H1 2423   2.409   4.422   0.732  0.3238 -0.2521  0.3674
  830TIP3    H2 2424   2.498   4.321   0.663 -2.0720 -0.5311 -2.4105
  831TIP3   OH2 2425   1.770   2.452   1.253 -0.3639 -0.5554  0.3286
  831TIP3    H1 2426   1.804   2.475   1.166 -0.0771 -1.8755  0.0766
  831TIP3    H2 2427   1.684   2.414   1.236  0.2612 -2.0792  0.4818
  832TIP3   OH2 2428   0.247   1.688   1.329  0.1196  0.4153  0.5676
  832TIP3    H1 2429   0.338   1.719   1.334  0.0281  0.9234 -0.7144
  832TIP3    H2 2430   0.248   1.604   1.376  1.0486  0.8450  1.3495
  833TIP3   OH2 2431   2.199   2.417   0.683  0.4351  0.1748 -0.0340
  833TIP3    H1 2432   2.154   2.425   0.767 -0.1537 -1.4449 -0.1835
  833TIP3    H2 2433   2.133   2.442   0.618  0.8831  1.4033 -0.0237
  834TIP3   OH2 2434   6.037   5.420   5.841  0.0163  0.5769  0.0060
  834TIP3    H1 2435   5.952   5.443   5.878 -1.4242 -0.6545 -2.3371
  834TIP3    H2 2436   6.075   5.359   5.904 -3.0013 -2.5999 -1.0145
  835TIP3   OH2 2437   5.241   0.047   6.398 -0.4487  0.1557  0.0018
  835TIP3    H1 2438   5.146   0.046   6.409 -0.7905  1.9241 -2.6095
  835TIP3    H2 2439   5.259  -0.018   6.330  0.0737  0.7370 -0.4286
  836TIP3   OH2 2440   2.360   4.268   0.363 -0.3831 -0.2234 -0.0517
  836TIP3    H1 2441   2.313   4.329   0.420 -0.4521  0.6773 -1.0668
  836TIP3    H2 2442   2.328   4.287   0.275  0.8160 -0.5974 -0.5799
  837TIP3   OH2 2443   2.480   2.925   3.797 -0.7568  0.3956  0.3888
  837TIP3    H1 2444   2.422   2.903   3.870  0.1292 -0.2191  0.9160
  837TIP3    H2 2445   2.476   3.021   3.792 -0.7351  0.4499  1.3125
  838TIP3   OH2 2446   0.867   2.948   3.084 -0.1288 -0.4413  0.1241
  838TIP3    H1 2447   0.888   2.906   3.167  0.5632  0.8348  0.6185
  838TIP3    H2 2448   0.820   3.028   3.109  0.8195  0.3809 -0.6505
  839TIP3   OH2 2449   1.181   5.841   1.821 -0.4244 -0.0739  0.3506
  839TIP3    H1 2450   1.120   5.814   1.752  1.4975  1.8020 -2.1949
  839TIP3    H2 2451   1.228   5.915   1.783  4.3588 -2.2360  1.6835
  840TIP3   OH2 2452   3.471   6.149   1.306 -0.2011 -0.2381 -0.2121
  840TIP3    H1 2453   3.477   6.053   1.312  0.0127 -0.3645 -2.2770
  840TIP3    H2 2454   3.379   6.166   1.284 -1.0495  0.2459  3.3040
  841TIP3   OH2 2455   3.716   4.554   1.361 -0.0596 -0.3582 -0.2126
  841TIP3    H1 2456   3.731   4.550   1.267  2.3528  1.0633  0.0809
  841TIP3    H2 2457   3.662   4.632   1.373  0.2047 -0.1514 -0.3583
  842TIP3   OH2 2458   5.193   4.480   2.541  0.4742  0.2788 -0.3025
  842TIP3    H1 2459   5.210   4.458   2.633 -1.4203 -1.1620 -0.2823
  842TIP3    H2 2460   5.100   4.500   2.538  0.8203  1.8220 -1.6352
  843TIP3   OH2 2461   2.579   3.502   1.007 -0.0189  0.2153 -0.6102
  843TIP3    H1 2462   2.590   3.555   1.086 -0.9707  0.9045 -0.9256
  843TIP3    H2 2463   2.514   3.436   1.031  0.9122 -0.6145 -0.3228
  844TIP3   OH2 2464   2.782   5.172   1.322  0.4298  0.4272 -0.7632
  844TIP3    H1 2465   2.782   5.096   1.264 -0.4214  1.1889 -1.7711
  844TIP3    H2 2466   2.872   5.205   1.318  0.3307  0.5835 -1.8063
  845TIP3   OH2 2467   4.095   4.224   0.594  0.1367  0.1166  0.1039
  845TIP3    H1 2468   4.110   4.260   0.681 -1.0849 -1.8059  1.1611
  845TIP3    H2 2469   4.056   4.295   0.545 -1.8437  0.4010  2.0021
  846TIP3   OH2 2470   5.829   7.649   6.024 -0.4017 -0.0162 -0.1190
  846TIP3    H1 2471   5.778   7.720   5.984  3.0119  3.0523  0.6083
  846TIP3    H2 2472   5.842   7.677   6.115  0.9407 -1.6200  0.2081
  847TIP3   OH2 2473   1.311   3.878   1.417 -0.0122 -0.0726  0.1395
  847TIP3    H1 2474   1.323   3.882   1.323 -1.4599  0.3286 -0.0478
  847TIP3    H2 2475   1.385   3.827   1.449  0.6501  0.0449 -1.1768
  848TIP3   OH2 2476   4.799   4.280   1.949  0.3575  0.3143 -0.1325
  848TIP3    H1 2477   4.813   4.328   1.868  0.6986 -1.2411 -1.0058
  848TIP3    H2 2478   4.711   4.306   1.977  0.7538  1.8620 -0.2924
  849TIP3   OH2 2479   4.386   3.856   1.741  0.3718 -0.2407 -0.5712
  849TIP3    H1 2480   4.439   3.842   1.820 -0.5690  1.7571  0.4425
  849TIP3    H2 2481   4.348   3.770   1.722  1.0651 -0.8651  0.8296
  850TIP3   OH2 2482   3.284   2.819   1.212  0.2796  0.2135 -0.1263
  850TIP3    H1 2483   3.285   2.834   1.117 -0.9910  0.0623 -0.1778
  850TIP3    H2 2484   3.348   2.880   1.247  0.1521  0.8620 -1.0124
  851TIP3   OH2 2485   5.859   7.226   6.758 -0.1272 -0.5042 -0.2114
  851TIP3    H1 2486   5.885   7.198   6.671  0.1214  1.8749 -0.9424
  851TIP3    H2 2487   5.827   7.147   6.801 -0.1601 -1.7130 -2.4309
  852TIP3   OH2 2488   2.786   2.402   0.760 -0.4075 -0.2866  0.0715
  852TIP3    H1 2489   2.840   2.353   0.698 -1.5288 -1.1632 -0.2372
  852TIP3    H2 2490   2.740   2.334   0.810 -1.2034  0.4445  0.3454
  853TIP3   OH2 2491   3.672   3.743   1.424  0.0926  0.1966  0.3644
  853TIP3    H1 2492   3.761   3.732   1.390  0.0879 -0.6852  0.6252
  853TIP3    H2 2493   3.649   3.834   1.403  0.6172  0.0839 -0.7258
  854TIP3   OH2 2494   2.928   3.033   1.002 -0.0424  0.0658 -0.7100
  854TIP3    H1 2495   2.883   2.950   1.020 -1.2882  0.5719 -1.4120
  854TIP3    H2 2496   2.926   3.078   1.086 -0.3642 -0.1494 -0.5975
  855TIP3   OH2 2497   4.438   2.684   1.899  0.2402 -0.0842  0.0525
  855TIP3    H1 2498   4.446   2.772   1.861  0.1958 -0.7849 -1.6297
  855TIP3    H2 2499   4.478   2.627   1.834 -0.5843 -1.4146  0.7050
  856TIP3   OH2 2500   4.677   4.057   2.477 -0.3705 -0.6198  0.7250
  856TIP3    H1 2501   4.750   3.997   2.464  0.8241  0.9760 -0.1559
  856TIP3    H2 2502   4.718   4.142   2.492 -2.0197 -0.0582  2.1975
  857TIP3   OH2 2503   4.340   1.274   0.214  0.8265 -0.1682 -0.5007
  857TIP3    H1 2504   4.404   1.339   0.186  1.2304 -0.7885 -1.0528
  857TIP3    H2 2505   4.328   1.219   0.136 -0.4129 -0.0233 -0.4165
  858TIP3   OH2 2506   6.133   6.220   0.608 -0.3281  0.7491 -0.4770
  858TIP3    H1 2507   6.047   6.221   0.566  0.0690  2.2261 -1.2980
  858TIP3    H2 2508   6.133   6.297   0.665  0.5317  0.8894 -0.6611
  859TIP3   OH2 2509   2.854   4.773   0.518 -0.1955  0.0012 -0.6852
  859TIP3    H1 2510   2.779   4.793   0.576 -0.4225  0.3479 -1.0990
  859TIP3    H2 2511   2.850   4.678   0.507 -1.1008  0.1228 -1.4211
  860TIP3   OH2 2512   3.920   4.219   1.031 -0.1456  0.3040 -0.2883
  860TIP3    H1 2513   3.956   4.305   1.052  2.2336 -0.7605  0.1094
  860TIP3    H2 2514   3.985   4.157   1.063 -1.1415 -1.6206 -1.8763
  861TIP3   OH2 2515   0.961   3.007   2.029 -0.0393  0.1378 -0.0760
  861TIP3    H1 2516   0.930   3.098   2.030 -3.1455 -0.8886 -0.4284
  861TIP3    H2 2517   0.962   2.984   1.936 -0.4697 -0.5913  0.1023
  862TIP3   OH2 2518   0.082   4.584   0.895 -0.1146 -0.6994 -0.0776
  862TIP3    H1 2519  -0.011   4.609   0.904 -0.1783 -0.8584 -0.2921
  862TIP3    H2 2520   0.115   4.585   0.984 -0.4701 -1.2028  0.0627
  863TIP3   OH2 2521   5.283   7.682   6.837 -0.5922 -0.2501 -0.1339
  863TIP3    H1 2522   5.244   7.762   6.802 -1.7249 -0.0874  1.4760
  863TIP3    H2 2523   5.358   7.712   6.889  0.3964 -0.4150 -1.4353
  864TIP3   OH2 2524   4.476   3.886   2.825  0.1858  0.2358 -0.1381
  864TIP3    H1 2525   4.451   3.973   2.793  1.0251  0.6348  0.3009
  864TIP3    H2 2526   4.394   3.836   2.822  0.2175  0.2416 -2.9815
  865TIP3   OH2 2527   3.170   4.632   0.642 -0.3832  0.0596 -0.3755
  865TIP3    H1 2528   3.182   4.613   0.735  0.0120 -2.2198 -0.8670
  865TIP3    H2 2529   3.126   4.717   0.641 -0.5507  0.0378  1.8936
  866TIP3   OH2 2530   5.249   4.498   0.326  0.2573 -0.9315 -0.3484
  866TIP3    H1 2531   5.242   4.465   0.415  0.5773  0.8143  0.3265
  866TIP3    H2 2532   5.309   4.572   0.332 -1.4389  0.5818 -1.6297
  867TIP3   OH2 2533   2.378   6.142   1.095  0.2524 -0.0687  0.0377
  867TIP3    H1 2534   2.395   6.072   1.031 -1.2462 -1.4583  1.1174
  867TIP3    H2 2535   2.455   6.142   1.151 -0.0157 -1.3008  0.4165
  868TIP3   OH2 2536   3.355   2.010   0.604 -0.5023 -0.7303  0.0947
  868TIP3    H1 2537   3.443   1.989   0.572 -0.6894 -1.3945 -0.0018
  868TIP3    H2 2538   3.351   1.970   0.691 -0.8510 -1.0775 -0.0752
  869TIP3   OH2 2539   3.224   5.019   2.386  0.3717 -0.6209 -0.5366
  869TIP3    H1 2540   3.270   4.953   2.437  0.4755 -0.3408 -0.2636
  869TIP3    H2 2541   3.143   4.976   2.357  0.3736 -0.8207 -0.2435
  870TIP3   OH2 2542   2.512   3.781   0.287  0.0235 -0.0415  0.4037
  870TIP3    H1 2543   2.483   3.845   0.352  0.9554  1.0661 -0.2567
  870TIP3    H2 2544   2.436   3.724   0.275 -0.7048  0.7153  1.2661
  871TIP3   OH2 2545   2.610   4.053   1.286  0.1923  0.6292 -0.5276
  871TIP3    H1 2546   2.564   4.129   1.320  0.2072  0.3303  0.1720
  871TIP3    H2 2547   2.702   4.071   1.304  0.1697  0.3104 -0.0768
  872TIP3   OH2 2548   4.184   3.639   1.100  0.5144 -0.0051  0.0257
  872TIP3    H1 2549   4.128   3.562   1.116 -0.6101  1.1992  2.0209
  872TIP3    H2 2550   4.123   3.707   1.072  1.2104  0.8315  0.5347
  873TIP3   OH2 2551   2.746   3.645   1.718 -0.2978 -0.7767  0.4530
  873TIP3    H1 2552   2.801   3.612   1.647  1.0829  0.0566  1.1033
  873TIP3    H2 2553   2.674   3.690   1.674 -0.7339 -2.3140 -0.4152
  874TIP3   OH2 2554   3.383   4.946   1.784 -0.3482  0.5364  0.1689
  874TIP3    H1 2555   3.371   4.963   1.877  0.4731  2.7798 -0.0974
  874TIP3    H2 2556   3.462   4.893   1.779 -0.8962 -0.3473  0.8011
  875TIP3   OH2 2557   4.767   1.756   1.373  0.5178 -0.3817  0.6200
  875TIP3    H1 2558   4.676   1.775   1.393  0.7754 -0.6511  2.0968
  875TIP3    H2 2559   4.765   1.714   1.287 -0.5972  0.9120 -0.0009
  876TIP3   OH2 2560   3.804   4.875   1.139 -0.1210 -0.0387 -0.2413
  876TIP3    H1 2561   3.736   4.941   1.156  0.4937  0.9943 -1.6844
  876TIP3    H2 2562   3.884   4.926   1.127  0.5228 -1.1157 -0.5720
  877TIP3   OH2 2563   1.843   2.128   6.680  0.0318  0.2882  0.1028
  877TIP3    H1 2564   1.783   2.148   6.608 -0.5111 -0.0507  0.4594
  877TIP3    H2 2565   1.869   2.037   6.663  0.0026  0.2512  0.2617
  878TIP3   OH2 2566   3.885   4.128   0.347  0.2792 -0.3666 -0.2323
  878TIP3    H1 2567   3.870   4.212   0.303 -1.4812 -0.3003  0.4640
  878TIP3    H2 2568   3.970   4.137   0.388  0.1424  1.0460 -0.2487
  879TIP3   OH2 2569   2.752   1.786   6.119 -0.2633 -0.6745 -0.2487
  879TIP3    H1 2570   2.835   1.740   6.134  0.2573  0.0665 -0.8187
  879TIP3    H2 2571   2.733   1.773   6.026  0.3775  1.0324 -0.6442
  880TIP3   OH2 2572   3.946   2.863   0.582 -0.2375 -0.1578  0.4651
  880TIP3    H1 2573   4.037   2.887   0.602 -0.2647  0.4742 -0.1635
  880TIP3    H2 2574   3.942   2.861   0.486 -2.0740  4.5417  0.3118
  881TIP3   OH2 2575   2.881   3.399   2.206 -0.1623  0.6529  0.1207
  881TIP3    H1 2576   2.921   3.473   2.161  0.1959  1.1376  1.2221
  881TIP3    H2 2577   2.913   3.322   2.160  0.4139  1.1347 -0.2818
  882TIP3   OH2 2578   2.097   3.879   1.373  0.2670  0.3112  0.1627
  882TIP3    H1 2579   2.165   3.858   1.309 -0.1707  1.8276 -0.8238
  882TIP3    H2 2580   2.101   3.974   1.382 -0.7250  0.2647  1.2081
  883TIP3   OH2 2581   4.776   4.953   0.337 -0.0661 -0.0220 -0.0333
  883TIP3    H1 2582   4.690   4.911   0.340 -0.6649  1.2314  0.8327
  883TIP3    H2 2583   4.839   4.881   0.344 -1.0349 -0.9729 -1.0203
  884TIP3   OH2 2584   3.600   2.749   0.431  0.6254 -0.1512  0.0814
  884TIP3    H1 2585   3.648   2.676   0.470  0.5044  0.3199  1.1244
  884TIP3    H2 2586   3.510   2.736   0.459  0.5627  0.2653  0.0754
  885TIP3   OH2 2587   3.408   2.374   0.849  0.2474 -0.2034 -0.3431
  885TIP3    H1 2588   3.345   2.340   0.786 -0.3428  0.6992 -0.2520
  885TIP3    H2 2589   3.420   2.466   0.825  0.0705  0.1347  0.8042
  886TIP3   OH2 2590   2.959   4.348   0.837 -0.4076 -0.3607  0.3017
  886TIP3    H1 2591   2.975   4.362   0.743 -0.9022  0.1225  0.2932
  886TIP3    H2 2592   3.014   4.413   0.880  0.5280 -1.1844  0.3803
  887TIP3   OH2 2593   5.513   7.211   6.291 -0.1274  0.0092 -0.7621
  887TIP3    H1 2594   5.560   7.225   6.374  1.0884  0.7036 -1.5519
  887TIP3    H2 2595   5.486   7.299   6.265 -2.8417 -0.4936  0.2198
  888TIP3   OH2 2596   6.451   4.062   2.169 -0.5342 -0.3296  0.5415
  888TIP3    H1 2597   6.362   4.049   2.138 -0.1382 -1.5505 -0.1053
  888TIP3    H2 2598   6.482   3.975   2.194  0.7194 -0.0267  0.1149
  889TIP3   OH2 2599   3.358   5.205   2.003  0.0034  0.4579 -0.3702
  889TIP3    H1 2600   3.334   5.294   2.027  0.4362  0.2437  0.8842
  889TIP3    H2 2601   3.286   5.151   2.038 -0.4895  0.3494 -1.5224
  890TIP3   OH2 2602   1.192   1.444   1.324 -0.3196 -0.8574  0.4830
  890TIP3    H1 2603   1.159   1.510   1.386 -1.9453 -1.9147  0.7839
  890TIP3    H2 2604   1.287   1.456   1.324 -0.4171  0.0813  2.1496
  891TIP3   OH2 2605   2.905   6.126   0.765 -0.4747 -0.3534  0.6145
  891TIP3    H1 2606   2.828   6.179   0.745 -0.0511  0.0477  0.0391
  891TIP3    H2 2607   2.980   6.182   0.744 -0.0211 -0.7577  1.1241
  892TIP3   OH2 2608   2.148   3.053   0.130  0.2689  0.2231  0.2939
  892TIP3    H1 2609   2.220   3.069   0.191 -0.0693 -0.2717  0.8259
  892TIP3    H2 2610   2.132   2.959   0.136 -0.6484  0.3843  0.4348
  893TIP3   OH2 2611   3.078   4.613   0.919 -0.1824  0.3207  0.0635
  893TIP3    H1 2612   3.128   4.558   0.979  1.5594  2.1539  0.3660
  893TIP3    H2 2613   3.016   4.659   0.975  1.4082  1.9922  0.5342
  894TIP3   OH2 2614   3.040   1.296   2.805 -0.0091  0.1774  0.5874
  894TIP3    H1 2615   3.013   1.375   2.851 -0.8761  0.9776 -1.2588
  894TIP3    H2 2616   2.989   1.296   2.724  0.2460 -2.0853  0.3969
  895TIP3   OH2 2617   3.302   1.384   0.100  0.0653  0.1019  0.1565
  895TIP3    H1 2618   3.362   1.374   0.174  0.2050  2.2510  0.3615
  895TIP3    H2 2619   3.215   1.372   0.138  0.1319  1.2977  0.7007
  896TIP3   OH2 2620   4.783   1.728   0.171  0.0599 -0.0421  0.3834
  896TIP3    H1 2621   4.702   1.778   0.180  0.5469  0.4614  2.0207
  896TIP3    H2 2622   4.802   1.695   0.258  1.1354 -0.9298 -0.1696
  897TIP3   OH2 2623   3.308   1.282   1.005  0.7737  0.5962 -0.5906
  897TIP3    H1 2624   3.303   1.348   1.074  1.4000 -0.2965  0.3196
  897TIP3    H2 2625   3.223   1.238   1.007  0.3301  1.3993 -1.2426
  898TIP3   OH2 2626   3.503   3.130   3.256  0.4605 -0.1434  0.3561
  898TIP3    H1 2627   3.429   3.150   3.199 -0.1470 -3.2216 -0.0072
  898TIP3    H2 2628   3.465   3.124   3.344  0.4512 -0.6743  0.3184
  899TIP3   OH2 2629   3.610   3.862   0.596  0.4378 -0.0007  0.2416
  899TIP3    H1 2630   3.601   3.932   0.532  1.7448  0.3759  0.4544
  899TIP3    H2 2631   3.564   3.894   0.674  1.5465  0.8723  0.5399
  900TIP3   OH2 2632   6.528   5.676   5.131 -0.4635 -0.4859 -0.2294
  900TIP3    H1 2633   6.446   5.634   5.106 -0.1586  0.0474 -2.2348
  900TIP3    H2 2634   6.524   5.682   5.227 -2.2476 -1.4832 -0.2226
  901TIP3   OH2 2635   3.786   0.200   0.106  0.4030 -0.3121 -0.3636
  901TIP3    H1 2636   3.765   0.241   0.022 -0.2822 -3.0488 -1.5890
  901TIP3    H2 2637   3.703   0.160   0.134  1.3243 -1.9087  0.1386
  902TIP3   OH2 2638   3.774   0.909   3.204 -0.0352  0.2378  0.1674
  902TIP3    H1 2639   3.833   0.842   3.169  1.6398  1.2409  0.9957
  902TIP3    H2 2640   3.688   0.886   3.170  0.4295 -2.6036  0.7718
  903TIP3   OH2 2641   5.455   6.926   6.794  0.6690 -0.4567 -0.4915
  903TIP3    H1 2642   5.476   6.999   6.737 -2.0890  0.4264 -0.4514
  903TIP3    H2 2643   5.359   6.927   6.800  0.6927 -2.9470  0.9721
  904TIP3   OH2 2644   1.465   2.631   0.977 -0.5663  0.0953  0.0233
  904TIP3    H1 2645   1.497   2.720   0.961 -2.4108  0.5647 -1.1890
  904TIP3    H2 2646   1.445   2.630   1.070 -0.8769  1.0867 -0.0173
  905TIP3   OH2 2647   4.552   4.123   1.262 -0.3846 -0.8018  0.3468
  905TIP3    H1 2648   4.632   4.135   1.313 -0.2688 -0.4404  0.0829
  905TIP3    H2 2649   4.488   4.091   1.325 -0.9101  1.8965  1.2491
  906TIP3   OH2 2650   7.016   5.330   6.096  0.4441  0.3145 -0.3398
  906TIP3    H1 2651   6.982   5.399   6.040 -0.4246  0.3159  0.1793
  906TIP3    H2 2652   7.047   5.376   6.175 -1.4689 -0.0070  0.6338
  907TIP3   OH2 2653   5.838   5.517   4.844 -0.3170  0.3057 -0.6483
  907TIP3    H1 2654   5.765   5.520   4.906 -2.4400  0.0840 -3.0308
  907TIP3    H2 2655   5.867   5.426   4.845 -1.9894 -0.2775 -1.7286
  908TIP3   OH2 2656   1.503   1.049   0.236  0.1427 -0.1511 -0.1432
  908TIP3    H1 2657   1.586   1.003   0.233 -0.7635 -1.7603 -0.8837
  908TIP3    H2 2658   1.474   1.041   0.327  0.1198 -0.7933 -0.2083
  909TIP3   OH2 2659   4.804   7.159   5.844  0.6294 -1.0770  0.2679
  909TIP3    H1 2660   4.797   7.116   5.929 -0.6610 -0.0813  0.6733
  909TIP3    H2 2661   4.897   7.182   5.837  0.5533 -0.1782  1.9053
  910TIP3   OH2 2662   5.700   5.420   0.514 -0.0037 -0.8439 -0.3559
  910TIP3    H1 2663   5.786   5.451   0.488  0.6542 -1.1214  1.4279
  910TIP3    H2 2664   5.708   5.324   0.515 -1.2494 -1.0293 -3.2011
  911TIP3   OH2 2665   0.666   0.182   6.878  0.0983  0.6639 -0.4833
  911TIP3    H1 2666   0.639   0.186   6.787 -1.2980  1.7891 -0.0337
  911TIP3    H2 2667   0.588   0.206   6.928  0.1676 -2.1364  1.1373
  912TIP3   OH2 2668   2.487   2.362   0.441  0.5965  0.1491 -0.7471
  912TIP3    H1 2669   2.486   2.392   0.532  0.0839 -2.0241 -0.0124
  912TIP3    H2 2670   2.513   2.440   0.390  1.3565  1.2549  1.2852
  913TIP3   OH2 2671   4.456   1.632   0.327 -0.2033  0.5437  0.3680
  913TIP3    H1 2672   4.401   1.623   0.405 -2.2700 -2.8517 -1.3686
  913TIP3    H2 2673   4.399   1.674   0.262  0.3659  0.1275 -0.4098
  914TIP3   OH2 2674   4.797   1.372   0.469  0.3411 -0.0204 -0.4923
  914TIP3    H1 2675   4.840   1.395   0.551 -0.9286  1.2469 -0.1603
  914TIP3    H2 2676   4.745   1.294   0.491  0.3190  0.0782 -0.1895
  915TIP3   OH2 2677   1.849   2.685   0.527 -0.7415  0.4636 -0.1877
  915TIP3    H1 2678   1.843   2.748   0.455 -0.8140 -3.2553 -3.6417
  915TIP3    H2 2679   1.762   2.644   0.531  0.6784 -2.8504 -1.4468
  916TIP3   OH2 2680   4.165   2.848   1.900 -0.3176  0.2398  0.3351
  916TIP3    H1 2681   4.255   2.875   1.918 -0.7525  1.2361  1.0532
  916TIP3    H2 2682   4.153   2.767   1.950  0.3370 -0.1827 -0.1847
  917TIP3   OH2 2683   2.878   4.873   1.706  0.2635  0.2710  0.1083
  917TIP3    H1 2684   2.936   4.930   1.656  0.5586 -0.3283 -0.2515
  917TIP3    H2 2685   2.856   4.803   1.644  0.0683 -0.1028  0.6022
  918TIP3   OH2 2686   3.280   5.355   3.330 -0.2706 -0.3440  0.0579
  918TIP3    H1 2687   3.269   5.260   3.335 -0.7476 -0.3739 -1.2339
  918TIP3    H2 2688   3.375   5.368   3.329 -0.1707 -0.9851 -2.1154
  919TIP3   OH2 2689   1.380   1.886   1.582 -1.0338  0.1797  0.7379
  919TIP3    H1 2690   1.401   1.979   1.590 -1.5123  0.6350 -2.7754
  919TIP3    H2 2691   1.466   1.843   1.579 -0.7926  0.6618  0.5729
  920TIP3   OH2 2692   4.324   3.108   0.493  0.0757 -0.3237 -0.1003
  920TIP3    H1 2693   4.261   3.046   0.458 -0.1041 -0.0477 -0.2645
  920TIP3    H2 2694   4.405   3.057   0.501 -0.6043 -1.1449  1.7403
  921TIP3   OH2 2695   1.058   2.930   6.871  0.1603  0.6550  0.1080
  921TIP3    H1 2696   1.139   2.962   6.911  0.2634 -0.3776  0.7535
  921TIP3    H2 2697   1.087   2.862   6.810 -0.2589 -0.1943  0.8431
  922TIP3   OH2 2698   5.959   4.663   1.374  0.0857  0.1551 -0.0002
  922TIP3    H1 2699   5.946   4.744   1.326 -0.4452 -0.4935 -0.9586
  922TIP3    H2 2700   6.047   4.671   1.411  0.3182  0.8536 -0.6949
  923TIP3   OH2 2701   4.008   3.010   0.895  0.6801 -0.1342  0.7746
  923TIP3    H1 2702   4.058   3.064   0.833  0.3479  0.2245  0.8146
  923TIP3    H2 2703   4.054   2.926   0.897  0.1263 -0.4937 -0.7329
  924TIP3   OH2 2704   2.555   3.286   2.158  0.0480 -0.7079  0.0576
  924TIP3    H1 2705   2.601   3.225   2.101  1.2286 -1.2381  1.5274
  924TIP3    H2 2706   2.477   3.239   2.187 -0.4971 -0.4771 -0.9902
  925TIP3   OH2 2707   5.911   0.764   0.301  0.0777  0.2618 -0.0126
  925TIP3    H1 2708   5.860   0.844   0.305  1.2118  0.9719  0.4119
  925TIP3    H2 2709   5.987   0.786   0.248 -0.3981 -0.9940 -1.2652
  926TIP3   OH2 2710   3.451   3.478   0.621  0.6061  0.3997  0.0694
  926TIP3    H1 2711   3.490   3.489   0.708  0.7952 -1.8051  0.2913
  926TIP3    H2 2712   3.505   3.532   0.563  1.7730  0.2085  0.9676
  927TIP3   OH2 2713   4.672   6.459   5.381 -0.0915 -0.0023 -0.2096
  927TIP3    H1 2714   4.699   6.386   5.325 -0.6092 -1.2031  1.0761
  927TIP3    H2 2715   4.754   6.490   5.421 -0.2960 -2.3156  2.1078
  928TIP3   OH2 2716   4.402   2.564   0.503 -0.4144 -0.1334 -0.1868
  928TIP3    H1 2717   4.433   2.596   0.588 -0.8449  1.3703 -0.5915
  928TIP3    H2 2718   4.328   2.620   0.481 -0.1701 -0.3632 -1.6678
  929TIP3   OH2 2719   5.510   2.663   1.017  0.0560 -0.8906  0.0186
  929TIP3    H1 2720   5.522   2.756   1.039  0.3546 -0.5963 -1.3529
  929TIP3    H2 2721   5.594   2.637   0.979 -0.4345 -1.4106 -0.6964
  930TIP3   OH2 2722   4.107   4.481   1.497  0.2834 -0.3275  0.0708
  930TIP3    H1 2723   4.128   4.498   1.589  1.1942  1.0555 -0.3847
  930TIP3    H2 2724   4.078   4.565   1.463 -0.7686 -1.0009 -0.7302
  931TIP3   OH2 2725   4.622   3.024   1.367 -0.1939  0.1319  0.2300
  931TIP3    H1 2726   4.590   3.064   1.448  0.8568  1.5378 -0.0330
  931TIP3    H2 2727   4.640   2.933   1.391  0.9742  0.7642  1.8128
  932TIP3   OH2 2728   3.796   3.194   1.570  0.6861 -0.5802 -0.5929
  932TIP3    H1 2729   3.783   3.107   1.532 -0.0179 -0.5318 -0.4725
  932TIP3    H2 2730   3.777   3.183   1.663  1.0504 -0.4000 -0.4976
  933TIP3   OH2 2731   4.537   7.086   6.423 -0.4329  0.2694 -0.1122
  933TIP3    H1 2732   4.472   7.129   6.478 -0.6791 -0.3811  0.1023
  933TIP3    H2 2733   4.486   7.031   6.363  0.0181 -2.4278  1.9001
  934TIP3   OH2 2734   4.035   3.866   0.987  0.5862  0.4058  0.3868
  934TIP3    H1 2735   4.081   3.946   1.011 -0.9361  1.7121 -0.9151
  934TIP3    H2 2736   4.071   3.841   0.902 -0.2944  0.8066 -0.1125
  935TIP3   OH2 2737   2.826   4.519   0.523  0.3876  0.1114  0.0577
  935TIP3    H1 2738   2.903   4.461   0.523 -0.4623 -1.0285  0.4430
  935TIP3    H2 2739   2.756   4.466   0.486 -0.6778  0.5209  1.4302
  936TIP3   OH2 2740   2.053   2.505   0.927 -0.7377 -0.0475  0.1730
  936TIP3    H1 2741   1.990   2.569   0.895 -0.0571  0.6167  0.1295
  936TIP3    H2 2742   2.094   2.548   1.003 -1.3954 -1.0711  1.1146
  937TIP3   OH2 2743   2.933   1.891   2.343  0.0188  0.0085 -0.2300
  937TIP3    H1 2744   2.973   1.904   2.257  2.0962 -2.0284  0.3763
  937TIP3    H2 2745   2.852   1.844   2.326  1.4058 -2.2098 -0.9817
  938TIP3   OH2 2746   2.268   4.865   1.157  0.8641 -0.1689  0.3351
  938TIP3    H1 2747   2.183   4.889   1.121  0.8474 -1.4526 -0.5104
  938TIP3    H2 2748   2.251   4.843   1.248  0.0156 -1.9529 -0.2427
  939TIP3   OH2 2749   1.062   2.161   1.459 -0.0836  0.3287  0.2238
  939TIP3    H1 2750   1.054   2.253   1.434  0.5958 -0.1095 -1.6529
  939TIP3    H2 2751   0.984   2.144   1.513 -0.4790  1.8487  0.1434
  940TIP3   OH2 2752   3.491   3.327   3.580 -0.5675  0.0854 -0.3819
  940TIP3    H1 2753   3.470   3.404   3.528  0.7295  1.3863  0.9817
  940TIP3    H2 2754   3.492   3.358   3.670  1.5377 -1.1631  0.0563
  941TIP3   OH2 2755   5.253   7.966   5.968 -0.6907 -0.3395 -0.4019
  941TIP3    H1 2756   5.341   7.976   6.003 -0.7153 -1.3762 -0.0484
  941TIP3    H2 2757   5.207   8.045   5.997  0.3905  0.6981 -1.4502
  942TIP3   OH2 2758   6.292   5.286   1.394  0.5780 -0.4811 -0.1450
  942TIP3    H1 2759   6.378   5.315   1.425 -0.3769  0.6377  1.5469
  942TIP3    H2 2760   6.269   5.347   1.324  0.2988  0.4466  0.7500
  943TIP3   OH2 2761   3.602   3.383   1.046  0.1587 -0.8356 -0.6157
  943TIP3    H1 2762   3.542   3.332   0.991  2.1142 -1.7378 -1.9708
  943TIP3    H2 2763   3.620   3.462   0.995 -1.5205  0.4361  0.7293
  944TIP3   OH2 2764   0.691   1.034   5.970  0.7396 -0.4208 -0.1587
  944TIP3    H1 2765   0.705   1.063   5.879 -0.2022  0.4830 -0.0246
  944TIP3    H2 2766   0.756   1.082   6.021 -0.8374  1.5799  0.0692
  945TIP3   OH2 2767   3.512   1.215   1.891  0.3336 -0.5268  0.3346
  945TIP3    H1 2768   3.601   1.210   1.854  0.0377 -1.1651 -0.2972
  945TIP3    H2 2769   3.476   1.296   1.856  1.3800  0.7760  2.1989
  946TIP3   OH2 2770   4.205   4.874   1.250 -0.5390  0.2738  0.4902
  946TIP3    H1 2771   4.286   4.914   1.217 -0.2700 -1.3583 -0.9116
  946TIP3    H2 2772   4.229   4.783   1.269 -2.0787 -0.2783 -0.1371
  947TIP3   OH2 2773   5.171   6.891   6.765 -0.0311  0.4674  0.2813
  947TIP3    H1 2774   5.114   6.943   6.709 -2.0839 -1.4332  0.5476
  947TIP3    H2 2775   5.172   6.937   6.849 -1.1231  0.5442  0.2498
  948TIP3   OH2 2776   2.199   3.224   1.214 -0.0802 -0.1118  0.0595
  948TIP3    H1 2777   2.174   3.224   1.306 -1.1095 -1.0767 -0.2122
  948TIP3    H2 2778   2.262   3.152   1.206  0.0507  0.0069  0.0186
  949TIP3   OH2 2779   3.417   3.214   0.913 -0.4944  0.4871  0.4203
  949TIP3    H1 2780   3.444   3.154   0.843 -1.1804  2.8113 -1.8902
  949TIP3    H2 2781   3.327   3.188   0.933 -1.2855  1.6044 -1.5642
  950TIP3   OH2 2782   7.835   5.699   6.508  0.4093 -0.0581  0.5726
  950TIP3    H1 2783   7.769   5.700   6.577 -0.4326  1.1196 -0.2359
  950TIP3    H2 2784   7.893   5.772   6.529  1.2167 -0.8273  1.0433
  951TIP3   OH2 2785   3.236   4.947   0.886  0.6216 -0.1104  0.6160
  951TIP3    H1 2786   3.317   4.998   0.896 -0.0775  0.8662  1.3067
  951TIP3    H2 2787   3.241   4.880   0.953  1.6493 -1.1185 -0.4363
  952TIP3   OH2 2788   4.132   5.699   2.427 -0.2550 -0.3677  0.2067
  952TIP3    H1 2789   4.037   5.696   2.439 -0.5330  2.8319 -0.7594
  952TIP3    H2 2790   4.145   5.695   2.333  0.4865  0.7440  0.2577
  953TIP3   OH2 2791   3.581   3.056   2.968  0.2161 -0.2095 -0.6918
  953TIP3    H1 2792   3.651   3.108   2.929  0.5691 -0.8090 -0.8758
  953TIP3    H2 2793   3.565   3.096   3.053 -0.7377  1.2792 -1.5454
  954TIP3   OH2 2794   0.387   0.234   6.920  0.5641 -0.0775  0.0793
  954TIP3    H1 2795   0.353   0.214   6.833  0.0702 -0.4457  0.3544
  954TIP3    H2 2796   0.408   0.327   6.917  3.0974 -0.6338 -1.2957
  955TIP3   OH2 2797   1.370   3.787   0.858  0.2977 -0.8664  0.5509
  955TIP3    H1 2798   1.403   3.732   0.787 -0.0229 -0.8460  0.3847
  955TIP3    H2 2799   1.300   3.839   0.818  1.8341  1.0246  0.2628
  956TIP3   OH2 2800   4.128   2.476   0.702  0.3651 -0.0698  0.1223
  956TIP3    H1 2801   4.142   2.545   0.767 -1.3363  0.3383  0.1000
  956TIP3    H2 2802   4.204   2.420   0.709  1.6117  1.6164  0.4042
  957TIP3   OH2 2803   4.691   5.169   1.873  0.5165  0.0837  0.0588
  957TIP3    H1 2804   4.602   5.195   1.846  1.5711  2.1530 -1.6203
  957TIP3    H2 2805   4.678   5.122   1.955 -2.2550 -0.7374 -0.7777
  958TIP3   OH2 2806   1.534   3.483   3.565 -0.1015 -0.0160 -0.1612
  958TIP3    H1 2807   1.562   3.506   3.653 -0.1797  0.2246 -0.2012
  958TIP3    H2 2808   1.439   3.496   3.565 -0.1297 -0.2118 -0.2199
  959TIP3   OH2 2809   3.333   2.723   0.488 -0.5620 -0.2892  0.1209
  959TIP3    H1 2810   3.323   2.659   0.559 -0.4495  0.1311  0.5209
  959TIP3    H2 2811   3.291   2.803   0.522  0.7492  0.3491  0.2977
  960TIP3   OH2 2812   5.774   6.921   6.701  0.1014  0.1694  0.0253
  960TIP3    H1 2813   5.738   6.890   6.785  0.5585  0.7715  0.4454
  960TIP3    H2 2814   5.748   6.854   6.638 -3.1344  1.3916  0.0041
  961TIP3   OH2 2815   4.505   6.214   1.664 -0.4652 -0.4295 -0.0017
  961TIP3    H1 2816   4.469   6.126   1.675 -0.6683 -0.3501 -0.0311
  961TIP3    H2 2817   4.475   6.242   1.578 -1.2563  0.0685  0.4316
  962TIP3   OH2 2818   3.733   4.603   2.527 -0.0364  0.4178  0.0610
  962TIP3    H1 2819   3.722   4.547   2.604  0.3283 -0.0163 -0.1970
  962TIP3    H2 2820   3.788   4.675   2.557  0.0087  0.3121  0.2343
  963TIP3   OH2 2821   2.619   3.537   0.644 -0.6995  0.1469  0.0333
  963TIP3    H1 2822   2.682   3.583   0.588 -1.3326  0.5614 -0.3566
  963TIP3    H2 2823   2.567   3.606   0.683 -3.3379 -0.2754 -2.5501
  964TIP3   OH2 2824   3.773   5.840   2.088  0.0658 -0.3143 -0.1413
  964TIP3    H1 2825   3.790   5.775   2.020  0.6672 -0.8038  0.4712
  964TIP3    H2 2826   3.854   5.889   2.096  0.1475 -0.5548  0.5425
  965TIP3   OH2 2827   4.134   6.070   0.094 -0.4876 -0.1040  0.2346
  965TIP3    H1 2828   4.202   6.094   0.157 -0.7249  1.6394 -0.1654
  965TIP3    H2 2829   4.162   5.984   0.061  1.5365  0.6092  0.0448
  966TIP3   OH2 2830   4.101   2.536   1.746 -0.5110  0.2184  0.3867
  966TIP3    H1 2831   4.017   2.577   1.727  0.4075  2.1030  0.2334
  966TIP3    H2 2832   4.113   2.548   1.840 -0.4542 -0.1280  0.4239
  967TIP3   OH2 2833   4.287   4.414   2.782 -0.6603 -0.0985  0.3047
  967TIP3    H1 2834   4.210   4.383   2.735  0.1982  0.2803 -1.4034
  967TIP3    H2 2835   4.354   4.348   2.766 -0.6495 -0.4819  1.8719
  968TIP3   OH2 2836   0.976   3.460   3.222 -0.4226 -0.0863 -0.1235
  968TIP3    H1 2837   1.065   3.445   3.191 -1.0876 -1.7524 -1.2242
  968TIP3    H2 2838   0.962   3.554   3.207  0.6857 -0.0625 -1.1131
  969TIP3   OH2 2839   6.171   7.640   6.929 -0.2118 -0.1689  0.0275
  969TIP3    H1 2840   6.247   7.648   6.871 -1.6792 -1.4296 -2.1373
  969TIP3    H2 2841   6.128   7.725   6.925 -0.8365 -0.5501 -1.5145
  970TIP3   OH2 2842   4.641   6.474   3.958 -0.7637 -0.9366 -0.6634
  970TIP3    H1 2843   4.560   6.524   3.971  0.2470  0.2991  1.0931
  970TIP3    H2 2844   4.696   6.532   3.905  0.1879 -0.3865  0.8852
  971TIP3   OH2 2845   3.333   2.307   1.774 -0.0924  0.3950  0.2280
  971TIP3    H1 2846   3.397   2.241   1.798 -2.1726 -0.9460  2.3128
  971TIP3    H2 2847   3.298   2.277   1.690 -1.9704 -1.9595  1.7760
  972TIP3   OH2 2848   3.499   3.597   1.567 -0.1112 -0.8532  0.3885
  972TIP3    H1 2849   3.543   3.637   1.492 -1.5441  0.0852  0.0323
  972TIP3    H2 2850   3.521   3.653   1.641 -0.8594 -0.2682  0.1730
  973TIP3   OH2 2851   5.335   3.928   1.046  0.1105 -0.0892  0.0069
  973TIP3    H1 2852   5.421   3.887   1.036  0.3744  0.8064 -1.5390
  973TIP3    H2 2853   5.335   3.962   1.136  1.7368  0.7141 -0.2749
  974TIP3   OH2 2854   1.525   1.230   1.779  0.4265  0.3860  0.4030
  974TIP3    H1 2855   1.614   1.216   1.747  0.0612 -1.3713  0.0936
  974TIP3    H2 2856   1.490   1.141   1.790 -0.6878  1.0361  2.1913
  975TIP3   OH2 2857   2.101   2.721   1.555  0.3906 -0.7204  0.1750
  975TIP3    H1 2858   2.031   2.767   1.509 -0.9094 -2.6610  0.1977
  975TIP3    H2 2859   2.166   2.703   1.488  0.7986  0.8553  0.1071
  976TIP3   OH2 2860   1.463   1.510   2.232  0.3266  0.9053  0.3249
  976TIP3    H1 2861   1.512   1.430   2.211 -1.1411  0.3318 -1.0544
  976TIP3    H2 2862   1.455   1.555   2.148 -0.7809  1.4006  0.6959
  977TIP3   OH2 2863   3.421   3.880   0.310  0.2043  0.5265 -0.4445
  977TIP3    H1 2864   3.427   3.785   0.315 -0.5540  0.4895 -0.1481
  977TIP3    H2 2865   3.507   3.911   0.339  0.6975 -0.0793 -1.2161
  978TIP3   OH2 2866   2.645   3.012   1.125 -0.1782  0.3359  0.0759
  978TIP3    H1 2867   2.690   3.052   1.051  0.6454  1.0967  0.9814
  978TIP3    H2 2868   2.715   2.973   1.178 -0.6756  0.6348  0.9565
  979TIP3   OH2 2869   3.915   5.832   0.361  0.0585  0.1116  0.1843
  979TIP3    H1 2870   4.008   5.813   0.378  0.1088  0.1606 -0.0402
  979TIP3    H2 2871   3.899   5.915   0.407 -0.2410 -0.6264  1.4285
  980TIP3   OH2 2872   3.912   2.948   1.983 -0.1104  0.2258 -0.1736
  980TIP3    H1 2873   3.946   3.026   2.027  1.0696 -0.2441 -0.2404
  980TIP3    H2 2874   3.990   2.903   1.949 -0.7499 -1.0905  0.0449
  981TIP3   OH2 2875   3.237   2.690   2.531 -0.0259 -0.4025 -0.1449
  981TIP3    H1 2876   3.227   2.724   2.442 -0.9054 -0.3347 -0.0292
  981TIP3    H2 2877   3.314   2.633   2.526  0.1688 -0.0896 -0.8532
  982TIP3   OH2 2878   2.886   2.741   1.843 -0.3268 -0.2069 -0.9278
  982TIP3    H1 2879   2.802   2.781   1.818  0.4069  0.3311 -2.6468
  982TIP3    H2 2880   2.883   2.654   1.804 -0.7709 -0.8190  0.4495
  983TIP3   OH2 2881   3.373   2.906   2.040 -0.3695 -0.5943  0.1179
  983TIP3    H1 2882   3.455   2.870   2.007 -0.0026 -1.9173  2.3880
  983TIP3    H2 2883   3.396   2.993   2.072  0.1753 -1.0314  0.9106
  984TIP3   OH2 2884   2.686   1.406   1.512  0.0645  0.0801 -0.0709
  984TIP3    H1 2885   2.626   1.332   1.519 -1.2577  1.2209  0.8700
  984TIP3    H2 2886   2.689   1.425   1.418 -0.5312 -0.4158 -0.1948
  985TIP3   OH2 2887   3.808   3.552   1.200 -0.7882 -0.8103 -0.4205
  985TIP3    H1 2888   3.777   3.482   1.258 -0.8574 -1.0493 -0.7385
  985TIP3    H2 2889   3.886   3.516   1.159 -0.3995 -0.4134 -0.0253
  986TIP3   OH2 2890   7.038   3.088   1.806  0.0816 -0.3708 -0.1672
  986TIP3    H1 2891   7.010   3.156   1.867  1.5257  0.1848 -0.1078
  986TIP3    H2 2892   7.030   3.128   1.720  0.2102 -0.3787 -0.1832
  987TIP3   OH2 2893   3.696   3.802   1.140 -0.4313 -0.2401  0.0637
  987TIP3    H1 2894   3.761   3.734   1.160  0.8872  0.9253 -0.1438
  987TIP3    H2 2895   3.730   3.845   1.062 -1.5114  0.3345 -0.1016
  988TIP3   OH2 2896   3.526   4.303   0.216  0.0800 -0.0494  0.7287
  988TIP3    H1 2897   3.587   4.369   0.184 -0.7426  0.6679  0.6129
  988TIP3    H2 2898   3.521   4.238   0.146  2.1093 -1.0935  1.4822
  989TIP3   OH2 2899   3.135   2.610   2.986  0.2449  0.2441  0.1392
  989TIP3    H1 2900   3.173   2.533   2.945  2.7906  1.2351  0.5677
  989TIP3    H2 2901   3.093   2.657   2.914  1.4990  0.1042 -0.6863
  990TIP3   OH2 2902   3.656   2.860   1.939  0.1884  0.3448  0.2733
  990TIP3    H1 2903   3.660   2.785   1.879  1.2694 -0.3130  1.1626
  990TIP3    H2 2904   3.747   2.886   1.952 -0.2100  2.2920 -0.5869
  991TIP3   OH2 2905   0.243   4.377   1.127 -0.2786  0.0710  0.9198
  991TIP3    H1 2906   0.211   4.356   1.040 -0.7321 -1.9934  1.5578
  991TIP3    H2 2907   0.339   4.373   1.119 -0.2232  2.4724 -0.0733
  992TIP3   OH2 2908   2.915   2.470   0.011 -0.0390  0.3165  0.2082
  992TIP3    H1 2909   2.928   2.564   0.006  1.8577 -0.0543 -3.5860
  992TIP3    H2 2910   2.991   2.437   0.060  1.6993  0.3882 -2.3429
  993TIP3   OH2 2911   5.354   8.020   6.833 -0.3891 -0.0990  0.6903
  993TIP3    H1 2912   5.284   8.067   6.878  0.8718  0.0759  2.5320
  993TIP3    H2 2913   5.383   7.954   6.896 -0.2180 -1.4997 -0.8036
  994TIP3   OH2 2914   3.047   2.035   0.833 -0.6837  0.0663  0.5343
  994TIP3    H1 2915   3.010   2.007   0.750 -1.1907 -1.3327  1.2157
  994TIP3    H2 2916   3.051   1.955   0.886  1.6602  0.5172  1.0961
  995TIP3   OH2 2917   5.898   5.971   3.300 -0.4802  0.3034 -0.1661
  995TIP3    H1 2918   5.933   5.892   3.343 -0.6795 -0.8603 -2.1072
  995TIP3    H2 2919   5.967   5.998   3.240 -1.3451  0.2816 -1.1758
  996TIP3   OH2 2920   3.705   4.621   1.082  0.0308  0.4913  0.1460
  996TIP3    H1 2921   3.726   4.710   1.110 -0.7497  0.4927  0.7647
  996TIP3    H2 2922   3.643   4.632   1.010  0.6763  0.4614 -0.4151
  997TIP3   OH2 2923   3.625   3.808   2.388 -0.0391 -0.0526  0.5965
  997TIP3    H1 2924   3.636   3.774   2.477  0.4029 -0.0584  0.5404
  997TIP3    H2 2925   3.577   3.739   2.342  1.4024 -0.8958  0.3160
  998TIP3   OH2 2926   2.909   4.734   1.077  0.2321  0.1942  0.2925
  998TIP3    H1 2927   2.891   4.827   1.086  1.3880  0.7094 -2.3651
  998TIP3    H2 2928   2.823   4.692   1.084 -0.8036  1.7946 -2.2891
  999TIP3   OH2 2929   4.154   4.735   0.537 -0.0716  0.4257  0.8867
  999TIP3    H1 2930   4.188   4.812   0.583  0.4351  0.7030  0.0463
  999TIP3    H2 2931   4.078   4.768   0.488 -0.8940  0.0363  1.8639
 1000TIP3   OH2 2932   6.326   3.403   0.774  0.0723 -0.0727 -0.0644
 1000TIP3    H1 2933   6.263   3.454   0.723 -2.2762 -0.8490  1.9652
 1000TIP3    H2 2934   6.375   3.354   0.708 -0.8871  1.1579 -1.7568
 1001TIP3   OH2 2935   3.864   4.477   0.651 -0.1422 -0.3835  0.1406
 1001TIP3    H1 2936   3.927   4.518   0.710 -0.6130  0.3193  0.1696
 1001TIP3    H2 2937   3.783   4.473   0.702 -0.5369  0.1806 -0.4259
 1002TIP3   OH2 2938   5.257   2.592   1.946  0.3713  0.4745 -0.0123
 1002TIP3    H1 2939   5.236   2.606   1.854 -0.5711 -0.3572  0.0666
 1002TIP3    H2 2940   5.338   2.540   1.945 -0.0893 -0.2496 -0.3947
 1003TIP3   OH2 2941   5.512   7.178   6.758  0.4286  0.4917  0.1751
 1003TIP3    H1 2942   5.561   7.259   6.748  2.0342 -0.3674  0.7567
 1003TIP3    H2 2943   5.512   7.162   6.853  1.7846 -1.1291 -0.0652
 1004TIP3   OH2 2944   2.354   0.336   1.830  0.2331 -0.1639  0.5475
 1004TIP3    H1 2945   2.369   0.245   1.802 -0.4142 -0.2089  0.3492
 1004TIP3    H2 2946   2.357   0.332   1.925  0.6070 -0.3266  0.5302
 1005TIP3   OH2 2947   2.799   2.492   2.758  0.4751  1.2891 -0.2935
 1005TIP3    H1 2948   2.740   2.479   2.683 -0.7547 -0.5265  0.9380
 1005TIP3    H2 2949   2.751   2.553   2.815 -0.7245 -0.9709  1.1851
 1006TIP3   OH2 2950   4.873   4.825   1.716  0.7388 -0.6569 -0.0425
 1006TIP3    H1 2951   4.834   4.755   1.665  0.4288 -0.0721 -0.6129
 1006TIP3    H2 2952   4.877   4.791   1.805 -0.2537 -1.0575 -0.1481
 1007TIP3   OH2 2953   4.339   2.161   0.371 -0.1704  0.6856  0.1298
 1007TIP3    H1 2954   4.419   2.129   0.331 -2.6238 -2.0688 -2.7835
 1007TIP3    H2 2955   4.332   2.112   0.453  0.4954  0.0606 -0.1817
 1008TIP3   OH2 2956   2.777   5.252   0.537 -0.0627 -0.3227 -0.1114
 1008TIP3    H1 2957   2.684   5.253   0.561 -0.3003 -0.0643 -0.9921
 1008TIP3    H2 2958   2.805   5.343   0.548 -0.1546 -0.2176 -0.7118
 1009TIP3   OH2 2959   4.212   3.162   0.748 -0.3369 -0.0941  0.3846
 1009TIP3    H1 2960   4.245   3.137   0.662  1.4253 -3.6040  1.9660
 1009TIP3    H2 2961   4.142   3.225   0.730  0.7954  0.1740 -3.5049
 1010TIP3   OH2 2962   2.793   0.494   1.077  0.0766 -0.0398  0.0472
 1010TIP3    H1 2963   2.827   0.436   1.008  0.1201  0.4383 -0.3347
 1010TIP3    H2 2964   2.800   0.442   1.157  1.0709 -0.2028 -0.1383
 1011TIP3   OH2 2965   5.902   3.382   1.244 -0.8070  0.1694  0.0968
 1011TIP3    H1 2966   5.904   3.311   1.180 -1.2191 -0.1943  0.4872
 1011TIP3    H2 2967   5.977   3.365   1.302 -0.0248  0.8775 -0.6862
 1012TIP3   OH2 2968   3.266   4.057   1.461  0.8268  0.7830 -0.1305
 1012TIP3    H1 2969   3.251   4.019   1.548 -0.6260  2.1790  0.2694
 1012TIP3    H2 2970   3.283   3.983   1.404  1.7033 -0.1673  1.3238
 1013TIP3   OH2 2971   5.639   4.264   1.244  0.0108 -0.0412 -0.1320
 1013TIP3    H1 2972   5.633   4.216   1.162 -0.3081  0.8202 -0.6196
 1013TIP3    H2 2973   5.655   4.197   1.310 -2.5034 -1.0857 -0.5243
 1014TIP3   OH2 2974   3.254   3.622   1.719 -0.5712  0.1032 -0.4251
 1014TIP3    H1 2975   3.312   3.600   1.646 -0.4031  0.7837 -0.5027
 1014TIP3    H2 2976   3.238   3.716   1.709 -1.3682 -0.0033 -0.1761
 1015TIP3   OH2 2977   4.289   3.896   1.314  0.1250 -0.0447  0.2520
 1015TIP3    H1 2978   4.310   3.810   1.350  2.4196  0.9106  1.2284
 1015TIP3    H2 2979   4.329   3.897   1.228  1.6200  0.6656  0.9332
 1016TIP3   OH2 2980   2.867   3.194   2.457  0.2993 -0.2720  0.5951
 1016TIP3    H1 2981   2.885   3.124   2.394 -2.8366 -2.1270  1.6349
 1016TIP3    H2 2982   2.837   3.268   2.404  3.9588  0.4821 -0.5460
 1017TIP3   OH2 2983   6.275   4.989   5.916  0.4507 -0.1069 -0.1413
 1017TIP3    H1 2984   6.274   5.084   5.930  0.2776 -0.2225  0.6675
 1017TIP3    H2 2985   6.184   4.967   5.898  0.4690 -0.1394 -0.1921
 1018TIP3   OH2 2986   3.328   1.151   0.531 -0.8038  0.0705 -0.3534
 1018TIP3    H1 2987   3.325   1.093   0.455 -0.6622  1.6899 -1.6191
 1018TIP3    H2 2988   3.264   1.114   0.592 -0.4995 -1.5768 -1.0051
 1019TIP3   OH2 2989   8.017   0.747   6.494  0.3093 -0.2122  0.2120
 1019TIP3    H1 2990   8.004   0.840   6.516  0.2624 -0.0915 -0.3233
 1019TIP3    H2 2991   8.105   0.727   6.525  0.2977 -0.0040  0.3886
 1020TIP3   OH2 2992   1.734   2.250   1.448 -0.5272  0.6140  0.0460
 1020TIP3    H1 2993   1.746   2.345   1.445  1.2524  0.4205  0.3120
 1020TIP3    H2 2994   1.769   2.219   1.365 -3.2601  0.3792 -1.0611
 1021TIP3   OH2 2995   3.912   2.843   0.296  0.1660  0.2029  0.0803
 1021TIP3    H1 2996   3.828   2.855   0.252  0.3914  1.2951 -0.0702
 1021TIP3    H2 2997   3.933   2.751   0.284 -0.7777  0.0347 -0.2978
 1022TIP3   OH2 2998   2.275   1.710   6.697 -0.1899  0.4157  0.5938
 1022TIP3    H1 2999   2.330   1.766   6.751 -1.0153  2.4979 -0.6532
 1022TIP3    H2 3000   2.186   1.740   6.715 -0.4842  1.1596 -1.8923
 1023TIP3   OH2 3001   4.235   5.039   0.234 -0.5889 -0.2771 -0.9259
 1023TIP3    H1 3002   4.201   5.072   0.317  0.9206  1.0999 -0.8320
 1023TIP3    H2 3003   4.186   5.088   0.167 -0.6685 -0.2424 -0.8424
 1024TIP3   OH2 3004   5.875   4.806   1.075 -0.8639  0.6332 -0.2886
 1024TIP3    H1 3005   5.856   4.712   1.067  0.2537  0.3793 -0.0734
 1024TIP3    H2 3006   5.917   4.829   0.992  0.8619  0.4394  0.5084
 1025TIP3   OH2 3007   4.366   0.922   2.013 -0.1571  0.6038 -0.0068
 1025TIP3    H1 3008   4.295   0.965   2.061 -0.0667  0.6988  0.0407
 1025TIP3    H2 3009   4.350   0.828   2.027 -0.7784  0.5954 -0.7232
 1026TIP3   OH2 3010   3.237   5.377   1.113  0.8564  0.6973 -0.0083
 1026TIP3    H1 3011   3.171   5.339   1.055  1.4217 -0.6300  0.2010
 1026TIP3    H2 3012   3.262   5.304   1.171  3.3052  0.9053 -0.7920
 1027TIP3   OH2 3013   2.565   5.683   2.555 -0.6369 -0.6247 -0.3181
 1027TIP3    H1 3014   2.507   5.619   2.597  1.1309 -1.9434  0.1305
 1027TIP3    H2 3015   2.546   5.674   2.461  1.5337 -3.7800 -0.5070
 1028TIP3   OH2 3016   1.185   1.818   6.697  0.0696 -0.2379  0.1251
 1028TIP3    H1 3017   1.243   1.801   6.771  1.2046  0.2240 -0.6430
 1028TIP3    H2 3018   1.140   1.900   6.720  0.7897  0.1707  0.0789
 1029TIP3   OH2 3019   4.038   4.997   1.067 -0.1603 -0.0701  0.2416
 1029TIP3    H1 3020   4.087   4.939   1.125 -0.3779  0.8865  1.3956
 1029TIP3    H2 3021   3.996   5.060   1.126 -0.5123  0.8136 -0.9437
 1030TIP3   OH2 3022   1.862   2.030   6.274 -0.4727  0.0908 -0.1379
 1030TIP3    H1 3023   1.933   2.086   6.306 -0.2586  0.0719 -0.5693
 1030TIP3    H2 3024   1.786   2.088   6.268 -0.2594  0.3303 -0.5527
 1031TIP3   OH2 3025   1.321   2.687   2.714 -0.4009  0.6135  0.1896
 1031TIP3    H1 3026   1.372   2.674   2.634 -1.0040  0.0614 -0.1094
 1031TIP3    H2 3027   1.237   2.645   2.696 -0.3460  0.0061  1.3241
 1032TIP3   OH2 3028   2.113   6.424   0.316  0.4258  0.1844 -0.1150
 1032TIP3    H1 3029   2.043   6.490   0.323 -0.0844 -0.4336  0.8751
 1032TIP3    H2 3030   2.183   6.459   0.371 -0.0824 -0.3759  0.9063
 1033TIP3   OH2 3031   4.621   5.007   2.195 -0.8212  0.5865 -0.3165
 1033TIP3    H1 3032   4.691   5.039   2.252  0.1583 -1.0984 -0.5620
 1033TIP3    H2 3033   4.542   5.012   2.250 -0.2545  1.0432  0.4645
 1034TIP3   OH2 3034   4.629   3.614   1.325 -0.5576  0.4935 -0.0688
 1034TIP3    H1 3035   4.559   3.648   1.380 -0.7158  0.1158 -0.0372
 1034TIP3    H2 3036   4.635   3.521   1.347 -0.7836  0.2855 -0.8594
 1035TIP3   OH2 3037   4.607   2.508   0.967 -0.2843  0.8294  0.2176
 1035TIP3    H1 3038   4.666   2.433   0.970 -0.3833  0.7320 -0.3351
 1035TIP3    H2 3039   4.542   2.490   1.035  1.1333  1.6239  1.8500
 1036TIP3   OH2 3040   5.109   2.172   0.518  0.2641  0.6036 -0.3287
 1036TIP3    H1 3041   5.133   2.256   0.556  0.6726  0.6876 -0.7703
 1036TIP3    H2 3042   5.088   2.191   0.427 -1.1548  0.4742 -0.0424
 1037TIP3   OH2 3043   6.330   1.757   0.288  0.7619  0.6220  0.0475
 1037TIP3    H1 3044   6.236   1.776   0.281  0.6273  0.1026  0.4170
 1037TIP3    H2 3045   6.341   1.723   0.377  1.2321  0.2907 -0.1351
 1038TIP3   OH2 3046   2.852   1.057   1.038  0.1716 -0.0668  1.1192
 1038TIP3    H1 3047   2.780   1.001   1.010 -0.9366  1.8555  0.0629
 1038TIP3    H2 3048   2.842   1.063   1.133 -1.5374  0.7957  0.8976
 1039TIP3   OH2 3049   3.178   2.918   0.915  0.2636 -0.0738  0.4237
 1039TIP3    H1 3050   3.109   2.977   0.945 -0.3313 -0.3852 -0.3236
 1039TIP3    H2 3051   3.133   2.839   0.888  0.8507 -0.1031 -0.5213
 1040TIP3   OH2 3052   4.403   2.699   1.365  1.0617  0.0760  0.1268
 1040TIP3    H1 3053   4.327   2.736   1.321  1.7316 -0.0300 -1.1568
 1040TIP3    H2 3054   4.373   2.678   1.453 -0.1216  0.9253 -0.0704
 1041TIP3   OH2 3055   4.810   4.291   2.525 -0.3032  0.1372  0.1730
 1041TIP3    H1 3056   4.864   4.296   2.604  0.2815 -0.4011 -0.1944
 1041TIP3    H2 3057   4.873   4.293   2.453 -0.7672 -0.7202 -0.2524
 1042TIP3   OH2 3058   3.606   7.990   5.287  0.3454  0.5804  0.1255
 1042TIP3    H1 3059   3.698   8.008   5.266  0.6114  0.7708  1.4490
 1042TIP3    H2 3060   3.610   7.921   5.353 -0.4595  1.0341  0.6455
 1043TIP3   OH2 3061   5.037   6.348   6.243  0.1769 -0.2903 -0.3984
 1043TIP3    H1 3062   4.966   6.323   6.303 -0.1747  0.0759 -0.6643
 1043TIP3    H2 3063   5.116   6.347   6.298 -0.2172  0.5218  0.1828
 1044TIP3   OH2 3064   3.260   3.509   1.078  0.4694  0.2566  0.0977
 1044TIP3    H1 3065   3.345   3.551   1.084  0.2503  0.8099 -0.6521
 1044TIP3    H2 3066   3.223   3.539   0.995 -1.3441  1.6961  1.3894
 1045TIP3   OH2 3067   4.564   3.532   1.070 -0.2052  0.6526 -0.0885
 1045TIP3    H1 3068   4.525   3.592   1.006 -0.2584  0.9720  0.2440
 1045TIP3    H2 3069   4.585   3.587   1.145 -2.5546 -0.1532  1.2343
 1046TIP3   OH2 3070   0.054   0.602   5.409 -0.5564  0.4249  0.0609
 1046TIP3    H1 3071   0.075   0.694   5.390 -0.5809  0.5116  0.4449
 1046TIP3    H2 3072   0.080   0.591   5.501 -0.7595  0.1078  0.0780
 1047TIP3   OH2 3073   2.568   3.680   3.870 -0.0213  0.3262 -0.6039
 1047TIP3    H1 3074   2.574   3.770   3.839 -1.1148  0.4737 -0.3841
 1047TIP3    H2 3075   2.640   3.635   3.826 -0.6043  0.8870 -2.1554
 1048TIP3   OH2 3076   3.566   1.378   2.265  0.3635  0.8906  0.1603
 1048TIP3    H1 3077   3.582   1.447   2.201 -1.6847 -0.9816 -2.5536
 1048TIP3    H2 3078   3.476   1.349   2.245  1.3840 -2.9056  0.7642
 1049TIP3   OH2 3079   3.770   3.482   0.464  0.0132  0.3461 -0.5501
 1049TIP3    H1 3080   3.839   3.487   0.531  0.5552  1.0707 -1.1519
 1049TIP3    H2 3081   3.800   3.412   0.405 -0.5498 -0.4104  0.0503
 1050TIP3   OH2 3082   3.935   3.836   1.674 -0.1198  0.3929 -0.1981
 1050TIP3    H1 3083   3.864   3.791   1.627  1.4361 -1.1356 -1.1276
 1050TIP3    H2 3084   3.957   3.778   1.746  0.1003  0.9399  0.1755
 1051TIP3   OH2 3085   2.945   3.940   0.070 -0.0745 -0.7382 -0.0752
 1051TIP3    H1 3086   3.037   3.933   0.045  0.0804  0.3583  0.1390
 1051TIP3    H2 3087   2.937   3.890   0.151  0.3343 -0.8472 -0.1050
 1052TIP3   OH2 3088   5.395   3.608   1.199  0.1692  0.0250 -0.0166
 1052TIP3    H1 3089   5.457   3.655   1.143 -0.1544 -2.0416 -2.2567
 1052TIP3    H2 3090   5.383   3.663   1.276  2.8873  1.6101 -0.6878
 1053TIP3   OH2 3091   5.509   4.560   0.477  0.3878 -0.0790 -0.5389
 1053TIP3    H1 3092   5.505   4.464   0.470  1.5326 -0.1348 -0.4781
 1053TIP3    H2 3093   5.519   4.576   0.571 -1.7893  0.1825 -0.3327
 1054TIP3   OH2 3094   1.937   1.333   6.152 -0.2094  0.0013 -0.0255
 1054TIP3    H1 3095   1.879   1.382   6.209  0.2388 -0.6618  1.0184
 1054TIP3    H2 3096   1.929   1.242   6.180  0.1294 -0.3172 -0.9172
 1055TIP3   OH2 3097   4.900   4.112   0.924 -0.0987 -0.2412 -0.1670
 1055TIP3    H1 3098   4.819   4.159   0.946  0.1756  0.3850 -0.4918
 1055TIP3    H2 3099   4.921   4.062   1.003 -0.3180  0.2887  0.2260
 1056TIP3   OH2 3100   3.255   4.289   0.318  0.2211  0.1363 -0.1121
 1056TIP3    H1 3101   3.346   4.281   0.291  0.2565 -1.1500  0.3359
 1056TIP3    H2 3102   3.209   4.323   0.241  0.8828 -0.3382 -0.7158
 1057TIP3   OH2 3103   5.868   3.931   0.938 -0.0971 -0.1427  0.6845
 1057TIP3    H1 3104   5.804   3.870   0.900  1.0466  0.2635 -2.0360
 1057TIP3    H2 3105   5.937   3.875   0.973  0.7653 -0.4865 -1.4668
 1058TIP3   OH2 3106   3.786   0.567   5.135 -1.1035 -0.4159 -0.0097
 1058TIP3    H1 3107   3.712   0.522   5.094 -0.7216 -2.0694  1.0477
 1058TIP3    H2 3108   3.784   0.536   5.226  0.4001  0.1657  0.2201
 1059TIP3   OH2 3109   0.014   5.721   5.849  0.0084  0.2303  0.0932
 1059TIP3    H1 3110   0.098   5.705   5.893 -0.3535  1.2176  1.1474
 1059TIP3    H2 3111  -0.035   5.777   5.909 -1.2232  0.0672 -0.7388
 1060TIP3   OH2 3112   5.372   3.990   1.301  0.1329 -0.6730  0.3904
 1060TIP3    H1 3113   5.462   4.022   1.291 -0.2905  0.1201 -0.8619
 1060TIP3    H2 3114   5.380   3.920   1.366  1.3768  0.5866  1.6499
 1061TIP3   OH2 3115   5.071   1.323   6.153 -0.0592 -0.0011  0.1402
 1061TIP3    H1 3116   5.004   1.386   6.178 -0.7706 -0.9573  0.6547
 1061TIP3    H2 3117   5.023   1.250   6.114  0.6890 -0.5723  0.2671
 1062TIP3   OH2 3118   4.114   2.588   2.003 -0.0942  0.5063 -0.7882
 1062TIP3    H1 3119   4.185   2.551   2.056  0.5038 -2.5759 -3.6627
 1062TIP3    H2 3120   4.037   2.536   2.026 -0.6053  1.3795 -0.4877
 1063TIP3   OH2 3121   4.254   3.646   1.900 -0.6435 -0.1074 -0.0500
 1063TIP3    H1 3122   4.311   3.657   1.976 -0.1860  1.5513 -0.6148
 1063TIP3    H2 3123   4.266   3.555   1.873  0.6980 -0.1387  0.6593
 1064TIP3   OH2 3124   2.378   5.552   6.731 -0.6731  0.3841 -0.4220
 1064TIP3    H1 3125   2.406   5.606   6.805  0.3223  0.3413 -0.7608
 1064TIP3    H2 3126   2.409   5.600   6.653  1.0056 -1.0723 -0.7001
 1065TIP3   OH2 3127   7.325   3.173   1.723  0.0565 -0.2617  0.3920
 1065TIP3    H1 3128   7.299   3.098   1.775  0.3358 -1.5321 -1.2425
 1065TIP3    H2 3129   7.265   3.243   1.750 -2.2419 -1.9214 -0.2076
 1066TIP3   OH2 3130   7.290   2.633   1.832  0.2604 -0.2487 -0.3331
 1066TIP3    H1 3131   7.226   2.582   1.783  0.5609  0.7440 -1.8160
 1066TIP3    H2 3132   7.372   2.583   1.825  0.4137  0.1264 -1.2704
 1067TIP3   OH2 3133   5.471   3.091   0.942  0.3246  0.1520 -0.4568
 1067TIP3    H1 3134   5.548   3.149   0.949 -0.4840  1.0373  1.3727
 1067TIP3    H2 3135   5.400   3.149   0.914  0.1140 -0.5020 -1.3037
 1068TIP3   OH2 3136   3.331   5.082   1.230 -0.0320 -0.3048  0.1704
 1068TIP3    H1 3137   3.363   5.058   1.144  1.0000  3.0695 -0.4584
 1068TIP3    H2 3138   3.408   5.113   1.277 -1.1576  1.1425  1.1172
 1069TIP3   OH2 3139   3.636   4.982   0.762  0.1098 -0.0248 -0.2416
 1069TIP3    H1 3140   3.637   5.063   0.711  3.5465 -0.2502 -0.6421
 1069TIP3    H2 3141   3.569   4.928   0.719  1.6488  0.4783 -3.4226
 1070TIP3   OH2 3142   5.666   5.142   0.943 -0.2227  0.0120 -0.0349
 1070TIP3    H1 3143   5.631   5.079   0.880  0.8792  0.7636 -1.4004
 1070TIP3    H2 3144   5.688   5.089   1.020  0.2957 -1.2108 -1.0093
 1071TIP3   OH2 3145   5.195   2.357   0.139  0.3794  0.5184 -0.0073
 1071TIP3    H1 3146   5.239   2.438   0.165 -0.2285  0.6352  0.7039
 1071TIP3    H2 3147   5.247   2.323   0.067 -0.5312  2.6471 -1.7160
 1072TIP3   OH2 3148   7.520   5.986   4.553  0.2124 -0.3342  0.2274
 1072TIP3    H1 3149   7.529   6.003   4.460  0.9435 -1.2099  0.1319
 1072TIP3    H2 3150   7.601   5.943   4.578  0.1260  0.1079  1.3238
 1073TIP3   OH2 3151   4.871   5.517   0.586  0.1920  0.1788 -0.2554
 1073TIP3    H1 3152   4.865   5.464   0.506  2.2316  1.5235 -1.3580
 1073TIP3    H2 3153   4.797   5.578   0.580  1.7989  2.0237 -2.5171
 1074TIP3   OH2 3154   4.196   0.429   6.044  0.2282 -0.4452 -0.3593
 1074TIP3    H1 3155   4.108   0.421   6.007  0.1437  0.4637 -0.3431
 1074TIP3    H2 3156   4.251   0.374   5.987  0.2576  1.5949 -2.3412
 1075TIP3   OH2 3157   6.856   4.808   1.280 -0.3053  0.0755  0.1486
 1075TIP3    H1 3158   6.941   4.820   1.238 -0.1154  1.1099  0.8150
 1075TIP3    H2 3159   6.797   4.866   1.233  0.3157  2.7225  2.4803
 1076TIP3   OH2 3160   5.576   4.118   2.072  0.3526  0.0152 -0.3005
 1076TIP3    H1 3161   5.643   4.068   2.025  1.1135  0.6180  0.1369
 1076TIP3    H2 3162   5.520   4.153   2.003  0.5240 -0.4343 -0.6733
 1077TIP3   OH2 3163   5.711   2.317   0.628 -0.0561 -0.3206 -0.1973
 1077TIP3    H1 3164   5.625   2.291   0.594  0.3022 -0.5336 -0.9712
 1077TIP3    H2 3165   5.721   2.268   0.709 -0.8644  0.0631  0.1403
 1078TIP3   OH2 3166   4.649   1.441   0.257 -0.9357 -0.0816 -0.2711
 1078TIP3    H1 3167   4.600   1.522   0.269 -1.2094 -0.5101  1.7586
 1078TIP3    H2 3168   4.682   1.420   0.345  2.9261  0.2147 -1.5335
 1079TIP3   OH2 3169   7.031   3.911   1.651  0.5549  0.5175  0.6701
 1079TIP3    H1 3170   7.023   3.966   1.573  2.6617  1.2495  0.9346
 1079TIP3    H2 3171   7.037   3.974   1.723  2.5000 -0.0293  1.0209
 1080TIP3   OH2 3172   5.837   2.128   2.189 -0.1413 -0.2386  0.5874
 1080TIP3    H1 3173   5.871   2.153   2.275 -0.8636 -2.5120  1.5873
 1080TIP3    H2 3174   5.905   2.155   2.128  0.0364  2.1273  1.7748
 1081TIP3   OH2 3175   3.937   4.667   2.257 -0.0769  0.1696 -0.0721
 1081TIP3    H1 3176   3.992   4.592   2.237  0.2568  0.5644 -0.6630
 1081TIP3    H2 3177   3.849   4.631   2.266  0.0842 -0.2923 -0.3593
 1082TIP3   OH2 3178   7.014   5.439   6.347  0.2920  0.3191 -0.2572
 1082TIP3    H1 3179   6.923   5.414   6.365  0.1478  1.5886  0.8712
 1082TIP3    H2 3180   7.054   5.447   6.434  1.6015 -0.6485 -0.7579
 1083TIP3   OH2 3181   6.327   4.904   2.740 -0.1704 -0.5902 -0.5346
 1083TIP3    H1 3182   6.291   4.990   2.762  1.4657 -0.2085  0.7398
 1083TIP3    H2 3183   6.284   4.880   2.658 -1.1429  1.1349 -0.5440
 1084TIP3   OH2 3184   5.639   4.041   1.398 -0.5712  0.3840  0.2399
 1084TIP3    H1 3185   5.606   4.040   1.488 -2.0669 -0.3612 -0.2927
 1084TIP3    H2 3186   5.704   3.970   1.396  0.0317  0.9065  0.9199
 1085TIP3   OH2 3187   4.993   5.457   2.643  0.1565  0.4024  0.0093
 1085TIP3    H1 3188   4.911   5.433   2.686  1.1004 -0.1939  1.5562
 1085TIP3    H2 3189   5.048   5.379   2.651  1.1312  1.0401 -0.3466
 1086TIP3   OH2 3190   6.526   5.026   1.287  0.3458 -0.1229 -0.5546
 1086TIP3    H1 3191   6.599   5.018   1.349 -0.6368 -0.5672  0.5535
 1086TIP3    H2 3192   6.511   5.121   1.280  0.3519 -0.0767  0.0188
 1087TIP3   OH2 3193   5.161   4.212   1.325 -0.5796  0.1385  0.3051
 1087TIP3    H1 3194   5.133   4.278   1.261 -1.6819 -0.2273  0.3990
 1087TIP3    H2 3195   5.211   4.148   1.273 -0.8554  0.2239 -0.0664
 1088TIP3   OH2 3196   3.787   5.687   0.910 -0.2409 -0.5163 -0.4149
 1088TIP3    H1 3197   3.876   5.655   0.925  0.1677  0.2376 -1.1756
 1088TIP3    H2 3198   3.793   5.738   0.829 -1.0485  0.7803  0.3237
 1089TIP3   OH2 3199   8.301   4.703   0.938 -0.4918 -0.7539  0.2569
 1089TIP3    H1 3200   8.271   4.710   0.848 -1.6296 -0.7714  0.6253
 1089TIP3    H2 3201   8.339   4.788   0.958 -0.9238 -0.5080  0.0112
 1090TIP3   OH2 3202   5.414   6.582   6.524  0.3006  0.0087  0.1158
 1090TIP3    H1 3203   5.442   6.578   6.616  1.1015 -2.3060 -0.1898
 1090TIP3    H2 3204   5.392   6.674   6.510  1.8714  0.7359  2.1211
 1091TIP3   OH2 3205   2.137   7.489   5.553 -0.2102  0.8075  0.7270
 1091TIP3    H1 3206   2.218   7.540   5.559  0.3690 -0.2421  2.2167
 1091TIP3    H2 3207   2.074   7.549   5.514  2.1385  0.6085 -3.6049
 1092TIP3   OH2 3208   6.537   5.654   0.941 -0.4404 -0.1271  0.9820
 1092TIP3    H1 3209   6.486   5.589   0.991  0.7486 -0.9687  1.1438
 1092TIP3    H2 3210   6.628   5.633   0.963 -0.0261  1.3288  0.6732
 1093TIP3   OH2 3211   5.094   3.879   0.883 -0.2267  0.1366 -0.0731
 1093TIP3    H1 3212   5.168   3.898   0.941  0.4171 -0.0503 -0.8241
 1093TIP3    H2 3213   5.076   3.962   0.840 -1.1549  0.4483  0.8929
 1094TIP3   OH2 3214   6.384   4.621   0.079  0.3633  0.1309 -0.4285
 1094TIP3    H1 3215   6.330   4.558   0.032  1.1248 -0.3890 -0.6300
 1094TIP3    H2 3216   6.453   4.568   0.119  0.5540  0.7436  0.0668
 1095TIP3   OH2 3217   4.193   2.532   2.383 -0.4560  0.0688 -0.2560
 1095TIP3    H1 3218   4.182   2.625   2.362 -0.7616  0.2374  0.6008
 1095TIP3    H2 3219   4.268   2.504   2.331  0.3992  1.1120  0.3850
 1096TIP3   OH2 3220   6.587   3.104   1.441  0.2121 -0.2744 -0.1919
 1096TIP3    H1 3221   6.633   3.181   1.408  1.0063 -1.6298 -2.3653
 1096TIP3    H2 3222   6.654   3.052   1.485 -0.5831  0.8632  2.4785
 1097TIP3   OH2 3223   5.100   0.580   0.724 -0.5938  0.0428  0.3959
 1097TIP3    H1 3224   5.034   0.646   0.745 -0.1082  0.3582  0.9714
 1097TIP3    H2 3225   5.140   0.611   0.642 -1.9150 -0.7429 -0.5692
 1098TIP3   OH2 3226   0.732   1.752   5.202 -0.3330 -0.0634  0.4045
 1098TIP3    H1 3227   0.730   1.687   5.272  0.1265 -0.3939  0.1139
 1098TIP3    H2 3228   0.772   1.707   5.128  0.6996  0.7779  0.4325
 1099TIP3   OH2 3229   4.115  -0.014   5.691 -0.6582 -0.3077  0.1104
 1099TIP3    H1 3230   4.090   0.076   5.714 -0.6823 -0.0769 -0.8034
 1099TIP3    H2 3231   4.055  -0.038   5.620  0.3787 -0.4720 -0.7244
 1100TIP3   OH2 3232   1.140   5.811   6.159 -0.5031  0.2602  0.4171
 1100TIP3    H1 3233   1.201   5.881   6.136  0.0724 -0.3361  0.1217
 1100TIP3    H2 3234   1.083   5.850   6.226 -0.2795  1.0541  0.1561
 1101TIP3   OH2 3235   5.082   5.207   0.429 -0.0192  0.5417 -0.3468
 1101TIP3    H1 3236   4.998   5.170   0.457  1.4400 -1.0775  2.1145
 1101TIP3    H2 3237   5.118   5.143   0.368  1.0164 -0.5478  1.3719
 1102TIP3   OH2 3238   3.811   2.055   0.706  0.0958 -0.0229  0.0317
 1102TIP3    H1 3239   3.742   2.060   0.640  0.5047 -0.0253 -0.3999
 1102TIP3    H2 3240   3.796   2.131   0.762 -0.0851  0.1381 -0.2339
 1103TIP3   OH2 3241   6.924   4.055   0.948 -0.3115  0.3669 -0.4245
 1103TIP3    H1 3242   6.902   3.982   1.005 -0.2925  1.0323  0.4507
 1103TIP3    H2 3243   6.863   4.048   0.874 -1.1454  0.1996  0.2792
 1104TIP3   OH2 3244   2.274   0.703   6.862  0.0994  0.9898 -0.3377
 1104TIP3    H1 3245   2.250   0.631   6.920  0.1578  2.5791  1.6878
 1104TIP3    H2 3246   2.301   0.660   6.781  0.1547 -1.2627  0.8450
 1105TIP3   OH2 3247   4.289   4.616   1.326  0.5131 -0.2466  0.4313
 1105TIP3    H1 3248   4.383   4.598   1.329  0.7919  1.3311  2.2422
 1105TIP3    H2 3249   4.249   4.539   1.367  1.2467  0.2928  2.2361
 1106TIP3   OH2 3250   5.312   1.730   0.685 -0.2479 -0.5328 -0.7390
 1106TIP3    H1 3251   5.298   1.649   0.637 -1.5922 -0.1544 -1.0159
 1106TIP3    H2 3252   5.301   1.799   0.619  2.1657 -0.1570 -0.7880
 1107TIP3   OH2 3253   3.198   1.817   0.277  0.9546 -0.1696  0.8306
 1107TIP3    H1 3254   3.238   1.730   0.275  1.7215  0.1954  0.3527
 1107TIP3    H2 3255   3.154   1.821   0.362  1.1604 -0.9182  0.9732
 1108TIP3   OH2 3256   4.387   5.815   1.916  0.5236  1.0383  0.4116
 1108TIP3    H1 3257   4.393   5.720   1.924 -1.1207  0.7730 -1.1765
 1108TIP3    H2 3258   4.346   5.844   1.998 -1.2910  0.0949 -0.1291
 1109TIP3   OH2 3259   3.609   0.277   6.238  0.3805  0.2381 -0.1119
 1109TIP3    H1 3260   3.657   0.204   6.198  0.1980  0.6737 -1.1291
 1109TIP3    H2 3261   3.570   0.323   6.164 -0.0079  1.0165  0.5798
 1110TIP3   OH2 3262   2.372   1.882   6.251 -0.4654  0.2931 -0.2973
 1110TIP3    H1 3263   2.354   1.970   6.284 -1.1426 -0.1432  0.4917
 1110TIP3    H2 3264   2.435   1.846   6.313 -2.3005 -0.8034  0.9571
 1111TIP3   OH2 3265   5.023   1.947   1.390 -0.4683 -0.0395  0.4340
 1111TIP3    H1 3266   4.941   1.978   1.427 -1.1606 -2.7305  1.2299
 1111TIP3    H2 3267   4.999   1.874   1.334  1.3016 -0.3621  0.0435
 1112TIP3   OH2 3268   4.903   4.034   1.208 -0.2285 -0.4284  0.1583
 1112TIP3    H1 3269   4.895   3.939   1.217  2.7164 -0.7131  0.4963
 1112TIP3    H2 3270   4.897   4.067   1.298  0.8768 -0.5331  0.2838
 1113TIP3   OH2 3271   8.378   2.676   2.005  0.2167  0.7399 -0.3429
 1113TIP3    H1 3272   8.464   2.637   1.991  0.2403  0.7981 -0.3581
 1113TIP3    H2 3273   8.333   2.615   2.065  0.7892  1.4482  0.8270
 1114TIP3   OH2 3274   5.908   5.636   0.108  0.3011 -0.3571  0.1861
 1114TIP3    H1 3275   5.985   5.579   0.111  0.2493 -0.4855 -0.7823
 1114TIP3    H2 3276   5.938   5.713   0.059 -0.8856 -1.4789 -2.3557
 1115TIP3   OH2 3277   7.108   2.278   0.081 -0.4072  0.2701  0.1164
 1115TIP3    H1 3278   7.153   2.361   0.089 -1.8323  1.1808 -0.9805
 1115TIP3    H2 3279   7.064   2.283  -0.004 -0.6936 -1.5027  0.1388
 1116TIP3   OH2 3280   6.265   4.024   0.545  0.6938  0.2170 -0.5753
 1116TIP3    H1 3281   6.270   4.011   0.639 -2.2174 -1.9434 -0.6737
 1116TIP3    H2 3282   6.262   4.119   0.534  0.8265  0.4796  1.4828
 1117TIP3   OH2 3283   4.737   3.666   0.660  0.3367  0.0828  0.0280
 1117TIP3    H1 3284   4.695   3.673   0.574 -1.9224 -0.2193  1.0826
 1117TIP3    H2 3285   4.791   3.745   0.666 -2.0531  1.8283 -0.3412
 1118TIP3   OH2 3286   4.758   3.085   0.858 -0.1755  0.2796  0.2044
 1118TIP3    H1 3287   4.784   3.142   0.929  0.7020  0.9822 -0.6640
 1118TIP3    H2 3288   4.665   3.100   0.847  0.2317  2.2640 -0.6441
 1119TIP3   OH2 3289   4.801   2.265   0.673  0.7412 -0.3738  0.0647
 1119TIP3    H1 3290   4.810   2.337   0.735  0.6910  0.0125 -0.3759
 1119TIP3    H2 3291   4.713   2.274   0.637  0.6061 -0.8614  0.2690
 1120TIP3   OH2 3292   3.637   0.598   6.437  0.5286 -0.3740 -0.2283
 1120TIP3    H1 3293   3.677   0.515   6.465  1.3934  0.3139  0.5777
 1120TIP3    H2 3294   3.543   0.580   6.439  0.7256 -1.5341 -0.6753
 1121TIP3   OH2 3295   6.399   4.899   0.395  0.0012 -0.5121 -0.1408
 1121TIP3    H1 3296   6.468   4.866   0.452 -0.0031  0.0954  0.2111
 1121TIP3    H2 3297   6.337   4.942   0.454  0.3562  0.7437 -0.6650
 1122TIP3   OH2 3298   6.605   6.413   1.928  0.1223 -0.1979 -0.0653
 1122TIP3    H1 3299   6.510   6.413   1.931  0.1678  0.4143  1.9208
 1122TIP3    H2 3300   6.627   6.363   1.849 -1.8273 -0.4673 -0.4452
 1123TIP3   OH2 3301   6.277   1.397   0.302  0.2225  0.2141 -0.0906
 1123TIP3    H1 3302   6.332   1.449   0.361 -0.9742  0.7694  0.5600
 1123TIP3    H2 3303   6.230   1.338   0.360 -0.2709  0.1137 -0.5938
 1124TIP3   OH2 3304   6.324   4.393   1.995 -0.5157 -0.2008  0.3499
 1124TIP3    H1 3305   6.363   4.478   2.012 -2.6359  1.1321 -1.1699
 1124TIP3    H2 3306   6.319   4.351   2.081 -0.4339  1.6445  1.2816
 1125TIP3   OH2 3307   1.393   7.682   0.472  0.4818  0.2828  0.3390
 1125TIP3    H1 3308   1.365   7.770   0.447 -0.3474 -0.3952 -1.1786
 1125TIP3    H2 3309   1.424   7.691   0.562  1.1872  2.2956 -0.0768
 1126TIP3   OH2 3310   5.954   4.009   0.708 -0.3450  0.0925 -0.3409
 1126TIP3    H1 3311   5.923   3.997   0.797  1.4115  2.5194  0.6729
 1126TIP3    H2 3312   5.938   3.925   0.665 -0.4401 -1.3988  2.4875
 1127TIP3   OH2 3313   4.007   3.930   1.331 -0.0305 -0.2685  0.2382
 1127TIP3    H1 3314   4.101   3.921   1.316  0.2464 -0.7811  2.2109
 1127TIP3    H2 3315   3.981   3.848   1.373 -1.2052  0.2116  0.4751
 1128TIP3   OH2 3316   6.792   1.482   0.200 -0.3600  0.0046 -0.0576
 1128TIP3    H1 3317   6.806   1.447   0.288 -2.9000 -0.2942  0.2801
 1128TIP3    H2 3318   6.837   1.421   0.142  0.1367 -0.5876  0.9446
 1129TIP3   OH2 3319   6.572   2.847   1.753  0.2254 -0.3389  0.1296
 1129TIP3    H1 3320   6.586   2.900   1.831  0.1218  0.2297 -0.2373
 1129TIP3    H2 3321   6.507   2.782   1.780 -1.1208  0.9507  0.0197
 1130TIP3   OH2 3322   5.553   2.525   1.561  0.2288  0.3709  0.3588
 1130TIP3    H1 3323   5.467   2.483   1.560  0.4318 -0.0510 -0.7887
 1130TIP3    H2 3324   5.578   2.529   1.469  1.8254 -0.3046  0.7521
 1131TIP3   OH2 3325   3.189   3.512   0.619  0.0137  0.0185  0.5225
 1131TIP3    H1 3326   3.165   3.517   0.526 -1.2600 -0.5800  0.8085
 1131TIP3    H2 3327   3.283   3.491   0.619 -0.3516 -1.6480 -0.6327
 1132TIP3   OH2 3328   6.132   2.966   1.654 -0.3062 -0.0356  0.0181
 1132TIP3    H1 3329   6.202   2.959   1.590  1.3548  2.2849  1.5024
 1132TIP3    H2 3330   6.059   3.007   1.607  0.5043  0.6334 -0.6527
 1133TIP3   OH2 3331   1.282   3.321   0.184 -0.1278  0.0992  0.4444
 1133TIP3    H1 3332   1.253   3.353   0.269  1.5708 -1.0948  1.4933
 1133TIP3    H2 3333   1.335   3.392   0.148 -1.6249  0.9880 -0.0665
 1134TIP3   OH2 3334   6.879   4.693   2.054  0.1645 -0.1931 -0.2708
 1134TIP3    H1 3335   6.903   4.680   2.146 -0.2446  1.0022  0.0126
 1134TIP3    H2 3336   6.908   4.612   2.011  2.6267  0.2463  0.4653
 1135TIP3   OH2 3337   4.852   3.732   1.234 -0.0895  0.0990  0.3818
 1135TIP3    H1 3338   4.879   3.669   1.168 -2.0127  1.0217 -1.3653
 1135TIP3    H2 3339   4.766   3.702   1.263 -0.1524  0.8141  0.9697
 1136TIP3   OH2 3340   0.295   6.202   0.552 -0.0708 -0.1943  0.2843
 1136TIP3    H1 3341   0.292   6.132   0.617  0.0467  0.0702  0.5792
 1136TIP3    H2 3342   0.303   6.282   0.604  1.9247 -0.1114 -0.0817
 1137TIP3   OH2 3343   4.161   4.426   2.426 -0.1394 -0.0301 -0.0037
 1137TIP3    H1 3344   4.141   4.468   2.510 -2.3716 -0.2369 -0.4178
 1137TIP3    H2 3345   4.146   4.333   2.442 -1.2948  0.0123 -0.8418
 1138TIP3   OH2 3346   7.065   5.489   1.530 -0.2990 -0.0527  0.3910
 1138TIP3    H1 3347   7.128   5.557   1.509  0.5351 -1.1543 -0.7369
 1138TIP3    H2 3348   7.118   5.414   1.556 -1.1842 -0.5543  0.8125
 1139TIP3   OH2 3349   6.961   4.987   0.143 -0.5093 -0.0715  0.0021
 1139TIP3    H1 3350   6.949   4.895   0.122  0.7906 -0.1514 -0.4293
 1139TIP3    H2 3351   7.038   5.014   0.093 -0.6841  1.1614  0.3704
 1140TIP3   OH2 3352   5.628   4.387   2.256 -0.5371  0.4444  0.3592
 1140TIP3    H1 3353   5.541   4.388   2.296 -1.5002  1.9669 -1.7076
 1140TIP3    H2 3354   5.649   4.480   2.242  1.0278  0.0493 -0.0154
 1141TIP3   OH2 3355   3.536   1.749   1.590  0.0534  0.1374  0.5448
 1141TIP3    H1 3356   3.534   1.843   1.605  0.3343  0.1108  0.7336
 1141TIP3    H2 3357   3.599   1.715   1.653 -0.1506 -0.1958  0.5738
 1142TIP3   OH2 3358   7.250   6.947   0.813  0.2983 -0.3755  0.4095
 1142TIP3    H1 3359   7.297   6.872   0.778  0.7421 -0.8460  1.9371
 1142TIP3    H2 3360   7.236   7.004   0.738  1.3477 -1.2575 -0.4810
 1143TIP3   OH2 3361   5.887   1.945   0.688  0.2140  0.1183 -0.0067
 1143TIP3    H1 3362   5.805   1.985   0.718  0.4540 -0.1464  1.0119
 1143TIP3    H2 3363   5.932   1.919   0.768  1.2002  0.0624 -0.5694
 1144TIP3   OH2 3364   5.531   3.691   0.565 -0.3377  0.1748 -0.3125
 1144TIP3    H1 3365   5.509   3.766   0.509 -0.3083  2.5739  2.7668
 1144TIP3    H2 3366   5.458   3.684   0.626  0.1453 -1.7394  0.0954
 1145TIP3   OH2 3367   4.817   4.458   1.759  0.1610 -0.0334 -0.3229
 1145TIP3    H1 3368   4.745   4.472   1.698  0.0284  1.1714  0.0987
 1145TIP3    H2 3369   4.896   4.464   1.705  0.0105  0.1896 -0.5180
 1146TIP3   OH2 3370   8.082   5.998   1.612  0.0703 -0.2840  0.2433
 1146TIP3    H1 3371   8.154   5.969   1.667  0.0994 -0.5878  0.0454
 1146TIP3    H2 3372   8.101   6.089   1.592 -0.3943  0.0934  1.4811
 1147TIP3   OH2 3373   4.931   5.099   2.245 -0.1717 -0.0214 -0.4990
 1147TIP3    H1 3374   4.942   5.054   2.162  1.5129 -0.8414  0.1435
 1147TIP3    H2 3375   4.970   5.186   2.231 -0.5897  0.1241 -0.7837
 1148TIP3   OH2 3376   4.014   4.845   3.272  0.4890  0.0286 -0.1615
 1148TIP3    H1 3377   4.006   4.754   3.243  1.6781  0.1678 -0.9902
 1148TIP3    H2 3378   4.105   4.853   3.299  0.2829  0.8713  0.2920
 1149TIP3   OH2 3379   7.241   3.990   0.702 -0.2313 -0.3368 -0.4307
 1149TIP3    H1 3380   7.304   3.941   0.651  0.2017  0.3353 -0.5529
 1149TIP3    H2 3381   7.160   3.939   0.697  0.1407 -0.8914 -0.7650
 1150TIP3   OH2 3382   4.163   4.959   1.884 -0.4375 -0.2611 -0.1831
 1150TIP3    H1 3383   4.199   4.995   1.803 -1.0324  0.3001 -0.2000
 1150TIP3    H2 3384   4.229   4.897   1.914  0.6060  0.8755 -0.1239
 1151TIP3   OH2 3385   7.091   3.904   2.568  0.5964  0.5363  0.4999
 1151TIP3    H1 3386   7.100   3.815   2.604  0.1401  0.4755  0.4623
 1151TIP3    H2 3387   7.009   3.936   2.604  1.0033  1.1355  0.9144
 1152TIP3   OH2 3388   5.317   3.752   0.728  0.3471  0.2765 -0.3664
 1152TIP3    H1 3389   5.338   3.710   0.812  2.1140  2.6973  0.4624
 1152TIP3    H2 3390   5.223   3.734   0.715  0.6031 -2.1892  0.8967
 1153TIP3   OH2 3391   3.255   3.924   3.571 -0.6701  0.1109 -0.3071
 1153TIP3    H1 3392   3.347   3.930   3.596 -0.4407 -2.7492 -0.3769
 1153TIP3    H2 3393   3.229   4.015   3.553  1.9202  1.0220  0.3960
 1154TIP3   OH2 3394   2.388   3.455   3.839  0.3240 -0.8715  0.1259
 1154TIP3    H1 3395   2.464   3.502   3.806  0.6650 -0.9494  0.8015
 1154TIP3    H2 3396   2.381   3.481   3.931 -0.8543 -0.3424 -0.0893
 1155TIP3   OH2 3397   5.883   3.092   0.401  0.2957 -0.6628 -0.2197
 1155TIP3    H1 3398   5.806   3.046   0.369 -0.4070 -1.0083  1.9225
 1155TIP3    H2 3399   5.874   3.094   0.496  2.0467  0.8500 -0.0261
 1156TIP3   OH2 3400   0.658   2.151   6.918  0.3338  0.3019 -0.1891
 1156TIP3    H1 3401   0.620   2.067   6.892 -2.0572  1.9164 -2.0760
 1156TIP3    H2 3402   0.599   2.184   6.986  0.8171  0.8019 -0.0122
 1157TIP3   OH2 3403   3.453   4.573   1.778 -0.8319 -0.6767 -0.2117
 1157TIP3    H1 3404   3.508   4.496   1.787 -0.5944 -0.1526  3.7876
 1157TIP3    H2 3405   3.514   4.647   1.775 -1.1623 -0.2938  1.5903
 1158TIP3   OH2 3406   2.147   1.717   6.375 -0.1251 -0.1223  0.3338
 1158TIP3    H1 3407   2.181   1.797   6.415 -0.4627  0.5222 -0.6626
 1158TIP3    H2 3408   2.104   1.670   6.447 -1.0677  1.2116  0.6407
 1159TIP3   OH2 3409   4.661   4.245   0.870  0.3375 -0.3943 -0.4855
 1159TIP3    H1 3410   4.669   4.289   0.785 -0.4424 -1.0031 -0.8755
 1159TIP3    H2 3411   4.597   4.176   0.856 -0.0156 -0.3158  0.6840
 1160TIP3   OH2 3412   5.631   6.083   0.807 -0.0662  0.1779  0.2083
 1160TIP3    H1 3413   5.548   6.037   0.821  0.6255 -1.6038 -1.3534
 1160TIP3    H2 3414   5.687   6.054   0.879  0.7254 -2.3551 -1.3677
 1161TIP3   OH2 3415   2.190   5.792   6.887  0.0783 -0.3829 -0.4346
 1161TIP3    H1 3416   2.224   5.783   6.798 -0.2944  1.6087 -0.7937
 1161TIP3    H2 3417   2.259   5.756   6.943  0.6574 -0.9051 -1.4735
 1162TIP3   OH2 3418   6.225   3.441   1.012  0.7063 -0.4527 -0.4238
 1162TIP3    H1 3419   6.249   3.419   0.922 -0.2600  2.3836 -1.4161
 1162TIP3    H2 3420   6.231   3.536   1.016 -1.7988 -0.3532  1.7882
 1163TIP3   OH2 3421   4.464   2.649   0.778 -0.6919  0.0795  0.2741
 1163TIP3    H1 3422   4.497   2.614   0.861 -3.2615 -1.2199  0.7966
 1163TIP3    H2 3423   4.369   2.658   0.792 -0.8631  1.9328 -1.7889
 1164TIP3   OH2 3424   0.121   2.496   0.427 -0.6866  0.0582  0.0752
 1164TIP3    H1 3425   0.032   2.483   0.462 -0.9582  0.5813 -0.4144
 1164TIP3    H2 3426   0.113   2.473   0.334  0.4468 -3.1298  0.7188
 1165TIP3   OH2 3427   6.489   4.682   0.736  0.1310  0.0624 -0.7840
 1165TIP3    H1 3428   6.423   4.747   0.760 -0.4743 -0.4223 -1.1239
 1165TIP3    H2 3429   6.462   4.651   0.649  0.7668 -0.1848 -0.8977
 1166TIP3   OH2 3430   4.260   3.193   2.580  0.5244  0.0012  0.6492
 1166TIP3    H1 3431   4.292   3.111   2.544 -1.1354 -1.0599  1.4879
 1166TIP3    H2 3432   4.325   3.219   2.645  0.9465 -0.7707  0.5268
 1167TIP3   OH2 3433   8.143   2.596   3.425 -0.3077 -0.0465  0.2828
 1167TIP3    H1 3434   8.152   2.620   3.333  1.2662 -2.7846 -0.3353
 1167TIP3    H2 3435   8.208   2.648   3.471 -0.8151  1.0182 -0.2009
 1168TIP3   OH2 3436   4.108   2.282   1.317  0.1750 -0.0224  0.1061
 1168TIP3    H1 3437   4.151   2.338   1.253 -0.3750  1.6305  1.1566
 1168TIP3    H2 3438   4.158   2.294   1.398 -0.2171 -0.6905  0.4606
 1169TIP3   OH2 3439   5.404   4.153   2.798 -0.5895 -0.2572 -0.5593
 1169TIP3    H1 3440   5.497   4.177   2.801 -0.1344 -2.0680  0.3201
 1169TIP3    H2 3441   5.368   4.188   2.880 -0.3711 -0.8039 -0.2295
 1170TIP3   OH2 3442   4.099   2.471   1.106  0.2387 -0.2039  0.4957
 1170TIP3    H1 3443   4.008   2.475   1.076  0.1750 -0.6874  0.6133
 1170TIP3    H2 3444   4.146   2.532   1.050 -0.3589  0.8885  1.1537
 1171TIP3   OH2 3445   5.058   3.728   1.397  0.5277 -0.2187  0.4417
 1171TIP3    H1 3446   5.064   3.819   1.426  1.4359 -0.1140 -0.0530
 1171TIP3    H2 3447   4.989   3.729   1.331 -1.7095 -0.5059  2.7122
 1172TIP3   OH2 3448   3.147   3.921   1.711  0.5895  0.4031  0.4598
 1172TIP3    H1 3449   3.217   3.932   1.776  0.0484  3.7948  0.5665
 1172TIP3    H2 3450   3.067   3.913   1.762  0.4047  1.0093  0.2749
 1173TIP3   OH2 3451   3.026   4.629   1.299  0.1860 -0.2287 -0.1560
 1173TIP3    H1 3452   3.001   4.656   1.211  1.6562 -2.0714 -1.1891
 1173TIP3    H2 3453   3.102   4.684   1.320 -1.0014  1.1659  0.5326
 1174TIP3   OH2 3454   2.420   1.209   6.848  0.0164 -0.2467  0.5084
 1174TIP3    H1 3455   2.347   1.148   6.862 -0.0938 -0.1883  0.2008
 1174TIP3    H2 3456   2.378   1.293   6.828  0.1299 -0.7141 -1.9019
 1175TIP3   OH2 3457   6.750   5.170   0.716 -0.2337  0.0203  0.2860
 1175TIP3    H1 3458   6.718   5.251   0.677 -0.1221 -0.3585 -0.6152
 1175TIP3    H2 3459   6.802   5.198   0.791 -1.0961  0.7286  0.6355
 1176TIP3   OH2 3460   1.102   7.867   6.795  0.2239 -0.0858  0.5431
 1176TIP3    H1 3461   1.014   7.852   6.830 -0.5656 -0.2884 -1.4925
 1176TIP3    H2 3462   1.124   7.786   6.748  2.5855 -1.0880  3.1834
 1177TIP3   OH2 3463   2.340   1.246   5.810  0.3426  0.8251 -0.3960
 1177TIP3    H1 3464   2.385   1.209   5.886  0.2771 -0.7221 -1.0896
 1177TIP3    H2 3465   2.374   1.195   5.736 -2.2318 -0.1011 -0.9879
 1178TIP3   OH2 3466   3.884   6.697   1.155 -0.0762 -0.2726 -0.0194
 1178TIP3    H1 3467   3.952   6.639   1.120  1.2615 -0.0836  2.1560
 1178TIP3    H2 3468   3.881   6.771   1.094  1.6002 -0.3444 -0.2195
 1179TIP3   OH2 3469   5.858   6.139   0.502  0.1168  0.2917 -0.1827
 1179TIP3    H1 3470   5.870   6.103   0.414  1.6117  0.1659  0.0615
 1179TIP3    H2 3471   5.789   6.084   0.541 -0.2445  0.0727 -1.1069
 1180TIP3   OH2 3472   1.565   1.433   6.958  0.2253 -0.0969 -0.2244
 1180TIP3    H1 3473   1.643   1.399   6.913 -0.7226 -0.5891 -1.5067
 1180TIP3    H2 3474   1.501   1.446   6.889 -0.7696  0.5158  0.8037
 1181TIP3   OH2 3475   3.624   4.066   0.399  0.3233  0.1175 -0.9232
 1181TIP3    H1 3476   3.711   4.104   0.391  0.3536 -0.0111 -1.2137
 1181TIP3    H2 3477   3.568   4.126   0.350  0.0435  0.8903  0.3361
 1182TIP3   OH2 3478   6.343   1.866   0.558  0.0921  0.0533 -0.2056
 1182TIP3    H1 3479   6.425   1.912   0.538 -0.0118  0.4227  0.1871
 1182TIP3    H2 3480   6.276   1.935   0.553 -0.3099 -0.4238 -1.3794
 1183TIP3   OH2 3481   5.446   5.473   0.386  0.2311 -0.2696  0.2783
 1183TIP3    H1 3482   5.440   5.438   0.297 -0.9143 -1.6419  0.8717
 1183TIP3    H2 3483   5.540   5.478   0.404  0.4462 -1.3304 -0.4954
 1184TIP3   OH2 3484   3.749   2.703   6.667 -0.1313 -0.4839 -0.5094
 1184TIP3    H1 3485   3.717   2.784   6.707 -0.3484 -1.3321  1.0753
 1184TIP3    H2 3486   3.748   2.639   6.738 -0.3195 -1.9819 -1.8292
 1185TIP3   OH2 3487   5.676   3.254   0.967 -0.5153  0.5270 -0.1113
 1185TIP3    H1 3488   5.715   3.313   0.903  0.1803  0.3408  0.1355
 1185TIP3    H2 3489   5.750   3.221   1.018 -0.8737 -0.7458 -0.3972
 1186TIP3   OH2 3490   3.753   1.719   1.321 -0.3877  0.4461 -0.4863
 1186TIP3    H1 3491   3.795   1.800   1.348  0.4044  0.8334 -2.8530
 1186TIP3    H2 3492   3.683   1.747   1.262 -0.1991 -0.5876 -1.2031
 1187TIP3   OH2 3493   5.847   4.351   2.391  0.6518 -0.1591  0.1076
 1187TIP3    H1 3494   5.761   4.349   2.351  1.0016 -0.7694 -0.6195
 1187TIP3    H2 3495   5.875   4.259   2.393  1.2642  0.0296  0.3695
 1188TIP3   OH2 3496   7.630   1.376   1.420 -0.0907 -0.3625 -0.2200
 1188TIP3    H1 3497   7.641   1.330   1.337  0.1564  1.1324 -1.0267
 1188TIP3    H2 3498   7.718   1.401   1.446 -0.2527 -0.0747  0.0624
 1189TIP3   OH2 3499   7.765   4.345   6.224  0.0603  0.7860  0.1052
 1189TIP3    H1 3500   7.760   4.373   6.132  2.0098 -0.7474 -0.4865
 1189TIP3    H2 3501   7.805   4.419   6.269  0.3835  1.0068 -0.5320
 1190TIP3   OH2 3502   4.539   3.084   1.112 -0.8053 -0.6562 -0.3658
 1190TIP3    H1 3503   4.558   3.037   1.193 -0.6152 -0.4205 -0.2731
 1190TIP3    H2 3504   4.506   3.017   1.052  0.8949 -1.1684 -0.7392
 1191TIP3   OH2 3505   4.144   3.395   0.891  0.2008 -0.2526  0.0030
 1191TIP3    H1 3506   4.119   3.430   0.976  1.6682  2.5884 -0.6362
 1191TIP3    H2 3507   4.220   3.340   0.909  0.3382  0.1247  0.5966
 1192TIP3   OH2 3508   6.365   2.346   0.725 -0.1792  0.5200  0.1428
 1192TIP3    H1 3509   6.416   2.353   0.805  0.3810  0.0868 -0.1683
 1192TIP3    H2 3510   6.431   2.343   0.655 -0.5598 -1.2495 -0.1834
 1193TIP3   OH2 3511   5.467   4.796   0.314  1.5192  0.1460 -0.2874
 1193TIP3    H1 3512   5.480   4.800   0.220  0.5961  0.0406 -0.4204
 1193TIP3    H2 3513   5.493   4.707   0.338  1.4648  0.0805 -0.4776
 1194TIP3   OH2 3514   6.704   4.938   2.488  0.1046  0.5673  0.2637
 1194TIP3    H1 3515   6.752   4.900   2.414 -2.9363  1.4140 -2.2299
 1194TIP3    H2 3516   6.716   5.033   2.478 -0.8088  0.7122  0.4938
 1195TIP3   OH2 3517   1.696   7.310   6.744 -0.8250 -0.2784  0.4863
 1195TIP3    H1 3518   1.757   7.257   6.691  0.9312 -0.2886  2.4639
 1195TIP3    H2 3519   1.658   7.371   6.681  0.8924 -0.5693 -0.8961
 1196TIP3   OH2 3520   4.711   0.222   6.358 -0.3512 -0.0873 -0.1385
 1196TIP3    H1 3521   4.778   0.239   6.424  1.1337 -0.7794 -1.4289
 1196TIP3    H2 3522   4.743   0.265   6.279 -1.8270  0.2558 -0.5792
 1197TIP3   OH2 3523   4.160   0.127   6.566 -0.0562  0.4594 -0.7330
 1197TIP3    H1 3524   4.174   0.159   6.477 -1.0642 -1.9004 -1.7882
 1197TIP3    H2 3525   4.239   0.078   6.587  0.7203  2.0586  0.1887
 1198TIP3   OH2 3526   3.967   2.280   6.617 -0.3172  0.3819 -0.1196
 1198TIP3    H1 3527   3.901   2.223   6.656 -0.7717  1.1906  0.2902
 1198TIP3    H2 3528   3.936   2.295   6.528 -0.5002  0.4741 -0.0398
 1199TIP3   OH2 3529   0.731   6.914   5.048 -0.3575  0.3754 -0.5066
 1199TIP3    H1 3530   0.724   6.884   5.138 -0.5474 -0.0286 -0.6551
 1199TIP3    H2 3531   0.682   6.996   5.045 -1.5240 -0.3242 -0.5758
 1200TIP3   OH2 3532   0.510   6.270   2.797 -0.2946 -0.2089 -0.0164
 1200TIP3    H1 3533   0.502   6.201   2.731  1.4124 -0.3281 -0.1315
 1200TIP3    H2 3534   0.442   6.250   2.862  0.1116 -1.9429 -0.1098
 1201TIP3   OH2 3535   5.845   2.296   1.234 -0.1927 -0.1465 -0.6586
 1201TIP3    H1 3536   5.825   2.345   1.154  0.7452  0.3569 -0.5907
 1201TIP3    H2 3537   5.934   2.322   1.256  0.7062 -2.6301 -1.1543
 1202TIP3   OH2 3538   7.374   2.323   3.629  0.7491  0.6066  0.0028
 1202TIP3    H1 3539   7.330   2.238   3.620 -0.3627  1.1081  0.6440
 1202TIP3    H2 3540   7.465   2.305   3.606  0.5459 -0.7827  0.2304
 1203TIP3   OH2 3541   6.574   4.405   0.967  0.0224 -0.1469 -0.4382
 1203TIP3    H1 3542   6.621   4.351   1.030 -0.2374 -1.5879 -1.4565
 1203TIP3    H2 3543   6.582   4.357   0.884 -0.2600  1.3469 -1.3469
 1204TIP3   OH2 3544   7.945   4.888   0.266  0.2103  0.1253 -0.4709
 1204TIP3    H1 3545   7.984   4.852   0.187 -0.9800 -2.1350 -0.1019
 1204TIP3    H2 3546   8.017   4.929   0.313  1.3002 -0.2866 -1.7755
 1205TIP3   OH2 3547   1.565   5.092   5.210 -0.3692  0.7893  0.4726
 1205TIP3    H1 3548   1.521   5.129   5.287 -0.9791  0.1164  0.4570
 1205TIP3    H2 3549   1.493   5.074   5.148 -0.5222 -3.3313  1.6732
 1206TIP3   OH2 3550   6.540   4.354   0.379  0.3663  0.1284  0.5010
 1206TIP3    H1 3551   6.629   4.320   0.381  0.8412  1.3232 -0.1643
 1206TIP3    H2 3552   6.508   4.333   0.291 -0.2257 -0.8082  0.9242
 1207TIP3   OH2 3553   2.456   1.805   5.994 -0.1996  0.5542  0.1279
 1207TIP3    H1 3554   2.455   1.710   5.992 -1.3510  0.5731 -0.8247
 1207TIP3    H2 3555   2.432   1.829   6.083  0.2473 -0.0500  0.4066
 1208TIP3   OH2 3556   7.366   2.695   0.239 -0.1474 -0.4922  0.0404
 1208TIP3    H1 3557   7.397   2.749   0.167  1.5570  0.4018  1.4127
 1208TIP3    H2 3558   7.340   2.613   0.198  2.3756 -0.6192 -1.3824
 1209TIP3   OH2 3559   4.151   1.059   6.102  0.2302  0.5023 -0.0636
 1209TIP3    H1 3560   4.221   1.049   6.166  1.0994  0.9261 -0.9260
 1209TIP3    H2 3561   4.164   0.987   6.041  0.0443  0.7020 -0.3412
 1210TIP3   OH2 3562   8.084   3.500   1.160  0.8120 -0.0813  0.1342
 1210TIP3    H1 3563   8.009   3.559   1.173  1.8273  1.4228 -0.6290
 1210TIP3    H2 3564   8.051   3.433   1.100 -0.3562 -0.2743  0.9741
 1211TIP3   OH2 3565   4.723   0.882   6.724  0.2200  0.2484  0.0624
 1211TIP3    H1 3566   4.675   0.813   6.768  1.2908 -0.2566  0.4655
 1211TIP3    H2 3567   4.797   0.837   6.683 -0.1433  0.8758 -1.3055
 1212TIP3   OH2 3568   7.982   3.493   0.675 -0.1037  0.3921 -0.1612
 1212TIP3    H1 3569   8.009   3.452   0.758  0.7948  1.4524  0.0847
 1212TIP3    H2 3570   7.918   3.559   0.701 -0.3606  0.2366 -0.3952
 1213TIP3   OH2 3571   4.939   1.024   5.337  0.5798 -0.1210  0.1548
 1213TIP3    H1 3572   5.010   1.089   5.340  0.7576 -0.2068 -1.6220
 1213TIP3    H2 3573   4.935   0.988   5.425  2.7833 -0.1566  0.2489
 1214TIP3   OH2 3574   5.412   5.110   0.480 -0.4809 -0.1573  0.4106
 1214TIP3    H1 3575   5.416   5.129   0.387 -0.0473 -2.1876 -0.0000
 1214TIP3    H2 3576   5.503   5.105   0.508 -0.6069  0.8486  1.0537
 1215TIP3   OH2 3577   6.295   4.063   0.841 -0.0311 -0.0009 -0.0291
 1215TIP3    H1 3578   6.249   4.110   0.910 -1.7248 -1.0361 -0.4056
 1215TIP3    H2 3579   6.270   3.971   0.855 -0.0842 -0.2682 -1.7520
 1216TIP3   OH2 3580   6.112   3.893   0.348  0.6970  0.4886 -0.5024
 1216TIP3    H1 3581   6.097   3.801   0.371 -1.5657  1.0991  0.5556
 1216TIP3    H2 3582   6.187   3.919   0.402 -0.9110  0.2544  1.9173
 1217TIP3   OH2 3583   1.701   5.653   6.819 -0.5164 -0.2505 -0.2612
 1217TIP3    H1 3584   1.640   5.720   6.788 -0.4823  0.0335  0.2820
 1217TIP3    H2 3585   1.715   5.674   6.911 -0.4502 -0.9707 -0.1050
 1218TIP3   OH2 3586   8.451   4.170   1.609  0.1099  0.0696 -0.4886
 1218TIP3    H1 3587   8.385   4.191   1.675  0.9045  0.2908  0.2489
 1218TIP3    H2 3588   8.412   4.196   1.526 -0.6258  0.4407 -0.0249
 1219TIP3   OH2 3589   8.280   2.351   3.340  0.3157  0.1439  0.1456
 1219TIP3    H1 3590   8.267   2.401   3.420  1.2043  0.9062 -0.1721
 1219TIP3    H2 3591   8.326   2.412   3.281 -0.5713 -0.3030 -1.0361
 1220TIP3   OH2 3592   7.762   1.452   0.134  0.0728  0.0845 -0.6718
 1220TIP3    H1 3593   7.674   1.488   0.143 -0.0464  0.1570 -1.9522
 1220TIP3    H2 3594   7.774   1.442   0.039  1.7358  0.8202 -0.5686
 1221TIP3   OH2 3595   7.095   3.674   1.774  0.1446 -0.0830 -0.0700
 1221TIP3    H1 3596   7.063   3.756   1.736 -1.3422  0.0154  1.3449
 1221TIP3    H2 3597   7.016   3.631   1.808  1.2555 -0.8561  1.5848
 1222TIP3   OH2 3598   1.320   6.191   6.431  0.5465 -0.4327  0.4273
 1222TIP3    H1 3599   1.350   6.177   6.341  0.4632  0.5248  0.2441
 1222TIP3    H2 3600   1.348   6.281   6.452  1.8678 -1.1577  1.8716
 1223TIP3   OH2 3601   7.366   3.678   1.776 -0.4781  0.0196  0.3711
 1223TIP3    H1 3602   7.391   3.633   1.856  1.5215  3.1830  1.6215
 1223TIP3    H2 3603   7.272   3.660   1.767 -1.0297  0.5266  4.0952
 1224TIP3   OH2 3604   6.711   3.470   1.171 -0.7467  0.2038 -1.0064
 1224TIP3    H1 3605   6.656   3.426   1.106 -0.4840 -0.0005 -1.0965
 1224TIP3    H2 3606   6.730   3.401   1.236 -0.4798  0.2337 -1.0535
 1225TIP3   OH2 3607   6.732   3.463   1.649 -0.5943 -0.5498  0.1850
 1225TIP3    H1 3608   6.738   3.390   1.711  1.4783 -1.3001 -0.8830
 1225TIP3    H2 3609   6.795   3.527   1.681  0.1630 -0.7504 -0.8858
 1226TIP3   OH2 3610   7.431   4.159   0.439 -0.2930  0.3127  0.0471
 1226TIP3    H1 3611   7.372   4.219   0.484  0.2520 -0.4744  1.8250
 1226TIP3    H2 3612   7.402   4.162   0.347 -0.1129  3.4631  0.0247
 1227TIP3   OH2 3613   7.258   2.527   2.412 -0.4092 -0.2837 -0.5021
 1227TIP3    H1 3614   7.279   2.433   2.407  0.0232 -0.2828  1.1043
 1227TIP3    H2 3615   7.167   2.533   2.384 -0.4626 -1.1870 -0.5288
 1228TIP3   OH2 3616   7.640   3.569   0.143  0.0072 -0.2391 -0.2411
 1228TIP3    H1 3617   7.697   3.564   0.220  1.6278  2.5168 -1.2241
 1228TIP3    H2 3618   7.699   3.562   0.068 -1.3363 -0.7604 -1.2734
 1229TIP3   OH2 3619   5.561   7.865   6.693 -0.8781  0.1848 -0.5643
 1229TIP3    H1 3620   5.509   7.816   6.758  1.2976 -1.5550 -0.0529
 1229TIP3    H2 3621   5.579   7.948   6.736 -1.7502  0.1219 -0.0471
 1230TIP3   OH2 3622   8.023   1.630   0.906  0.1961 -0.2610  0.6474
 1230TIP3    H1 3623   8.074   1.561   0.949 -1.4851 -2.2989 -0.5426
 1230TIP3    H2 3624   8.058   1.635   0.817  0.5035  0.6450  0.8131
 1231TIP3   OH2 3625   8.109   4.212   3.453  0.0042 -0.3193 -0.0434
 1231TIP3    H1 3626   8.137   4.249   3.369 -0.1430  0.2768  0.1710
 1231TIP3    H2 3627   8.023   4.252   3.469  0.0831 -0.3459  0.4460
 1232TIP3   OH2 3628   5.766   0.165   6.606 -0.4529  0.2085  0.1425
 1232TIP3    H1 3629   5.776   0.070   6.612 -0.3951  0.1650 -0.6468
 1232TIP3    H2 3630   5.854   0.199   6.616 -0.8698  0.4046  4.2987
 1233TIP3   OH2 3631   0.189   1.695   3.480  0.1735  0.3091  0.2396
 1233TIP3    H1 3632   0.144   1.613   3.500  0.7319  0.4028  1.9662
 1233TIP3    H2 3633   0.274   1.668   3.446  0.4022  0.1661  0.9187
 1234TIP3   OH2 3634   7.462   4.801   2.354 -0.2661  0.0740 -0.2698
 1234TIP3    H1 3635   7.518   4.738   2.400 -2.1274 -1.3405  0.1338
 1234TIP3    H2 3636   7.500   4.808   2.267  1.0587 -0.1696  0.2798
 1235TIP3   OH2 3637   7.292   1.336   6.234 -0.4214 -0.1473  0.3832
 1235TIP3    H1 3638   7.354   1.366   6.300  0.6922 -0.3012 -0.5792
 1235TIP3    H2 3639   7.345   1.288   6.170 -1.6597 -1.1044  0.0376
 1236TIP3   OH2 3640   0.050   3.343   1.551 -0.6753  0.0808  0.3279
 1236TIP3    H1 3641  -0.025   3.399   1.569  0.3141  0.9933  1.6922
 1236TIP3    H2 3642   0.013   3.255   1.543 -2.0612  0.7264 -0.4639
 1237TIP3   OH2 3643   6.862   4.228   2.793 -0.1509 -0.0474  0.3109
 1237TIP3    H1 3644   6.930   4.225   2.861 -1.7445 -0.4369  1.9265
 1237TIP3    H2 3645   6.780   4.220   2.841 -1.2972 -0.8891 -1.7276
 1238TIP3   OH2 3646   7.718   5.017   3.346 -0.5328  0.1026 -0.2316
 1238TIP3    H1 3647   7.787   5.051   3.289 -0.1318  0.8183  0.6545
 1238TIP3    H2 3648   7.746   4.928   3.368 -0.4183  0.0183 -0.7308
 1239TIP3   OH2 3649   7.753   3.535   1.953 -0.4057  0.0751 -0.1831
 1239TIP3    H1 3650   7.751   3.439   1.958  3.3677 -0.0440  1.0895
 1239TIP3    H2 3651   7.712   3.565   2.034  0.9282 -0.5898  0.7727
 1240TIP3   OH2 3652   7.850   2.634   2.007 -0.3252 -0.3963  0.5283
 1240TIP3    H1 3653   7.926   2.603   1.957 -1.7177  1.4474 -2.8904
 1240TIP3    H2 3654   7.880   2.715   2.048 -0.1108 -0.2799  0.1379
 1241TIP3   OH2 3655   0.529   5.118   1.849  0.3677  0.2344  0.1238
 1241TIP3    H1 3656   0.560   5.167   1.925  1.3013  0.1582 -0.1937
 1241TIP3    H2 3657   0.530   5.183   1.778 -0.6847  0.3536  0.2201
 1242TIP3   OH2 3658   1.748   3.581   2.956 -0.3192  0.6513 -0.0967
 1242TIP3    H1 3659   1.737   3.496   2.912  2.4822  0.9027 -1.4442
 1242TIP3    H2 3660   1.751   3.644   2.884  1.4810  1.4045  0.5977
 1243TIP3   OH2 3661   8.198   3.147   0.055  0.3310  0.0337  0.7599
 1243TIP3    H1 3662   8.158   3.082   0.114 -0.6246  0.6896  0.8471
 1243TIP3    H2 3663   8.230   3.216   0.113 -1.4514  1.1330  0.4650
 1244TIP3   OH2 3664   8.328   3.704   3.641  0.4698 -0.1442  0.0455
 1244TIP3    H1 3665   8.336   3.689   3.547 -0.6958  1.3911 -0.3216
 1244TIP3    H2 3666   8.243   3.666   3.664  0.2953  0.3862  0.2790
 1245TIP3   OH2 3667   0.761   3.930   3.182  0.1800  0.2205  0.9587
 1245TIP3    H1 3668   0.737   4.019   3.211 -0.4945  0.5247 -0.5128
 1245TIP3    H2 3669   0.699   3.873   3.226 -1.6189  0.7885 -0.7861
 1246TIP3   OH2 3670   7.741   2.522   2.557 -0.4435  0.8467  0.1657
 1246TIP3    H1 3671   7.710   2.582   2.625  0.5801  2.3124 -0.6400
 1246TIP3    H2 3672   7.665   2.468   2.537 -2.1298  3.5123 -0.8411
 1247TIP3   OH2 3673   5.098   0.135   6.769 -0.0046  0.2253  0.4422
 1247TIP3    H1 3674   5.064   0.058   6.724  0.0227  0.1303  0.5814
 1247TIP3    H2 3675   5.184   0.149   6.731 -0.4529  0.8424 -0.3547
 1248TIP3   OH2 3676   0.246   3.778   1.372 -0.7777  0.7971  0.1853
 1248TIP3    H1 3677   0.291   3.862   1.362  1.4855 -0.3988 -0.0528
 1248TIP3    H2 3678   0.274   3.746   1.458 -2.4835  0.7591  0.7455
 1249TIP3   OH2 3679   8.268   4.217   2.422 -0.6062  0.1114 -0.0879
 1249TIP3    H1 3680   8.204   4.278   2.458 -2.1262 -1.9423  0.7495
 1249TIP3    H2 3681   8.352   4.245   2.460 -1.7075 -0.0907  2.6093
 1250TIP3   OH2 3682   7.304   2.259   2.456  0.4695  0.0043  0.1112
 1250TIP3    H1 3683   7.284   2.253   2.550  0.8532  1.4928  0.3064
 1250TIP3    H2 3684   7.235   2.207   2.414 -1.4083  1.6667  1.0339
 1251TIP3   OH2 3685   6.142   5.190   2.135 -0.3078  0.3083 -0.5306
 1251TIP3    H1 3686   6.052   5.158   2.130 -1.2782  2.6076  1.1705
 1251TIP3    H2 3687   6.156   5.237   2.052 -0.4307 -0.6091 -1.0757
 1252TIP3   OH2 3688   8.194   3.534   2.100  0.3797  0.0234  0.0897
 1252TIP3    H1 3689   8.264   3.538   2.165 -0.2974 -2.3422  1.0420
 1252TIP3    H2 3690   8.236   3.500   2.021  0.1713 -2.4260  0.9707
 1253TIP3   OH2 3691   2.077   7.457   6.613 -0.0910  0.1612 -0.3701
 1253TIP3    H1 3692   2.114   7.484   6.697  2.2905  0.3321 -1.4426
 1253TIP3    H2 3693   2.013   7.525   6.593 -1.5257 -0.4771  1.8188
 1254TIP3   OH2 3694   8.303   3.205   1.734  1.1395 -0.1710  0.3557
 1254TIP3    H1 3695   8.379   3.170   1.780  1.4600 -0.5561 -0.4578
 1254TIP3    H2 3696   8.271   3.275   1.790  1.8230 -0.3125  0.9240
 1255TIP3   OH2 3697   1.328   2.480   2.399 -0.0460 -0.2422  0.1938
 1255TIP3    H1 3698   1.296   2.419   2.333 -0.9822  0.8174 -0.3449
 1255TIP3    H2 3699   1.355   2.425   2.472 -1.1801 -1.2732 -0.1678
 1256TIP3   OH2 3700   0.524   4.221   0.861  0.1845 -0.3907  0.1033
 1256TIP3    H1 3701   0.535   4.313   0.884  0.0720 -0.6901  1.3705
 1256TIP3    H2 3702   0.445   4.193   0.907  0.9183 -1.4511  0.7596
 1257TIP3   OH2 3703   2.275   7.261   6.187 -0.0819  0.2029 -0.7051
 1257TIP3    H1 3704   2.261   7.350   6.155  3.0884  1.4245  1.0384
 1257TIP3    H2 3705   2.350   7.228   6.137 -0.0339 -0.7835 -0.0114
 1258TIP3   OH2 3706   7.189   3.423   2.050  0.0460 -1.1937  0.0121
 1258TIP3    H1 3707   7.241   3.351   2.084  0.1771 -0.4117  1.4824
 1258TIP3    H2 3708   7.105   3.382   2.025 -0.0903 -1.7549  1.3664
 1259TIP3   OH2 3709   7.486   3.818   3.091 -0.1225 -0.1389  0.3791
 1259TIP3    H1 3710   7.541   3.841   3.015  0.4407  1.1288  1.1503
 1259TIP3    H2 3711   7.402   3.861   3.073 -0.0888 -0.0929  0.3287
 1260TIP3   OH2 3712   6.422   3.041   2.209 -0.1657  0.1015 -0.7079
 1260TIP3    H1 3713   6.459   2.957   2.235  2.1450  1.2275 -0.2145
 1260TIP3    H2 3714   6.349   3.019   2.151 -1.1870 -2.2869  1.4263
 1261TIP3   OH2 3715   8.475   2.930   2.546  0.6467  0.1684  0.5264
 1261TIP3    H1 3716   8.507   3.005   2.496 -0.1668 -0.8160 -1.5511
 1261TIP3    H2 3717   8.441   2.870   2.479 -0.6690 -1.1007  2.2895
 1262TIP3   OH2 3718   7.043   1.880   1.156 -0.4237 -0.7782  0.3212
 1262TIP3    H1 3719   7.056   1.894   1.063  0.8983 -3.0204  0.1229
 1262TIP3    H2 3720   7.128   1.849   1.188 -0.7664  0.2491  2.3363
 1263TIP3   OH2 3721   8.307   2.940   3.292 -0.0610  0.0374  0.5961
 1263TIP3    H1 3722   8.392   2.900   3.310 -0.3171 -0.7064  0.2126
 1263TIP3    H2 3723   8.317   3.032   3.315  0.7343 -0.1287  0.9088
 1264TIP3   OH2 3724   0.852   6.055   1.051 -0.5146  0.6488  0.3481
 1264TIP3    H1 3725   0.842   6.110   1.129 -0.1328  0.1673  0.7400
 1264TIP3    H2 3726   0.792   5.982   1.064 -0.4455  0.5631  0.1916
 1265TIP3   OH2 3727   1.394   2.810   4.473  0.0402  0.1704  0.1436
 1265TIP3    H1 3728   1.433   2.864   4.541  1.0333  0.8689 -0.9635
 1265TIP3    H2 3729   1.332   2.867   4.428 -0.2889 -0.1596  0.1679
 1266TIP3   OH2 3730   1.283   2.968   1.542 -0.0406 -0.4970  0.0533
 1266TIP3    H1 3731   1.366   3.003   1.575 -0.0384  1.0457 -1.5199
 1266TIP3    H2 3732   1.276   2.882   1.582  2.3203 -0.6381  0.2355
 1267TIP3   OH2 3733   0.751   3.886   1.217  0.0387  0.3118  0.0941
 1267TIP3    H1 3734   0.824   3.824   1.209  0.0235 -0.0016  2.0734
 1267TIP3    H2 3735   0.793   3.968   1.244 -0.3476  0.0136  1.6789
 1268TIP3   OH2 3736   6.512   3.781   1.596  0.6981  0.3145  0.2873
 1268TIP3    H1 3737   6.600   3.755   1.624 -0.1168 -1.2306  1.4732
 1268TIP3    H2 3738   6.504   3.873   1.624  1.8642  0.4125  0.3093
 1269TIP3   OH2 3739   2.563   2.708   3.644 -0.2128 -0.4577  0.6211
 1269TIP3    H1 3740   2.512   2.773   3.693  0.3358  1.0151 -0.7271
 1269TIP3    H2 3741   2.497   2.662   3.592 -0.5125 -0.4528  0.9903
 1270TIP3   OH2 3742   0.905   3.289   2.143  0.0067 -0.5963 -0.3565
 1270TIP3    H1 3743   0.876   3.321   2.228  0.4997 -2.1445  0.4066
 1270TIP3    H2 3744   1.000   3.285   2.150  0.4040  3.0875 -2.3565
 1271TIP3   OH2 3745   6.817   4.521   0.079 -0.0190  0.0820 -0.5922
 1271TIP3    H1 3746   6.749   4.496   0.017  0.9412 -0.0502 -1.6007
 1271TIP3    H2 3747   6.771   4.532   0.162 -1.0956 -1.0008 -1.0421
 1272TIP3   OH2 3748   0.947   2.913   5.103 -0.2255 -0.2457 -0.0192
 1272TIP3    H1 3749   1.031   2.958   5.102 -0.1435 -0.3881  0.6039
 1272TIP3    H2 3750   0.963   2.830   5.060  0.3386 -0.9695  1.5744
 1273TIP3   OH2 3751   8.413   2.717   3.480 -0.2307  0.1087 -0.3071
 1273TIP3    H1 3752   8.423   2.781   3.550 -1.3237  1.0353 -0.9827
 1273TIP3    H2 3753   8.474   2.747   3.412  0.7854 -0.7551  0.2169
 1274TIP3   OH2 3754   7.658   5.866  -0.015  0.0256 -0.0582  0.7159
 1274TIP3    H1 3755   7.567   5.883   0.008 -0.5736  1.4250 -2.4393
 1274TIP3    H2 3756   7.687   5.800   0.048 -2.7737  0.4681  2.6592
 1275TIP3   OH2 3757   8.392   4.959   1.021  0.0463 -0.4904  0.4223
 1275TIP3    H1 3758   8.326   4.971   1.090  0.2670 -0.3803  0.6189
 1275TIP3    H2 3759   8.475   4.979   1.065 -0.0062  1.8117 -0.4623
 1276TIP3   OH2 3760   0.248   3.528   2.262 -0.6126  0.2539 -0.1298
 1276TIP3    H1 3761   0.321   3.551   2.319 -0.3160 -0.6363 -0.1491
 1276TIP3    H2 3762   0.170   3.551   2.313 -0.3572 -1.0066  0.8385
 1277TIP3   OH2 3763   1.055   5.774  -0.004  0.3611 -0.4066 -0.1044
 1277TIP3    H1 3764   1.140   5.815  -0.017  0.8804 -1.5642 -0.4934
 1277TIP3    H2 3765   1.030   5.797   0.085 -0.0436  1.9376 -0.8089
 1278TIP3   OH2 3766   7.475   0.162   6.895  0.0698  0.6360 -0.0771
 1278TIP3    H1 3767   7.417   0.237   6.884  1.5646  1.8399  0.1178
 1278TIP3    H2 3768   7.501   0.165   6.987  0.3102  0.0023 -0.1194
 1279TIP3   OH2 3769   1.002   4.625   0.174 -0.2898  0.1586 -0.4495
 1279TIP3    H1 3770   1.095   4.605   0.176 -0.0398  1.4270  1.1034
 1279TIP3    H2 3771   0.960   4.544   0.203  0.3103 -0.4557 -1.2795
 1280TIP3   OH2 3772   3.641   7.434   6.799  0.0352 -0.5493  0.0312
 1280TIP3    H1 3773   3.724   7.459   6.760 -0.2355  0.5179  0.1200
 1280TIP3    H2 3774   3.632   7.492   6.875 -0.5975 -0.9267  0.2462
 1281TIP3   OH2 3775   5.285   1.354   6.799  0.8464  0.1835  0.0760
 1281TIP3    H1 3776   5.236   1.384   6.876  1.6747  2.8290 -0.3880
 1281TIP3    H2 3777   5.368   1.401   6.804  2.1450 -1.9600 -0.8098
 1282TIP3   OH2 3778   8.486   4.139   0.744 -0.0628 -0.5289  0.4909
 1282TIP3    H1 3779   8.418   4.205   0.732 -0.0380 -0.2917  1.5992
 1282TIP3    H2 3780   8.473   4.077   0.672  0.5939  1.2571 -1.2065
 1283TIP3   OH2 3781   2.986   5.179   2.103  0.2670  0.6981 -0.0127
 1283TIP3    H1 3782   2.941   5.108   2.148 -1.5537  1.1830 -1.0149
 1283TIP3    H2 3783   2.967   5.257   2.155 -0.0072  0.9011 -0.4166
 1284TIP3   OH2 3784   8.097   5.193   0.821  0.3720  0.5321  0.1582
 1284TIP3    H1 3785   8.026   5.220   0.762  0.1725 -0.9203 -0.2787
 1284TIP3    H2 3786   8.157   5.268   0.822 -1.1199  1.7519  0.4830
 1285TIP3   OH2 3787   6.603   1.982   6.258 -0.1767 -0.0786  0.3805
 1285TIP3    H1 3788   6.668   1.922   6.296 -0.8563 -1.4106 -0.5059
 1285TIP3    H2 3789   6.519   1.939   6.274 -0.4524 -0.9037 -2.9275
 1286TIP3   OH2 3790   7.778   0.463   5.590  0.2472 -0.1700  0.2619
 1286TIP3    H1 3791   7.727   0.521   5.646 -0.3851 -0.8739  0.4141
 1286TIP3    H2 3792   7.806   0.392   5.647  0.1213 -0.5684 -0.1656
 1287TIP3   OH2 3793   8.152   4.233   0.858 -0.1097  0.3909 -0.7874
 1287TIP3    H1 3794   8.074   4.282   0.884 -0.6358  1.4355 -4.0676
 1287TIP3    H2 3795   8.124   4.142   0.859 -0.5459  0.5266  0.7280
 1288TIP3   OH2 3796   0.310   4.198   0.078 -0.0636 -0.0030 -0.3345
 1288TIP3    H1 3797   0.378   4.209   0.012  0.2955  0.0183  0.0379
 1288TIP3    H2 3798   0.299   4.285   0.116  0.0375 -0.1059 -0.0665
 1289TIP3   OH2 3799   5.054   3.988   1.474 -0.0297 -0.2998  0.0252
 1289TIP3    H1 3800   5.080   4.065   1.424 -0.0309 -2.1774 -2.9503
 1289TIP3    H2 3801   5.061   4.016   1.566 -1.4268  3.6580 -0.9950
 1290TIP3   OH2 3802   0.955   4.119   0.879 -0.1748  0.3260  0.1706
 1290TIP3    H1 3803   0.924   4.210   0.879  0.7604  0.6474  0.9424
 1290TIP3    H2 3804   0.879   4.069   0.908 -0.3191  0.9973  0.9847
 1291TIP3   OH2 3805   2.562   5.988   1.965  0.4793  0.4770  0.2500
 1291TIP3    H1 3806   2.597   5.975   1.877  2.4720  0.1583  1.0759
 1291TIP3    H2 3807   2.521   5.905   1.987 -0.7420  0.8174 -0.6762
 1292TIP3   OH2 3808   3.576   5.463   2.294  0.1726 -0.0518  0.1070
 1292TIP3    H1 3809   3.514   5.390   2.298 -0.5999  0.6147  0.4168
 1292TIP3    H2 3810   3.574   5.501   2.382  0.6769  0.2532 -0.0133
 1293TIP3   OH2 3811   2.779   7.746   1.442  0.4294  0.2601  0.5493
 1293TIP3    H1 3812   2.766   7.762   1.348 -0.1497 -1.6226  0.2864
 1293TIP3    H2 3813   2.705   7.791   1.484 -0.0482 -0.0071  0.0026
 1294TIP3   OH2 3814   0.393   6.350   0.039 -0.4128 -0.7020  0.1630
 1294TIP3    H1 3815   0.429   6.362   0.127 -1.2687 -0.4787  0.4888
 1294TIP3    H2 3816   0.450   6.402  -0.017 -0.6189  0.1805  0.7604
 1295TIP3   OH2 3817   1.406   4.537   3.284  0.1239 -0.1251 -0.2914
 1295TIP3    H1 3818   1.311   4.542   3.297  0.2778 -0.3979  1.0184
 1295TIP3    H2 3819   1.442   4.610   3.333  0.4769  1.2373 -2.4820
 1296TIP3   OH2 3820   3.653   6.303   1.037  0.8947 -0.3127 -0.4901
 1296TIP3    H1 3821   3.712   6.266   0.971  2.3595  1.6535 -0.3432
 1296TIP3    H2 3822   3.673   6.255   1.117  2.3674  0.3717 -0.4270
 1297TIP3   OH2 3823   2.535   5.327   1.135 -0.2974  0.0337  0.2812
 1297TIP3    H1 3824   2.468   5.331   1.204 -0.9835 -0.4198 -0.3444
 1297TIP3    H2 3825   2.532   5.236   1.105 -0.2380  0.3108 -0.5767
 1298TIP3   OH2 3826   1.722   4.878   1.084  0.0160  0.5149 -0.2933
 1298TIP3    H1 3827   1.632   4.905   1.067 -0.6581 -0.7084  1.1835
 1298TIP3    H2 3828   1.729   4.791   1.044  0.1007  0.0121  0.7863
 1299TIP3   OH2 3829   1.259   5.440   1.968 -0.1858  0.2177  0.2870
 1299TIP3    H1 3830   1.314   5.503   1.923 -0.0584 -0.5629 -0.6721
 1299TIP3    H2 3831   1.183   5.490   1.997 -0.5887  0.5817 -1.3909
 1300TIP3   OH2 3832   2.344   6.764   3.138 -0.2268  0.3845 -0.0050
 1300TIP3    H1 3833   2.286   6.839   3.141 -0.6171  0.0581  0.6152
 1300TIP3    H2 3834   2.409   6.787   3.072 -0.5870  1.0872 -0.1194
 1301TIP3   OH2 3835   0.574   2.691   6.666 -0.6044  0.1504 -0.0111
 1301TIP3    H1 3836   0.596   2.785   6.672 -0.3847  0.1391 -0.6404
 1301TIP3    H2 3837   0.488   2.689   6.624 -1.8247  0.1896  2.3990
 1302TIP3   OH2 3838   1.617   4.248   2.059 -0.1419  0.2581  0.1674
 1302TIP3    H1 3839   1.555   4.261   1.988 -1.4327 -0.5224  1.1540
 1302TIP3    H2 3840   1.672   4.175   2.030  0.0792  0.6958 -0.5311
 1303TIP3   OH2 3841   1.574   4.232   0.292 -0.5453 -0.2328 -0.1109
 1303TIP3    H1 3842   1.536   4.289   0.226  0.1506 -0.3900 -0.6604
 1303TIP3    H2 3843   1.668   4.252   0.290 -0.4335 -0.6848  0.3865
 1304TIP3   OH2 3844   3.213   3.698   2.691 -0.1371 -0.7951  0.4036
 1304TIP3    H1 3845   3.141   3.744   2.648 -0.1996  1.5592  2.8518
 1304TIP3    H2 3846   3.177   3.611   2.712 -1.0591 -0.8967 -1.5284
 1305TIP3   OH2 3847   2.560   5.043   0.881 -0.0536 -0.0906 -0.2066
 1305TIP3    H1 3848   2.527   5.046   0.971  0.8504  1.7651  0.0985
 1305TIP3    H2 3849   2.628   4.976   0.882 -1.7790 -1.8873 -0.1502
 1306TIP3   OH2 3850   3.038   7.058   2.714 -0.1790 -0.5954  0.2942
 1306TIP3    H1 3851   3.104   6.991   2.729 -1.3219 -2.1937 -1.5170
 1306TIP3    H2 3852   2.956   7.010   2.707 -1.2438  1.1483  0.4187
 1307TIP3   OH2 3853   0.400   5.123   0.636 -0.3556  0.4098  0.0060
 1307TIP3    H1 3854   0.489   5.142   0.608  0.9648 -1.9303  2.4209
 1307TIP3    H2 3855   0.348   5.197   0.603  2.5566  2.1512 -0.8315
 1308TIP3   OH2 3856   6.146   3.319   1.313 -0.3045  0.3997  0.4721
 1308TIP3    H1 3857   6.154   3.366   1.229 -0.3550 -0.0044  0.2385
 1308TIP3    H2 3858   6.174   3.230   1.292 -1.3526  0.0311  0.6391
 1309TIP3   OH2 3859   2.692   4.180   0.999  0.0128 -0.1922 -0.7331
 1309TIP3    H1 3860   2.657   4.265   1.025  0.0041 -0.5314  0.3611
 1309TIP3    H2 3861   2.688   4.181   0.903 -0.0461  1.0099 -0.7237
 1310TIP3   OH2 3862   8.014   2.044   6.675  0.3717 -0.8529 -0.4424
 1310TIP3    H1 3863   8.016   2.124   6.728 -0.5286 -1.0263 -0.1221
 1310TIP3    H2 3864   8.100   2.040   6.633  0.2195  0.5756 -0.9129
 1311TIP3   OH2 3865   7.263   2.628   6.486 -0.0473  0.8857  0.1376
 1311TIP3    H1 3866   7.223   2.602   6.402 -1.0171 -0.7416  1.0810
 1311TIP3    H2 3867   7.357   2.635   6.467 -0.3150  1.0391 -1.1939
 1312TIP3   OH2 3868   4.767   7.516   6.806 -0.7003  0.3781 -0.1957
 1312TIP3    H1 3869   4.764   7.611   6.800  2.1814  0.4353 -1.7731
 1312TIP3    H2 3870   4.798   7.488   6.720 -0.9897 -1.9740  0.4235
 1313TIP3   OH2 3871   0.537   4.388   1.111  0.0608  0.4904 -0.4081
 1313TIP3    H1 3872   0.549   4.468   1.059  0.1902  0.7585  0.0290
 1313TIP3    H2 3873   0.611   4.388   1.172  1.8518 -1.5912 -2.4610
 1314TIP3   OH2 3874   2.264   5.788   1.776  0.1947 -0.0874 -0.2272
 1314TIP3    H1 3875   2.257   5.772   1.682 -1.7577 -0.6017 -0.0013
 1314TIP3    H2 3876   2.174   5.799   1.806  0.8919  2.0979  1.2439
 1315TIP3   OH2 3877   0.612   4.434   0.482 -0.3932  0.4735 -0.4074
 1315TIP3    H1 3878   0.678   4.382   0.437  0.0462  0.1634  0.5672
 1315TIP3    H2 3879   0.641   4.525   0.471  0.8208  0.2718  0.9671
 1316TIP3   OH2 3880   1.615   3.857   0.970 -0.5562 -0.1168  0.0411
 1316TIP3    H1 3881   1.634   3.780   1.024  0.0173 -1.1420 -1.5686
 1316TIP3    H2 3882   1.527   3.841   0.937  0.2869 -1.0504 -1.8367
 1317TIP3   OH2 3883   3.087   1.856   6.092  0.2938  0.3346 -0.4458
 1317TIP3    H1 3884   3.164   1.839   6.037  1.4473  0.0256  1.2221
 1317TIP3    H2 3885   3.070   1.949   6.081  0.6260  0.3206 -1.1660
 1318TIP3   OH2 3886   1.644   3.738   1.365  0.4988 -0.4291  0.3749
 1318TIP3    H1 3887   1.654   3.830   1.390  0.6656 -0.5403  0.7328
 1318TIP3    H2 3888   1.734   3.708   1.348  0.2932 -0.0949 -1.3253
 1319TIP3   OH2 3889   2.744   7.163   0.132 -0.0626  0.3521 -0.3276
 1319TIP3    H1 3890   2.706   7.117   0.206  0.7351  1.9902  1.1569
 1319TIP3    H2 3891   2.839   7.153   0.144  0.1008  1.6379 -0.4218
 1320TIP3   OH2 3892   8.341   4.770   2.558  0.1607 -0.1887  0.1403
 1320TIP3    H1 3893   8.387   4.834   2.505 -0.6733 -0.1114 -0.5105
 1320TIP3    H2 3894   8.354   4.799   2.648  2.0170 -0.6066  0.0138
 1321TIP3   OH2 3895   7.240   0.947   6.436 -0.4293  0.1053  0.2839
 1321TIP3    H1 3896   7.148   0.921   6.427 -0.2639  0.1160 -1.7279
 1321TIP3    H2 3897   7.279   0.881   6.493 -0.8866 -1.9066 -1.6770
 1322TIP3   OH2 3898   2.083   5.732   1.253  0.0655 -0.1894 -0.1211
 1322TIP3    H1 3899   2.104   5.666   1.187 -0.3382 -2.5666  2.0376
 1322TIP3    H2 3900   2.002   5.700   1.294  0.9782  0.5405  2.3613
 1323TIP3   OH2 3901   1.130   4.841   1.628 -0.5374 -0.1113  0.3119
 1323TIP3    H1 3902   1.174   4.852   1.712 -0.0424 -0.0556  0.0439
 1323TIP3    H2 3903   1.045   4.803   1.651  0.3369 -1.9022  0.6731
 1324TIP3   OH2 3904   2.064   4.038   0.876 -0.2867 -0.2481  0.0928
 1324TIP3    H1 3905   1.989   4.020   0.820 -0.2006 -0.0099 -0.1003
 1324TIP3    H2 3906   2.028   4.043   0.964  0.0683 -4.0992  0.5353
 1325TIP3   OH2 3907   7.946   3.854   1.744  0.3351  0.5895 -0.4187
 1325TIP3    H1 3908   7.896   3.773   1.734 -0.9286  1.0283  1.9063
 1325TIP3    H2 3909   7.907   3.897   1.820  2.0122  2.6374 -0.6585
 1326TIP3   OH2 3910   7.220   4.518   2.186  0.3812  0.1526 -0.6011
 1326TIP3    H1 3911   7.230   4.612   2.199  0.9664 -0.0742  0.5903
 1326TIP3    H2 3912   7.234   4.506   2.092 -0.1554  1.3094 -0.8333
 1327TIP3   OH2 3913   1.960   3.371   1.206  0.0247 -0.5110  0.2894
 1327TIP3    H1 3914   2.022   3.299   1.212  0.4856 -0.0629  1.0964
 1327TIP3    H2 3915   1.928   3.369   1.116  2.6276  0.4169 -0.6874
 1328TIP3   OH2 3916   0.936   6.803   3.349  0.4624  0.3297  0.8008
 1328TIP3    H1 3917   0.892   6.882   3.318 -0.0102 -0.7051 -1.3303
 1328TIP3    H2 3918   0.864   6.745   3.374  0.7589  0.0972  1.1124
 1329TIP3   OH2 3919   2.259   4.909   0.422 -0.2326  0.0934 -0.7366
 1329TIP3    H1 3920   2.272   4.878   0.332 -0.2420 -0.2178 -0.6284
 1329TIP3    H2 3921   2.169   4.942   0.424 -0.1937  0.2082 -0.8738
 1330TIP3   OH2 3922   0.235   5.688   1.988 -0.5047 -0.3677  0.1061
 1330TIP3    H1 3923   0.251   5.650   1.902  0.6679  0.1324  0.1006
 1330TIP3    H2 3924   0.141   5.709   1.988 -0.3859  0.2231 -1.2880
 1331TIP3   OH2 3925   0.684   2.459   0.187 -0.5101 -0.4636 -0.3186
 1331TIP3    H1 3926   0.765   2.511   0.182  1.1048 -2.8605  0.3317
 1331TIP3    H2 3927   0.649   2.477   0.274 -0.2730 -0.0324 -0.3102
 1332TIP3   OH2 3928   2.213   6.070   2.040 -0.1992  0.1423  0.5024
 1332TIP3    H1 3929   2.129   6.099   2.007 -0.4972 -1.7205 -0.4867
 1332TIP3    H2 3930   2.218   5.977   2.015  2.0306  0.1582  0.7357
 1333TIP3   OH2 3931   2.781   4.570   2.289 -0.2702 -0.2054 -0.2170
 1333TIP3    H1 3932   2.787   4.486   2.334 -1.5417 -0.3990 -0.3930
 1333TIP3    H2 3933   2.821   4.555   2.203 -0.0625 -0.4872 -0.0714
 1334TIP3   OH2 3934   0.157   0.922   2.423  0.1663 -0.4951  0.0317
 1334TIP3    H1 3935   0.208   0.958   2.497 -0.3190 -0.1926  0.2197
 1334TIP3    H2 3936   0.199   0.838   2.405 -1.6955 -2.1186  2.7883
 1335TIP3   OH2 3937   2.890   4.088   1.159  0.4671  0.2353  0.3030
 1335TIP3    H1 3938   2.817   4.113   1.101 -0.7467  0.1404  1.7603
 1335TIP3    H2 3939   2.913   4.168   1.205  1.9905  0.5018 -0.9005
 1336TIP3   OH2 3940   1.411   6.497   0.180 -0.3195  0.1956 -0.2272
 1336TIP3    H1 3941   1.364   6.516   0.261 -0.4713  0.5000 -0.3864
 1336TIP3    H2 3942   1.471   6.571   0.169  1.2603 -0.9011  0.7586
 1337TIP3   OH2 3943   1.688   3.956   1.675  0.7191  0.6224 -0.3751
 1337TIP3    H1 3944   1.728   4.004   1.602  1.0157  1.0404  0.0597
 1337TIP3    H2 3945   1.724   3.868   1.669  0.6321  0.6169 -0.8204
 1338TIP3   OH2 3946   0.237   3.818   1.867  0.8392 -0.0791  0.2969
 1338TIP3    H1 3947   0.197   3.900   1.837  2.3860  0.2953 -0.8410
 1338TIP3    H2 3948   0.165   3.767   1.902 -0.3184  1.3457  0.0433
 1339TIP3   OH2 3949   0.529   4.130   2.868  0.1340 -0.3008 -0.3608
 1339TIP3    H1 3950   0.581   4.076   2.809 -0.1611  0.3391 -1.2237
 1339TIP3    H2 3951   0.563   4.219   2.855  1.2753 -0.3750  1.7512
 1340TIP3   OH2 3952   1.800   3.326   0.687 -0.1839 -0.4065 -1.1292
 1340TIP3    H1 3953   1.807   3.293   0.776  1.7184  2.3384 -0.1820
 1340TIP3    H2 3954   1.853   3.265   0.634 -0.3244 -1.3425 -0.2043
 1341TIP3   OH2 3955   7.976   5.134   1.372 -0.0542 -0.4856 -0.0696
 1341TIP3    H1 3956   8.042   5.203   1.381 -0.1893 -0.4356  0.5446
 1341TIP3    H2 3957   7.961   5.103   1.461 -0.5922 -0.7497 -0.2502
 1342TIP3   OH2 3958   2.324   7.747   0.407 -0.4989  0.5029 -0.4588
 1342TIP3    H1 3959   2.332   7.842   0.422 -0.7249  0.5317 -0.5197
 1342TIP3    H2 3960   2.414   7.716   0.406 -0.4973  0.3281  2.0833
 1343TIP3   OH2 3961   8.126   4.667   0.500 -0.1414  0.4539  0.0908
 1343TIP3    H1 3962   8.148   4.741   0.443 -0.9644  0.4155 -0.2804
 1343TIP3    H2 3963   8.133   4.702   0.589 -1.8580  1.3636 -0.1134
 1344TIP3   OH2 3964   7.734   1.890   5.930 -0.1681  0.6850 -0.6369
 1344TIP3    H1 3965   7.802   1.898   5.997  0.1431 -0.5266 -0.8038
 1344TIP3    H2 3966   7.652   1.905   5.978  0.0573 -0.0669 -0.0061
 1345TIP3   OH2 3967   2.927   5.342   2.333  0.6371  0.4637  0.6505
 1345TIP3    H1 3968   2.861   5.380   2.391  0.4936  2.8347 -0.9673
 1345TIP3    H2 3969   2.997   5.313   2.391 -1.1062 -0.5549  2.2598
 1346TIP3   OH2 3970   1.205   3.052   0.254  0.0213 -0.0530 -0.2531
 1346TIP3    H1 3971   1.203   3.142   0.222  0.9618 -0.0959 -0.4654
 1346TIP3    H2 3972   1.138   3.048   0.321  0.8206  1.1517  0.6419
 1347TIP3   OH2 3973   7.610   4.378   3.627  0.0513 -0.0168  0.3254
 1347TIP3    H1 3974   7.555   4.457   3.630  1.2121  0.7643  1.1514
 1347TIP3    H2 3975   7.596   4.343   3.538 -2.3916 -0.2900  0.7585
 1348TIP3   OH2 3976   0.895   4.382   0.210 -0.3214  0.1543  0.6115
 1348TIP3    H1 3977   0.803   4.386   0.183 -0.7258 -0.8089  1.7948
 1348TIP3    H2 3978   0.901   4.301   0.260  1.1067  0.3859  0.8200
 1349TIP3   OH2 3979   3.039   5.793   2.261 -0.4259  0.1427  0.7071
 1349TIP3    H1 3980   2.957   5.794   2.211  0.5835 -0.3304 -1.0052
 1349TIP3    H2 3981   3.024   5.853   2.334 -1.8425  1.0766 -0.3386
 1350TIP3   OH2 3982   1.334   3.716   1.787 -0.2979 -0.0379  0.2726
 1350TIP3    H1 3983   1.378   3.686   1.708 -2.9360 -0.8686 -0.9552
 1350TIP3    H2 3984   1.335   3.640   1.845 -0.3050 -0.1264  0.1565
 1351TIP3   OH2 3985   0.235   3.848   6.588  0.5267  0.9476 -0.0021
 1351TIP3    H1 3986   0.297   3.863   6.659  0.2350  0.6352  0.3179
 1351TIP3    H2 3987   0.246   3.923   6.530  2.1620  0.2555 -0.6295
 1352TIP3   OH2 3988   1.936   5.173   0.761  0.3259  0.0431 -0.4957
 1352TIP3    H1 3989   1.862   5.233   0.775 -1.0421 -1.3937 -1.4217
 1352TIP3    H2 3990   2.001   5.227   0.716 -0.7631  0.9237 -1.0525
 1353TIP3   OH2 3991   2.965   6.993   0.740 -0.0764 -0.4661  0.0273
 1353TIP3    H1 3992   2.904   7.057   0.704 -0.2989 -0.3279  0.6366
 1353TIP3    H2 3993   3.051   7.019   0.707 -0.1314  0.2878  0.4757
 1354TIP3   OH2 3994   2.131   6.088   1.603 -0.0132  0.2876 -0.5048
 1354TIP3    H1 3995   2.201   6.112   1.664  1.5113  1.4757 -2.6543
 1354TIP3    H2 3996   2.160   6.005   1.564 -0.0130  0.5443 -1.0563
 1355TIP3   OH2 3997   2.956   6.158   0.303 -0.2496 -0.1662  0.7347
 1355TIP3    H1 3998   2.862   6.171   0.318 -0.2320 -0.9074  1.5265
 1355TIP3    H2 3999   2.960   6.092   0.233 -0.3159  0.8909 -0.2833
 1356TIP3   OH2 4000   6.529   1.879   6.671 -0.3331 -0.3501  0.2699
 1356TIP3    H1 4001   6.477   1.833   6.604 -0.8636  2.5900 -1.4115
 1356TIP3    H2 4002   6.467   1.936   6.715  0.3874 -0.9778  2.1430
 1357TIP3   OH2 4003   6.817   0.545   6.654 -0.2180 -0.0753  0.2392
 1357TIP3    H1 4004   6.849   0.566   6.566  1.1609  2.1690  1.2396
 1357TIP3    H2 4005   6.722   0.551   6.646 -0.0626  1.4932 -0.7907
 1358TIP3   OH2 4006   8.203   5.597   0.241 -0.0127 -0.4279 -0.5781
 1358TIP3    H1 4007   8.152   5.671   0.209 -1.6417 -0.4958  1.7773
 1358TIP3    H2 4008   8.168   5.522   0.192  1.4342  0.2672 -2.7432
 1359TIP3   OH2 4009   2.654   5.944   1.390  0.2591 -0.6151 -0.5376
 1359TIP3    H1 4010   2.676   5.858   1.355 -0.1161 -1.9031  2.2551
 1359TIP3    H2 4011   2.560   5.953   1.374  0.6354  0.0878 -2.4628
 1360TIP3   OH2 4012   4.617   7.039   2.359 -0.1025  0.0195 -0.4940
 1360TIP3    H1 4013   4.541   7.094   2.345 -1.2650 -1.2906  0.5609
 1360TIP3    H2 4014   4.583   6.949   2.353  1.1343 -0.5739  1.0973
 1361TIP3   OH2 4015   1.100   4.598   2.152 -0.2967 -0.3253  0.1135
 1361TIP3    H1 4016   1.129   4.683   2.184  0.8045 -1.0274  1.0449
 1361TIP3    H2 4017   1.125   4.537   2.222 -3.1510 -1.1075  0.5425
 1362TIP3   OH2 4018   4.067   5.604   2.171 -0.2957 -0.2171 -0.0342
 1362TIP3    H1 4019   4.093   5.642   2.087  0.9777 -2.0308 -0.4927
 1362TIP3    H2 4020   3.995   5.545   2.149  1.2968 -2.1458 -0.1705
 1363TIP3   OH2 4021   1.655   4.094   1.118 -0.3135 -0.1265 -0.0724
 1363TIP3    H1 4022   1.569   4.117   1.155 -0.5655 -0.7521 -0.2611
 1363TIP3    H2 4023   1.636   4.029   1.051  0.3542 -0.6438  0.2277
 1364TIP3   OH2 4024   3.874   6.913   6.133  0.9557  0.4774 -0.3878
 1364TIP3    H1 4025   3.901   6.821   6.128  0.6303  0.3338  0.3861
 1364TIP3    H2 4026   3.825   6.928   6.052  1.8543  0.2513 -0.9790
 1365TIP3   OH2 4027   1.094   3.699   1.646  0.1840 -0.3197  0.2827
 1365TIP3    H1 4028   1.164   3.757   1.676  1.5218 -0.9182 -1.6697
 1365TIP3    H2 4029   1.126   3.611   1.664  1.3132 -0.7250 -3.4947
 1366TIP3   OH2 4030   2.947   4.518   0.123 -0.5316  0.0520  0.5692
 1366TIP3    H1 4031   2.957   4.423   0.127 -0.3430  0.1123  1.8211
 1366TIP3    H2 4032   2.858   4.534   0.154 -0.3338  0.3295  1.0003
 1367TIP3   OH2 4033   4.587   6.972   1.792  0.6132  0.2648  0.1673
 1367TIP3    H1 4034   4.581   7.064   1.819 -0.5801 -0.2838  1.8295
 1367TIP3    H2 4035   4.505   6.956   1.745  0.9536  0.1250 -0.3801
 1368TIP3   OH2 4036   3.945   7.846   6.390  0.1520 -0.0039 -0.3208
 1368TIP3    H1 4037   4.009   7.818   6.455  0.7397 -1.7846 -1.6193
 1368TIP3    H2 4038   3.860   7.838   6.435  0.4608 -2.1857 -0.0591
 1369TIP3   OH2 4039   6.883   4.178   4.729 -0.0753 -0.3815  0.0082
 1369TIP3    H1 4040   6.956   4.117   4.736  0.1606 -0.0004  0.9606
 1369TIP3    H2 4041   6.809   4.130   4.766  0.1684 -0.0004  0.9975
 1370TIP3   OH2 4042   1.714   4.499   2.825 -0.2589  0.1696 -0.2661
 1370TIP3    H1 4043   1.641   4.539   2.777 -1.7203 -0.4277  1.4263
 1370TIP3    H2 4044   1.746   4.430   2.766 -1.1821  0.3146 -0.9464
 1371TIP3   OH2 4045   1.402   5.779   1.325 -0.3715  0.2782  0.2731
 1371TIP3    H1 4046   1.472   5.721   1.357 -0.8320 -0.4908 -0.1002
 1371TIP3    H2 4047   1.435   5.867   1.341  0.3125 -0.0864  0.9128
 1372TIP3   OH2 4048   7.914   3.222   0.199  0.0150 -0.4563 -0.5251
 1372TIP3    H1 4049   7.959   3.286   0.144 -1.4005 -0.0506 -1.2311
 1372TIP3    H2 4050   7.953   3.234   0.286  2.0179 -0.8635 -1.3344
 1373TIP3   OH2 4051   1.673   7.158   0.274  0.7581 -0.2437 -0.4232
 1373TIP3    H1 4052   1.710   7.077   0.239  0.2192 -0.4089 -0.6191
 1373TIP3    H2 4053   1.748   7.215   0.288  1.1038 -0.6481 -0.6268
 1374TIP3   OH2 4054   2.609   4.769   0.101  0.0628  0.1231 -0.2392
 1374TIP3    H1 4055   2.669   4.760   0.175 -0.7880  1.1429  0.5870
 1374TIP3    H2 4056   2.593   4.679   0.073  0.5208 -0.2632  0.7056
 1375TIP3   OH2 4057   2.764   4.545   3.072  0.1603  0.2388  0.1145
 1375TIP3    H1 4058   2.797   4.470   3.022  3.0172  1.0494  0.6767
 1375TIP3    H2 4059   2.742   4.509   3.157  2.4022  0.1360  0.6885
 1376TIP3   OH2 4060   2.470   3.649   2.155  0.7805  0.7167 -0.4851
 1376TIP3    H1 4061   2.388   3.601   2.144  1.6012 -0.9960  0.6253
 1376TIP3    H2 4062   2.446   3.741   2.146 -1.2871  0.2441  0.0415
 1377TIP3   OH2 4063   2.253   3.451   1.923 -0.2119 -0.1178  0.1003
 1377TIP3    H1 4064   2.334   3.492   1.893 -0.6205 -0.3779 -1.3646
 1377TIP3    H2 4065   2.247   3.477   2.015  0.3839  1.7444 -0.3567
 1378TIP3   OH2 4066   2.202   5.502   1.608 -0.2607  0.3787 -0.1713
 1378TIP3    H1 4067   2.139   5.435   1.583 -0.5824  0.7554 -0.3944
 1378TIP3    H2 4068   2.149   5.570   1.650  0.1143  0.3049  0.4347
 1379TIP3   OH2 4069   0.595   3.843   1.554  0.1021 -0.0568  0.5338
 1379TIP3    H1 4070   0.518   3.786   1.560  0.3165 -0.4332 -0.2713
 1379TIP3    H2 4071   0.651   3.800   1.489 -0.2024  1.6486 -0.8685
 1380TIP3   OH2 4072   2.849   5.503   3.894  0.0219 -0.2838 -0.5175
 1380TIP3    H1 4073   2.842   5.575   3.958 -1.0724 -0.5053 -0.3718
 1380TIP3    H2 4074   2.901   5.540   3.822  0.4567  0.2772  0.0774
 1381TIP3   OH2 4075   8.301   1.526   6.512 -0.4745 -0.1844 -0.1186
 1381TIP3    H1 4076   8.316   1.505   6.604 -0.4782 -1.6398 -0.4348
 1381TIP3    H2 4077   8.375   1.581   6.488 -0.0065 -0.5193  0.5241
 1382TIP3   OH2 4078   1.579   5.900   0.857  0.0988  0.8786 -0.1954
 1382TIP3    H1 4079   1.633   5.836   0.811 -0.6012 -1.4249  2.0259
 1382TIP3    H2 4080   1.490   5.864   0.854 -0.6178  2.6063 -0.3668
 1383TIP3   OH2 4081   3.421   3.136   2.187  1.1404  0.0494 -0.3227
 1383TIP3    H1 4082   3.388   3.171   2.270  1.9595  0.5711 -0.2121
 1383TIP3    H2 4083   3.435   3.212   2.132  1.7871 -0.1968 -0.5044
 1384TIP3   OH2 4084   0.741   4.955   2.154  0.0348  0.7020 -0.2312
 1384TIP3    H1 4085   0.723   4.965   2.247  1.8323  0.9180  0.1168
 1384TIP3    H2 4086   0.756   4.862   2.142  2.2923  0.9884  0.1931
 1385TIP3   OH2 4087   1.688   4.907   1.478 -0.2707  0.4661  0.0791
 1385TIP3    H1 4088   1.727   4.879   1.561 -1.0784 -0.5392  0.1318
 1385TIP3    H2 4089   1.595   4.886   1.487 -0.5291  1.2163 -0.7247
 1386TIP3   OH2 4090   0.977   3.190   4.905  0.3130  0.7554 -0.0538
 1386TIP3    H1 4091   1.039   3.262   4.913  0.8400  0.1523  1.5020
 1386TIP3    H2 4092   1.008   3.125   4.969 -1.8254  0.3744  0.6161
 1387TIP3   OH2 4093   2.562   4.737   2.281  0.5935  0.3780  0.1105
 1387TIP3    H1 4094   2.593   4.818   2.323  1.2792  1.0418 -1.6474
 1387TIP3    H2 4095   2.633   4.674   2.297  1.6856  1.1402 -1.5711
 1388TIP3   OH2 4096   0.726   3.950   1.772  0.4258 -0.2061  0.3592
 1388TIP3    H1 4097   0.680   3.900   1.705 -0.6351  0.5177  0.5383
 1388TIP3    H2 4098   0.781   3.886   1.817 -0.6742 -1.1429  0.3769
 1389TIP3   OH2 4099   8.318   3.486   1.585 -0.5293  0.4306  0.3545
 1389TIP3    H1 4100   8.314   3.540   1.507  1.3795  2.4315  1.5893
 1389TIP3    H2 4101   8.227   3.467   1.606 -1.0461 -0.6850 -2.6805
 1390TIP3   OH2 4102   0.766   3.612   4.297  0.9082 -0.2665 -0.6453
 1390TIP3    H1 4103   0.797   3.702   4.310  0.4441  0.0838 -1.9135
 1390TIP3    H2 4104   0.685   3.622   4.248 -0.2557 -1.2732  1.0225
 1391TIP3   OH2 4105   3.920   5.175   1.248 -0.3123 -0.2420  1.2658
 1391TIP3    H1 4106   3.965   5.180   1.332 -1.9393  0.5091  2.1000
 1391TIP3    H2 4107   3.904   5.266   1.224  0.9036 -0.4083 -0.2986
 1392TIP3   OH2 4108   4.038   4.527   0.163  0.3466 -0.2337 -0.0648
 1392TIP3    H1 4109   4.070   4.604   0.115 -1.6010  1.6782  1.5933
 1392TIP3    H2 4110   4.110   4.505   0.223  1.0954  0.0257 -0.8641
 1393TIP3   OH2 4111   2.268   4.957   2.921 -0.1476 -0.3362  0.0165
 1393TIP3    H1 4112   2.195   4.988   2.975 -0.9597  0.0308 -1.2814
 1393TIP3    H2 4113   2.309   5.037   2.889  0.7051 -0.5467  0.5591
 1394TIP3   OH2 4114   1.130   1.186   6.694  0.0585  0.2226 -0.0758
 1394TIP3    H1 4115   1.129   1.153   6.604  0.3864  2.6180 -0.9993
 1394TIP3    H2 4116   1.054   1.245   6.699 -1.1093 -1.3644  1.8322
 1395TIP3   OH2 4117   7.585   2.623   5.928 -0.4625 -0.1629 -0.9877
 1395TIP3    H1 4118   7.570   2.545   5.982  1.2211  0.4792  0.4602
 1395TIP3    H2 4119   7.658   2.599   5.872  0.5042  0.5863 -0.0665
 1396TIP3   OH2 4120   1.575   3.170   0.906 -0.0863 -0.3565  0.5296
 1396TIP3    H1 4121   1.516   3.094   0.903 -1.0262  0.4273 -1.3850
 1396TIP3    H2 4122   1.624   3.165   0.824  1.7604 -0.3787  1.6109
 1397TIP3   OH2 4123   2.266   3.685   0.575  0.4057 -0.3745  0.6510
 1397TIP3    H1 4124   2.323   3.756   0.606 -1.7687  2.5208 -1.5882
 1397TIP3    H2 4125   2.193   3.684   0.637 -0.7231  1.0042 -0.6130
 1398TIP3   OH2 4126   3.107   6.371   0.985  0.3004  0.4608  0.2911
 1398TIP3    H1 4127   3.110   6.320   1.066  0.0655  0.5775  0.3745
 1398TIP3    H2 4128   3.197   6.371   0.952  0.4558  0.6877  0.7206
 1399TIP3   OH2 4129   2.985   5.253   0.169  0.5769  0.3988  0.0339
 1399TIP3    H1 4130   3.011   5.308   0.243  1.6562 -0.6862  0.4681
 1399TIP3    H2 4131   2.893   5.275   0.155  0.4142  0.7797  1.5640
 1400TIP3   OH2 4132   5.468   2.358   6.773 -0.2787 -0.6410  0.4408
 1400TIP3    H1 4133   5.407   2.431   6.769  0.2812 -0.1379  1.0568
 1400TIP3    H2 4134   5.549   2.392   6.734 -0.1835 -1.0958  0.2365
 1401TIP3   OH2 4135   5.784   2.088   6.749 -0.2512  0.1865 -0.3160
 1401TIP3    H1 4136   5.777   2.181   6.730 -1.6918 -0.1403 -1.4364
 1401TIP3    H2 4137   5.763   2.044   6.667 -0.1371 -1.1471  0.3422
 1402TIP3   OH2 4138   5.145   5.469   0.351 -0.1727 -0.0469  0.2233
 1402TIP3    H1 4139   5.134   5.374   0.354 -2.4316  0.1522 -0.8734
 1402TIP3    H2 4140   5.216   5.487   0.412 -2.4270 -2.0182  3.5437
 1403TIP3   OH2 4141   2.441   6.051   2.202 -0.7749 -0.2405 -0.1342
 1403TIP3    H1 4142   2.493   6.041   2.122 -0.8542 -0.7927 -0.1192
 1403TIP3    H2 4143   2.351   6.058   2.170 -0.5965  1.8148 -0.2277
 1404TIP3   OH2 4144   1.933   5.385   0.608 -0.8404 -0.3449  0.0526
 1404TIP3    H1 4145   1.864   5.410   0.669  1.0451  0.3241  1.9826
 1404TIP3    H2 4146   1.927   5.449   0.537  1.1743  3.1624  2.8400
 1405TIP3   OH2 4147   8.027   1.475   6.117  0.0693 -0.3287 -0.2556
 1405TIP3    H1 4148   8.112   1.456   6.157  1.1156  1.4391 -1.5329
 1405TIP3    H2 4149   8.014   1.405   6.053  0.2086 -1.0164  0.4637
 1406TIP3   OH2 4150   3.409   4.866   0.640  0.3351  0.5354  0.2275
 1406TIP3    H1 4151   3.409   4.770   0.640  2.6297  0.5037  1.4404
 1406TIP3    H2 4152   3.327   4.890   0.683  1.0740 -0.9300  2.5294
 1407TIP3   OH2 4153   2.095   5.304   2.607  0.0593 -0.1467 -0.0879
 1407TIP3    H1 4154   2.109   5.308   2.512  0.3774  2.1711  0.0154
 1407TIP3    H2 4155   2.167   5.251   2.640 -0.7114 -1.9517 -1.2555
 1408TIP3   OH2 4156   1.855   4.559   1.822  0.2200  0.4603 -0.4467
 1408TIP3    H1 4157   1.842   4.490   1.757  0.0894  1.3200 -1.3457
 1408TIP3    H2 4158   1.801   4.632   1.791  0.2532  0.9202  0.5583
 1409TIP3   OH2 4159   1.134   3.194   3.207  0.2515 -0.1017  0.3163
 1409TIP3    H1 4160   1.143   3.287   3.227 -1.9079  0.1719  0.1708
 1409TIP3    H2 4161   1.039   3.178   3.212  0.5723 -2.2030 -0.0258
 1410TIP3   OH2 4162   2.462   5.298   2.223 -0.6814  0.4494 -0.0784
 1410TIP3    H1 4163   2.512   5.220   2.200  0.1529  0.6793  0.9164
 1410TIP3    H2 4164   2.512   5.371   2.187 -0.8276  0.6037  0.0283
 1411TIP3   OH2 4165   7.814   5.714   2.407 -0.0267 -0.0205 -0.6948
 1411TIP3    H1 4166   7.739   5.773   2.392 -1.0090 -0.9446  0.4928
 1411TIP3    H2 4167   7.804   5.645   2.342 -0.4000 -0.3178 -0.3250
 1412TIP3   OH2 4168   0.059   5.065   0.520 -0.1481 -0.0762 -0.2122
 1412TIP3    H1 4169  -0.002   5.044   0.590  0.8936  0.4632  0.8742
 1412TIP3    H2 4170   0.139   5.016   0.543  0.3082  0.3742 -0.8370
 1413TIP3   OH2 4171   3.001   4.264   2.334  0.2915  0.3420  0.1902
 1413TIP3    H1 4172   3.090   4.265   2.368  0.6279 -0.7547 -0.6264
 1413TIP3    H2 4173   3.012   4.270   2.239 -0.3615 -2.6249 -0.1147
 1414TIP3   OH2 4174   5.623   7.614   6.547  0.4835  0.5009  0.3409
 1414TIP3    H1 4175   5.598   7.569   6.466 -1.0923  0.2164  0.9706
 1414TIP3    H2 4176   5.568   7.692   6.550 -0.4769 -0.2042  1.8196
 1415TIP3   OH2 4177   1.861   4.897   2.095 -0.2677 -0.4206 -0.4202
 1415TIP3    H1 4178   1.876   4.895   2.189  2.5062  0.2508 -0.8275
 1415TIP3    H2 4179   1.766   4.891   2.086 -0.7052  1.6092  2.4746
 1416TIP3   OH2 4180   0.759   6.829   2.418 -0.1364  0.7408 -0.5160
 1416TIP3    H1 4181   0.672   6.836   2.458  0.6153 -0.1927  1.3214
 1416TIP3    H2 4182   0.811   6.897   2.460  0.6210 -0.1432 -0.0050
 1417TIP3   OH2 4183   2.399   5.267   0.048  0.4123 -0.1713  0.1993
 1417TIP3    H1 4184   2.438   5.244   0.132 -0.0148  0.5025  0.5762
 1417TIP3    H2 4185   2.473   5.296  -0.006  0.5429  0.3810  0.6737
 1418TIP3   OH2 4186   2.963   6.213   2.119  0.3365  0.2084  0.7975
 1418TIP3    H1 4187   2.872   6.239   2.110  0.2298  0.1502  1.6056
 1418TIP3    H2 4188   2.998   6.211   2.030 -1.1414 -2.2232  0.2199
 1419TIP3   OH2 4189   4.252   1.172   6.570  0.5540  0.0476  0.0037
 1419TIP3    H1 4190   4.235   1.120   6.492  2.2537  0.8448 -0.9472
 1419TIP3    H2 4191   4.232   1.114   6.643 -0.0750 -1.0533 -1.0265
 1420TIP3   OH2 4192   2.064   4.010   1.681  0.5618 -0.0298 -0.3155
 1420TIP3    H1 4193   1.985   4.049   1.643  0.3407 -0.8676 -0.7153
 1420TIP3    H2 4194   2.125   4.083   1.689 -0.0668  0.5227 -0.4965
 1421TIP3   OH2 4195   0.569   4.028   0.676 -0.3953  0.4896  0.4421
 1421TIP3    H1 4196   0.548   4.084   0.751  0.7599  0.9784  0.4253
 1421TIP3    H2 4197   0.664   4.018   0.681 -0.4452 -0.3843 -0.3302
 1422TIP3   OH2 4198   0.233   5.793   0.317 -0.0551  0.6006  0.4369
 1422TIP3    H1 4199   0.242   5.885   0.295  1.3964  0.2798 -0.3829
 1422TIP3    H2 4200   0.138   5.778   0.321 -0.4160  1.0685 -4.0516
 1423TIP3   OH2 4201   8.398   4.428   6.590  0.1376  0.1491 -0.5890
 1423TIP3    H1 4202   8.461   4.470   6.649 -1.1921  1.7265 -0.2551
 1423TIP3    H2 4203   8.366   4.499   6.534 -2.5367 -0.2552  0.3407
 1424TIP3   OH2 4204   2.280   3.084   2.031  0.2024 -0.0654  0.4207
 1424TIP3    H1 4205   2.313   2.994   2.036  0.0693 -0.1690 -0.4924
 1424TIP3    H2 4206   2.294   3.109   1.939 -4.1960 -0.8405 -0.5467
 1425TIP3   OH2 4207   1.824   4.306   2.396  0.6673 -0.0800  0.4627
 1425TIP3    H1 4208   1.847   4.258   2.476 -1.1172  1.6212  2.0411
 1425TIP3    H2 4209   1.888   4.377   2.393  1.3545 -0.7182 -0.1775
 1426TIP3   OH2 4210   0.137   0.038   4.161 -0.3388  0.4826  0.1034
 1426TIP3    H1 4211   0.147  -0.057   4.154 -0.9253  0.4523 -0.3741
 1426TIP3    H2 4212   0.197   0.064   4.230  0.2459 -0.1693 -0.1617
 1427TIP3   OH2 4213   0.052   2.794   0.028 -0.3485 -0.3641 -0.0159
 1427TIP3    H1 4214   0.064   2.869   0.086  0.6078  0.6997 -1.5364
 1427TIP3    H2 4215   0.134   2.745   0.036  0.3790  0.5601 -1.5116
 1428TIP3   OH2 4216   3.254   4.118   2.136  0.0037  0.0134 -0.0082
 1428TIP3    H1 4217   3.230   4.210   2.142  0.9428  0.1681  1.4603
 1428TIP3    H2 4218   3.313   4.103   2.209 -1.4253 -2.1681  0.7677
 1429TIP3   OH2 4219   2.281   4.677   1.944  0.5393 -0.5012 -0.0063
 1429TIP3    H1 4220   2.271   4.637   1.858 -0.2737 -0.6084  0.1381
 1429TIP3    H2 4221   2.194   4.675   1.982  0.8417 -0.2024  0.7131
 1430TIP3   OH2 4222   3.544   5.324   1.801 -0.0241  0.3887  0.0055
 1430TIP3    H1 4223   3.571   5.236   1.778 -1.3284  0.0235 -0.1840
 1430TIP3    H2 4224   3.458   5.314   1.842  0.0914  1.5040  0.5551
 1431TIP3   OH2 4225   0.476   3.915   1.294 -0.0697 -0.4490  0.3166
 1431TIP3    H1 4226   0.462   3.821   1.303 -1.7229 -0.2142  0.3275
 1431TIP3    H2 4227   0.557   3.922   1.244 -0.3730 -1.8783 -0.4162
 1432TIP3   OH2 4228   0.280   4.074   2.687  0.1575 -0.2755 -0.0828
 1432TIP3    H1 4229   0.282   3.982   2.712  0.9763 -0.2059  0.1100
 1432TIP3    H2 4230   0.293   4.122   2.768 -1.4353  0.0478  0.0024
 1433TIP3   OH2 4231   7.760   6.367   3.714  0.1009 -0.3765 -0.0397
 1433TIP3    H1 4232   7.758   6.348   3.620 -2.4386  0.5604 -0.2148
 1433TIP3    H2 4233   7.683   6.323   3.749 -0.1908  1.0992  1.2395
 1434TIP3   OH2 4234   0.408   3.408   1.357  0.4260  0.2837 -0.1221
 1434TIP3    H1 4235   0.328   3.420   1.410  1.6019 -0.7311  1.9575
 1434TIP3    H2 4236   0.414   3.313   1.345  1.9623  0.2560  0.7866
 1435TIP3   OH2 4237   2.886   6.138   1.321 -0.0501 -0.3026  0.0956
 1435TIP3    H1 4238   2.877   6.065   1.260  0.0633 -0.5605  0.3911
 1435TIP3    H2 4239   2.878   6.099   1.408 -0.3115  0.0831  0.2459
 1436TIP3   OH2 4240   1.471   5.510   0.178 -0.8685  0.5111  0.0127
 1436TIP3    H1 4241   1.376   5.502   0.189 -0.7512  0.2389  0.8405
 1436TIP3    H2 4242   1.484   5.515   0.083 -1.6387 -0.4110 -0.1464
 1437TIP3   OH2 4243   2.570   0.815   6.792 -0.0805 -0.3509 -0.0385
 1437TIP3    H1 4244   2.550   0.815   6.699  1.8885 -0.2030 -0.4838
 1437TIP3    H2 4245   2.600   0.725   6.810 -0.6481 -0.4362  0.4965
 1438TIP3   OH2 4246   4.825   6.882   0.982  0.3979  0.0055 -0.4019
 1438TIP3    H1 4247   4.843   6.792   1.009 -2.6455 -0.1504  1.3385
 1438TIP3    H2 4248   4.904   6.931   1.008  0.0780 -1.2933  3.2342
 1439TIP3   OH2 4249   1.713   2.268   6.179 -0.2964  0.1584  0.0234
 1439TIP3    H1 4250   1.656   2.274   6.102 -0.7782  1.5141  0.4755
 1439TIP3    H2 4251   1.776   2.339   6.167  0.2375 -0.2470  0.4007
 1440TIP3   OH2 4252   1.081   6.708   0.385 -0.1900 -0.1277  0.2988
 1440TIP3    H1 4253   1.007   6.755   0.347 -1.1528 -1.2557  0.7182
 1440TIP3    H2 4254   1.063   6.616   0.365  0.5176 -0.5096  1.3775
 1441TIP3   OH2 4255   0.426   4.721   2.982 -0.5411  0.3447  0.2243
 1441TIP3    H1 4256   0.456   4.707   3.071 -1.6710 -2.1236  0.2430
 1441TIP3    H2 4257   0.504   4.747   2.934  0.1719  1.1502  1.8061
 1442TIP3   OH2 4258   3.395   4.209   2.717 -0.0687  0.3355 -0.0152
 1442TIP3    H1 4259   3.339   4.179   2.645 -1.1313 -0.2217  1.0482
 1442TIP3    H2 4260   3.434   4.129   2.752 -0.2023  0.5268  0.5715
 1443TIP3   OH2 4261   1.391   1.904   6.499  1.0814 -0.0143  0.2003
 1443TIP3    H1 4262   1.348   1.851   6.565 -1.7898 -0.2090 -1.7426
 1443TIP3    H2 4263   1.361   1.993   6.515  2.1829  0.2987  0.5592
 1444TIP3   OH2 4264   7.231   1.624   4.982  0.3074  0.2618 -0.5324
 1444TIP3    H1 4265   7.223   1.720   4.984  3.1007  0.5404  1.4399
 1444TIP3    H2 4266   7.214   1.596   5.071  1.1712 -0.9054 -0.7153
 1445TIP3   OH2 4267   6.104   5.872   0.539  0.0127  0.0322  0.6146
 1445TIP3    H1 4268   6.104   5.942   0.604 -1.2902 -0.2255  0.8970
 1445TIP3    H2 4269   6.068   5.796   0.585 -1.2749 -0.0499 -0.4981
 1446TIP3   OH2 4270   8.070   6.431   1.714  0.0659  0.0917  0.1518
 1446TIP3    H1 4271   8.057   6.442   1.619 -1.1341 -0.0277  0.2974
 1446TIP3    H2 4272   7.992   6.469   1.753  0.5456  0.1115  1.1043
 1447TIP3   OH2 4273   2.404   3.224   0.859  0.4528  0.1681 -0.2563
 1447TIP3    H1 4274   2.409   3.280   0.782 -1.1856  0.3839 -0.2222
 1447TIP3    H2 4275   2.351   3.274   0.922  0.1210 -0.8417  0.2770
 1448TIP3   OH2 4276   1.360   4.617   0.827  0.6205  0.2298 -0.1476
 1448TIP3    H1 4277   1.357   4.681   0.756 -0.7420  0.9832  0.5836
 1448TIP3    H2 4278   1.343   4.668   0.907  1.0907 -0.7773  0.6110
 1449TIP3   OH2 4279   4.302   6.041   0.544  0.2593 -0.2244  0.2950
 1449TIP3    H1 4280   4.373   6.089   0.587 -0.8919  1.1012  0.7626
 1449TIP3    H2 4281   4.237   6.028   0.613 -0.2284 -0.8807 -0.2798
 1450TIP3   OH2 4282   6.184   5.720   1.253 -0.4726  0.2918 -0.1439
 1450TIP3    H1 4283   6.156   5.758   1.337 -0.5033 -0.7035  0.3016
 1450TIP3    H2 4284   6.111   5.738   1.193 -1.6454 -1.3701  0.7406
 1451TIP3   OH2 4285   2.839   5.005   2.599  0.3341 -0.6719 -0.6550
 1451TIP3    H1 4286   2.829   5.054   2.518 -0.6070 -0.9872 -0.7386
 1451TIP3    H2 4287   2.909   5.050   2.646  0.1522  0.1537 -1.1645
 1452TIP3   OH2 4288   1.340   0.874   6.470  0.2758 -0.0117 -0.0535
 1452TIP3    H1 4289   1.263   0.926   6.449 -0.3833 -0.1460  1.8729
 1452TIP3    H2 4290   1.401   0.889   6.398 -2.4787 -1.8640 -2.8895
 1453TIP3   OH2 4291   6.410   5.656   6.301 -0.2811 -0.1651  0.5605
 1453TIP3    H1 4292   6.389   5.699   6.384  1.3900  0.0050  0.9080
 1453TIP3    H2 4293   6.398   5.563   6.320 -1.3252 -0.0477  0.5571
 1454TIP3   OH2 4294   7.485   3.005   5.880  0.0673  0.0118 -0.1098
 1454TIP3    H1 4295   7.503   2.992   5.974 -3.6789 -1.1415  0.5432
 1454TIP3    H2 4296   7.407   3.061   5.878  0.4091  0.4513 -2.5576
 1455TIP3   OH2 4297   3.849   6.770   1.581 -0.3621  0.5020  0.4057
 1455TIP3    H1 4298   3.855   6.675   1.592  1.2140  0.7335  1.7093
 1455TIP3    H2 4299   3.758   6.786   1.556 -0.8893 -1.2602  1.1357
 1456TIP3   OH2 4300   2.220   5.185   0.789  0.6645 -0.7833 -0.1071
 1456TIP3    H1 4301   2.304   5.141   0.778 -0.1551 -1.9481 -2.0210
 1456TIP3    H2 4302   2.158   5.114   0.809  0.0816  0.0130  0.9351
 1457TIP3   OH2 4303   3.135   6.886   0.127  0.3542  0.4110  0.2720
 1457TIP3    H1 4304   3.081   6.934   0.063 -0.2799  0.8632  1.1414
 1457TIP3    H2 4305   3.160   6.806   0.081 -1.4499 -0.0318 -0.0020
 1458TIP3   OH2 4306   0.874   3.394   1.716 -0.3891  0.3658  0.3125
 1458TIP3    H1 4307   0.934   3.448   1.768 -0.0110  1.4893 -1.2460
 1458TIP3    H2 4308   0.821   3.457   1.668 -1.5401 -0.6529  0.2363
 1459TIP3   OH2 4309   0.308   2.039   6.726  0.7259  0.1265 -0.4251
 1459TIP3    H1 4310   0.279   2.126   6.753 -0.0298 -0.3893  0.4090
 1459TIP3    H2 4311   0.303   2.041   6.630  1.2272  1.1724 -0.4385
 1460TIP3   OH2 4312   4.894   7.137   2.315 -0.3444  0.1595  0.6401
 1460TIP3    H1 4313   4.926   7.058   2.273  0.6184  1.8927 -2.0027
 1460TIP3    H2 4314   4.806   7.114   2.347 -0.4104 -1.7198 -0.8260
 1461TIP3   OH2 4315   2.198   2.955   1.292  0.0495  0.2298  0.2973
 1461TIP3    H1 4316   2.282   2.908   1.290  0.2067  0.5222 -0.0204
 1461TIP3    H2 4317   2.180   2.969   1.385 -0.1824 -0.7921  0.4113
 1462TIP3   OH2 4318   5.639   5.493   0.040 -0.7363  0.3038 -0.4488
 1462TIP3    H1 4319   5.690   5.566   0.004  0.7012 -0.3278  0.2698
 1462TIP3    H2 4320   5.701   5.421   0.045 -1.2920 -0.0480  1.8970
 1463TIP3   OH2 4321   7.924   1.300   3.406  0.9323  0.7180  0.1230
 1463TIP3    H1 4322   7.902   1.207   3.402 -0.8601  1.0988  0.6789
 1463TIP3    H2 4323   7.892   1.335   3.323 -2.7115  1.6824  1.8181
 1464TIP3   OH2 4324   6.983   0.378   1.855 -0.1741 -0.3185  0.1858
 1464TIP3    H1 4325   7.025   0.340   1.933 -0.8491 -0.0511  0.6798
 1464TIP3    H2 4326   7.009   0.319   1.784  0.6426 -0.4318  0.5670
 1465TIP3   OH2 4327   3.878   4.046   0.662 -0.1549 -0.5032 -0.0147
 1465TIP3    H1 4328   3.947   4.106   0.635 -1.2118  0.7474 -0.0269
 1465TIP3    H2 4329   3.860   3.993   0.585 -0.5507  0.4991 -0.6257
 1466TIP3   OH2 4330   3.864   5.916   1.604  0.0559  0.1459  0.0127
 1466TIP3    H1 4331   3.941   5.882   1.649 -0.6070 -1.9861 -0.3832
 1466TIP3    H2 4332   3.809   5.952   1.674  1.0310  0.9234  0.3823
 1467TIP3   OH2 4333   2.757   5.033   1.905 -0.4628 -0.2443  0.3108
 1467TIP3    H1 4334   2.792   4.977   1.836 -1.2029  0.0858 -0.3250
 1467TIP3    H2 4335   2.770   5.122   1.873  0.7813 -0.0214  1.3541
 1468TIP3   OH2 4336   0.436   3.014   5.707 -0.0126 -0.0913 -0.3083
 1468TIP3    H1 4337   0.468   2.974   5.626 -0.4914  0.1882 -0.6393
 1468TIP3    H2 4338   0.501   3.081   5.728  0.2993 -0.4045 -0.2665
 1469TIP3   OH2 4339   3.291   5.456   2.057 -0.1802 -0.2896 -0.6088
 1469TIP3    H1 4340   3.234   5.501   1.994 -0.6918 -0.1740 -0.0634
 1469TIP3    H2 4341   3.294   5.514   2.133  2.1590  0.6082 -1.3274
 1470TIP3   OH2 4342   2.908   3.079   5.614  0.4884 -0.2581 -0.0768
 1470TIP3    H1 4343   2.925   3.173   5.608  1.0343 -0.2320  1.5296
 1470TIP3    H2 4344   2.956   3.040   5.541  0.8768  0.6390 -0.3021
 1471TIP3   OH2 4345   3.296   6.655   1.064 -0.3325 -0.2693  0.3333
 1471TIP3    H1 4346   3.204   6.642   1.086 -0.0753  0.5389  1.9346
 1471TIP3    H2 4347   3.297   6.732   1.007 -0.4343  1.1115  2.1635
 1472TIP3   OH2 4348   4.682   5.003   0.925 -0.0648 -0.4314 -0.1915
 1472TIP3    H1 4349   4.742   5.078   0.928 -0.4650 -0.0807 -0.8849
 1472TIP3    H2 4350   4.649   4.996   1.014  0.2435 -0.0055 -0.0388
 1473TIP3   OH2 4351   6.767   0.389   1.433 -0.5519 -0.0208 -0.0852
 1473TIP3    H1 4352   6.808   0.452   1.493 -0.3000  0.6163 -0.9152
 1473TIP3    H2 4353   6.800   0.413   1.347 -2.3484  0.2461 -0.7263
 1474TIP3   OH2 4354   1.376   5.404   1.446 -0.2409  0.6064  0.1227
 1474TIP3    H1 4355   1.427   5.365   1.518  0.1792  0.1217 -0.4251
 1474TIP3    H2 4356   1.320   5.469   1.488 -0.1340  0.1931  0.9126
 1475TIP3   OH2 4357   3.102   4.511   1.579  0.4228  0.0949  0.9174
 1475TIP3    H1 4358   3.091   4.583   1.642 -0.7913 -0.9172  1.8825
 1475TIP3    H2 4359   3.108   4.555   1.494 -0.7016  1.3246  1.4482
 1476TIP3   OH2 4360   1.423   3.545   0.718  0.2704  0.4900 -0.0754
 1476TIP3    H1 4361   1.414   3.455   0.687  1.2975  0.0973  0.7318
 1476TIP3    H2 4362   1.393   3.599   0.645 -0.9623 -0.5189 -0.3350
 1477TIP3   OH2 4363   5.635   2.362   6.458 -1.1729 -0.1352 -0.3589
 1477TIP3    H1 4364   5.673   2.297   6.398 -0.4192 -1.3450  1.3974
 1477TIP3    H2 4365   5.682   2.349   6.540 -1.3742  2.3234  0.1610
 1478TIP3   OH2 4366   2.537   2.183   6.209 -0.4314  0.2427 -0.2288
 1478TIP3    H1 4367   2.493   2.217   6.131  1.9212  2.0625 -0.8073
 1478TIP3    H2 4368   2.466   2.170   6.272 -1.8730  2.7584 -1.2505
 1479TIP3   OH2 4369   4.395   6.738   0.898  0.1582  0.4939  0.0456
 1479TIP3    H1 4370   4.455   6.760   0.827 -0.3765  1.2010 -0.1954
 1479TIP3    H2 4371   4.446   6.682   0.957  1.8642  3.1758  1.1836
 1480TIP3   OH2 4372   3.514   5.876   1.340  0.2564  1.1444 -0.0777
 1480TIP3    H1 4373   3.478   5.805   1.286  0.3597  1.0216  0.0130
 1480TIP3    H2 4374   3.517   5.839   1.429 -1.8404  2.0561  0.3903
 1481TIP3   OH2 4375   5.129  -0.008   0.399 -1.2089  0.0909 -0.8778
 1481TIP3    H1 4376   5.075   0.066   0.427 -0.6221  0.5666 -0.9870
 1481TIP3    H2 4377   5.119  -0.011   0.304 -1.2079  0.0497 -0.8766
 1482TIP3   OH2 4378   3.182   6.442   0.392  0.2454  0.4528 -0.1074
 1482TIP3    H1 4379   3.248   6.470   0.329  0.6200  1.1244  0.5810
 1482TIP3    H2 4380   3.203   6.350   0.410 -0.7128 -0.1690 -2.0244
 1483TIP3   OH2 4381   3.979   5.524   1.048 -0.0741  0.5747  0.3518
 1483TIP3    H1 4382   4.072   5.516   1.068 -0.2029 -0.5994  0.5087
 1483TIP3    H2 4383   3.953   5.438   1.016 -1.5891  0.2699  2.3266
 1484TIP3   OH2 4384   4.494   5.871   0.342  0.0361  0.2465 -0.6294
 1484TIP3    H1 4385   4.459   5.959   0.329  0.0379  0.1031 -1.6433
 1484TIP3    H2 4386   4.498   5.834   0.254 -0.8392 -1.1079 -0.1091
 1485TIP3   OH2 4387   6.175   7.673   1.102 -0.0045 -0.1723  0.1514
 1485TIP3    H1 4388   6.211   7.745   1.153 -0.1459 -0.5631  0.8054
 1485TIP3    H2 4389   6.208   7.593   1.144 -3.3823 -0.6143  2.1633
 1486TIP3   OH2 4390   3.207   5.335   0.362 -0.0941 -0.2048  0.1601
 1486TIP3    H1 4391   3.228   5.355   0.453  0.3348 -0.0621  0.0305
 1486TIP3    H2 4392   3.234   5.413   0.314  1.0039 -0.8483 -0.2706
 1487TIP3   OH2 4393   1.364   1.545   6.815 -0.3959 -0.0985 -0.0874
 1487TIP3    H1 4394   1.425   1.617   6.800  0.0904 -0.5313 -0.2055
 1487TIP3    H2 4395   1.298   1.581   6.874 -0.0468  0.3860  0.0076
 1488TIP3   OH2 4396   3.951   3.679   1.432  0.3789  0.5463 -0.0646
 1488TIP3    H1 4397   3.935   3.616   1.361  0.8921  0.7363 -0.3534
 1488TIP3    H2 4398   4.026   3.644   1.479  2.9346  2.7092 -2.3464
 1489TIP3   OH2 4399   4.086   6.376   0.381  0.0558 -0.1781 -0.7125
 1489TIP3    H1 4400   4.042   6.398   0.463 -0.2268 -0.1242 -0.8767
 1489TIP3    H2 4401   4.014   6.360   0.319  0.2536 -1.1199 -0.7130
 1490TIP3   OH2 4402   2.530   5.365   0.778 -0.1350  0.1007 -0.5033
 1490TIP3    H1 4403   2.547   5.276   0.748 -0.1694 -0.1941  0.3283
 1490TIP3    H2 4404   2.589   5.377   0.853 -0.8344  0.4180  0.0054
 1491TIP3   OH2 4405   1.398   4.017   1.768 -0.0362  0.3765  0.5710
 1491TIP3    H1 4406   1.476   4.001   1.715  0.4099  1.1529  0.9918
 1491TIP3    H2 4407   1.382   3.933   1.812  0.4177  0.1450  0.2971
 1492TIP3   OH2 4408   1.508   2.621   1.312  0.0236 -0.1293 -0.4370
 1492TIP3    H1 4409   1.417   2.620   1.342  0.0141 -0.3938 -0.4785
 1492TIP3    H2 4410   1.529   2.530   1.295  1.1554 -0.4159  2.1865
 1493TIP3   OH2 4411   3.570   7.011   0.393  0.0119  0.4386 -0.6741
 1493TIP3    H1 4412   3.585   7.040   0.302 -1.2070  0.8558 -0.7524
 1493TIP3    H2 4413   3.550   7.092   0.440 -1.1271  0.0051 -0.4074
 1494TIP3   OH2 4414   4.338   4.285   1.098  0.2307 -0.1575  0.3639
 1494TIP3    H1 4415   4.410   4.254   1.152  0.7648  0.3679 -0.0304
 1494TIP3    H2 4416   4.379   4.348   1.038 -0.8191  1.3290  1.1705
 1495TIP3   OH2 4417   2.223   4.524   0.382  0.0038  0.1578  0.2123
 1495TIP3    H1 4418   2.179   4.564   0.306 -1.7604 -0.8762  0.6745
 1495TIP3    H2 4419   2.170   4.550   0.457  0.8759 -0.1028  0.9277
 1496TIP3   OH2 4420   1.196   0.891   6.761  0.4190  0.1313 -0.7307
 1496TIP3    H1 4421   1.181   0.982   6.735  3.5143  0.8081 -0.2924
 1496TIP3    H2 4422   1.249   0.854   6.691  0.8454 -0.7571  0.0450
 1497TIP3   OH2 4423   4.770   2.874   1.046 -0.3066 -0.5006 -0.5332
 1497TIP3    H1 4424   4.796   2.914   0.963 -0.4100 -1.8408 -1.2363
 1497TIP3    H2 4425   4.675   2.886   1.050 -0.0650  1.1961  0.2895
 1498TIP3   OH2 4426   3.104   6.265  -0.036  0.2268  0.0556 -0.1652
 1498TIP3    H1 4427   3.068   6.342   0.007 -2.2738 -0.4949 -1.1923
 1498TIP3    H2 4428   3.127   6.206   0.035 -1.1861  0.3092  0.5242
 1499TIP3   OH2 4429   4.407   6.978   5.095  0.1237  0.0354  0.1680
 1499TIP3    H1 4430   4.469   7.006   5.162  0.9491 -0.1386 -0.5154
 1499TIP3    H2 4431   4.436   7.023   5.015 -0.6919  0.0412 -0.1274
 1500TIP3   OH2 4432   7.740   0.108   6.540  0.8636 -0.0646 -0.7035
 1500TIP3    H1 4433   7.815   0.115   6.480  2.1946  0.3199  0.9636
 1500TIP3    H2 4434   7.674   0.061   6.490  1.9142  0.3170 -2.5059
 1501TIP3   OH2 4435   4.385   3.125   2.025 -0.6103 -0.4325 -0.2492
 1501TIP3    H1 4436   4.377   3.052   2.086 -0.8136  0.7334  1.1446
 1501TIP3    H2 4437   4.438   3.190   2.072 -0.2139  0.2180 -1.5620
 1502TIP3   OH2 4438   0.125   3.683   6.933 -0.0543 -0.3506  0.1839
 1502TIP3    H1 4439   0.042   3.644   6.904 -0.0951 -1.5810  1.8831
 1502TIP3    H2 4440   0.187   3.661   6.863 -0.6115 -1.4719  0.0237
 1503TIP3   OH2 4441   3.390   6.221   0.973 -0.1680 -0.1663 -0.4930
 1503TIP3    H1 4442   3.388   6.126   0.987 -1.0332 -0.0887 -0.0404
 1503TIP3    H2 4443   3.460   6.252   1.031  0.1480 -0.5338 -0.6767
 1504TIP3   OH2 4444   7.943   2.352   6.300  1.2306  0.0519  0.1706
 1504TIP3    H1 4445   7.959   2.436   6.257  0.6173 -0.5256 -1.2242
 1504TIP3    H2 4446   7.853   2.360   6.334  0.9379 -0.2682 -0.5215
 1505TIP3   OH2 4447   8.477   1.180   6.670  0.2766 -0.1965 -1.0765
 1505TIP3    H1 4448   8.420   1.186   6.593  1.0272 -1.8102 -1.7833
 1505TIP3    H2 4449   8.494   1.086   6.680 -1.4564 -0.2355  2.2767
 1506TIP3   OH2 4450   2.031   4.198   3.369  0.7385  0.6767 -0.6537
 1506TIP3    H1 4451   2.026   4.187   3.464 -1.8693  1.0978 -0.7038
 1506TIP3    H2 4452   2.015   4.111   3.333  1.3858  0.5845 -0.7314
 1507TIP3   OH2 4453   4.008   3.831   2.003 -0.6062 -0.1157  0.1659
 1507TIP3    H1 4454   3.990   3.745   1.964 -0.4430 -0.2657  0.4157
 1507TIP3    H2 4455   4.030   3.811   2.094 -1.4630  0.2717  0.4674
 1508TIP3   OH2 4456   4.307   6.554   1.179 -0.1040  0.0282  0.6004
 1508TIP3    H1 4457   4.394   6.574   1.145 -1.5478  2.4372 -1.8745
 1508TIP3    H2 4458   4.302   6.599   1.263  1.4310 -1.1153  1.3172
 1509TIP3   OH2 4459   2.087   3.097   6.163  0.1494 -0.3066 -0.4784
 1509TIP3    H1 4460   2.075   3.191   6.154 -0.0548 -0.2098  0.7578
 1509TIP3    H2 4461   2.137   3.072   6.085  0.0051  0.7750 -0.9327
 1510TIP3   OH2 4462   0.314   0.816   6.401 -0.3287 -0.5225 -0.3021
 1510TIP3    H1 4463   0.221   0.820   6.423 -0.1834  1.2239  0.1029
 1510TIP3    H2 4464   0.358   0.820   6.486  0.1204 -1.3937 -0.4929
 1511TIP3   OH2 4465   1.526   1.452   6.432 -0.4876  0.1146 -0.2028
 1511TIP3    H1 4466   1.528   1.357   6.439 -1.8200 -0.2361 -3.5475
 1511TIP3    H2 4467   1.433   1.473   6.420 -0.1452  1.7913 -0.0118
 1512TIP3   OH2 4468   1.471   3.655   1.540 -0.4953 -0.6616  0.1182
 1512TIP3    H1 4469   1.547   3.666   1.483  0.3314 -0.3887  1.2653
 1512TIP3    H2 4470   1.473   3.563   1.566 -1.2638 -0.9575 -0.8161
 1513TIP3   OH2 4471   4.348   5.494   1.493  0.0440 -0.4447 -0.0508
 1513TIP3    H1 4472   4.311   5.582   1.480 -0.7324 -0.7748 -0.1236
 1513TIP3    H2 4473   4.407   5.482   1.418 -0.0407 -0.0826 -0.1795
 1514TIP3   OH2 4474   8.477   2.821   6.038  0.4246 -0.3906  0.2889
 1514TIP3    H1 4475   8.483   2.901   5.985  2.3059 -1.5667 -1.3473
 1514TIP3    H2 4476   8.393   2.782   6.013  1.3216 -0.9813 -1.9889
 1515TIP3   OH2 4477   4.622   6.234   0.232  0.2611 -0.4072 -0.0039
 1515TIP3    H1 4478   4.659   6.216   0.319  2.0721 -1.1915 -0.9034
 1515TIP3    H2 4479   4.536   6.192   0.234 -0.3742  0.9166  1.9319
 1516TIP3   OH2 4480   2.816   5.027   0.376  0.5405 -0.3051  0.1525
 1516TIP3    H1 4481   2.779   4.976   0.449 -0.0219 -0.1425 -0.0118
 1516TIP3    H2 4482   2.805   5.118   0.403  1.2068 -0.2652  0.2829
 1517TIP3   OH2 4483   7.513   1.522   6.358 -0.5562  0.7213 -0.3300
 1517TIP3    H1 4484   7.524   1.429   6.375 -0.6329  0.7653 -0.0457
 1517TIP3    H2 4485   7.600   1.552   6.330 -0.4844  0.6069 -0.2291
 1518TIP3   OH2 4486   3.568   5.833   2.389 -0.3580 -0.6578  0.5410
 1518TIP3    H1 4487   3.660   5.858   2.396  0.1054 -1.4200 -2.1213
 1518TIP3    H2 4488   3.560   5.756   2.446  0.0669  0.7230  2.5461
 1519TIP3   OH2 4489   1.867   3.158   6.583  0.2328 -0.2960  0.1451
 1519TIP3    H1 4490   1.790   3.115   6.546 -0.5151  0.6433  0.5705
 1519TIP3    H2 4491   1.854   3.152   6.678  0.4861  0.2111  0.2120
 1520TIP3   OH2 4492   2.860   5.518   0.566 -0.3504  0.3390 -0.2341
 1520TIP3    H1 4493   2.826   5.606   0.585  0.8987  1.3325 -2.3041
 1520TIP3    H2 4494   2.935   5.534   0.509 -0.0216 -2.0944 -0.5351
 1521TIP3   OH2 4495   2.934   6.333   2.647  0.3184 -0.3403  0.4158
 1521TIP3    H1 4496   2.931   6.260   2.585 -0.4673 -1.4341  1.7018
 1521TIP3    H2 4497   2.976   6.296   2.725  2.6608  1.4217  0.0459
 1522TIP3   OH2 4498   4.793   5.878   1.120  0.4691  0.2909  0.1752
 1522TIP3    H1 4499   4.710   5.852   1.160 -0.8830  0.4081 -2.4477
 1522TIP3    H2 4500   4.859   5.824   1.164 -1.0960 -0.4778  1.6440
 1523TIP3   OH2 4501   2.693   2.923   1.740  0.2876  0.1393  0.2171
 1523TIP3    H1 4502   2.711   2.867   1.665 -0.1630 -0.7848  0.7983
 1523TIP3    H2 4503   2.699   3.012   1.705 -1.2472 -0.3046 -1.2152
 1524TIP3   OH2 4504   0.121   3.830   6.088  0.1608  0.3721 -0.1396
 1524TIP3    H1 4505   0.168   3.789   6.161  0.6893 -0.0825 -0.7280
 1524TIP3    H2 4506   0.073   3.902   6.128 -1.4395 -1.3144  1.0683
 1525TIP3   OH2 4507   7.970   0.015   5.670  0.8078 -0.2392 -0.2189
 1525TIP3    H1 4508   8.000   0.057   5.589 -1.1286  0.4822 -0.5982
 1525TIP3    H2 4509   7.943   0.088   5.726 -0.6854 -0.8596 -0.1020
 1526TIP3   OH2 4510   0.560   0.837   5.647  0.1207  0.3472  0.2025
 1526TIP3    H1 4511   0.643   0.789   5.646 -0.9234 -1.5182 -0.8607
 1526TIP3    H2 4512   0.522   0.818   5.733  0.5735  0.8122  0.5066
 1527TIP3   OH2 4513   0.961   3.497   0.186  0.1923 -0.1499 -0.3379
 1527TIP3    H1 4514   1.010   3.416   0.199  0.3735  0.0785  0.4257
 1527TIP3    H2 4515   0.983   3.524   0.097  2.5184  0.6635  0.4535
 1528TIP3   OH2 4516   4.830   7.702   4.850 -0.5445  0.4377 -0.6100
 1528TIP3    H1 4517   4.734   7.704   4.849 -0.5508  2.5908  0.6956
 1528TIP3    H2 4518   4.856   7.773   4.792  0.2519  0.3049 -0.4172
 1529TIP3   OH2 4519   5.289   4.274   1.602  0.3665  0.2467  0.6595
 1529TIP3    H1 4520   5.251   4.243   1.519  2.8313 -0.5464 -0.2211
 1529TIP3    H2 4521   5.288   4.370   1.594  1.0501  0.1768 -0.5464
 1530TIP3   OH2 4522   7.314   0.295   4.474  0.7054  0.1431  0.1640
 1530TIP3    H1 4523   7.282   0.287   4.564  0.5962  0.5617  0.1617
 1530TIP3    H2 4524   7.321   0.389   4.459 -0.0812  0.0976 -0.5469
 1531TIP3   OH2 4525   1.806   2.803   1.166  0.2230 -0.6243 -0.2423
 1531TIP3    H1 4526   1.739   2.807   1.097 -1.5985  0.5647  1.5208
 1531TIP3    H2 4527   1.823   2.709   1.177  0.4877 -0.8361 -2.2266
 1532TIP3   OH2 4528   3.846   5.159   0.144  0.1148  0.1553  0.9311
 1532TIP3    H1 4529   3.823   5.078   0.099  0.3480  0.7516 -0.2736
 1532TIP3    H2 4530   3.858   5.133   0.235  4.6288 -2.0553 -0.1280
 1533TIP3   OH2 4531   1.870   2.658   5.718  0.6597 -0.2167  1.0462
 1533TIP3    H1 4532   1.861   2.735   5.774  1.6837 -0.6781  1.8884
 1533TIP3    H2 4533   1.965   2.645   5.710  0.5123 -0.6182 -0.1711
 1534TIP3   OH2 4534   5.572   7.130   3.429 -0.0462  0.1761  0.3613
 1534TIP3    H1 4535   5.499   7.086   3.471  0.7490 -0.9780  0.5662
 1534TIP3    H2 4536   5.537   7.214   3.399 -1.5505 -0.5451  0.0891
 1535TIP3   OH2 4537   1.740   0.846   6.196 -0.7337 -0.1893 -0.2508
 1535TIP3    H1 4538   1.827   0.825   6.230 -0.9579 -0.6370  0.0532
 1535TIP3    H2 4539   1.742   0.812   6.106  0.6186  2.9666 -1.5011
 1536TIP3   OH2 4540   1.903   3.693   0.940  0.0047  0.0321 -0.0536
 1536TIP3    H1 4541   1.981   3.642   0.919  0.1513 -0.0467  0.6743
 1536TIP3    H2 4542   1.833   3.650   0.892  0.1252 -0.8802  0.5813
 1537TIP3   OH2 4543   7.858   0.945   6.813 -0.5164 -0.3045 -0.0062
 1537TIP3    H1 4544   7.915   0.958   6.738 -0.8670  1.1736 -0.0324
 1537TIP3    H2 4545   7.917   0.926   6.886 -0.0815 -0.0563 -0.2970
 1538TIP3   OH2 4546   3.082   4.751   2.990  0.3590  0.3609 -0.5193
 1538TIP3    H1 4547   3.100   4.789   3.076 -1.0290  0.3582 -0.2204
 1538TIP3    H2 4548   3.027   4.816   2.947  0.4172  0.0128 -1.1195
 1539TIP3   OH2 4549   7.944   3.475   6.191 -0.0018 -0.4109  0.2035
 1539TIP3    H1 4550   7.869   3.416   6.182  1.5976 -2.6253  1.0974
 1539TIP3    H2 4551   8.020   3.417   6.190  1.7313  1.8230 -0.8657
 1540TIP3   OH2 4552   3.256   6.316   1.334 -0.0972  0.1282 -0.3814
 1540TIP3    H1 4553   3.333   6.357   1.373  0.3741 -0.6984 -0.4255
 1540TIP3    H2 4554   3.182   6.365   1.368  0.4800  1.2775 -0.7659
 1541TIP3   OH2 4555   1.685   5.769   2.478 -0.2429  0.1168 -0.4780
 1541TIP3    H1 4556   1.599   5.727   2.475 -1.5334  2.3560  2.5129
 1541TIP3    H2 4557   1.693   5.814   2.394 -2.3059  0.4198 -0.5452
 1542TIP3   OH2 4558   1.908   5.335   3.991  0.0955  0.0181  0.4942
 1542TIP3    H1 4559   1.959   5.357   4.069  0.2274  1.2502  0.0680
 1542TIP3    H2 4560   1.972   5.329   3.920 -0.1891  0.3163  0.2077
 1543TIP3   OH2 4561   3.616   5.021   2.438 -0.5581  0.4765  0.3807
 1543TIP3    H1 4562   3.602   5.066   2.354  1.1160 -0.1493 -0.2450
 1543TIP3    H2 4563   3.592   4.929   2.420 -0.5247  0.4069  0.6860
 1544TIP3   OH2 4564   3.287   5.512   0.181  0.4709  0.0888 -0.1573
 1544TIP3    H1 4565   3.358   5.461   0.142  0.0626 -0.7234  0.1528
 1544TIP3    H2 4566   3.233   5.540   0.107  1.5563  1.4092 -0.4762
 1545TIP3   OH2 4567   1.324   3.722   0.089 -0.2551 -0.7348 -0.4068
 1545TIP3    H1 4568   1.309   3.658   0.020  1.7151  0.2339 -1.7463
 1545TIP3    H2 4569   1.278   3.686   0.165 -1.5063 -2.3455 -1.8978
 1546TIP3   OH2 4570   3.281   5.171   0.584  0.3792  0.4288 -0.1469
 1546TIP3    H1 4571   3.187   5.156   0.576  0.2496  0.4123  1.3479
 1546TIP3    H2 4572   3.321   5.089   0.554 -0.1477 -0.3325  1.1757
 1547TIP3   OH2 4573   4.451   7.056   0.713 -0.3723  1.1395  0.4502
 1547TIP3    H1 4574   4.524   7.043   0.773 -0.2048  3.2170  0.7568
 1547TIP3    H2 4575   4.489   7.046   0.625 -0.6391 -1.9927  0.6629
 1548TIP3   OH2 4576   4.058   7.463   2.842 -0.2054  0.2990  0.2764
 1548TIP3    H1 4577   4.134   7.464   2.783  1.2571 -2.9724  1.9824
 1548TIP3    H2 4578   4.014   7.380   2.823 -2.5842  1.5038  0.3357
 1549TIP3   OH2 4579   2.172   5.478   3.505  0.3607  0.4854  0.0019
 1549TIP3    H1 4580   2.097   5.419   3.514  0.1285  0.7259 -0.3001
 1549TIP3    H2 4581   2.222   5.467   3.585 -0.0197  0.3462  0.2221
 1550TIP3   OH2 4582   0.677   3.111   6.707  0.6183  0.1058 -0.1537
 1550TIP3    H1 4583   0.654   3.075   6.793 -1.9879  0.8575 -0.5101
 1550TIP3    H2 4584   0.609   3.174   6.687  0.4622 -0.9497 -3.3484
 1551TIP3   OH2 4585   4.345   5.439   0.454  0.2050  0.3125 -0.1144
 1551TIP3    H1 4586   4.360   5.345   0.454 -0.0951  0.2634 -0.0029
 1551TIP3    H2 4587   4.395   5.472   0.380 -0.0485  0.0088 -0.4187
 1552TIP3   OH2 4588   2.973   4.228   0.137  0.0227  0.1504 -0.1644
 1552TIP3    H1 4589   3.055   4.201   0.097 -0.4852  0.0632 -1.1604
 1552TIP3    H2 4590   2.936   4.147   0.172 -0.3060 -0.0505 -0.9571
 1553TIP3   OH2 4591   4.950   5.757   1.314  0.5579 -0.2157  0.4459
 1553TIP3    H1 4592   4.990   5.835   1.353  1.0703 -0.0310 -0.4333
 1553TIP3    H2 4593   5.025   5.707   1.280 -0.0212  0.5850 -2.0536
 1554TIP3   OH2 4594   3.481   5.340   0.086  0.2006  0.3096 -0.0309
 1554TIP3    H1 4595   3.566   5.380   0.071  0.6999 -0.4278  0.7915
 1554TIP3    H2 4596   3.495   5.280   0.160 -0.9360 -0.0865 -0.1253
 1555TIP3   OH2 4597   0.670   1.575   6.134  0.2612  0.3703  0.0279
 1555TIP3    H1 4598   0.635   1.498   6.180  1.7258 -0.6359 -0.4746
 1555TIP3    H2 4599   0.619   1.649   6.168 -2.0775 -0.9703 -0.4383
 1556TIP3   OH2 4600   4.098   4.996   0.733  0.1671  0.1730  0.0569
 1556TIP3    H1 4601   4.010   4.957   0.736 -0.2912  1.1481 -0.4580
 1556TIP3    H2 4602   4.145   4.956   0.806 -0.6002 -0.6095  0.1290
 1557TIP3   OH2 4603   5.319   6.400   1.647  0.4868 -0.7538  0.0470
 1557TIP3    H1 4604   5.329   6.340   1.572  0.4693  1.5824 -1.8875
 1557TIP3    H2 4605   5.367   6.479   1.620 -2.0535  1.2325  1.2516
 1558TIP3   OH2 4606   0.680   6.237   0.324  0.3522  0.1207  0.3257
 1558TIP3    H1 4607   0.675   6.256   0.230  1.5640  2.8029  0.7591
 1558TIP3    H2 4608   0.607   6.284   0.362  0.5525 -0.0044  0.8713
 1559TIP3   OH2 4609   4.787   5.194   0.451  0.4246  0.5560 -0.1169
 1559TIP3    H1 4610   4.700   5.206   0.414  1.0829 -0.2923 -1.9861
 1559TIP3    H2 4611   4.817   5.109   0.418  2.5497  1.5080 -0.7630
 1560TIP3   OH2 4612   4.371   5.544   2.430  0.0118 -0.4757 -0.1160
 1560TIP3    H1 4613   4.389   5.529   2.337  1.2223  0.0677  0.0147
 1560TIP3    H2 4614   4.283   5.580   2.432 -0.0108 -0.4694 -1.0634
 1561TIP3   OH2 4615   0.175   1.802   6.792 -0.9856  0.1024 -0.1503
 1561TIP3    H1 4616   0.213   1.886   6.768 -1.3595  0.4926  0.6298
 1561TIP3    H2 4617   0.251   1.744   6.800 -0.5538  0.8440  1.2357
 1562TIP3   OH2 4618   2.642   5.671   1.768  0.0101  0.1300 -0.3369
 1562TIP3    H1 4619   2.683   5.601   1.717 -1.2948 -0.8734 -0.0311
 1562TIP3    H2 4620   2.593   5.625   1.836 -0.1526  1.3832  0.4081
 1563TIP3   OH2 4621   0.107   1.433   6.681 -0.0553  0.6071 -0.2848
 1563TIP3    H1 4622   0.108   1.339   6.666 -0.9726  0.4028  0.8977
 1563TIP3    H2 4623   0.196   1.454   6.710 -0.1498 -0.0830  0.5299
 1564TIP3   OH2 4624   2.534   6.739   0.853 -0.5745 -0.5612 -0.5509
 1564TIP3    H1 4625   2.577   6.730   0.938 -0.8183 -0.8580 -0.4577
 1564TIP3    H2 4626   2.553   6.828   0.826  0.3708 -0.7935 -0.6596
 1565TIP3   OH2 4627   7.607   0.623   3.319  0.6311  0.5673 -0.4210
 1565TIP3    H1 4628   7.693   0.623   3.360 -0.1604  1.9994  1.2972
 1565TIP3    H2 4629   7.577   0.533   3.325  0.7318  0.6694  1.6999
 1566TIP3   OH2 4630   1.106   1.279   5.028 -0.1687  0.5157 -0.0181
 1566TIP3    H1 4631   1.092   1.184   5.028 -1.1203  0.6469  0.7252
 1566TIP3    H2 4632   1.201   1.289   5.033 -0.0190 -0.4019 -0.8856
 1567TIP3   OH2 4633   4.304   6.173   1.113 -0.3824  0.0724 -0.4913
 1567TIP3    H1 4634   4.362   6.248   1.100 -0.1775  0.0420  0.2372
 1567TIP3    H2 4635   4.288   6.171   1.207 -1.2819 -0.1358 -0.6410
 1568TIP3   OH2 4636   3.683   7.934   0.590 -0.1308 -0.0992  0.0212
 1568TIP3    H1 4637   3.636   8.018   0.584 -0.6672 -0.4953 -1.8443
 1568TIP3    H2 4638   3.712   7.917   0.500  1.5671 -1.0215  0.7230
 1569TIP3   OH2 4639   2.797   2.707   1.525  0.3462  0.4860  0.2191
 1569TIP3    H1 4640   2.856   2.773   1.488  2.0195  0.6312  2.9485
 1569TIP3    H2 4641   2.855   2.638   1.557 -1.2364 -1.1682 -0.4243
 1570TIP3   OH2 4642   5.164   5.006   1.846  0.4060  0.3143  0.0225
 1570TIP3    H1 4643   5.203   5.066   1.782  3.3547 -0.9438  0.5693
 1570TIP3    H2 4644   5.198   5.035   1.930 -1.5030  0.4291  0.7683
 1571TIP3   OH2 4645   4.120   6.246   0.905  0.3836 -0.4013 -0.3819
 1571TIP3    H1 4646   4.176   6.232   0.981  0.5723  0.7870 -0.2890
 1571TIP3    H2 4647   4.132   6.168   0.851  0.1844 -1.2864  0.8473
 1572TIP3   OH2 4648   4.108   4.793   0.059 -0.0113 -0.1146  0.2266
 1572TIP3    H1 4649   4.091   4.855  -0.012  0.0254 -0.4663 -0.0875
 1572TIP3    H2 4650   4.189   4.824   0.099  0.0281  0.0149  0.0474
 1573TIP3   OH2 4651   3.395   4.877   0.053  0.3292  0.6706  0.3155
 1573TIP3    H1 4652   3.321   4.938   0.051 -1.8816 -1.9564 -1.2898
 1573TIP3    H2 4653   3.384   4.829   0.135 -0.7733 -0.8798 -0.7112
 1574TIP3   OH2 4654   6.408   4.578   0.505 -0.3249 -0.3270  0.0023
 1574TIP3    H1 4655   6.427   4.499   0.454 -1.3136 -1.2443  1.0474
 1574TIP3    H2 4656   6.320   4.565   0.538  0.0320  0.5910  1.3456
 1575TIP3   OH2 4657   4.285   6.779   0.242  0.1496 -0.2377 -0.5826
 1575TIP3    H1 4658   4.374   6.812   0.252 -0.0473  0.2432 -0.3763
 1575TIP3    H2 4659   4.295   6.693   0.201  0.8172 -1.0564  1.2640
 1576TIP3   OH2 4660   3.159   0.070   6.903 -0.1463  0.0236 -0.4637
 1576TIP3    H1 4661   3.175   0.150   6.853  0.7391  0.1021 -0.0648
 1576TIP3    H2 4662   3.098   0.097   6.972  0.7910  0.5672  0.1816
 1577TIP3   OH2 4663   2.484   3.521   1.795 -0.2803  0.2894  0.4043
 1577TIP3    H1 4664   2.522   3.590   1.742 -0.2864  0.2843  0.3938
 1577TIP3    H2 4665   2.531   3.442   1.769 -0.9299  0.1248 -0.2608
 1578TIP3   OH2 4666   2.488   2.880   1.924 -1.0035  0.6328 -0.1592
 1578TIP3    H1 4667   2.557   2.884   1.857 -0.1326 -0.3291  0.6767
 1578TIP3    H2 4668   2.414   2.838   1.879 -0.2633 -0.4486 -0.3972
 1579TIP3   OH2 4669   2.757   5.772   2.170 -0.3090  0.0367 -0.4473
 1579TIP3    H1 4670   2.753   5.788   2.076 -2.0986  0.9736 -0.2368
 1579TIP3    H2 4671   2.742   5.678   2.179  5.6622 -1.1924 -1.4090
 1580TIP3   OH2 4672   5.080   5.003  -0.003  0.1842  0.1069  0.2433
 1580TIP3    H1 4673   4.985   5.010   0.002  0.2909  1.0349  0.9321
 1580TIP3    H2 4674   5.097   4.909   0.003 -0.8289 -0.2932 -2.4028
 1581TIP3   OH2 4675   4.637   5.995   1.797 -0.3919  0.3446  0.0371
 1581TIP3    H1 4676   4.655   6.077   1.751 -1.1358  1.0307  0.9628
 1581TIP3    H2 4677   4.655   6.015   1.889  1.7023 -1.1883 -0.0023
 1582TIP3   OH2 4678   5.360   5.280   0.892 -0.4274  0.8905  0.7885
 1582TIP3    H1 4679   5.381   5.371   0.872  0.4035  0.3985 -0.6502
 1582TIP3    H2 4680   5.331   5.244   0.808 -2.4061  0.2794  1.7256
 1583TIP3   OH2 4681   2.862   5.064   1.049 -0.2843  0.2107  0.3990
 1583TIP3    H1 4682   2.873   5.038   0.958 -1.4008  0.2421  0.2521
 1583TIP3    H2 4683   2.918   5.141   1.059 -1.6379  1.3473 -0.7642
 1584TIP3   OH2 4684   2.706   5.470   3.331  0.3374  0.1878 -0.5294
 1584TIP3    H1 4685   2.714   5.392   3.277  1.3837 -1.1285  1.4581
 1584TIP3    H2 4686   2.612   5.482   3.343  0.0646  0.8209 -3.0374
 1585TIP3   OH2 4687   3.385   4.950   1.524 -0.3688 -0.1431 -0.5165
 1585TIP3    H1 4688   3.372   4.955   1.619  0.1816 -0.7169 -0.4073
 1585TIP3    H2 4689   3.318   5.008   1.487  1.0909  2.1086  0.3441
 1586TIP3   OH2 4690   3.232   5.796   2.583 -0.5635 -0.6405 -0.2293
 1586TIP3    H1 4691   3.310   5.843   2.553 -0.3546 -0.8987 -0.0837
 1586TIP3    H2 4692   3.165   5.818   2.518  0.2001 -2.1561 -1.5431
 1587TIP3   OH2 4693   2.826   3.688   2.243  0.2668 -0.2508  0.0948
 1587TIP3    H1 4694   2.898   3.704   2.183 -0.1994 -0.0652 -0.4221
 1587TIP3    H2 4695   2.808   3.775   2.281 -0.5842 -0.0268 -0.8033
 1588TIP3   OH2 4696   2.777   5.457   1.127  0.5966 -0.0122 -0.8289
 1588TIP3    H1 4697   2.792   5.462   1.033 -1.6377  1.3015 -1.1551
 1588TIP3    H2 4698   2.705   5.394   1.137  0.4444  0.2747 -0.0630
 1589TIP3   OH2 4699   2.105   4.237   0.075  0.1564 -0.1717  0.1766
 1589TIP3    H1 4700   2.117   4.170   0.007  2.0018 -0.2051  0.5300
 1589TIP3    H2 4701   2.080   4.315   0.026  0.8456 -0.3636 -0.4975
 1590TIP3   OH2 4702   3.556   6.733   0.319 -0.3770  0.4946 -0.5227
 1590TIP3    H1 4703   3.646   6.726   0.287  0.4110 -0.3121  1.7890
 1590TIP3    H2 4704   3.550   6.821   0.354 -0.7046  0.7717 -1.2599
 1591TIP3   OH2 4705   0.705   1.393   4.766 -0.1601  0.1438 -1.0273
 1591TIP3    H1 4706   0.668   1.399   4.678 -0.4386  0.8325 -0.8713
 1591TIP3    H2 4707   0.641   1.439   4.822 -0.2020 -0.6541 -0.4021
 1592TIP3   OH2 4708   2.969   4.958   0.822 -0.1541 -0.0293  0.2691
 1592TIP3    H1 4709   2.990   4.923   0.735 -0.2167  0.2455  0.1411
 1592TIP3    H2 4710   3.045   4.936   0.875  0.9487  1.8948 -0.4636
 1593TIP3   OH2 4711   3.783   5.933   1.341  0.1951  0.7267  0.3159
 1593TIP3    H1 4712   3.832   5.940   1.423 -0.1864 -0.9109  0.7160
 1593TIP3    H2 4713   3.705   5.882   1.364  0.3362 -0.1866 -1.1568
 1594TIP3   OH2 4714   1.769   5.139   0.377 -0.1183 -0.1904  0.2146
 1594TIP3    H1 4715   1.702   5.137   0.445 -1.3185 -0.9936 -0.9526
 1594TIP3    H2 4716   1.768   5.229   0.344  0.1851  0.0920  0.9739
 1595TIP3   OH2 4717   7.715   2.861   6.862  0.2094 -0.3174 -0.2389
 1595TIP3    H1 4718   7.753   2.920   6.927  1.0680 -1.3880  0.2589
 1595TIP3    H2 4719   7.713   2.775   6.905 -0.5924 -0.7509 -1.1013
 1596TIP3   OH2 4720   2.627   5.468   0.064  0.6199 -0.4466  0.0668
 1596TIP3    H1 4721   2.650   5.514   0.145  1.2618  0.2972 -0.5302
 1596TIP3    H2 4722   2.661   5.379   0.076  1.2898 -0.1511  0.3482
 1597TIP3   OH2 4723   4.744   4.717   0.964 -0.1427  0.1220  0.6103
 1597TIP3    H1 4724   4.748   4.806   0.927  1.6459  0.5220  1.6898
 1597TIP3    H2 4725   4.699   4.727   1.048 -1.7929 -0.3489 -0.1983
 1598TIP3   OH2 4726   3.575   5.156   0.244 -0.3803  0.2776  0.9331
 1598TIP3    H1 4727   3.649   5.105   0.209 -0.7741  0.0627  0.4177
 1598TIP3    H2 4728   3.551   5.109   0.324 -0.9176 -0.5113  0.3199
 1599TIP3   OH2 4729   4.062   6.615   0.646  0.3716  0.1750 -0.0676
 1599TIP3    H1 4730   4.011   6.601   0.726  1.3814  1.2959  0.7940
 1599TIP3    H2 4731   4.009   6.677   0.594 -0.9188 -1.5819 -0.8917
 1600TIP3   OH2 4732   0.103   0.749   6.892  0.6850  0.4051  0.5718
 1600TIP3    H1 4733   0.056   0.784   6.967  2.1736  1.9079  0.8148
 1600TIP3    H2 4734   0.117   0.657   6.913 -0.9688  0.2600  1.0849
 1601TIP3   OH2 4735   3.167   5.404   1.492  1.0699 -0.1728  0.8144
 1601TIP3    H1 4736   3.221   5.482   1.500  2.6737 -1.0221 -1.1638
 1601TIP3    H2 4737   3.090   5.433   1.443  1.1691  0.4066  1.0041
 1602TIP3   OH2 4738   4.225   4.718   0.895  0.4034 -0.1809  0.4994
 1602TIP3    H1 4739   4.140   4.737   0.933 -0.5090 -0.3220 -1.4250
 1602TIP3    H2 4740   4.270   4.802   0.892 -0.4555  0.2496 -0.3559
 1603TIP3   OH2 4741   2.839   3.693   0.587 -0.3740  0.4610 -0.0741
 1603TIP3    H1 4742   2.841   3.757   0.658 -1.9428  0.2035  0.2243
 1603TIP3    H2 4743   2.863   3.743   0.509  1.9783  0.6106  0.7200
 1604TIP3   OH2 4744   0.028   0.061   6.438 -0.3358  0.6508  0.2639
 1604TIP3    H1 4745   0.058   0.043   6.527 -2.1365 -1.3083  0.5201
 1604TIP3    H2 4746   0.017   0.156   6.435  1.7082  0.9472  1.4717
 1605TIP3   OH2 4747   0.521   1.182   6.823  0.5344  0.5604 -0.4051
 1605TIP3    H1 4748   0.575   1.223   6.891 -0.8285 -2.1697  2.4360
 1605TIP3    H2 4749   0.579   1.117   6.782  0.1280 -0.7135  1.0232
 1606TIP3   OH2 4750   3.428   2.706   1.715  0.2714 -0.4136  0.5995
 1606TIP3    H1 4751   3.412   2.791   1.674 -1.5787 -0.6685  0.7265
 1606TIP3    H2 4752   3.372   2.707   1.793  0.4695 -1.6226  0.7626
 1607TIP3   OH2 4753   1.583   4.659   0.263  0.0007 -0.5219 -0.5664
 1607TIP3    H1 4754   1.531   4.738   0.247  1.7267  0.7482 -0.0053
 1607TIP3    H2 4755   1.592   4.619   0.177 -1.0869 -0.2379 -0.8210
 1608TIP3   OH2 4756   4.356   5.351   1.736 -0.4251 -0.0842  0.4334
 1608TIP3    H1 4757   4.306   5.274   1.709  0.8138 -1.0639  0.8765
 1608TIP3    H2 4758   4.376   5.396   1.654 -1.4417 -0.0579  0.1988
 1609TIP3   OH2 4759   5.636   4.023   0.600 -0.0281  0.0381 -0.0346
 1609TIP3    H1 4760   5.605   4.065   0.680 -2.4824 -1.6417 -0.0626
 1609TIP3    H2 4761   5.559   3.980   0.564  1.3900 -0.5181 -2.5116
 1610TIP3   OH2 4762   4.348   3.861   1.042 -0.1517 -0.1644  0.0528
 1610TIP3    H1 4763   4.436   3.851   1.006  0.2714  0.6668  0.8410
 1610TIP3    H2 4764   4.313   3.772   1.045  0.6518 -0.4981 -0.2778
 1611TIP3   OH2 4765   3.916   1.587   5.184  0.3967 -0.1300  0.7796
 1611TIP3    H1 4766   3.873   1.571   5.100  0.1282 -0.9479  1.0741
 1611TIP3    H2 4767   3.929   1.500   5.222 -1.7006  0.3443  2.6881
 1612TIP3   OH2 4768   5.138   4.419   1.891  0.2547 -0.0179 -0.2866
 1612TIP3    H1 4769   5.211   4.380   1.940 -0.1827  1.5295  1.6520
 1612TIP3    H2 4770   5.170   4.505   1.865 -1.0761  0.9506  1.1768
 1613TIP3   OH2 4771   8.417   1.910   6.836 -0.0485 -0.1783  0.3668
 1613TIP3    H1 4772   8.509   1.890   6.820 -0.2549 -0.9959  0.1510
 1613TIP3    H2 4773   8.406   1.900   6.930 -0.0485 -0.7027  0.3169
 1614TIP3   OH2 4774   2.221   4.183   0.695 -0.0012  0.3997  0.0826
 1614TIP3    H1 4775   2.174   4.127   0.757  1.3167 -0.7222  0.1012
 1614TIP3    H2 4776   2.312   4.158   0.705  0.3678  1.0849 -1.4456
 1615TIP3   OH2 4777   4.351   6.915   1.118 -0.5949 -0.2326  0.1283
 1615TIP3    H1 4778   4.261   6.935   1.143 -1.0376  0.0663 -1.6614
 1615TIP3    H2 4779   4.344   6.837   1.062  0.2405 -0.1135 -0.1487
 1616TIP3   OH2 4780   4.279   5.716   0.173  0.0489  0.0928 -0.6430
 1616TIP3    H1 4781   4.267   5.747   0.262 -1.9599  0.0491 -0.8859
 1616TIP3    H2 4782   4.346   5.647   0.180  0.7358  0.8746  0.6361
 1617TIP3   OH2 4783   6.234   5.151   0.253  0.0008 -0.4067 -0.5619
 1617TIP3    H1 4784   6.297   5.208   0.209  1.8621 -1.6444  0.4174
 1617TIP3    H2 4785   6.248   5.065   0.213 -0.7037 -0.8070  0.0414
 1618TIP3   OH2 4786   0.550   1.250   6.154 -0.3349 -0.0318 -0.1221
 1618TIP3    H1 4787   0.627   1.232   6.100 -1.2035 -0.4785 -1.2247
 1618TIP3    H2 4788   0.518   1.163   6.180 -1.2107  0.1021 -0.7321
 1619TIP3   OH2 4789   2.684   2.010   6.489 -0.2179 -0.0014  0.3414
 1619TIP3    H1 4790   2.657   1.921   6.468  1.8984 -0.8035  0.9616
 1619TIP3    H2 4791   2.716   2.045   6.406  2.0725 -0.9690  0.7955
 1620TIP3   OH2 4792   6.905   6.215   0.526  0.3102 -0.2795  0.4595
 1620TIP3    H1 4793   6.841   6.198   0.595  1.1712  1.6902  1.7937
 1620TIP3    H2 4794   6.989   6.219   0.571  0.7769  1.9777 -0.5170
 1621TIP3   OH2 4795   3.858   5.149   1.696  0.3010  0.0699  0.6523
 1621TIP3    H1 4796   3.931   5.112   1.647  1.1040  0.0252  1.8494
 1621TIP3    H2 4797   3.899   5.191   1.772 -0.9691 -0.6991  1.7915
 1622TIP3   OH2 4798   1.572   2.031   6.850  0.0678 -0.1162  0.4309
 1622TIP3    H1 4799   1.627   2.070   6.918 -2.0755 -0.6001  2.4794
 1622TIP3    H2 4800   1.501   2.093   6.837  0.9638  0.4577 -2.1476
 1623TIP3   OH2 4801   2.468   1.965   6.844 -0.1192  0.1974 -0.0675
 1623TIP3    H1 4802   2.391   1.960   6.900  0.5627  1.9368  1.0499
 1623TIP3    H2 4803   2.539   1.927   6.896  0.0983 -0.0499 -0.5350
 1624TIP3   OH2 4804   2.176   1.969   5.197 -0.0294  0.1787 -0.1574
 1624TIP3    H1 4805   2.256   1.999   5.241  0.2516  0.6614 -0.9874
 1624TIP3    H2 4806   2.178   1.874   5.209  1.1309  0.0911 -0.9165
 1625TIP3   OH2 4807   1.157   1.648   5.487  0.0376  0.4455 -0.3418
 1625TIP3    H1 4808   1.217   1.697   5.431 -0.7709  0.9949 -0.7374
 1625TIP3    H2 4809   1.087   1.710   5.508 -0.3659 -0.1677  0.1576
 1626TIP3   OH2 4810   7.775   5.335   1.702  0.2854 -0.4919 -0.0891
 1626TIP3    H1 4811   7.803   5.348   1.792  0.7199 -0.8052 -0.1783
 1626TIP3    H2 4812   7.687   5.373   1.699  0.1052 -0.8364  0.5704
 1627TIP3   OH2 4813   0.247   1.288   5.918 -0.2476 -0.7583  0.3744
 1627TIP3    H1 4814   0.294   1.205   5.928  1.4781  0.0569 -0.7155
 1627TIP3    H2 4815   0.189   1.273   5.843  2.2771 -0.0394 -1.7879
 1628TIP3   OH2 4816   4.486   4.501   1.025 -0.6064 -0.6539 -0.1602
 1628TIP3    H1 4817   4.488   4.578   1.083  0.3524 -0.8601  0.0832
 1628TIP3    H2 4818   4.578   4.480   1.009 -0.8637 -0.5811 -1.8018
 1629TIP3   OH2 4819   2.874   4.375   1.249  0.3800  0.2351  0.1129
 1629TIP3    H1 4820   2.828   4.345   1.327 -0.8210  0.4993 -0.4748
 1629TIP3    H2 4821   2.965   4.383   1.276  0.1691 -0.7805  1.1704
 1630TIP3   OH2 4822   2.910   1.650   6.797 -0.0087 -0.1450 -0.0591
 1630TIP3    H1 4823   2.957   1.719   6.750 -2.3009  0.6594 -1.2468
 1630TIP3    H2 4824   2.934   1.570   6.750 -1.1564  0.4770 -1.7740
 1631TIP3   OH2 4825   0.622   2.012   6.390 -0.1382 -0.3736  0.3989
 1631TIP3    H1 4826   0.624   2.051   6.303  0.5501  0.2229  0.6813
 1631TIP3    H2 4827   0.589   2.081   6.447  0.3455 -0.4459  0.7713
 1632TIP3   OH2 4828   3.362   7.844   2.978 -0.8070  0.1348 -0.2439
 1632TIP3    H1 4829   3.273   7.878   2.963 -1.8963 -2.1061  0.7942
 1632TIP3    H2 4830   3.374   7.851   3.072 -1.2938 -2.7860  0.0803
 1633TIP3   OH2 4831   4.811   4.490   1.313 -0.1548 -0.4315  0.1971
 1633TIP3    H1 4832   4.862   4.561   1.274 -1.3175  1.4428  2.0076
 1633TIP3    H2 4833   4.786   4.435   1.239  1.7854  0.3533 -1.0873
 1634TIP3   OH2 4834   4.134   4.587   1.766  0.4867  0.9958 -0.1733
 1634TIP3    H1 4835   4.195   4.660   1.757  0.6892  0.9725  0.9172
 1634TIP3    H2 4836   4.181   4.523   1.819  0.9538 -0.6677 -2.5391
 1635TIP3   OH2 4837   5.054   5.013   1.450  0.3578 -0.0535 -0.2530
 1635TIP3    H1 4838   4.968   5.001   1.490  0.2894  0.9387 -0.0778
 1635TIP3    H2 4839   5.094   5.084   1.501  0.7039  0.4790 -1.2507
 1636TIP3   OH2 4840   3.831   5.933   0.775 -0.0774  0.0842 -0.2673
 1636TIP3    H1 4841   3.774   5.963   0.704 -1.8058 -2.3731  0.0161
 1636TIP3    H2 4842   3.810   5.990   0.848 -0.7817  0.4315 -0.7310
 1637TIP3   OH2 4843   3.026   2.150   6.166 -0.0157 -0.0633 -0.1534
 1637TIP3    H1 4844   3.023   2.219   6.099  0.1226  1.5184  1.4350
 1637TIP3    H2 4845   2.934   2.132   6.186 -0.0412  1.0399  0.7912
 1638TIP3   OH2 4846   4.378   5.163   0.495  0.1143  0.1370  0.3583
 1638TIP3    H1 4847   4.422   5.112   0.563  0.8324 -2.0330 -1.6701
 1638TIP3    H2 4848   4.285   5.147   0.510  0.1994  0.8138  1.6734
 1639TIP3   OH2 4849   8.331   3.648   5.749  0.4182  0.0445  0.2218
 1639TIP3    H1 4850   8.323   3.692   5.664  1.3640  2.1951  1.1945
 1639TIP3    H2 4851   8.395   3.579   5.735  0.9485  0.7114 -0.6945
 1640TIP3   OH2 4852   4.302   6.162   2.111 -0.1600  0.5509  0.2198
 1640TIP3    H1 4853   4.396   6.176   2.103  0.3385 -0.7966  3.0862
 1640TIP3    H2 4854   4.267   6.247   2.136  0.7760  0.3680  2.2912
 1641TIP3   OH2 4855   6.174   7.438   2.087 -0.5175  0.3051 -0.1271
 1641TIP3    H1 4856   6.204   7.348   2.080 -2.9653 -0.5937  0.6905
 1641TIP3    H2 4857   6.236   7.478   2.148 -0.5441 -1.3339  1.0037
 1642TIP3   OH2 4858   2.906   5.445   1.373 -0.1050 -0.1585 -0.3874
 1642TIP3    H1 4859   2.841   5.474   1.437 -0.3862  0.1582 -0.8063
 1642TIP3    H2 4860   2.855   5.431   1.293  0.0674 -1.5508 -0.2658
 1643TIP3   OH2 4861   2.165   6.513   0.801  0.2483 -0.3670  0.6064
 1643TIP3    H1 4862   2.118   6.466   0.732 -0.8274  1.3834  0.0997
 1643TIP3    H2 4863   2.253   6.526   0.766 -0.0370 -0.2600 -0.0785
 1644TIP3   OH2 4864   4.311   6.663   0.524  0.2672  0.1073  0.0787
 1644TIP3    H1 4865   4.282   6.693   0.438  0.5527  1.2468  0.3787
 1644TIP3    H2 4866   4.232   6.627   0.565  0.1799 -0.6562 -0.7389
 1645TIP3   OH2 4867   3.914   7.713   1.959 -0.3794  0.2632 -0.5560
 1645TIP3    H1 4868   3.998   7.755   1.941 -1.8515  3.2190 -0.9608
 1645TIP3    H2 4869   3.875   7.700   1.872 -1.3773  1.2546 -0.2721
 1646TIP3   OH2 4870   4.018   7.022   1.637  0.2073  0.0719  0.1393
 1646TIP3    H1 4871   3.999   6.934   1.606  0.5433  0.7153 -1.9519
 1646TIP3    H2 4872   3.933   7.060   1.658  0.1479 -1.1395  2.1772
 1647TIP3   OH2 4873   3.783   0.155   6.609  0.3583 -0.0606 -0.2188
 1647TIP3    H1 4874   3.838   0.116   6.541 -0.1673  0.2054 -0.8039
 1647TIP3    H2 4875   3.737   0.081   6.648  2.2759 -0.4852  1.3473
 1648TIP3   OH2 4876   6.580   5.820   0.469 -0.1739  0.1871  0.7164
 1648TIP3    H1 4877   6.660   5.770   0.454 -1.3684 -2.0454  1.4106
 1648TIP3    H2 4878   6.605   5.891   0.527  1.2577 -0.5971  1.0652
 1649TIP3   OH2 4879   7.491   6.340   1.312 -0.0931 -0.4589  0.2708
 1649TIP3    H1 4880   7.489   6.338   1.217  0.3333  0.4336  0.2336
 1649TIP3    H2 4881   7.583   6.356   1.334 -0.6081  2.1706  0.7482
 1650TIP3   OH2 4882   5.073   4.497   0.103  0.1380 -0.7231 -0.1681
 1650TIP3    H1 4883   5.028   4.414   0.087  0.0630 -1.1490  2.1461
 1650TIP3    H2 4884   5.138   4.477   0.170  0.5993  0.9434 -0.0949
 1651TIP3   OH2 4885   3.209   7.039   0.359  0.1930 -0.2379 -0.2616
 1651TIP3    H1 4886   3.231   6.985   0.434  0.1164  0.1737  0.0601
 1651TIP3    H2 4887   3.227   6.984   0.283 -2.0640 -1.5503  0.1028
 1652TIP3   OH2 4888   3.120   3.346   6.442 -0.4402  0.0915 -0.0234
 1652TIP3    H1 4889   3.197   3.289   6.432 -1.2453 -0.8465 -1.1588
 1652TIP3    H2 4890   3.156   3.432   6.460  0.9005 -0.2938 -0.7448
 1653TIP3   OH2 4891   2.484   0.905   5.935  0.0656 -0.1069 -0.4357
 1653TIP3    H1 4892   2.527   0.970   5.880 -0.2744 -0.8204 -1.5756
 1653TIP3    H2 4893   2.392   0.908   5.907 -0.3559  0.4365  1.0095
 1654TIP3   OH2 4894   7.224   6.373   1.888  0.2255  0.1357 -0.4200
 1654TIP3    H1 4895   7.136   6.353   1.855 -0.9447  0.3491  2.4721
 1654TIP3    H2 4896   7.210   6.431   1.963  2.9181  1.2457 -0.7175
 1655TIP3   OH2 4897   6.193   4.202   2.534  0.1395  0.7773 -0.2316
 1655TIP3    H1 4898   6.103   4.176   2.515 -0.2162  0.4311  1.7580
 1655TIP3    H2 4899   6.193   4.297   2.527 -0.3891  0.7785 -0.2132
 1656TIP3   OH2 4900   5.312   4.910   2.503  0.2943  0.0014  0.4868
 1656TIP3    H1 4901   5.222   4.880   2.497  0.5166 -0.7144  0.6207
 1656TIP3    H2 4902   5.321   4.976   2.434 -0.2007 -0.2532  0.1788
 1657TIP3   OH2 4903   4.552   5.322   0.840 -0.2404 -0.1622  1.4110
 1657TIP3    H1 4904   4.478   5.280   0.797  0.6478 -0.7655  0.4516
 1657TIP3    H2 4905   4.629   5.289   0.794  0.4953  2.4340  0.6415
 1658TIP3   OH2 4906   6.065   4.909   0.745 -0.2439  0.0393  0.1520
 1658TIP3    H1 4907   6.020   4.859   0.677 -2.3293  3.6957 -1.2597
 1658TIP3    H2 4908   6.156   4.914   0.715 -0.1851 -2.0602 -0.1083
 1659TIP3   OH2 4909   4.417   4.323   0.460 -0.3300  0.1206  0.0642
 1659TIP3    H1 4910   4.418   4.247   0.401  0.1639  0.8810 -0.9104
 1659TIP3    H2 4911   4.498   4.314   0.511 -0.5773 -0.3404  0.3813
 1660TIP3   OH2 4912   7.601   5.724   0.249  0.1247  0.1215  0.2636
 1660TIP3    H1 4913   7.513   5.744   0.218 -0.1501  0.6826  1.3712
 1660TIP3    H2 4914   7.624   5.798   0.305  0.9137 -0.4892  0.7628
 1661TIP3   OH2 4915   2.734   5.764   0.551 -0.6055 -0.4412 -0.0733
 1661TIP3    H1 4916   2.682   5.758   0.631  0.0928  2.5026  0.6592
 1661TIP3    H2 4917   2.711   5.848   0.513 -0.4488 -1.5126 -2.6844
 1662TIP3   OH2 4918   2.122   3.936   0.480  0.3082  0.3992  0.0742
 1662TIP3    H1 4919   2.067   3.875   0.431  1.2632 -0.3694 -0.0844
 1662TIP3    H2 4920   2.132   3.895   0.566 -0.5504  1.2492  0.5801
 1663TIP3   OH2 4921   1.740   0.891   5.891 -0.6010  0.4022  0.4419
 1663TIP3    H1 4922   1.700   0.849   5.815 -0.2046 -1.9390  1.4893
 1663TIP3    H2 4923   1.809   0.947   5.854  0.2544 -1.4768 -0.8802
 1664TIP3   OH2 4924   6.128   6.501   0.364 -0.1184  0.2898  0.1309
 1664TIP3    H1 4925   6.148   6.523   0.273 -1.4469 -0.9352 -0.4741
 1664TIP3    H2 4926   6.049   6.551   0.384 -0.2112  0.0359  0.3959
 1665TIP3   OH2 4927   0.526   3.311   6.640 -0.5432 -0.1753 -0.2805
 1665TIP3    H1 4928   0.522   3.290   6.547 -1.2780  0.1516 -0.3307
 1665TIP3    H2 4929   0.442   3.279   6.675 -0.2679 -0.3023  0.2662
 1666TIP3   OH2 4930   4.277   2.098   6.653 -0.2834  0.9119  0.1051
 1666TIP3    H1 4931   4.254   2.095   6.560  2.0759 -1.0659 -0.4640
 1666TIP3    H2 4932   4.196   2.073   6.698 -0.3515 -2.4976 -1.6712
 1667TIP3   OH2 4933   3.858   2.642   0.911 -0.0307  0.0694 -0.0277
 1667TIP3    H1 4934   3.831   2.643   0.819  1.0551  1.4008 -0.3580
 1667TIP3    H2 4935   3.948   2.675   0.909 -0.8507  2.5040  1.7695
 1668TIP3   OH2 4936   2.938   4.780   2.053  0.1070  0.3186  0.1602
 1668TIP3    H1 4937   2.863   4.816   2.006 -0.6180 -2.0095 -0.4967
 1668TIP3    H2 4938   3.014   4.824   2.015 -0.7887  1.4715 -0.3081
 1669TIP3   OH2 4939   3.934   6.240   0.194 -0.6035 -0.0549  0.2015
 1669TIP3    H1 4940   4.023   6.208   0.184 -0.6102  0.4262 -1.6249
 1669TIP3    H2 4941   3.879   6.163   0.181 -0.5089  0.0279 -0.7401
 1670TIP3   OH2 4942   4.060   3.702   6.494  0.0207  0.2553  0.0616
 1670TIP3    H1 4943   4.097   3.780   6.453  0.9153 -0.4932 -0.5732
 1670TIP3    H2 4944   3.990   3.674   6.435  0.1969  0.1472 -0.0959
 1671TIP3   OH2 4945   7.781   5.450   2.267  0.5973 -0.0405  0.6601
 1671TIP3    H1 4946   7.871   5.428   2.243  1.0140  0.5685  1.6178
 1671TIP3    H2 4947   7.735   5.366   2.269  0.5497 -0.1333 -2.1650
 1672TIP3   OH2 4948   1.140   6.787   1.202  0.2943 -0.3146 -0.1233
 1672TIP3    H1 4949   1.126   6.869   1.156  0.5711 -0.6935 -0.8957
 1672TIP3    H2 4950   1.128   6.808   1.295 -1.2160  0.2345 -0.4479
 1673TIP3   OH2 4951   4.907   0.082   2.980  1.2016 -0.3918 -0.3379
 1673TIP3    H1 4952   4.820   0.074   2.942  0.6619  1.5987  0.4300
 1673TIP3    H2 4953   4.939  -0.008   2.985 -1.4362 -1.3123  0.8584
 1674TIP3   OH2 4954   1.510   6.923   0.106  0.0193  0.4906 -0.5191
 1674TIP3    H1 4955   1.450   6.973   0.161  1.6798  1.9094  0.0538
 1674TIP3    H2 4956   1.512   6.972   0.023  0.0014  0.1474 -0.7246
 1675TIP3   OH2 4957   1.181   5.531   0.123 -0.1531  0.1057 -0.4380
 1675TIP3    H1 4958   1.224   5.610   0.155 -2.4634  0.9729  0.6466
 1675TIP3    H2 4959   1.088   5.545   0.141 -0.6752 -2.6177 -0.7222
 1676TIP3   OH2 4960   6.787   2.610   6.835  0.1366  0.0524 -0.4831
 1676TIP3    H1 4961   6.767   2.517   6.828 -0.3818  0.0553  0.7606
 1676TIP3    H2 4962   6.882   2.616   6.832  0.1690 -0.5227 -0.5028
 1677TIP3   OH2 4963   1.529   3.956   0.269 -0.1167 -0.3546 -0.0040
 1677TIP3    H1 4964   1.615   3.924   0.240 -0.0871  1.6253 -2.2553
 1677TIP3    H2 4965   1.544   4.049   0.289 -1.9519  0.2334 -1.3347
 1678TIP3   OH2 4966   1.748   6.998   0.649 -0.2217  0.1408 -0.1831
 1678TIP3    H1 4967   1.721   7.085   0.677 -1.0678 -0.0074 -0.5296
 1678TIP3    H2 4968   1.830   7.012   0.602 -0.3899  0.7530 -0.2921
 1679TIP3   OH2 4969   1.151   6.356   0.040 -0.3396 -0.1133 -0.2249
 1679TIP3    H1 4970   1.090   6.324   0.107 -0.6078  1.9761  0.5813
 1679TIP3    H2 4971   1.218   6.403   0.090  0.4759 -0.1229 -1.3107
 1680TIP3   OH2 4972   0.629   7.490   1.853 -0.1263  0.3596 -0.0226
 1680TIP3    H1 4973   0.630   7.395   1.848 -2.0603  0.3202  0.0586
 1680TIP3    H2 4974   0.706   7.512   1.905 -0.6688 -1.2609  1.5080
 1681TIP3   OH2 4975   3.510   2.212   2.100  0.1890  0.1052 -0.4194
 1681TIP3    H1 4976   3.484   2.138   2.045 -0.7308  0.6463 -0.7102
 1681TIP3    H2 4977   3.430   2.239   2.145  0.7121  0.3510  0.3786
 1682TIP3   OH2 4978   2.539   6.418   2.608 -0.1295  0.0781  0.0158
 1682TIP3    H1 4979   2.497   6.357   2.547  1.5306 -1.7545  0.6331
 1682TIP3    H2 4980   2.518   6.383   2.695  2.8262 -1.0883  0.3355
 1683TIP3   OH2 4981   8.417   5.834   0.838 -0.4857 -0.4603  0.0701
 1683TIP3    H1 4982   8.424   5.739   0.843 -0.5995 -0.4524  0.3595
 1683TIP3    H2 4983   8.449   5.855   0.750  1.2220 -0.6028  0.6447
 1684TIP3   OH2 4984   6.043   2.309   5.924 -0.0815 -0.6866 -0.2512
 1684TIP3    H1 4985   6.060   2.366   5.849 -0.0656 -0.8269 -0.3568
 1684TIP3    H2 4986   6.105   2.336   5.991  0.5984 -1.2284 -0.6533
 1685TIP3   OH2 4987   1.487   5.784   1.683 -0.1293  0.5305  0.0799
 1685TIP3    H1 4988   1.472   5.756   1.774 -0.6607  0.9864  0.1341
 1685TIP3    H2 4989   1.400   5.783   1.643 -0.1936  2.2867  0.1345
 1686TIP3   OH2 4990   6.197   2.520   6.817 -0.2493  0.0083  0.0807
 1686TIP3    H1 4991   6.167   2.605   6.786 -0.1871  0.6086  1.6225
 1686TIP3    H2 4992   6.292   2.530   6.825 -0.1810 -0.3782 -0.2101
 1687TIP3   OH2 4993   2.578   0.139   0.030  0.3260  0.3131  0.0166
 1687TIP3    H1 4994   2.608   0.195  -0.041  0.2006  1.3224  0.7484
 1687TIP3    H2 4995   2.638   0.156   0.102 -0.1604  0.0715  0.4869
 1688TIP3   OH2 4996   1.307   5.537   0.641  0.0098  0.3953 -0.6934
 1688TIP3    H1 4997   1.222   5.510   0.673 -0.4247  2.0735 -0.3592
 1688TIP3    H2 4998   1.291   5.621   0.598  1.6329  1.2547  0.2884
 1689TIP3   OH2 4999   8.437   6.355   0.624  0.3700 -0.2684  0.2994
 1689TIP3    H1 5000   8.456   6.364   0.717  2.3034  0.9298 -0.1963
 1689TIP3    H2 5001   8.420   6.445   0.594 -1.8843 -0.8139 -0.1945
 1690TIP3   OH2 5002   2.667   7.929   2.410 -0.3799 -0.3263 -0.4443
 1690TIP3    H1 5003   2.694   7.892   2.325 -0.7399  0.7052 -1.0157
 1690TIP3    H2 5004   2.609   8.001   2.387  0.1353  0.4565  0.6748
 1691TIP3   OH2 5005   7.539   3.780   5.822  0.7484  0.0664 -0.0116
 1691TIP3    H1 5006   7.550   3.864   5.777 -1.4290 -0.1831 -1.0551
 1691TIP3    H2 5007   7.579   3.716   5.764  0.0942  0.0568 -0.4580
 1692TIP3   OH2 5008   0.268   4.756   1.373 -0.5700  0.1939 -0.4429
 1692TIP3    H1 5009   0.178   4.746   1.404 -0.0871  3.8829  2.4849
 1692TIP3    H2 5010   0.318   4.694   1.425 -0.9103  0.8737  0.7228
 1693TIP3   OH2 5011   2.447   6.224   2.436  0.0693 -0.1920  0.2319
 1693TIP3    H1 5012   2.434   6.180   2.352  1.4578  0.6772 -0.4660
 1693TIP3    H2 5013   2.491   6.159   2.491  1.1307 -0.0514 -0.4370
 1694TIP3   OH2 5014   0.941   6.677   1.898  0.2532 -0.3887 -0.1526
 1694TIP3    H1 5015   0.918   6.691   1.990 -0.5193  1.5134 -0.5901
 1694TIP3    H2 5016   0.867   6.713   1.849  1.5803  0.5415 -1.5468
 1695TIP3   OH2 5017   1.862   7.053   0.906 -0.2974 -0.0436 -0.1704
 1695TIP3    H1 5018   1.810   7.009   0.838  0.1386 -1.6395  0.5175
 1695TIP3    H2 5019   1.799   7.112   0.948 -0.5055  1.1835 -2.1302
 1696TIP3   OH2 5020   1.174   2.811   6.426 -0.6073  0.0893  0.1381
 1696TIP3    H1 5021   1.157   2.905   6.438 -0.8559  0.1992 -0.9843
 1696TIP3    H2 5022   1.096   2.779   6.380 -0.1090 -0.4857 -0.3070
 1697TIP3   OH2 5023   8.213   5.043   5.438 -0.1824 -0.1411  0.3464
 1697TIP3    H1 5024   8.148   4.996   5.386 -2.9074  1.4948  2.1338
 1697TIP3    H2 5025   8.290   5.048   5.381 -2.2998 -0.2852 -2.6714
 1698TIP3   OH2 5026   8.312   6.137   0.560  0.1453  0.0865 -0.3237
 1698TIP3    H1 5027   8.372   6.201   0.600 -0.3350  1.0690 -1.1709
 1698TIP3    H2 5028   8.272   6.183   0.487 -1.7151 -0.5420  0.2649
 1699TIP3   OH2 5029   2.370   5.883   1.301  0.2471 -0.4458  0.2221
 1699TIP3    H1 5030   2.293   5.939   1.290  0.4514  0.1958  1.8938
 1699TIP3    H2 5031   2.374   5.832   1.220 -1.0959  0.5385 -0.4955
 1700TIP3   OH2 5032   3.877   0.422   0.254 -0.1162  0.4101 -0.5869
 1700TIP3    H1 5033   3.833   0.354   0.204 -0.9769  1.0739 -0.7473
 1700TIP3    H2 5034   3.868   0.395   0.345 -0.3609  0.2530 -0.6585
 1701TIP3   OH2 5035   0.244   3.357   5.517 -0.2995  0.0413  0.2797
 1701TIP3    H1 5036   0.251   3.280   5.574 -2.6240 -0.1108  0.4215
 1701TIP3    H2 5037   0.332   3.394   5.515  0.2523 -1.0774  2.4020
 1702TIP3   OH2 5038   2.946   7.924   0.396  0.0528  0.0187 -0.4156
 1702TIP3    H1 5039   2.897   7.844   0.417 -0.4941  0.4820  0.0839
 1702TIP3    H2 5040   2.921   7.986   0.463  0.5071  0.6109 -0.7845
 1703TIP3   OH2 5041   2.603   7.496   0.575  0.7326 -0.2149 -0.1546
 1703TIP3    H1 5042   2.611   7.553   0.498  1.2792  1.0834  0.8367
 1703TIP3    H2 5043   2.687   7.507   0.621 -0.0367 -0.0620  1.2285
 1704TIP3   OH2 5044   7.101   3.734   5.603  0.2159 -0.4966  0.6123
 1704TIP3    H1 5045   7.110   3.700   5.691 -0.6298  1.2076  1.3842
 1704TIP3    H2 5046   7.088   3.828   5.615 -0.3274 -0.3049 -1.3044
 1705TIP3   OH2 5047   5.781   0.421   0.167  0.0610 -0.1991 -0.4238
 1705TIP3    H1 5048   5.697   0.467   0.172 -0.4992 -1.1827 -0.6466
 1705TIP3    H2 5049   5.758   0.328   0.165  1.2061 -0.5344  0.7560
 1706TIP3   OH2 5050   8.163   3.330   6.556  0.2568 -0.1135  0.7584
 1706TIP3    H1 5051   8.225   3.268   6.597 -0.7427 -0.5357  1.6554
 1706TIP3    H2 5052   8.121   3.374   6.630 -0.2941  0.3937  0.1449
 1707TIP3   OH2 5053   3.549   5.232   0.701  0.1909 -0.1988  0.0311
 1707TIP3    H1 5054   3.455   5.251   0.703 -0.0856 -1.3402 -1.3485
 1707TIP3    H2 5055   3.591   5.316   0.721 -1.1065  0.4974 -0.1024
 1708TIP3   OH2 5056   2.698   6.419   1.092  0.0795  0.1826  0.5045
 1708TIP3    H1 5057   2.750   6.498   1.089  0.6669 -0.2331 -0.3904
 1708TIP3    H2 5058   2.719   6.372   1.011 -1.3792 -0.1790  0.3024
 1709TIP3   OH2 5059   0.045   3.499   5.647 -0.1496  0.3825 -0.7474
 1709TIP3    H1 5060   0.120   3.448   5.617  0.5358  0.5295  0.6523
 1709TIP3    H2 5061  -0.002   3.523   5.567  0.3365 -1.1783 -1.5077
 1710TIP3   OH2 5062   5.074   2.348   0.860 -0.4881  0.7201  0.3845
 1710TIP3    H1 5063   5.132   2.414   0.897 -0.5413  0.7833  0.3539
 1710TIP3    H2 5064   5.115   2.265   0.882  0.1150  0.7894 -0.4604
 1711TIP3   OH2 5065   6.798   3.722   6.313  0.4500 -0.5229 -0.0605
 1711TIP3    H1 5066   6.760   3.807   6.335 -2.7354 -1.6232 -1.1070
 1711TIP3    H2 5067   6.890   3.742   6.292  0.0047  2.5006  0.6563
 1712TIP3   OH2 5068   0.538   3.858   6.323 -0.1733 -0.2243 -0.4553
 1712TIP3    H1 5069   0.455   3.877   6.278 -1.1745 -1.1163  0.9630
 1712TIP3    H2 5070   0.536   3.916   6.400 -0.0595 -1.1416  0.2394
 1713TIP3   OH2 5071   8.052   2.323   5.623  0.0211 -0.0103  0.0728
 1713TIP3    H1 5072   8.094   2.379   5.688  0.5511 -0.6068  0.2490
 1713TIP3    H2 5073   8.097   2.344   5.541 -0.1799  0.2441  0.0262
 1714TIP3   OH2 5074   8.321   3.790   6.102 -0.0635  0.1710  0.3912
 1714TIP3    H1 5075   8.342   3.876   6.139 -3.7945  1.0544  0.6049
 1714TIP3    H2 5076   8.320   3.731   6.177  0.9835  0.2124  0.4488
 1715TIP3   OH2 5077   2.375   6.582   0.048  0.3508  0.1496  0.4259
 1715TIP3    H1 5078   2.395   6.673   0.024 -1.4243  0.1838 -1.0467
 1715TIP3    H2 5079   2.307   6.556  -0.014 -1.8983 -0.9451  3.2546
 1716TIP3   OH2 5080   8.304   5.756   6.792 -0.2403 -0.3680  0.0863
 1716TIP3    H1 5081   8.383   5.730   6.839 -1.8706 -2.1019  1.9631
 1716TIP3    H2 5082   8.335   5.791   6.709  2.4390 -1.7441  0.4732
 1717TIP3   OH2 5083   0.735   2.289   5.763 -0.1124 -0.8124 -0.1219
 1717TIP3    H1 5084   0.800   2.229   5.800  0.6463 -1.4482 -2.3620
 1717TIP3    H2 5085   0.673   2.232   5.718  0.7154  0.0513 -2.4304
 1718TIP3   OH2 5086   2.661   7.541   2.869  0.5550  0.2365 -0.1111
 1718TIP3    H1 5087   2.705   7.615   2.912 -0.5766 -0.2107  1.8942
 1718TIP3    H2 5088   2.568   7.560   2.878  0.2832  0.0654 -2.3460
 1719TIP3   OH2 5089   6.289   3.537   5.099 -0.5890 -0.0810 -0.0480
 1719TIP3    H1 5090   6.358   3.508   5.158  0.2463  0.6346 -0.6454
 1719TIP3    H2 5091   6.215   3.557   5.156  0.4121  1.2092  0.8460
 1720TIP3   OH2 5092   1.992   5.744   0.603  0.1500 -0.3653  0.0580
 1720TIP3    H1 5093   1.923   5.716   0.664 -1.4079  4.0083  0.5006
 1720TIP3    H2 5094   1.977   5.693   0.524 -0.7506 -2.7427  1.7123
 1721TIP3   OH2 5095   3.305   6.478   0.794 -0.0104 -0.2737  0.0797
 1721TIP3    H1 5096   3.293   6.564   0.834  0.9092  0.4678 -1.2178
 1721TIP3    H2 5097   3.374   6.437   0.847  1.4145  0.8212 -0.8870
 1722TIP3   OH2 5098   6.951   0.383   4.567 -0.0873 -0.4301 -0.0964
 1722TIP3    H1 5099   6.903   0.331   4.502  2.1466 -0.5143 -1.7230
 1722TIP3    H2 5100   7.007   0.320   4.611  0.6883  0.1694 -0.2282
 1723TIP3   OH2 5101   1.877   6.071   1.659 -0.3327 -0.4054  1.2709
 1723TIP3    H1 5102   1.820   6.104   1.590  0.7228 -1.6113 -0.2058
 1723TIP3    H2 5103   1.962   6.112   1.642  0.1349 -1.3305  1.3760
 1724TIP3   OH2 5104   7.690   0.950   6.472  0.0699  0.3368 -0.2281
 1724TIP3    H1 5105   7.596   0.952   6.487  0.0265  0.3486 -0.4976
 1724TIP3    H2 5106   7.722   0.880   6.528 -0.4207 -1.2264 -1.8631
 1725TIP3   OH2 5107   4.978   7.914   2.586 -0.5721  0.1273  0.2799
 1725TIP3    H1 5108   4.903   7.935   2.530 -0.4896  0.1312  0.1725
 1725TIP3    H2 5109   5.018   7.837   2.545 -2.9584 -2.4909  2.5715
 1726TIP3   OH2 5110   3.336   7.078   2.148  0.3525 -0.2010  0.1726
 1726TIP3    H1 5111   3.284   7.088   2.227  1.5331  1.6779  0.7322
 1726TIP3    H2 5112   3.273   7.085   2.076 -0.5803 -0.9403  0.9081
 1727TIP3   OH2 5113   3.102   4.894   0.550  0.8312 -0.0346  0.5251
 1727TIP3    H1 5114   3.155   4.882   0.472 -0.2662 -0.3181 -0.1779
 1727TIP3    H2 5115   3.013   4.871   0.523  0.3874  0.2039  1.7565
 1728TIP3   OH2 5116   1.708   6.194   1.154 -0.1878  0.5644 -0.3958
 1728TIP3    H1 5117   1.692   6.203   1.060  0.8215 -1.6506 -0.7953
 1728TIP3    H2 5118   1.803   6.190   1.162 -0.3012 -0.2646  0.6303
 1729TIP3   OH2 5119   4.936   7.283   0.851  0.4900  0.1625 -0.3132
 1729TIP3    H1 5120   5.031   7.292   0.862  0.2079  1.6194  1.1855
 1729TIP3    H2 5121   4.899   7.339   0.919 -1.4572  0.1024 -1.2945
 1730TIP3   OH2 5122   3.100   6.139   1.577  0.1704 -0.0953 -0.7021
 1730TIP3    H1 5123   3.103   6.099   1.490 -1.7443  0.6043 -1.1088
 1730TIP3    H2 5124   3.133   6.228   1.564  0.4008 -0.1651 -0.6023
 1731TIP3   OH2 5125   2.850   5.398   0.833  0.1705 -0.2495 -0.5051
 1731TIP3    H1 5126   2.900   5.317   0.823  1.7843  0.3442  2.2797
 1731TIP3    H2 5127   2.875   5.452   0.758  0.9243 -1.3790 -1.0628
 1732TIP3   OH2 5128   3.734   5.413   0.072  0.6655  0.5071 -0.0079
 1732TIP3    H1 5129   3.767   5.484   0.017  0.1125  0.0850 -0.8995
 1732TIP3    H2 5130   3.809   5.354   0.084  1.3286  1.5879  1.3382
 1733TIP3   OH2 5131   6.416   3.784   6.801  0.2349 -0.1356 -0.3149
 1733TIP3    H1 5132   6.448   3.779   6.711  1.5520  0.8570  0.0676
 1733TIP3    H2 5133   6.485   3.833   6.847 -0.5785 -0.3575  1.1500
 1734TIP3   OH2 5134   1.517   7.913   2.333 -0.3478 -0.2646  0.4515
 1734TIP3    H1 5135   1.499   7.899   2.240  0.0859  0.5573  0.2375
 1734TIP3    H2 5136   1.587   7.978   2.334 -1.4012  0.8915  1.3714
 1735TIP3   OH2 5137   3.573   6.641   4.110  0.8600 -0.0892  0.1829
 1735TIP3    H1 5138   3.509   6.576   4.140 -1.7698  2.7315  0.9904
 1735TIP3    H2 5139   3.607   6.679   4.191 -0.3143  1.9897 -0.2665
 1736TIP3   OH2 5140   3.121   7.814   2.189  0.3086  0.3911 -0.3379
 1736TIP3    H1 5141   3.176   7.770   2.124  3.5315  1.2887  1.6893
 1736TIP3    H2 5142   3.044   7.757   2.197  1.4660 -1.5487 -2.3506
 1737TIP3   OH2 5143   3.594   5.634   2.574 -1.2761 -0.0092 -0.0036
 1737TIP3    H1 5144   3.616   5.691   2.647 -2.2327  0.9808 -0.4730
 1737TIP3    H2 5145   3.572   5.550   2.615 -0.8432  0.2468  0.7622
 1738TIP3   OH2 5146   7.496   4.399   6.335 -0.1575 -0.9113  0.4318
 1738TIP3    H1 5147   7.423   4.362   6.284  0.5551 -2.3466  0.4375
 1738TIP3    H2 5148   7.573   4.350   6.306  0.5508 -0.4933  1.5822
 1739TIP3   OH2 5149   0.510   7.036   0.217 -0.1882  0.2460  0.1923
 1739TIP3    H1 5150   0.425   6.993   0.211  0.7840 -1.8140  0.6118
 1739TIP3    H2 5151   0.499   7.102   0.285 -0.6699 -2.0072  2.3885
 1740TIP3   OH2 5152   2.298   6.595   2.316 -0.3721  0.3875 -0.6119
 1740TIP3    H1 5153   2.360   6.605   2.388 -0.6950 -0.8003 -0.1609
 1740TIP3    H2 5154   2.238   6.669   2.325 -0.6766 -0.0049  0.6132
 1741TIP3   OH2 5155   7.321   0.843   6.904 -0.0380  0.4011  0.2488
 1741TIP3    H1 5156   7.320   0.899   6.981 -2.0811  2.9194 -1.5093
 1741TIP3    H2 5157   7.398   0.873   6.854 -0.0638  0.3888  0.2013
 1742TIP3   OH2 5158   2.606   5.785   0.783 -0.3012 -0.1216 -0.5775
 1742TIP3    H1 5159   2.534   5.721   0.781  0.1493 -0.6754  0.5145
 1742TIP3    H2 5160   2.563   5.870   0.777 -0.9090 -0.5192 -2.0921
 1743TIP3   OH2 5161   3.380   0.418   0.747 -0.1060 -0.4737  0.1919
 1743TIP3    H1 5162   3.293   0.452   0.727  0.4759  0.5540 -0.6712
 1743TIP3    H2 5163   3.370   0.372   0.830 -1.4218 -0.1736  0.2024
 1744TIP3   OH2 5164   4.013   0.607   2.082  0.1727  0.7379 -0.2194
 1744TIP3    H1 5165   3.930   0.613   2.129 -0.2044  0.1187 -0.8044
 1744TIP3    H2 5166   3.988   0.603   1.990  0.7492 -1.3693 -0.3153
 1745TIP3   OH2 5167   4.898   0.191   0.942  0.5496  0.2368  0.2922
 1745TIP3    H1 5168   4.931   0.139   1.015 -0.5007  0.0560  0.6350
 1745TIP3    H2 5169   4.933   0.147   0.864  0.3635 -0.4901  0.6146
 1746TIP3   OH2 5170   1.463   5.466   1.721  0.0751 -0.6069  0.1617
 1746TIP3    H1 5171   1.479   5.558   1.698 -0.4742 -0.3816  0.6901
 1746TIP3    H2 5172   1.550   5.432   1.743  0.1661 -0.0029  0.7400
 1747TIP3   OH2 5173   2.752   6.352   0.067  0.4555  0.3159  0.2561
 1747TIP3    H1 5174   2.756   6.312  -0.020  0.9007 -0.7730  0.7700
 1747TIP3    H2 5175   2.843   6.370   0.089  0.3394  0.6195  0.4772
 1748TIP3   OH2 5176   1.745   7.487   3.254 -0.9124  0.1169  0.6997
 1748TIP3    H1 5177   1.678   7.553   3.239  0.1510  1.4629  1.6423
 1748TIP3    H2 5178   1.804   7.528   3.318  1.6626 -0.3653 -1.2789
 1749TIP3   OH2 5179   2.605   6.918   1.743  0.0222  0.2084  0.6600
 1749TIP3    H1 5180   2.580   7.002   1.780 -1.6922  0.7133 -1.5739
 1749TIP3    H2 5181   2.538   6.856   1.774  0.1691  0.0684  0.7003
 1750TIP3   OH2 5182   3.448   5.853   0.528 -0.9198  0.4375 -0.3421
 1750TIP3    H1 5183   3.382   5.821   0.466 -0.7978  0.3004 -0.4018
 1750TIP3    H2 5184   3.497   5.775   0.553 -1.2325  0.4296  0.2480
 1751TIP3   OH2 5185   1.390   7.145   2.295 -0.2362  0.0880  0.3302
 1751TIP3    H1 5186   1.461   7.159   2.233 -1.6130  0.4738 -1.2165
 1751TIP3    H2 5187   1.417   7.191   2.374  1.5981 -0.4883  0.0489
 1752TIP3   OH2 5188   0.520   1.129   6.410  0.4320  0.9073 -0.1759
 1752TIP3    H1 5189   0.499   1.070   6.337  1.0662 -2.1232  1.9621
 1752TIP3    H2 5190   0.615   1.141   6.404  0.3375  1.4908 -0.4635
 1753TIP3   OH2 5191   2.971   7.177   0.314 -0.2214 -0.7297  0.0854
 1753TIP3    H1 5192   3.041   7.112   0.317  0.9002  0.4182 -0.7141
 1753TIP3    H2 5193   2.950   7.195   0.406  0.7670 -0.8379  0.3360
 1754TIP3   OH2 5194   7.628   3.423   6.780 -0.2828  0.1681  0.2122
 1754TIP3    H1 5195   7.567   3.474   6.728  0.2081 -2.1478 -2.8494
 1754TIP3    H2 5196   7.693   3.486   6.811 -0.8229  1.7260 -1.7196
 1755TIP3   OH2 5197   0.106   3.959   6.873 -0.2821  0.0626  0.1938
 1755TIP3    H1 5198   0.051   3.996   6.804 -0.7523  0.6734  0.8890
 1755TIP3    H2 5199   0.077   3.868   6.880 -0.1726 -0.0292 -0.4662
 1756TIP3   OH2 5200   0.679   6.878   0.413  0.0321 -0.2577  0.0607
 1756TIP3    H1 5201   0.619   6.939   0.370 -0.7923 -1.1274 -0.0585
 1756TIP3    H2 5202   0.765   6.902   0.380 -0.3752  0.3119 -0.6207
 1757TIP3   OH2 5203   4.954   5.522   0.037 -0.0541  0.0491  0.9573
 1757TIP3    H1 5204   4.890   5.502   0.105  0.9924 -2.1797  1.3169
 1757TIP3    H2 5205   4.902   5.522  -0.044 -0.8116 -0.0670  1.4346
 1758TIP3   OH2 5206   0.280   1.991   6.423  0.7823 -0.5312 -0.0379
 1758TIP3    H1 5207   0.334   1.912   6.424  0.2250 -0.9352 -0.9266
 1758TIP3    H2 5208   0.223   1.980   6.346 -1.2503 -0.5876  1.4324
 1759TIP3   OH2 5209   2.589   6.641   1.958 -0.1675 -0.2368 -0.1801
 1759TIP3    H1 5210   2.614   6.657   2.049  0.0172  0.0738 -0.2833
 1759TIP3    H2 5211   2.494   6.638   1.960 -0.1742  0.0332 -0.0179
 1760TIP3   OH2 5212   3.035   4.369   1.838 -0.2210 -0.3162  0.0178
 1760TIP3    H1 5213   3.103   4.433   1.859 -0.0272 -1.3531  2.7014
 1760TIP3    H2 5214   3.045   4.354   1.743  3.0262 -0.1409  0.2658
 1761TIP3   OH2 5215   4.493   5.534   0.246  0.0216 -0.1987  0.4734
 1761TIP3    H1 5216   4.452   5.508   0.163  1.2190 -1.1787  0.1638
 1761TIP3    H2 5217   4.563   5.594   0.220 -0.4948  0.5844  0.8944
 1762TIP3   OH2 5218   1.056   4.190   5.696 -0.4150 -0.3300 -0.3212
 1762TIP3    H1 5219   1.090   4.151   5.776  1.3856  1.4166 -0.2045
 1762TIP3    H2 5220   0.961   4.183   5.704 -0.2058 -1.9510  1.0377
 1763TIP3   OH2 5221   7.866   5.940   0.357  0.0599 -0.6694  0.1459
 1763TIP3    H1 5222   7.778   5.974   0.373 -0.3616 -1.1828 -1.0377
 1763TIP3    H2 5223   7.898   5.990   0.282  0.7576 -0.5299  0.5299
 1764TIP3   OH2 5224   3.212   3.906   0.043  0.3341  0.7528 -0.6639
 1764TIP3    H1 5225   3.249   3.911  -0.045  1.2800  2.8887 -0.1786
 1764TIP3    H2 5226   3.278   3.947   0.099 -0.4969 -0.0753  0.9772
 1765TIP3   OH2 5227   0.871   4.872   0.993 -0.0281 -0.4701  0.3765
 1765TIP3    H1 5228   0.929   4.947   1.002  0.9171 -1.2352  0.7909
 1765TIP3    H2 5229   0.787   4.902   1.027  0.0791  0.6954 -0.3561
 1766TIP3   OH2 5230   0.583   3.677   6.541  0.0639 -0.1440  0.2901
 1766TIP3    H1 5231   0.664   3.631   6.564 -0.8576 -0.9808  1.9711
 1766TIP3    H2 5232   0.610   3.744   6.479  2.0781 -0.3107  0.9514
 1767TIP3   OH2 5233   3.078   7.801   0.656  0.1263  0.3784  0.8319
 1767TIP3    H1 5234   3.147   7.849   0.610  0.0141 -0.1864  0.0642
 1767TIP3    H2 5235   3.044   7.740   0.590  1.4626 -2.0019  2.2698
 1768TIP3   OH2 5236   5.338   7.386   0.073 -0.3820  0.2281 -0.2575
 1768TIP3    H1 5237   5.308   7.307   0.028 -1.4206  0.4259  0.0602
 1768TIP3    H2 5238   5.433   7.380   0.073 -0.4729 -1.2861  0.2341
 1769TIP3   OH2 5239  -0.017   3.247   6.636 -0.0168  0.7314 -0.4643
 1769TIP3    H1 5240   0.038   3.292   6.572  0.8027 -0.0912 -0.3413
 1769TIP3    H2 5241  -0.007   3.298   6.717  1.8507 -0.3557 -0.0006
 1770TIP3   OH2 5242   5.375   5.908   1.137  0.2146  0.4714 -0.2375
 1770TIP3    H1 5243   5.421   5.992   1.135  1.6807 -0.3290 -0.9488
 1770TIP3    H2 5244   5.324   5.907   1.056 -0.1918  0.8825  0.0101
 1771TIP3   OH2 5245   3.941   6.507   1.627 -0.8114  0.0934  0.5513
 1771TIP3    H1 5246   3.874   6.492   1.694 -0.7350  0.7556  0.7817
 1771TIP3    H2 5247   3.929   6.436   1.564  0.2474 -1.5446  2.1558
 1772TIP3   OH2 5248   5.534   4.454   0.171 -0.6890 -0.0141 -0.0540
 1772TIP3    H1 5249   5.455   4.420   0.213 -0.5735  0.5565  0.6287
 1772TIP3    H2 5250   5.606   4.415   0.220 -0.5492  2.1469  1.5226
 1773TIP3   OH2 5251   1.661   3.368   5.969 -0.2615  0.4439 -0.1240
 1773TIP3    H1 5252   1.721   3.331   6.033  0.7727  1.1485 -0.6607
 1773TIP3    H2 5253   1.634   3.294   5.915 -0.0471  0.0835  0.2627
 1774TIP3   OH2 5254   3.832   7.374   0.406  0.5486 -0.2403  0.2870
 1774TIP3    H1 5255   3.916   7.405   0.371  0.1831 -0.0778 -0.4604
 1774TIP3    H2 5256   3.800   7.313   0.339  0.1798 -0.4823  0.6816
 1775TIP3   OH2 5257   5.126   6.406   1.201  0.1232  0.0123  0.1808
 1775TIP3    H1 5258   5.154   6.326   1.246  0.3285  0.1899  0.3718
 1775TIP3    H2 5259   5.100   6.465   1.271  0.4598  0.2973  0.0698
 1776TIP3   OH2 5260   2.789   1.279   4.854 -0.3608  0.3098  0.1562
 1776TIP3    H1 5261   2.844   1.261   4.778 -2.1584 -2.3054 -0.5743
 1776TIP3    H2 5262   2.704   1.303   4.817 -1.8127 -2.8083  1.2867
 1777TIP3   OH2 5263   5.692   7.146   4.839  0.3093 -0.1347 -0.8629
 1777TIP3    H1 5264   5.682   7.061   4.796 -1.2543 -0.5836  0.3102
 1777TIP3    H2 5265   5.755   7.130   4.910 -0.5107 -0.5094 -0.2054
 1778TIP3   OH2 5266   8.402   8.003   4.796  0.3102 -0.1213 -0.3208
 1778TIP3    H1 5267   8.379   7.986   4.705 -0.5096 -1.5524  0.1420
 1778TIP3    H2 5268   8.475   7.944   4.814 -0.6087 -1.0516  0.4228
 1779TIP3   OH2 5269   6.920   7.843   4.694 -0.0913  0.3467  0.4436
 1779TIP3    H1 5270   6.848   7.782   4.678  0.6086 -0.4345  0.2930
 1779TIP3    H2 5271   6.889   7.896   4.768 -1.3915  0.9367 -0.4839
 1780TIP3   OH2 5272   1.515   5.707   5.923 -0.1348  0.4473  0.1445
 1780TIP3    H1 5273   1.535   5.731   6.013  1.4400 -3.5611  1.0054
 1780TIP3    H2 5274   1.599   5.709   5.878 -0.6183  0.6481 -0.7601
 1781TIP3   OH2 5275   7.655   7.764   4.321 -0.1313 -0.0669 -0.1862
 1781TIP3    H1 5276   7.703   7.759   4.238 -1.2319 -0.2702 -0.8097
 1781TIP3    H2 5277   7.698   7.700   4.377  1.0628  0.5563 -0.3695
 1782TIP3   OH2 5278   1.126   1.158   4.520 -0.1991  0.0536  0.1874
 1782TIP3    H1 5279   1.175   1.191   4.595 -2.6104  0.5149  1.6098
 1782TIP3    H2 5280   1.076   1.084   4.555  1.5107 -2.1584 -1.8615
 1783TIP3   OH2 5281   2.898   1.622   3.779 -0.4410 -0.1665 -0.1557
 1783TIP3    H1 5282   2.827   1.566   3.745 -0.1661 -0.2048 -0.6794
 1783TIP3    H2 5283   2.977   1.585   3.741 -0.0598 -0.5679  1.0259
 1784TIP3   OH2 5284   8.395   2.486   6.133  0.5070  0.2393  0.2271
 1784TIP3    H1 5285   8.339   2.534   6.072  1.2181  0.9700  0.1484
 1784TIP3    H2 5286   8.435   2.418   6.080 -2.2230 -1.9028  0.8005
 1785TIP3   OH2 5287   1.292   7.487   5.369 -0.3610 -0.3669 -0.8362
 1785TIP3    H1 5288   1.216   7.509   5.316 -0.7821  0.9075  0.2887
 1785TIP3    H2 5289   1.340   7.569   5.379  0.6921 -0.9693 -0.7741
 1786TIP3   OH2 5290   1.391   2.119   6.230 -0.0741  0.3874  0.8546
 1786TIP3    H1 5291   1.343   2.199   6.254 -2.0609  0.0879 -1.7934
 1786TIP3    H2 5292   1.473   2.152   6.193  0.0206  1.1210  1.6987
 1787TIP3   OH2 5293   0.497   0.606   6.818 -0.2224 -0.0340  0.2120
 1787TIP3    H1 5294   0.584   0.634   6.845 -0.0396 -1.8459  1.5732
 1787TIP3    H2 5295   0.513   0.538   6.753 -0.6542  0.2878 -0.2430
 1788TIP3   OH2 5296   8.149   0.493   2.485  0.0636 -0.3153  0.0384
 1788TIP3    H1 5297   8.168   0.402   2.510 -0.2468 -0.5925 -0.7114
 1788TIP3    H2 5298   8.153   0.492   2.389 -2.2839 -0.0482 -0.0799
 1789TIP3   OH2 5299   1.347   0.126   4.424  0.1987  0.1650  0.1389
 1789TIP3    H1 5300   1.334   0.034   4.450  0.3551  0.2981  0.6860
 1789TIP3    H2 5301   1.442   0.134   4.414  0.0438 -0.2791 -1.9299
 1790TIP3   OH2 5302   0.202   7.018   3.668 -0.2810  0.0476  0.1717
 1790TIP3    H1 5303   0.187   6.996   3.576  1.5720  0.3917 -0.2187
 1790TIP3    H2 5304   0.210   6.933   3.712 -1.5535 -0.1249  0.1105
 1791TIP3   OH2 5305   0.222   0.190   6.694  0.0907  0.2639  0.6587
 1791TIP3    H1 5306   0.172   0.263   6.657 -0.3604 -0.6661 -0.5840
 1791TIP3    H2 5307   0.158   0.139   6.743  0.0781 -0.2234  0.1323
 1792TIP3   OH2 5308   2.706   1.513   3.607  0.3951 -0.4732 -0.0944
 1792TIP3    H1 5309   2.611   1.504   3.597  0.1639  0.9043  0.7713
 1792TIP3    H2 5310   2.740   1.504   3.518 -0.6326  0.0101 -0.5502
 1793TIP3   OH2 5311   1.303   1.065   3.633 -1.0134  0.2201  0.0094
 1793TIP3    H1 5312   1.381   1.011   3.619 -0.3571  0.6718  1.8326
 1793TIP3    H2 5313   1.320   1.111   3.716 -2.1718  2.1538 -0.7993
 1794TIP3   OH2 5314   2.045   0.281   1.994  0.5261  0.2992 -0.4185
 1794TIP3    H1 5315   1.993   0.243   2.065  0.9291  0.5728  0.0312
 1794TIP3    H2 5316   2.064   0.370   2.024  2.0251 -0.0994 -0.1660
 1795TIP3   OH2 5317   0.466   2.469   6.109  0.3533  0.1004  0.8394
 1795TIP3    H1 5318   0.545   2.416   6.108 -0.3551 -0.9649 -0.0571
 1795TIP3    H2 5319   0.427   2.451   6.194  0.4553 -0.3276  0.8002
 1796TIP3   OH2 5320   6.491   7.614   5.086 -0.0459 -0.1193 -0.5359
 1796TIP3    H1 5321   6.405   7.598   5.124  0.5347 -2.4655 -0.0863
 1796TIP3    H2 5322   6.525   7.690   5.134 -1.3728  0.0627  0.1276
 1797TIP3   OH2 5323   6.122   5.443   0.090 -0.3976 -0.3478 -0.0563
 1797TIP3    H1 5324   6.179   5.455   0.013 -0.4266  0.4712  0.0485
 1797TIP3    H2 5325   6.073   5.364   0.070  0.1309 -0.5611 -0.5545
 1798TIP3   OH2 5326   3.010   2.386   4.170  0.0413 -0.1667 -0.4003
 1798TIP3    H1 5327   2.978   2.396   4.260 -0.2535  1.0689 -0.6369
 1798TIP3    H2 5328   3.096   2.427   4.170  0.7572 -1.6315 -0.2869
 1799TIP3   OH2 5329   3.236   0.809   3.593  0.8049  0.2664  0.2351
 1799TIP3    H1 5330   3.172   0.767   3.536 -0.2450 -0.3745  1.8152
 1799TIP3    H2 5331   3.185   0.874   3.641  1.1457 -0.7476  2.0412
 1800TIP3   OH2 5332   1.578   1.540   4.951  0.0148  0.8743  0.1534
 1800TIP3    H1 5333   1.644   1.482   4.989 -0.5903  0.9686  1.3878
 1800TIP3    H2 5334   1.606   1.628   4.976 -0.4878  0.9242  0.5596
 1801TIP3   OH2 5335   1.720   0.549   5.212 -0.1671 -0.0035 -0.0543
 1801TIP3    H1 5336   1.765   0.579   5.134 -0.1111 -1.5542 -0.6488
 1801TIP3    H2 5337   1.650   0.492   5.179  0.0455 -0.9219  1.0288
 1802TIP3   OH2 5338   1.510   0.184   3.942  0.0946  0.2775 -0.7823
 1802TIP3    H1 5339   1.484   0.236   4.019 -0.3372 -0.6653 -0.2893
 1802TIP3    H2 5340   1.465   0.226   3.869  1.4322  1.9118 -0.7193
 1803TIP3   OH2 5341   5.204   6.132   0.293 -0.0123  0.4004 -0.3731
 1803TIP3    H1 5342   5.299   6.119   0.287 -0.0836 -0.6300  0.5215
 1803TIP3    H2 5343   5.190   6.166   0.382 -0.3547  1.8352 -0.9611
 1804TIP3   OH2 5344   0.998   0.250   4.673  0.2506  0.8007 -0.5740
 1804TIP3    H1 5345   0.992   0.223   4.582 -1.3187  0.4231 -0.3606
 1804TIP3    H2 5346   0.937   0.194   4.720  2.3439 -0.2374  1.0103
 1805TIP3   OH2 5347   8.243   6.747   4.667  0.2310 -0.1864  0.3684
 1805TIP3    H1 5348   8.228   6.680   4.733  1.3172  1.2320  2.1134
 1805TIP3    H2 5349   8.338   6.761   4.668 -0.1639  2.8583  1.5902
 1806TIP3   OH2 5350   7.243   6.051   2.825 -0.3360 -0.1847 -0.1854
 1806TIP3    H1 5351   7.312   6.103   2.783  1.3316 -0.8279  1.6285
 1806TIP3    H2 5352   7.174   6.114   2.845  0.5594  0.8528 -0.3079
 1807TIP3   OH2 5353   0.122   7.916   1.899 -0.0573  0.2237  0.1140
 1807TIP3    H1 5354   0.146   7.860   1.826 -1.7361  0.4639 -0.6566
 1807TIP3    H2 5355   0.146   8.004   1.870 -1.9896  0.4911 -0.7480
 1808TIP3   OH2 5356   7.508   2.173   2.954 -0.0455 -0.2564  1.0275
 1808TIP3    H1 5357   7.591   2.218   2.936  0.4139 -0.3763  2.7492
 1808TIP3    H2 5358   7.474   2.217   3.033 -0.6822 -1.4755  1.4387
 1809TIP3   OH2 5359   0.255   0.119   4.923  0.1509  0.1941 -0.1796
 1809TIP3    H1 5360   0.178   0.134   4.867  0.1930 -0.6647 -0.4761
 1809TIP3    H2 5361   0.297   0.205   4.929 -0.5891  0.5796 -0.3781
 1810TIP3   OH2 5362   2.061   1.412   4.326  0.4361 -0.1562  0.2639
 1810TIP3    H1 5363   1.978   1.425   4.372  1.2253  1.1910  1.3769
 1810TIP3    H2 5364   2.075   1.493   4.278  1.4607 -0.0586  0.6995
 1811TIP3   OH2 5365   1.638   0.604   4.233 -0.4154 -0.6139 -0.1287
 1811TIP3    H1 5366   1.647   0.580   4.325  0.5178 -0.4486 -0.1768
 1811TIP3    H2 5367   1.546   0.627   4.223 -0.2486  0.6138  1.0581
 1812TIP3   OH2 5368   0.392   0.099   5.320 -1.1328  0.5826  0.1356
 1812TIP3    H1 5369   0.424   0.171   5.266  2.4437 -0.8222  0.2233
 1812TIP3    H2 5370   0.391   0.024   5.262  0.3975 -0.4241  1.3741
 1813TIP3   OH2 5371   6.153   6.733   4.926  0.0543  0.0539  0.1007
 1813TIP3    H1 5372   6.086   6.670   4.900  0.8929 -0.7928 -0.0528
 1813TIP3    H2 5373   6.231   6.680   4.940  0.5152  0.9448  0.9521
 1814TIP3   OH2 5374   0.229   7.234   2.770  0.4097 -0.0343  0.1471
 1814TIP3    H1 5375   0.196   7.255   2.857  0.6619  0.7830  0.0527
 1814TIP3    H2 5376   0.258   7.318   2.735  0.7734 -0.4393 -0.5291
 1815TIP3   OH2 5377   8.217   5.829   3.806  0.2227 -0.0899  0.6434
 1815TIP3    H1 5378   8.187   5.839   3.716  0.9735 -1.5287  0.2326
 1815TIP3    H2 5379   8.270   5.907   3.822  1.2370 -0.5083 -0.6221
 1816TIP3   OH2 5380   2.583   7.490   4.797 -0.1464 -0.2356 -0.1612
 1816TIP3    H1 5381   2.584   7.409   4.849  0.2288  0.6902  1.3052
 1816TIP3    H2 5382   2.551   7.557   4.858  0.7747  0.9660 -0.9775
 1817TIP3   OH2 5383   3.595   0.518   3.791  0.0728 -0.0690 -0.1917
 1817TIP3    H1 5384   3.680   0.521   3.746  0.5909  0.6612  0.8077
 1817TIP3    H2 5385   3.615   0.545   3.881 -0.9038 -1.7137  0.5479
 1818TIP3   OH2 5386   2.365   6.709   4.818  0.1747  0.0250  0.0967
 1818TIP3    H1 5387   2.356   6.695   4.723 -2.1704 -0.0596  0.2959
 1818TIP3    H2 5388   2.300   6.651   4.857  1.2918 -0.1144  1.7790
 1819TIP3   OH2 5389   3.396   1.677   2.151 -0.3031 -0.0420 -0.0439
 1819TIP3    H1 5390   3.394   1.660   2.245  0.2793  1.6680  0.2938
 1819TIP3    H2 5391   3.330   1.618   2.114 -1.4074  0.1560  1.5816
 1820TIP3   OH2 5392   7.801   2.321   5.729 -0.0958 -0.2529  0.4567
 1820TIP3    H1 5393   7.759   2.276   5.655 -0.7849  0.1612  0.5909
 1820TIP3    H2 5394   7.894   2.303   5.718 -0.3077 -1.2285  0.1812
 1821TIP3   OH2 5395   0.202   2.610   5.496  0.6641  0.4325 -0.0150
 1821TIP3    H1 5396   0.222   2.654   5.414 -0.6491  1.7708  0.3763
 1821TIP3    H2 5397   0.200   2.680   5.561 -0.6315 -0.3144  0.7603
 1822TIP3   OH2 5398   0.926   6.800   4.318  0.2266  0.4829 -0.4985
 1822TIP3    H1 5399   0.919   6.719   4.268 -0.5574  0.1661  0.1094
 1822TIP3    H2 5400   0.995   6.850   4.274  0.0915 -0.1281 -1.4146
 1823TIP3   OH2 5401   8.085   4.302   4.509  0.0536 -0.1078  0.1063
 1823TIP3    H1 5402   8.165   4.278   4.461  0.7798  0.1733  1.1786
 1823TIP3    H2 5403   8.106   4.384   4.552 -0.6806 -0.2518  0.7421
 1824TIP3   OH2 5404   1.789   0.268   5.253 -0.2674 -0.2494  0.0957
 1824TIP3    H1 5405   1.757   0.342   5.304  0.0333  0.2445 -0.4239
 1824TIP3    H2 5406   1.858   0.305   5.197 -0.1748 -0.9001 -0.2292
 1825TIP3   OH2 5407   7.641   6.383   4.103  0.4721  0.3122  0.6831
 1825TIP3    H1 5408   7.711   6.340   4.055  0.5883  0.6343  0.5584
 1825TIP3    H2 5409   7.672   6.386   4.193 -0.2702 -1.3756  1.0092
 1826TIP3   OH2 5410   7.822   6.052   3.980 -0.4152 -0.7456 -0.7125
 1826TIP3    H1 5411   7.747   5.994   3.996  0.8152 -2.3283 -0.5081
 1826TIP3    H2 5412   7.842   6.040   3.888 -0.8481  0.2363 -0.9425
 1827TIP3   OH2 5413   0.403   6.229   4.064 -0.0372 -0.2396 -0.4694
 1827TIP3    H1 5414   0.346   6.152   4.067 -0.2094 -0.0702  0.8482
 1827TIP3    H2 5415   0.352   6.299   4.105  0.9929 -0.0067  0.4380
 1828TIP3   OH2 5416   2.074   0.146   4.445  0.6963 -0.7681  0.4670
 1828TIP3    H1 5417   2.073   0.066   4.498  1.5375 -1.7599 -0.9825
 1828TIP3    H2 5418   2.115   0.119   4.362  0.3337  0.9952 -0.2973
 1829TIP3   OH2 5419   0.615   3.643   3.073  0.2485 -0.5033 -0.6958
 1829TIP3    H1 5420   0.617   3.702   2.998  0.9714 -1.5657 -1.5360
 1829TIP3    H2 5421   0.578   3.695   3.144  0.7958  0.9230 -1.4406
 1830TIP3   OH2 5422   0.774   5.678   5.238  0.0741  0.0108 -0.8441
 1830TIP3    H1 5423   0.775   5.595   5.287 -1.0039  1.6039  1.9848
 1830TIP3    H2 5424   0.710   5.732   5.284  1.1415  2.6248 -2.3459
 1831TIP3   OH2 5425   4.942   0.247   4.732 -0.0106 -0.6670 -0.1819
 1831TIP3    H1 5426   4.959   0.262   4.639 -2.5646 -0.9092 -0.7339
 1831TIP3    H2 5427   4.872   0.182   4.733  1.0273 -1.7574  1.9511
 1832TIP3   OH2 5428   3.048   0.148   1.788 -0.6592 -0.2157 -0.3683
 1832TIP3    H1 5429   3.041   0.231   1.741 -1.0347 -0.4146 -0.6726
 1832TIP3    H2 5430   3.071   0.173   1.877 -1.7447  0.2774 -0.2147
 1833TIP3   OH2 5431   6.105   7.858   5.576 -0.1701  0.0594  0.6174
 1833TIP3    H1 5432   6.029   7.802   5.592 -0.2976  0.6045  2.0256
 1833TIP3    H2 5433   6.073   7.947   5.591  0.0108  0.5284 -1.7065
 1834TIP3   OH2 5434   1.986   2.714   2.821  0.2935  0.1171  0.6677
 1834TIP3    H1 5435   2.080   2.724   2.833  0.0415  0.7761  2.2737
 1834TIP3    H2 5436   1.969   2.621   2.836  0.8450 -0.2294 -0.8272
 1835TIP3   OH2 5437   7.507   7.153   3.590 -0.0526 -0.2116  0.0025
 1835TIP3    H1 5438   7.476   7.221   3.649  3.2523  0.5530  0.9339
 1835TIP3    H2 5439   7.543   7.200   3.515 -2.9303 -1.1443 -2.0667
 1836TIP3   OH2 5440   4.637   1.182   3.926  0.7291 -0.3839  0.8238
 1836TIP3    H1 5441   4.699   1.244   3.967 -0.6393  1.0146  0.8188
 1836TIP3    H2 5442   4.589   1.145   4.000 -0.0012  0.2520  0.6728
 1837TIP3   OH2 5443   1.584   6.976   3.854  0.8634  0.2242  0.5037
 1837TIP3    H1 5444   1.627   6.894   3.830 -1.7540 -1.2649  0.7125
 1837TIP3    H2 5445   1.521   6.991   3.784  0.5304  1.4637  1.0651
 1838TIP3   OH2 5446   3.601   1.167   4.508 -0.3730 -0.2189 -0.6400
 1838TIP3    H1 5447   3.609   1.073   4.489  0.0167 -0.6869  1.6739
 1838TIP3    H2 5448   3.510   1.179   4.534 -0.0133 -0.2969  0.7043
 1839TIP3   OH2 5449   3.796   0.045   4.271  0.2974 -0.4422  0.2979
 1839TIP3    H1 5450   3.821   0.084   4.355 -0.1481  0.9437 -0.1957
 1839TIP3    H2 5451   3.727  -0.017   4.293 -0.1591  0.2746  0.9128
 1840TIP3   OH2 5452   0.405   7.472   2.163  0.1654 -0.2288 -0.2406
 1840TIP3    H1 5453   0.446   7.544   2.115  0.5681  0.0811  0.5563
 1840TIP3    H2 5454   0.437   7.393   2.120 -2.1769  0.1007 -2.6591
 1841TIP3   OH2 5455   0.641   7.709   4.676  0.1562 -0.1305  0.0758
 1841TIP3    H1 5456   0.718   7.693   4.621  0.2246  0.8513 -0.1208
 1841TIP3    H2 5457   0.591   7.776   4.630 -0.7933 -0.7057  0.2358
 1842TIP3   OH2 5458   0.357   5.155   4.758  0.5635 -0.0856 -0.3954
 1842TIP3    H1 5459   0.301   5.147   4.681 -0.0865  3.1157 -0.3198
 1842TIP3    H2 5460   0.302   5.129   4.832 -0.1576  0.9351 -0.5658
 1843TIP3   OH2 5461   0.547   0.318   2.389 -0.2558 -0.1538 -0.0560
 1843TIP3    H1 5462   0.574   0.377   2.459  1.7615  0.3362 -1.2214
 1843TIP3    H2 5463   0.454   0.299   2.407 -0.4478  1.9950  1.2668
 1844TIP3   OH2 5464   0.399   7.724   3.798 -0.3138  0.2948 -0.1790
 1844TIP3    H1 5465   0.449   7.683   3.869 -0.1041  0.5703 -0.1675
 1844TIP3    H2 5466   0.325   7.665   3.784  0.4202 -0.5125 -0.7031
 1845TIP3   OH2 5467   8.032   6.425   2.687  0.0888  0.4504  0.2175
 1845TIP3    H1 5468   8.057   6.466   2.604  1.1300  0.9630  0.7764
 1845TIP3    H2 5469   8.006   6.336   2.663  1.7670  0.1345 -0.4905
 1846TIP3   OH2 5470   2.570   1.134   5.300  0.2674  0.3073 -0.1008
 1846TIP3    H1 5471   2.562   1.056   5.354 -3.4803 -0.2573 -1.3554
 1846TIP3    H2 5472   2.578   1.100   5.210  0.8942  1.3160 -0.4313
 1847TIP3   OH2 5473   0.360   7.912   2.806  0.0757 -0.1086  0.1774
 1847TIP3    H1 5474   0.451   7.927   2.782  0.4376  0.9226  2.1296
 1847TIP3    H2 5475   0.320   7.879   2.726  2.2605 -1.0268 -0.5772
 1848TIP3   OH2 5476   2.781   0.887   1.967 -0.2407  0.0779 -0.0457
 1848TIP3    H1 5477   2.790   0.944   1.890  0.5254  0.1253  0.0734
 1848TIP3    H2 5478   2.848   0.919   2.028 -0.5658 -0.2307  0.4770
 1849TIP3   OH2 5479   3.240   1.845   3.703 -0.0133  0.0166  0.2003
 1849TIP3    H1 5480   3.231   1.789   3.626 -0.7732 -0.4273  0.6068
 1849TIP3    H2 5481   3.278   1.788   3.770  0.3541  0.3172  0.2508
 1850TIP3   OH2 5482   1.714   1.004   4.379  0.0503  0.6278  0.1183
 1850TIP3    H1 5483   1.670   1.079   4.419  1.1543  1.9126 -1.0315
 1850TIP3    H2 5484   1.741   0.949   4.453 -0.3968  1.5666  0.9900
 1851TIP3   OH2 5485   3.963   0.291   5.054 -0.2619 -0.1178 -0.5829
 1851TIP3    H1 5486   4.033   0.284   5.119  0.3797 -0.4051 -1.2943
 1851TIP3    H2 5487   3.995   0.357   4.992 -0.7805  0.0101 -0.7130
 1852TIP3   OH2 5488   0.822   2.773   4.722  0.2567 -0.1582  0.0359
 1852TIP3    H1 5489   0.861   2.698   4.767 -0.5476 -1.0371 -0.7220
 1852TIP3    H2 5490   0.730   2.773   4.749 -0.4276 -1.1648 -2.1761
 1853TIP3   OH2 5491   0.133   7.787   2.163  0.3641  0.0648 -0.2664
 1853TIP3    H1 5492   0.087   7.823   2.239  2.2695  2.2535 -0.0828
 1853TIP3    H2 5493   0.098   7.835   2.088  1.8473  1.3363 -0.1877
 1854TIP3   OH2 5494   2.792   0.198   2.097  0.4362 -0.0904  0.1613
 1854TIP3    H1 5495   2.882   0.165   2.096 -0.3747 -2.4064 -1.7387
 1854TIP3    H2 5496   2.798   0.283   2.055  1.6278 -0.5928 -0.7316
 1855TIP3   OH2 5497   4.300   1.780   2.203  0.7677  0.3710 -0.2438
 1855TIP3    H1 5498   4.256   1.695   2.210 -0.3881  0.9088 -0.9785
 1855TIP3    H2 5499   4.351   1.774   2.122 -0.3353  0.8491 -0.9749
 1856TIP3   OH2 5500   1.708   0.068   5.054  0.0910 -0.5006  0.2097
 1856TIP3    H1 5501   1.624   0.113   5.056  0.3485 -0.0364  0.9137
 1856TIP3    H2 5502   1.752   0.096   5.134  1.0669 -0.4476 -0.3394
 1857TIP3   OH2 5503   3.914   0.230   4.094  0.4784 -0.4266  0.2158
 1857TIP3    H1 5504   3.848   0.172   4.134  1.3259 -0.9636  0.8592
 1857TIP3    H2 5505   3.933   0.294   4.162  1.2788 -0.8152  0.3687
 1858TIP3   OH2 5506   2.268   0.557   4.991 -0.0254 -0.1720 -0.4151
 1858TIP3    H1 5507   2.211   0.576   4.916  0.3450  2.3372 -0.1143
 1858TIP3    H2 5508   2.357   0.559   4.954  0.0413 -1.0044 -0.2999
 1859TIP3   OH2 5509   0.365   5.379   4.258  0.4728 -0.2576 -0.4027
 1859TIP3    H1 5510   0.324   5.465   4.246 -0.2950 -0.3798  1.1857
 1859TIP3    H2 5511   0.362   5.364   4.353  1.6542 -1.5251 -0.5506
 1860TIP3   OH2 5512   0.617   6.423   1.101 -0.1862  0.1055  0.7806
 1860TIP3    H1 5513   0.627   6.435   1.006  0.3841  1.4254  0.9899
 1860TIP3    H2 5514   0.617   6.328   1.113 -0.0263 -0.0780 -0.5157
 1861TIP3   OH2 5515   8.135   5.396   3.883  0.0050 -0.5375  0.0888
 1861TIP3    H1 5516   8.099   5.482   3.861  1.3642  0.4550  1.6365
 1861TIP3    H2 5517   8.209   5.384   3.824 -1.3763 -1.5351 -1.4742
 1862TIP3   OH2 5518   7.223   6.320   4.476  1.0143  0.2214 -0.2126
 1862TIP3    H1 5519   7.227   6.224   4.483  1.2209  0.1753 -0.9636
 1862TIP3    H2 5520   7.280   6.341   4.403 -1.6397  0.6427 -2.2467
 1863TIP3   OH2 5521   7.766   7.738   4.067 -0.2079  0.6016  0.1457
 1863TIP3    H1 5522   7.773   7.730   3.972 -2.3059 -0.7710  0.0864
 1863TIP3    H2 5523   7.827   7.672   4.101 -0.2133  0.3984 -0.2374
 1864TIP3   OH2 5524   8.133   6.089   4.372 -0.9792 -0.0839  0.7949
 1864TIP3    H1 5525   8.208   6.147   4.360  0.1841 -1.4572  1.3150
 1864TIP3    H2 5526   8.072   6.115   4.303  0.0436  0.9122  0.2384
 1865TIP3   OH2 5527   0.602   7.221   3.263 -0.1136  0.2280 -0.9050
 1865TIP3    H1 5528   0.517   7.224   3.218 -0.6569  1.4333  0.1646
 1865TIP3    H2 5529   0.645   7.303   3.239  0.6038 -0.2099 -1.1413
 1866TIP3   OH2 5530   2.645   0.911   5.504 -0.4720  0.5607 -0.1429
 1866TIP3    H1 5531   2.570   0.852   5.517  0.5639 -0.6439  0.4437
 1866TIP3    H2 5532   2.716   0.871   5.553  0.0657  2.7100  0.9247
 1867TIP3   OH2 5533   2.433   5.296   4.389  0.0496 -0.4465  0.1482
 1867TIP3    H1 5534   2.373   5.253   4.328 -0.7271  1.1348 -0.2357
 1867TIP3    H2 5535   2.413   5.390   4.381  1.5932 -0.0077  1.0634
 1868TIP3   OH2 5536   4.746   2.135   2.799 -0.0637  0.1254  0.6614
 1868TIP3    H1 5537   4.722   2.055   2.753 -1.5770  1.0723 -0.2263
 1868TIP3    H2 5538   4.835   2.119   2.830  0.4527 -1.0919 -1.3499
 1869TIP3   OH2 5539   2.820   0.902   5.807 -0.0437 -0.1384 -0.0351
 1869TIP3    H1 5540   2.758   0.829   5.816  1.8029 -1.5073  1.8583
 1869TIP3    H2 5541   2.906   0.861   5.808  1.0206  2.0492  0.7939
 1870TIP3   OH2 5542   0.250   7.508   3.729  0.0719  0.2143 -0.2476
 1870TIP3    H1 5543   0.317   7.467   3.673  1.7149  1.0665  1.0435
 1870TIP3    H2 5544   0.186   7.544   3.668 -0.5672 -2.8158 -1.4632
 1871TIP3   OH2 5545   8.259   4.772   4.240 -0.0029 -0.1226 -0.1908
 1871TIP3    H1 5546   8.178   4.800   4.196  0.8548  3.8153  0.5365
 1871TIP3    H2 5547   8.309   4.730   4.171 -1.3083  0.3683 -1.4810
 1872TIP3   OH2 5548   2.165   7.765   2.035  0.1140 -0.3058 -0.4979
 1872TIP3    H1 5549   2.116   7.688   2.007 -1.6854  1.2812 -1.9005
 1872TIP3    H2 5550   2.167   7.821   1.957 -0.1987  1.8275  0.9879
 1873TIP3   OH2 5551   1.758   5.080   3.028  0.1809 -0.7867 -0.2863
 1873TIP3    H1 5552   1.725   5.003   3.076  2.9045 -1.6696  0.2783
 1873TIP3    H2 5553   1.779   5.143   3.097  0.6250 -0.6438 -0.5507
 1874TIP3   OH2 5554   2.206   2.010   4.133 -0.7334 -0.0965  0.1780
 1874TIP3    H1 5555   2.262   2.046   4.202  0.5734 -1.9375  0.1137
 1874TIP3    H2 5556   2.129   1.976   4.179 -1.1122  1.0531  0.4247
 1875TIP3   OH2 5557   8.026   3.532   5.828 -0.1360 -0.2015 -0.2234
 1875TIP3    H1 5558   8.089   3.512   5.758 -1.3364 -1.1382 -1.0477
 1875TIP3    H2 5559   8.062   3.610   5.870  2.1405 -1.2990 -0.0103
 1876TIP3   OH2 5560   7.131   7.577   4.050 -0.0028  0.1993  0.7358
 1876TIP3    H1 5561   7.106   7.573   4.143  0.5130 -0.8427  0.8352
 1876TIP3    H2 5562   7.096   7.496   4.013 -0.5250  0.7915 -0.0631
 1877TIP3   OH2 5563   6.506   6.279   6.836  0.4656 -0.4890  0.5835
 1877TIP3    H1 5564   6.556   6.344   6.886 -0.4224  0.0517  0.7635
 1877TIP3    H2 5565   6.573   6.218   6.804  1.3589  0.7626  0.0286
 1878TIP3   OH2 5566   7.932   7.861   3.690 -0.0091  0.2481 -0.1898
 1878TIP3    H1 5567   7.972   7.811   3.619  1.3860  2.0054 -0.6689
 1878TIP3    H2 5568   7.877   7.926   3.646 -0.8850 -0.0763  0.4039
 1879TIP3   OH2 5569   0.299   1.952   5.555 -0.5177 -0.1710  0.3786
 1879TIP3    H1 5570   0.308   1.916   5.643 -0.6516  0.2717  0.5748
 1879TIP3    H2 5571   0.214   1.996   5.556  1.4093  3.7161  1.4318
 1880TIP3   OH2 5572   3.490   0.120   4.114  0.2611 -0.8316 -0.0415
 1880TIP3    H1 5573   3.454   0.206   4.136  1.3512 -0.3475 -0.1127
 1880TIP3    H2 5574   3.416   0.071   4.078  0.1378  0.8447 -2.1461
 1881TIP3   OH2 5575   1.894   0.221   4.779  0.2749 -0.4931  0.0252
 1881TIP3    H1 5576   1.877   0.127   4.781  4.0156 -1.2282  1.8099
 1881TIP3    H2 5577   1.927   0.237   4.691 -1.5374 -0.5831 -0.6929
 1882TIP3   OH2 5578   4.559   0.479   4.414  0.7322  0.7864  0.0191
 1882TIP3    H1 5579   4.633   0.492   4.473  0.0420 -0.5665  1.2297
 1882TIP3    H2 5580   4.594   0.425   4.343  0.7374 -0.5540  1.0115
 1883TIP3   OH2 5581   2.132   2.169   1.428 -0.3691  0.7023  0.0722
 1883TIP3    H1 5582   2.223   2.158   1.455 -0.4598 -1.2043 -0.3235
 1883TIP3    H2 5583   2.122   2.263   1.412  1.7554  0.8151 -0.6703
 1884TIP3   OH2 5584   2.837   0.390   3.412 -0.7117 -0.2915  0.6248
 1884TIP3    H1 5585   2.854   0.327   3.343 -1.6200 -0.5525  0.6251
 1884TIP3    H2 5586   2.891   0.362   3.485  1.1270  0.6476 -0.3409
 1885TIP3   OH2 5587   2.478   1.774   4.769 -0.4012  0.1947 -0.2761
 1885TIP3    H1 5588   2.483   1.686   4.806  0.0229 -0.1919 -1.2494
 1885TIP3    H2 5589   2.568   1.805   4.768 -0.7298  1.3157  1.6453
 1886TIP3   OH2 5590   3.088   0.706   3.026  0.3878 -0.3376  0.1812
 1886TIP3    H1 5591   3.022   0.663   2.972 -1.1113  1.0697  0.8572
 1886TIP3    H2 5592   3.116   0.638   3.088  0.0280 -1.1173 -0.5062
 1887TIP3   OH2 5593   1.537   1.470   5.544  0.1287  0.2230  0.9745
 1887TIP3    H1 5594   1.524   1.472   5.449 -0.0473 -2.4581  0.8833
 1887TIP3    H2 5595   1.450   1.449   5.579  0.6169 -0.8287  1.5711
 1888TIP3   OH2 5596   0.915   1.164   6.192 -0.2514  0.0730  0.8182
 1888TIP3    H1 5597   0.878   1.245   6.158 -1.5471 -1.0246 -0.4426
 1888TIP3    H2 5598   1.009   1.172   6.176 -0.5976  0.4902 -1.0547
 1889TIP3   OH2 5599   1.098   1.014   4.985 -0.3797 -0.3424 -0.0299
 1889TIP3    H1 5600   1.170   0.959   5.014  0.0542 -0.3492 -1.1005
 1889TIP3    H2 5601   1.019   0.968   5.013  0.0198 -0.6038  0.6660
 1890TIP3   OH2 5602   2.517   0.959   2.331 -0.1249 -0.4129  0.8659
 1890TIP3    H1 5603   2.485   1.048   2.348  1.3131  0.0616  1.1699
 1890TIP3    H2 5604   2.549   0.929   2.416  0.7002 -0.6826  0.4594
 1891TIP3   OH2 5605   2.361   2.186   3.126 -0.6600 -0.5549  0.8555
 1891TIP3    H1 5606   2.384   2.142   3.045 -0.6383 -0.3825  0.7679
 1891TIP3    H2 5607   2.379   2.121   3.195  1.6474  0.1013  0.9338
 1892TIP3   OH2 5608   2.657   0.567   3.891 -0.5544 -0.5972 -0.2106
 1892TIP3    H1 5609   2.616   0.485   3.864  2.0072 -2.5411  1.5581
 1892TIP3    H2 5610   2.743   0.565   3.851 -0.5498  1.3586 -0.3386
 1893TIP3   OH2 5611   4.203   0.371   2.936  0.4172  0.1227 -0.2267
 1893TIP3    H1 5612   4.207   0.415   3.021  0.3129  1.2788 -0.8133
 1893TIP3    H2 5613   4.145   0.426   2.882 -0.9653 -1.5375 -0.5102
 1894TIP3   OH2 5614   6.321   7.915   2.549 -0.3461  0.4683 -0.1045
 1894TIP3    H1 5615   6.351   7.909   2.458 -1.3430 -0.3835 -0.3797
 1894TIP3    H2 5616   6.397   7.885   2.601 -0.3826 -0.7870 -0.7491
 1895TIP3   OH2 5617   3.266   1.135   4.470  0.2557 -0.1602 -0.5287
 1895TIP3    H1 5618   3.195   1.072   4.462  3.0584 -3.4621 -0.3066
 1895TIP3    H2 5619   3.281   1.166   4.380 -0.1669 -0.9180 -0.8607
 1896TIP3   OH2 5620   1.498   7.984   2.955 -0.1896 -0.4328 -0.2436
 1896TIP3    H1 5621   1.517   7.893   2.977  0.5276  0.1627  1.7707
 1896TIP3    H2 5622   1.459   8.020   3.035  1.0194  1.4334 -0.4732
 1897TIP3   OH2 5623   0.855   7.244   4.986  0.2351 -0.6784  0.4278
 1897TIP3    H1 5624   0.883   7.287   4.905  0.9460  1.0085  1.5299
 1897TIP3    H2 5625   0.760   7.254   4.987  0.1940 -0.9681 -0.3394
 1898TIP3   OH2 5626   2.846   0.437   2.575 -0.0584  0.5341 -0.2780
 1898TIP3    H1 5627   2.867   0.528   2.552  0.3328 -0.0647 -2.3933
 1898TIP3    H2 5628   2.930   0.398   2.599  0.1290  0.1659 -1.4799
 1899TIP3   OH2 5629   2.035   7.678   1.066 -0.5285 -0.0372 -0.7015
 1899TIP3    H1 5630   2.062   7.650   0.979  1.8552  1.2717 -0.4205
 1899TIP3    H2 5631   2.065   7.608   1.124  1.1170  0.7979 -0.5364
 1900TIP3   OH2 5632   0.281   6.516   4.637 -0.2440  0.0152  0.4662
 1900TIP3    H1 5633   0.292   6.433   4.590 -0.6002  0.9520 -1.3294
 1900TIP3    H2 5634   0.325   6.581   4.581 -3.7311  1.7462 -0.3841
 1901TIP3   OH2 5635   2.333   1.039   2.856 -0.3211  0.3470 -0.3020
 1901TIP3    H1 5636   2.302   1.071   2.772 -0.8679 -1.7845 -0.9383
 1901TIP3    H2 5637   2.265   1.063   2.918 -0.4158  0.9968 -0.6581
 1902TIP3   OH2 5638   1.473   0.916   6.001 -0.1997  0.6323 -0.1546
 1902TIP3    H1 5639   1.547   0.908   5.941 -0.4522 -0.7588 -0.3022
 1902TIP3    H2 5640   1.438   1.004   5.985  0.5528  0.7673 -1.0820
 1903TIP3   OH2 5641   2.322   0.859   4.899  0.0886  0.2140 -0.0307
 1903TIP3    H1 5642   2.408   0.816   4.898  0.0326  0.0989  0.1856
 1903TIP3    H2 5643   2.295   0.858   4.807  1.0226  1.6677 -0.3362
 1904TIP3   OH2 5644   3.909   0.524   1.827 -0.7024 -0.4572 -0.3072
 1904TIP3    H1 5645   3.859   0.596   1.789  1.2780  0.7404 -0.7560
 1904TIP3    H2 5646   3.845   0.456   1.845 -2.6498  1.4759  0.2437
 1905TIP3   OH2 5647   0.892   7.817   5.883 -0.0739  0.2012  0.1567
 1905TIP3    H1 5648   0.903   7.899   5.835 -0.9100  1.0808  1.4721
 1905TIP3    H2 5649   0.972   7.808   5.934 -0.4788  0.8070  0.9134
 1906TIP3   OH2 5650   1.355   0.438   4.781  0.1824  0.0100 -0.2257
 1906TIP3    H1 5651   1.294   0.432   4.707 -0.3754  1.0649  0.1427
 1906TIP3    H2 5652   1.368   0.347   4.809 -1.8282 -0.1777  0.1785
 1907TIP3   OH2 5653   3.530   1.796   3.682 -0.1588  0.5272 -0.1920
 1907TIP3    H1 5654   3.507   1.854   3.609  0.7809  0.8333 -0.2439
 1907TIP3    H2 5655   3.588   1.731   3.643 -0.7401 -0.1164 -0.0030
 1908TIP3   OH2 5656   2.169   0.791   3.645  0.2103 -0.1128  0.8403
 1908TIP3    H1 5657   2.249   0.803   3.696  0.2907  1.8990  0.2902
 1908TIP3    H2 5658   2.187   0.837   3.563 -0.8084 -1.2719 -0.0394
 1909TIP3   OH2 5659   3.949   0.197   3.831 -0.0944  0.0439  0.5816
 1909TIP3    H1 5660   3.940   0.208   3.925 -0.6773  2.4372  0.2791
 1909TIP3    H2 5661   3.979   0.283   3.799 -1.8793 -0.1086 -1.6342
 1910TIP3   OH2 5662   4.677   1.873   5.480  0.1261  0.2149  0.8471
 1910TIP3    H1 5663   4.663   1.927   5.403  2.2649 -1.1564 -0.5401
 1910TIP3    H2 5664   4.613   1.905   5.544 -0.5442  2.4616 -0.9071
 1911TIP3   OH2 5665   1.918   0.802   4.798  0.0185  0.0694 -0.0599
 1911TIP3    H1 5666   1.868   0.765   4.871 -0.9333 -1.2194 -1.3170
 1911TIP3    H2 5667   1.984   0.735   4.779  2.6991  2.0441  2.0038
 1912TIP3   OH2 5668   3.173   0.805   5.289 -0.2088 -0.3730  0.1183
 1912TIP3    H1 5669   3.185   0.864   5.214 -0.0793  0.3340  0.6906
 1912TIP3    H2 5670   3.211   0.722   5.260  1.9563  0.5429  0.2409
 1913TIP3   OH2 5671   7.518   6.623   4.208 -0.4783  0.1948 -0.0194
 1913TIP3    H1 5672   7.492   6.706   4.167  2.5557  1.0958 -0.2303
 1913TIP3    H2 5673   7.582   6.586   4.149 -0.8547 -1.7031  0.7397
 1914TIP3   OH2 5674   2.480   2.009   2.956  0.2912 -0.0346  0.1419
 1914TIP3    H1 5675   2.503   1.923   2.990 -2.5405 -0.8020  0.3081
 1914TIP3    H2 5676   2.482   1.999   2.861 -0.1052 -0.3398  0.1609
 1915TIP3   OH2 5677   0.830   7.169   5.256  0.1125  0.3755  0.1811
 1915TIP3    H1 5678   0.838   7.172   5.161  0.4309 -1.7949  0.1112
 1915TIP3    H2 5679   0.905   7.117   5.285 -0.2140  0.6641  1.5754
 1916TIP3   OH2 5680   3.295   1.797   4.848 -0.7692 -0.1862  0.1164
 1916TIP3    H1 5681   3.321   1.887   4.862 -1.2326 -0.4938  3.3410
 1916TIP3    H2 5682   3.222   1.802   4.786 -0.2059  1.5653 -0.4108
 1917TIP3   OH2 5683   7.957   6.024   3.362  0.0514 -0.0919 -0.2723
 1917TIP3    H1 5684   7.945   6.110   3.401 -0.4029  0.3863 -1.4593
 1917TIP3    H2 5685   7.885   5.971   3.397 -0.3603  0.3412 -0.4612
 1918TIP3   OH2 5686   0.600   7.322   4.636 -0.2503 -0.0236 -0.0998
 1918TIP3    H1 5687   0.567   7.402   4.595 -0.5995  0.0303  0.2857
 1918TIP3    H2 5688   0.599   7.257   4.565 -2.4052 -0.3673  0.2060
 1919TIP3   OH2 5689   3.539   1.371   6.037 -0.2967 -0.1892  0.0512
 1919TIP3    H1 5690   3.562   1.308   6.106 -1.5830  0.4679  1.0932
 1919TIP3    H2 5691   3.622   1.390   5.994  0.1547 -2.4125 -0.1175
 1920TIP3   OH2 5692   3.321   0.436   5.455 -0.2741  0.1597 -0.0586
 1920TIP3    H1 5693   3.371   0.402   5.382 -0.0776 -1.1123  0.6624
 1920TIP3    H2 5694   3.230   0.433   5.425 -0.0002  1.9293 -1.1468
 1921TIP3   OH2 5695   7.154   0.258   1.641 -0.1312  0.1808 -0.1516
 1921TIP3    H1 5696   7.163   0.269   1.547 -1.1928  3.9152  0.1285
 1921TIP3    H2 5697   7.186   0.340   1.678 -0.9971 -0.7078  2.6784
 1922TIP3   OH2 5698   1.442   0.579   3.688 -0.4387 -0.1969  0.0380
 1922TIP3    H1 5699   1.508   0.626   3.739 -0.1672 -1.4407  0.8303
 1922TIP3    H2 5700   1.461   0.602   3.597  0.5260  0.1596  0.3309
 1923TIP3   OH2 5701   3.078   0.192   4.675 -0.7874 -1.0273 -0.0524
 1923TIP3    H1 5702   3.151   0.210   4.616 -0.7420 -2.4685 -0.4526
 1923TIP3    H2 5703   3.014   0.260   4.656 -0.3795 -0.9383 -1.1019
 1924TIP3   OH2 5704   1.689   1.359   2.571  0.0083  0.3921  0.1077
 1924TIP3    H1 5705   1.730   1.278   2.542 -1.7549 -0.7149  0.6491
 1924TIP3    H2 5706   1.751   1.427   2.546  2.0122 -1.1949  0.5849
 1925TIP3   OH2 5707   4.707   2.328   4.340  0.0608 -0.2165 -0.1918
 1925TIP3    H1 5708   4.732   2.282   4.261 -0.0158 -0.3093 -0.1621
 1925TIP3    H2 5709   4.663   2.407   4.309 -0.5011 -0.5475 -0.2405
 1926TIP3   OH2 5710   3.022   1.436   3.601 -0.0027  0.5011 -0.6575
 1926TIP3    H1 5711   2.956   1.384   3.554 -0.9747  0.2507  0.9418
 1926TIP3    H2 5712   3.092   1.374   3.620 -0.1957  0.2888 -0.6362
 1927TIP3   OH2 5713   1.475   7.195   4.137  0.2770 -0.0541  0.1141
 1927TIP3    H1 5714   1.495   7.278   4.180  2.4763  0.3088 -1.5160
 1927TIP3    H2 5715   1.404   7.215   4.076  0.0705  0.3947  0.5056
 1928TIP3   OH2 5716   6.812   7.666   4.324  0.3845  0.5758  0.2591
 1928TIP3    H1 5717   6.730   7.678   4.276  1.3395  0.2776 -1.5233
 1928TIP3    H2 5718   6.867   7.739   4.294  0.0460  2.0473  3.0846
 1929TIP3   OH2 5719   6.115   7.804   5.298  0.1615  0.2677  0.4472
 1929TIP3    H1 5720   6.032   7.842   5.270 -0.8473 -0.0908  2.8010
 1929TIP3    H2 5721   6.120   7.824   5.392  2.8965  0.5724  0.2934
 1930TIP3   OH2 5722   1.681   6.693   3.876 -0.1312  0.3601  0.1503
 1930TIP3    H1 5723   1.662   6.620   3.817  4.0306  0.8829 -2.0095
 1930TIP3    H2 5724   1.694   6.652   3.962  1.6857 -1.4487 -0.9495
 1931TIP3   OH2 5725   2.234   0.970   5.152 -0.4873 -0.3865 -0.2116
 1931TIP3    H1 5726   2.186   0.904   5.202 -3.0685  0.3200 -1.6440
 1931TIP3    H2 5727   2.290   0.920   5.092  1.1581 -1.2283  1.9660
 1932TIP3   OH2 5728   3.688   3.383   1.376  0.3269  0.2127  0.3333
 1932TIP3    H1 5729   3.628   3.392   1.450  0.4576 -0.2604  0.5009
 1932TIP3    H2 5730   3.727   3.296   1.387  2.5213  1.2932  1.3382
 1933TIP3   OH2 5731   1.756   7.251   1.908 -0.1000 -0.6183  0.6215
 1933TIP3    H1 5732   1.729   7.327   1.960 -0.8982 -0.5773  0.1498
 1933TIP3    H2 5733   1.780   7.288   1.823  1.7205 -0.6178  1.1099
 1934TIP3   OH2 5734   0.775   6.444   2.189  0.1420  0.0418 -0.5018
 1934TIP3    H1 5735   0.800   6.459   2.280  0.3823 -0.8968 -0.4130
 1934TIP3    H2 5736   0.741   6.355   2.187 -3.1361  1.2086 -0.6320
 1935TIP3   OH2 5737   1.997   1.132   5.241 -0.3003 -0.1999 -0.4201
 1935TIP3    H1 5738   2.014   1.054   5.294 -1.6692  0.1623  0.5950
 1935TIP3    H2 5739   1.917   1.110   5.192  0.2807 -0.0722 -1.4428
 1936TIP3   OH2 5740   2.475   7.299   4.423  0.4452  0.4744  0.0981
 1936TIP3    H1 5741   2.411   7.361   4.456 -0.5230 -1.1192  1.2548
 1936TIP3    H2 5742   2.500   7.246   4.498  0.5202 -1.1829 -1.0570
 1937TIP3   OH2 5743   0.505   7.954   3.465  0.0259 -0.0749 -0.1727
 1937TIP3    H1 5744   0.480   7.868   3.501 -0.2529  0.0149 -0.1492
 1937TIP3    H2 5745   0.490   7.945   3.371 -0.0374 -0.0427 -0.1663
 1938TIP3   OH2 5746   1.674   6.718   4.983  0.4705 -0.0194 -0.2745
 1938TIP3    H1 5747   1.665   6.803   4.941  2.1134  0.4174  0.2348
 1938TIP3    H2 5748   1.765   6.692   4.967 -0.1962 -2.0101 -1.0405
 1939TIP3   OH2 5749   8.018   6.762   3.084  0.1370 -0.6443  0.2776
 1939TIP3    H1 5750   8.035   6.840   3.030 -0.0756  0.5065  1.8241
 1939TIP3    H2 5751   8.041   6.688   3.028 -1.1643  0.4677 -1.7742
 1940TIP3   OH2 5752   2.827   0.294   4.461  0.2834  0.3341  0.5919
 1940TIP3    H1 5753   2.891   0.294   4.390  0.6557 -1.5678  0.8971
 1940TIP3    H2 5754   2.755   0.349   4.428 -0.6896 -2.5328 -2.3296
 1941TIP3   OH2 5755   4.013   0.104   6.113  0.0577  0.1195 -0.0721
 1941TIP3    H1 5756   4.107   0.121   6.113 -0.0323  0.6246  0.3430
 1941TIP3    H2 5757   4.006   0.010   6.100  0.6153  0.1196 -0.3831
 1942TIP3   OH2 5758   1.476   1.711   5.762 -0.4497  0.6256 -0.0759
 1942TIP3    H1 5759   1.512   1.688   5.676 -4.1869 -2.2578 -0.9605
 1942TIP3    H2 5760   1.480   1.630   5.813 -2.1331  1.2512  1.0762
 1943TIP3   OH2 5761   6.448   7.291   3.068  0.6493 -0.3325  0.0764
 1943TIP3    H1 5762   6.494   7.350   3.128  1.4223  1.4344 -2.1987
 1943TIP3    H2 5763   6.357   7.318   3.073  0.7635  0.0299  0.1793
 1944TIP3   OH2 5764   3.634   0.698   5.595  0.2823 -0.1787  0.1155
 1944TIP3    H1 5765   3.685   0.766   5.640 -0.5876  0.7987 -0.3447
 1944TIP3    H2 5766   3.602   0.741   5.516  1.3379 -1.7235 -1.1529
 1945TIP3   OH2 5767   3.153   0.820   1.572 -0.1265 -0.4310 -0.3024
 1945TIP3    H1 5768   3.231   0.767   1.558  0.5673  0.7105 -0.8147
 1945TIP3    H2 5769   3.085   0.757   1.595  0.3323 -1.6816 -2.2853
 1946TIP3   OH2 5770   2.215   2.508   4.994 -0.9072  0.0391  0.0439
 1946TIP3    H1 5771   2.195   2.496   5.087 -0.4826  0.4333  0.1878
 1946TIP3    H2 5772   2.140   2.469   4.948 -0.0344 -2.2923  0.5012
 1947TIP3   OH2 5773   2.377   1.960   4.955 -0.0055 -0.1698 -0.2697
 1947TIP3    H1 5774   2.432   1.944   5.032 -1.9082 -0.5198  1.0744
 1947TIP3    H2 5775   2.399   1.889   4.894  0.1499 -1.0194  0.7577
 1948TIP3   OH2 5776   2.834   1.378   1.026 -0.0489  0.6550  0.7962
 1948TIP3    H1 5777   2.817   1.302   1.082 -2.0471  0.2367 -0.3326
 1948TIP3    H2 5778   2.753   1.390   0.977  0.8777  2.4322 -0.3452
 1949TIP3   OH2 5779   2.976   0.354   1.586 -0.4970  0.2388 -0.1758
 1949TIP3    H1 5780   2.958   0.437   1.630  0.3487  0.6394 -0.5642
 1949TIP3    H2 5781   2.900   0.341   1.529  0.7970  2.4151 -2.5460
 1950TIP3   OH2 5782   3.011   0.625   4.747  0.1882  0.4840 -0.1780
 1950TIP3    H1 5783   2.969   0.673   4.676 -0.9758  1.1449  0.9218
 1950TIP3    H2 5784   2.982   0.535   4.737 -0.1464  0.6202 -0.4122
 1951TIP3   OH2 5785   8.323   8.002   2.952 -0.0574 -0.1308  0.4523
 1951TIP3    H1 5786   8.408   7.988   2.910 -1.1736 -2.1671 -1.2342
 1951TIP3    H2 5787   8.329   7.952   3.033 -0.2913 -1.8528 -0.5687
 1952TIP3   OH2 5788   3.074   0.796   3.314 -0.1104 -0.3287  0.7171
 1952TIP3    H1 5789   3.011   0.773   3.382 -3.2935 -0.6617 -2.2117
 1952TIP3    H2 5790   3.030   0.775   3.232  2.5890  2.4748 -1.5760
 1953TIP3   OH2 5791   0.343   1.989   5.003  0.5309  0.4037 -0.4153
 1953TIP3    H1 5792   0.407   1.975   5.073  1.2223  0.3229 -1.0527
 1953TIP3    H2 5793   0.264   2.020   5.048  0.1899 -1.9090  0.6165
 1954TIP3   OH2 5794   0.847   1.206   2.427 -0.3130 -0.3149  0.4222
 1954TIP3    H1 5795   0.771   1.263   2.438  0.1211  0.2827  0.3295
 1954TIP3    H2 5796   0.850   1.155   2.509 -0.9288 -0.4869  0.3420
 1955TIP3   OH2 5797   2.227   1.398   1.482  0.0587  0.0105  0.2276
 1955TIP3    H1 5798   2.279   1.378   1.404  2.4844 -0.5948  1.9049
 1955TIP3    H2 5799   2.251   1.329   1.544 -1.8378  0.4737  1.5112
 1956TIP3   OH2 5800   3.146   0.254   3.379 -0.3312 -0.3392  0.2516
 1956TIP3    H1 5801   3.090   0.279   3.452 -0.2724 -0.2048  0.2521
 1956TIP3    H2 5802   3.227   0.222   3.420 -0.1486  0.1037  0.2369
 1957TIP3   OH2 5803   4.060   2.928   2.698 -0.2180  0.1783  0.7676
 1957TIP3    H1 5804   4.121   2.991   2.737 -0.7817  1.2062  0.0221
 1957TIP3    H2 5805   4.115   2.867   2.650  0.2662  0.7664  0.5723
 1958TIP3   OH2 5806   1.513   7.783   2.089 -0.0777  0.5488  0.0783
 1958TIP3    H1 5807   1.433   7.824   2.057 -0.3896  1.6279  2.0945
 1958TIP3    H2 5808   1.492   7.689   2.092 -1.3087  0.8191  0.6250
 1959TIP3   OH2 5809   2.415   6.944   1.420 -0.0281  0.3686  0.0433
 1959TIP3    H1 5810   2.384   6.911   1.336  2.2144 -1.0721 -0.2798
 1959TIP3    H2 5811   2.364   6.896   1.485 -1.8143  1.5377 -0.4742
 1960TIP3   OH2 5812   1.440   7.645   3.952  0.0396 -0.2295 -0.2123
 1960TIP3    H1 5813   1.392   7.660   4.033  1.8360 -0.9431  0.9913
 1960TIP3    H2 5814   1.404   7.710   3.891 -1.0274  0.5893  1.2574
 1961TIP3   OH2 5815   7.881   7.573   3.313 -0.6015  0.4835  0.2699
 1961TIP3    H1 5816   7.883   7.602   3.222 -1.1016 -0.8368 -0.1746
 1961TIP3    H2 5817   7.966   7.532   3.328 -1.3186 -1.2165 -0.2562
 1962TIP3   OH2 5818   3.642   0.219   1.195  0.0382  0.0795  0.6676
 1962TIP3    H1 5819   3.660   0.272   1.272  0.9947  0.5982  0.0924
 1962TIP3    H2 5820   3.637   0.282   1.123  0.0466 -0.4899  0.1636
 1963TIP3   OH2 5821   2.268   1.932   2.455  0.2954  0.1392  0.2007
 1963TIP3    H1 5822   2.184   1.937   2.502  0.6460 -0.5692  0.9076
 1963TIP3    H2 5823   2.258   1.994   2.383  0.2395  2.2628  1.9721
 1964TIP3   OH2 5824   4.621   3.693   2.679 -0.9009 -0.0236 -0.4590
 1964TIP3    H1 5825   4.601   3.607   2.717 -0.6568  0.1147 -0.0161
 1964TIP3    H2 5826   4.550   3.749   2.710  0.0889  0.4482  1.0462
 1965TIP3   OH2 5827   6.568   0.221   1.351 -0.0874 -0.2955 -0.0427
 1965TIP3    H1 5828   6.629   0.294   1.365 -1.2436  0.5004  0.9475
 1965TIP3    H2 5829   6.568   0.173   1.434  0.2232 -1.0947 -0.4974
 1966TIP3   OH2 5830   4.400   2.251   1.405 -0.2262 -0.2063 -0.4845
 1966TIP3    H1 5831   4.359   2.314   1.465  2.0075  2.1039 -1.2740
 1966TIP3    H2 5832   4.441   2.186   1.462  0.6663  1.1743  0.4661
 1967TIP3   OH2 5833   0.581   6.857   3.776  0.3174 -0.8951  0.0270
 1967TIP3    H1 5834   0.615   6.768   3.789 -0.3629 -1.0514  0.7744
 1967TIP3    H2 5835   0.627   6.909   3.842  1.1455 -0.5717 -0.7906
 1968TIP3   OH2 5836   3.271   2.024   2.923 -0.3034 -0.2620  0.0831
 1968TIP3    H1 5837   3.308   1.938   2.944  0.5219  0.1637  0.3770
 1968TIP3    H2 5838   3.250   2.063   3.008 -0.7527 -0.2065 -0.0530
 1969TIP3   OH2 5839   2.686   0.253   4.868 -0.1147  0.0131 -0.6350
 1969TIP3    H1 5840   2.628   0.253   4.943  1.7698  0.5710  0.8572
 1969TIP3    H2 5841   2.705   0.161   4.852 -0.2472 -0.0888 -0.2002
 1970TIP3   OH2 5842   0.622   5.170   1.148 -0.5336 -0.0458  0.1842
 1970TIP3    H1 5843   0.605   5.264   1.141 -0.1208  0.1927  2.1195
 1970TIP3    H2 5844   0.688   5.163   1.217 -0.7775 -1.7647  0.2579
 1971TIP3   OH2 5845   0.756   7.231   1.855  0.3456 -0.0810 -0.0257
 1971TIP3    H1 5846   0.727   7.144   1.884  0.4082  0.4014  1.5138
 1971TIP3    H2 5847   0.828   7.212   1.794 -0.2603 -1.1340 -0.4324
 1972TIP3   OH2 5848   1.516   2.399   3.520  1.0102 -0.0048 -0.3238
 1972TIP3    H1 5849   1.559   2.362   3.597  1.6038 -0.5281 -0.9057
 1972TIP3    H2 5850   1.575   2.468   3.490  0.7551  0.2322 -0.2810
 1973TIP3   OH2 5851   2.082   1.275   1.787 -0.1862  0.2867 -0.3990
 1973TIP3    H1 5852   2.146   1.226   1.734  0.1914  0.7983 -0.4248
 1973TIP3    H2 5853   2.112   1.263   1.877 -0.0586  0.5202 -0.4106
 1974TIP3   OH2 5854   0.686   7.649   2.374  0.4496  0.2260 -0.2563
 1974TIP3    H1 5855   0.747   7.677   2.306 -0.5585  0.5339 -1.0485
 1974TIP3    H2 5856   0.726   7.678   2.456  1.6859 -0.1784 -0.7088
 1975TIP3   OH2 5857   4.185   0.188   4.751 -0.0247  0.0631 -0.3398
 1975TIP3    H1 5858   4.237   0.230   4.819  0.7975 -1.1593 -0.2061
 1975TIP3    H2 5859   4.119   0.137   4.798 -0.3086  0.2922 -0.4842
 1976TIP3   OH2 5860   0.877   7.980   2.447 -0.6313 -0.0484 -0.2778
 1976TIP3    H1 5861   0.896   7.980   2.541 -0.5132 -0.4058 -0.2988
 1976TIP3    H2 5862   0.936   7.913   2.411 -0.0419  0.7158 -0.7397
 1977TIP3   OH2 5863   3.523   1.894   2.028  0.3259  0.2307 -0.2358
 1977TIP3    H1 5864   3.477   1.812   2.046  0.2296  0.2090 -0.5914
 1977TIP3    H2 5865   3.601   1.890   2.083  0.8920 -0.5960 -1.0826
 1978TIP3   OH2 5866   4.431   0.456   1.567 -0.0155  0.5386  0.6074
 1978TIP3    H1 5867   4.353   0.487   1.614 -1.0153 -0.4861 -0.3537
 1978TIP3    H2 5868   4.410   0.469   1.475  0.1604 -1.5820  0.2512
 1979TIP3   OH2 5869   5.286   1.638   2.369 -0.1323 -0.1536 -1.0393
 1979TIP3    H1 5870   5.213   1.679   2.323  0.8417 -1.0428 -3.4743
 1979TIP3    H2 5871   5.298   1.554   2.324  2.4803  0.0496 -0.7951
 1980TIP3   OH2 5872   3.603   2.806   3.431 -0.3469  0.1981 -0.7922
 1980TIP3    H1 5873   3.515   2.817   3.395 -0.6161  0.7036  0.0268
 1980TIP3    H2 5874   3.662   2.821   3.356 -0.9834 -1.5004 -1.6754
 1981TIP3   OH2 5875   4.489   0.415   3.667  0.0142 -0.1502 -0.1147
 1981TIP3    H1 5876   4.411   0.372   3.631  0.0466 -0.8550  0.6316
 1981TIP3    H2 5877   4.507   0.487   3.607 -1.8918  0.7204  0.3061
 1982TIP3   OH2 5878   2.127   0.393   3.808  0.2417 -0.0331 -0.1036
 1982TIP3    H1 5879   2.147   0.452   3.881 -0.0209  0.1797 -0.2035
 1982TIP3    H2 5880   2.198   0.407   3.746 -0.1200  0.5996 -0.3812
 1983TIP3   OH2 5881   5.489   1.920   0.969 -0.1415 -0.2502  0.5947
 1983TIP3    H1 5882   5.556   1.881   0.913  1.2734  0.3874  1.7985
 1983TIP3    H2 5883   5.441   1.846   1.005 -1.2045 -0.6668 -1.5851
 1984TIP3   OH2 5884   4.826   1.132   4.436 -0.1582  0.6147 -0.6012
 1984TIP3    H1 5885   4.906   1.171   4.401  0.5305 -1.0991 -0.9828
 1984TIP3    H2 5886   4.833   1.144   4.531  0.1635  1.1773 -0.6964
 1985TIP3   OH2 5887   2.078   6.785   4.716  0.1546 -0.8662  0.7158
 1985TIP3    H1 5888   2.164   6.755   4.745 -0.3783 -3.6034 -0.3569
 1985TIP3    H2 5889   2.018   6.760   4.786  0.1732  0.8368  1.3619
 1986TIP3   OH2 5890   0.886   6.512   4.205 -0.3095  0.5005  0.9801
 1986TIP3    H1 5891   0.843   6.468   4.132 -1.3075  0.0970  1.7986
 1986TIP3    H2 5892   0.952   6.450   4.235  1.0261  1.2207 -0.4389
 1987TIP3   OH2 5893   3.293   3.226   1.565 -0.2320  0.0589 -0.1913
 1987TIP3    H1 5894   3.202   3.242   1.541 -0.1821  0.8002  0.0834
 1987TIP3    H2 5895   3.339   3.217   1.481 -0.7362 -1.4019 -0.3161
 1988TIP3   OH2 5896   4.690   1.407   3.303  0.1288 -0.0087  0.1773
 1988TIP3    H1 5897   4.686   1.359   3.220 -0.5772  1.4952 -0.7003
 1988TIP3    H2 5898   4.600   1.435   3.318  0.5686  1.2494  0.5112
 1989TIP3   OH2 5899   4.148   1.020   2.137 -0.3362 -0.8499  0.3331
 1989TIP3    H1 5900   4.093   0.988   2.209  1.7608 -0.1676  2.3177
 1989TIP3    H2 5901   4.124   1.112   2.129 -0.8299 -1.0158 -0.0799
 1990TIP3   OH2 5902   2.595   0.424   4.440  0.3725  0.4024  0.0777
 1990TIP3    H1 5903   2.563   0.481   4.370  3.5401 -0.8673 -2.5365
 1990TIP3    H2 5904   2.541   0.346   4.434 -1.3200  1.4714  1.0342
 1991TIP3   OH2 5905   4.382   1.094   1.792 -0.4043 -0.2157 -0.4474
 1991TIP3    H1 5906   4.407   1.049   1.711 -1.2844  0.0256 -0.8710
 1991TIP3    H2 5907   4.404   1.033   1.862 -0.1192 -0.6458 -0.9078
 1992TIP3   OH2 5908   4.508   1.421   2.192 -0.2658 -0.0605  0.3558
 1992TIP3    H1 5909   4.536   1.366   2.119 -2.6432  0.1471 -0.7841
 1992TIP3    H2 5910   4.547   1.507   2.175  1.8033 -0.8312  1.0706
 1993TIP3   OH2 5911   8.434   7.396   1.217 -0.2830  0.2361 -0.1355
 1993TIP3    H1 5912   8.366   7.392   1.150 -0.9737 -0.4238  0.5784
 1993TIP3    H2 5913   8.418   7.479   1.262 -0.2395  0.3668 -0.3606
 1994TIP3   OH2 5914   4.520   1.962   1.585  0.1717  0.4034 -0.0700
 1994TIP3    H1 5915   4.547   1.989   1.674 -2.6071 -2.2217  1.6548
 1994TIP3    H2 5916   4.602   1.959   1.536  1.8084  1.8446  2.4239
 1995TIP3   OH2 5917   3.486   0.033   3.803  0.0023 -0.0250  0.0873
 1995TIP3    H1 5918   3.464   0.125   3.816  1.9507  0.2319  1.7813
 1995TIP3    H2 5919   3.421  -0.015   3.855 -0.5622  0.4252 -0.2059
 1996TIP3   OH2 5920   0.221   7.851   2.570 -0.3028  0.3882  0.8811
 1996TIP3    H1 5921   0.145   7.855   2.513 -1.7226  0.5664  2.7205
 1996TIP3    H2 5922   0.291   7.817   2.515 -1.9874 -0.8498 -0.5539
 1997TIP3   OH2 5923   7.979   3.080   1.740 -0.2536 -0.2699 -0.7135
 1997TIP3    H1 5924   7.902   3.131   1.712 -1.0744 -0.1408  1.7060
 1997TIP3    H2 5925   8.048   3.107   1.680 -1.3133  1.9036 -1.0007
 1998TIP3   OH2 5926   2.975   6.928   4.168 -0.6945  0.5192 -0.2300
 1998TIP3    H1 5927   3.064   6.955   4.142 -0.2048 -0.3442  0.5361
 1998TIP3    H2 5928   2.927   6.924   4.085  0.0567  0.7281 -0.6866
 1999TIP3   OH2 5929   3.190   0.596   0.830 -0.0493  0.5767 -0.4148
 1999TIP3    H1 5930   3.113   0.609   0.884 -0.3789 -0.3512 -0.6589
 1999TIP3    H2 5931   3.197   0.677   0.779  0.8675  1.8835  1.7306
 2000TIP3   OH2 5932   4.591   0.132   3.573  0.0020 -0.0028  0.2507
 2000TIP3    H1 5933   4.574   0.109   3.481 -2.5994  0.3611  0.5892
 2000TIP3    H2 5934   4.505   0.127   3.615  1.2237 -0.6331  2.7921
 2001TIP3   OH2 5935   4.378   2.204   1.783  0.0184  0.5731  0.3282
 2001TIP3    H1 5936   4.303   2.251   1.746 -0.3815  0.3574  0.8623
 2001TIP3    H2 5937   4.341   2.123   1.818  0.4038  0.7408  1.1383
 2002TIP3   OH2 5938   4.544   1.036   3.099  0.6436  0.2100 -0.1767
 2002TIP3    H1 5939   4.593   0.981   3.038  0.5412  0.0075 -0.0761
 2002TIP3    H2 5940   4.595   1.033   3.180 -0.0638 -0.8179  0.2384
 2003TIP3   OH2 5941   6.406   2.380   3.029 -0.0847  0.0723  0.1956
 2003TIP3    H1 5942   6.326   2.342   2.991  0.4002 -0.1371 -0.6277
 2003TIP3    H2 5943   6.436   2.314   3.091 -2.4383  1.6258  3.0967
 2004TIP3   OH2 5944   1.607   7.500   2.264 -0.2837 -0.0260  0.4123
 2004TIP3    H1 5945   1.657   7.497   2.183 -0.7161  0.6799  0.1206
 2004TIP3    H2 5946   1.521   7.466   2.240 -0.3203 -0.0979  0.6453
 2005TIP3   OH2 5947   6.568   0.455   2.784 -0.1004  0.0547  0.3220
 2005TIP3    H1 5948   6.503   0.401   2.829  2.1385 -2.3730  0.7747
 2005TIP3    H2 5949   6.517   0.527   2.746 -3.0219 -1.6827  0.7474
 2006TIP3   OH2 5950   3.329   1.474   2.972 -0.0984  0.7125 -0.5922
 2006TIP3    H1 5951   3.287   1.531   2.909 -1.9911  0.4652  0.4169
 2006TIP3    H2 5952   3.320   1.386   2.936 -0.1852  0.6863 -0.5054
 2007TIP3   OH2 5953   0.432   6.632   3.157  0.8586 -0.2501  0.2942
 2007TIP3    H1 5954   0.468   6.685   3.228  1.5573  0.3363 -0.4819
 2007TIP3    H2 5955   0.416   6.547   3.196  0.9980  0.1406  1.2185
 2008TIP3   OH2 5956   4.636   1.543   3.779 -0.1245  0.2076  0.0625
 2008TIP3    H1 5957   4.712   1.493   3.809  0.5688  1.0776 -0.2407
 2008TIP3    H2 5958   4.593   1.486   3.715 -0.5376 -0.8763  1.2797
 2009TIP3   OH2 5959   0.779   7.959   1.794 -0.1921 -0.0256  0.6983
 2009TIP3    H1 5960   0.725   7.880   1.788  1.5469 -1.0702 -2.5307
 2009TIP3    H2 5961   0.773   7.999   1.707  1.6751  1.5543  1.2484
 2010TIP3   OH2 5962   3.621   1.346   2.604  0.0424 -0.0547 -0.2111
 2010TIP3    H1 5963   3.621   1.298   2.687  0.5299 -0.8764 -0.6710
 2010TIP3    H2 5964   3.658   1.431   2.626 -1.6283  0.4282  0.7846
 2011TIP3   OH2 5965   3.388   0.314   3.810  0.8904 -1.1184  0.0922
 2011TIP3    H1 5966   3.471   0.359   3.795  1.7758 -2.2789  1.3717
 2011TIP3    H2 5967   3.355   0.294   3.722  0.8488  1.3233 -0.4675
 2012TIP3   OH2 5968   3.350   0.737   3.251  0.1111  0.0183 -0.3832
 2012TIP3    H1 5969   3.386   0.650   3.268  0.7513  0.4757  0.6753
 2012TIP3    H2 5970   3.255   0.725   3.253  0.1712 -0.3537  1.5945
 2013TIP3   OH2 5971   7.489   8.006   4.262 -0.0904 -0.2049  0.1245
 2013TIP3    H1 5972   7.564   7.955   4.293 -1.2530 -0.8352  1.9958
 2013TIP3    H2 5973   7.421   7.990   4.327 -1.0305  2.3932 -0.1657
 2014TIP3   OH2 5974   5.281   2.553   0.854 -0.0431 -0.4726 -0.1220
 2014TIP3    H1 5975   5.362   2.578   0.899 -1.1496 -0.0040  1.6787
 2014TIP3    H2 5976   5.227   2.633   0.856 -0.5329 -0.7705 -1.3238
 2015TIP3   OH2 5977   3.087   0.637   1.916  0.1930 -0.8010 -0.6707
 2015TIP3    H1 5978   3.011   0.668   1.866  2.0820  2.7484 -1.5428
 2015TIP3    H2 5979   3.150   0.609   1.849  1.0857 -0.1525 -0.1094
 2016TIP3   OH2 5980   2.932   7.749   1.922 -0.1287 -0.3189 -0.2605
 2016TIP3    H1 5981   2.879   7.811   1.972  0.0759  0.4121 -0.9404
 2016TIP3    H2 5982   2.944   7.790   1.836 -0.9818 -1.8194 -1.1338
 2017TIP3   OH2 5983   3.091   4.991   1.596 -0.6883  0.3767  0.2650
 2017TIP3    H1 5984   3.088   5.032   1.510  0.7321 -0.0507  0.0043
 2017TIP3    H2 5985   3.096   5.065   1.657  3.0569  0.6542 -0.2578
 2018TIP3   OH2 5986   5.819   1.173   2.661  0.5114 -0.5919 -0.4883
 2018TIP3    H1 5987   5.898   1.136   2.622  0.0427 -1.4065 -0.7011
 2018TIP3    H2 5988   5.748   1.137   2.608 -0.0441 -0.5157  0.1973
 2019TIP3   OH2 5989   2.575   1.348   4.682 -0.3103  0.5092 -0.9975
 2019TIP3    H1 5990   2.485   1.379   4.697 -0.5014 -0.0755 -0.9113
 2019TIP3    H2 5991   2.609   1.407   4.614 -0.8285  0.6116 -1.1766
 2020TIP3   OH2 5992   5.560   0.421   3.124 -0.8153 -0.2965 -0.2856
 2020TIP3    H1 5993   5.616   0.498   3.114 -1.0656  0.3953  3.2411
 2020TIP3    H2 5994   5.472   0.452   3.105 -0.8452  0.1395  0.5895
 2021TIP3   OH2 5995   2.660   2.076   3.366 -0.1620  0.1087  0.4987
 2021TIP3    H1 5996   2.723   2.126   3.419  1.5624  0.2378 -1.6180
 2021TIP3    H2 5997   2.673   1.985   3.394  1.1274  0.1067 -0.0509
 2022TIP3   OH2 5998   2.814   2.018   3.030 -0.1659 -0.9234 -0.6484
 2022TIP3    H1 5999   2.779   2.053   3.112 -0.7772 -2.8151 -0.0746
 2022TIP3    H2 6000   2.769   2.068   2.962  1.4726  1.7502  0.1203
 2023TIP3   OH2 6001   1.852   7.388   2.426  0.3923 -0.0896 -0.7697
 2023TIP3    H1 6002   1.795   7.311   2.433  0.2702 -0.0614 -1.4272
 2023TIP3    H2 6003   1.842   7.417   2.336  0.0794  0.9894 -0.3889
 2024TIP3   OH2 6004   4.968   0.024   1.607  0.0509 -0.0164 -0.2674
 2024TIP3    H1 6005   4.974  -0.014   1.520  1.7570  0.9685 -0.6007
 2024TIP3    H2 6006   4.949   0.117   1.591  1.3748  0.3756  0.3651
 2025TIP3   OH2 6007   2.875   0.971   4.029  0.2811  0.6783 -0.6602
 2025TIP3    H1 6008   2.896   1.035   3.962 -1.9356  2.7201  0.5291
 2025TIP3    H2 6009   2.961   0.942   4.062  1.3462  1.1647 -2.8809
 2026TIP3   OH2 6010   1.418   7.479   2.745  0.1939 -0.3580 -0.3385
 2026TIP3    H1 6011   1.335   7.440   2.773  1.4003 -1.5636  1.6642
 2026TIP3    H2 6012   1.414   7.569   2.777  0.4568 -0.9805  1.4886
 2027TIP3   OH2 6013   3.800   0.369   1.373 -0.0193 -0.2297  0.2070
 2027TIP3    H1 6014   3.836   0.405   1.292 -0.6874  0.5343  0.2505
 2027TIP3    H2 6015   3.877   0.337   1.420  0.5487  0.8115  0.0089
 2028TIP3   OH2 6016   4.695   2.445   1.445 -0.0536  0.3479  0.3603
 2028TIP3    H1 6017   4.663   2.395   1.520 -0.5397 -0.1719 -0.1857
 2028TIP3    H2 6018   4.738   2.381   1.389  1.8038  1.0141  0.9868
 2029TIP3   OH2 6019   1.882   7.625   4.722  0.1677  0.0610  0.4743
 2029TIP3    H1 6020   1.943   7.648   4.792 -0.5370  0.6971  0.8839
 2029TIP3    H2 6021   1.935   7.626   4.643  0.7107  0.5421  0.8372
 2030TIP3   OH2 6022   3.689   1.199   2.852  0.6034 -0.0815 -0.0043
 2030TIP3    H1 6023   3.637   1.145   2.913 -0.8081  1.0929 -0.1360
 2030TIP3    H2 6024   3.768   1.220   2.901 -0.1705  0.1945  1.1672
 2031TIP3   OH2 6025   3.844   0.299   3.177 -0.1492 -0.3003  0.3128
 2031TIP3    H1 6026   3.874   0.235   3.112 -0.6557  0.6257 -0.8590
 2031TIP3    H2 6027   3.793   0.362   3.126 -2.4191 -0.7495  1.9536
 2032TIP3   OH2 6028   6.074   0.437   0.884  0.2528 -0.0270  0.1739
 2032TIP3    H1 6029   5.992   0.388   0.891  0.4686 -0.3945  0.1325
 2032TIP3    H2 6030   6.067   0.503   0.953 -0.0324 -0.1230  0.2406
 2033TIP3   OH2 6031   4.518   0.659   3.525 -0.2933 -0.0153 -0.4687
 2033TIP3    H1 6032   4.519   0.679   3.431  0.8136  1.2157 -0.2143
 2033TIP3    H2 6033   4.474   0.734   3.565 -0.9842 -0.6570 -0.0232
 2034TIP3   OH2 6034   8.313   7.297   1.553  0.3494 -0.1669 -0.1233
 2034TIP3    H1 6035   8.242   7.237   1.576  0.5858 -0.4322 -0.1009
 2034TIP3    H2 6036   8.360   7.254   1.483  2.2533 -1.3169  1.8175
 2035TIP3   OH2 6037   5.592   1.380   2.210 -0.0754  0.4254 -0.1496
 2035TIP3    H1 6038   5.591   1.414   2.300 -2.8513 -1.3826  0.5511
 2035TIP3    H2 6039   5.520   1.426   2.167 -2.3317 -2.6461  0.1469
 2036TIP3   OH2 6040   1.990   2.623   1.790  0.3767  0.6874 -0.6137
 2036TIP3    H1 6041   1.950   2.692   1.843  0.5667 -0.4253  0.9919
 2036TIP3    H2 6042   2.038   2.670   1.722  0.0372  2.1322  0.1297
 2037TIP3   OH2 6043   2.534   0.208   3.987  1.2890 -0.2469 -0.2482
 2037TIP3    H1 6044   2.543   0.228   3.894  2.0513 -1.8268 -0.5335
 2037TIP3    H2 6045   2.511   0.115   3.989 -0.4608  0.1885  1.0853
 2038TIP3   OH2 6046   1.282   6.999   1.084 -0.2617  0.2449 -0.2657
 2038TIP3    H1 6047   1.374   6.972   1.086  0.0680  1.1125 -2.4976
 2038TIP3    H2 6048   1.273   7.059   1.158  0.8896 -0.0985  0.1643
 2039TIP3   OH2 6049   3.970   2.158   2.701  0.1522 -0.2356  0.2404
 2039TIP3    H1 6050   3.898   2.111   2.660  0.4449  1.4135 -2.2384
 2039TIP3    H2 6051   3.958   2.249   2.675  1.2636  0.6222  2.5384
 2040TIP3   OH2 6052   2.023   7.448   0.829 -0.3039 -0.7400 -0.2507
 2040TIP3    H1 6053   1.944   7.443   0.882  0.3224  1.3352  0.9295
 2040TIP3    H2 6054   2.027   7.363   0.783 -2.6778 -1.2209  0.3750
 2041TIP3   OH2 6055   3.499   2.998   1.727 -0.4840  0.4696 -0.2183
 2041TIP3    H1 6056   3.534   3.082   1.699  1.4952 -0.0898  0.5242
 2041TIP3    H2 6057   3.546   2.977   1.808 -2.7440 -0.1751  0.9948
 2042TIP3   OH2 6058   2.293   5.076   3.370  0.5580  0.0679  0.4397
 2042TIP3    H1 6059   2.298   5.171   3.377  1.8060 -0.1259  2.3838
 2042TIP3    H2 6060   2.382   5.046   3.386  0.1923 -1.4434 -0.2555
 2043TIP3   OH2 6061   3.614   1.757   2.382 -0.4265  0.3183  0.3581
 2043TIP3    H1 6062   3.565   1.839   2.391  0.6094  0.9115  0.7460
 2043TIP3    H2 6063   3.691   1.781   2.330 -0.6778 -0.6576 -0.4777
 2044TIP3   OH2 6064   3.936   0.983   0.467  0.7137  0.3463  0.4179
 2044TIP3    H1 6065   3.934   0.906   0.524  0.9355 -0.3254 -0.4771
 2044TIP3    H2 6066   3.886   1.050   0.515 -0.0741 -0.5671  0.8815
 2045TIP3   OH2 6067   2.913   1.168   5.174 -1.1331 -0.3221 -0.4752
 2045TIP3    H1 6068   2.844   1.233   5.159 -0.1727  1.1935  1.3854
 2045TIP3    H2 6069   2.964   1.167   5.093 -2.1907 -0.0272 -1.1449
 2046TIP3   OH2 6070   3.681   0.690   1.720  0.0899 -0.1088 -0.4518
 2046TIP3    H1 6071   3.669   0.784   1.706  2.2044  0.3663  0.5365
 2046TIP3    H2 6072   3.672   0.679   1.815  0.4828 -0.7959 -0.4899
 2047TIP3   OH2 6073   3.218   1.794   5.269 -0.4455 -0.0808  0.4565
 2047TIP3    H1 6074   3.199   1.736   5.343 -1.2543 -0.1751  0.1810
 2047TIP3    H2 6075   3.259   1.737   5.204 -1.2211 -0.3541  0.1943
 2048TIP3   OH2 6076   2.392   7.739   2.165 -0.0829 -0.1917  0.1915
 2048TIP3    H1 6077   2.315   7.753   2.109  1.8291  1.6209 -2.1306
 2048TIP3    H2 6078   2.362   7.760   2.253 -2.0954  1.1107 -0.7585
 2049TIP3   OH2 6079   4.356   1.086   0.010  0.6519 -0.7771  0.0009
 2049TIP3    H1 6080   4.315   1.000   0.010 -0.4436 -0.2655 -0.3614
 2049TIP3    H2 6081   4.449   1.069  -0.006  0.3377 -1.8356 -0.7099
 2050TIP3   OH2 6082   4.172   0.090   3.134 -0.4411  0.0516 -0.0236
 2050TIP3    H1 6083   4.193   0.181   3.156 -0.6496 -0.4101  2.2334
 2050TIP3    H2 6084   4.076   0.086   3.137 -0.3971 -0.4571  0.8125
 2051TIP3   OH2 6085   2.314   7.582   1.095 -0.1060 -0.2923 -0.2509
 2051TIP3    H1 6086   2.277   7.513   1.041  0.9526 -1.3613  0.3627
 2051TIP3    H2 6087   2.306   7.661   1.042 -1.1590 -0.9180 -1.0362
 2052TIP3   OH2 6088   4.439   2.212   2.196  0.0115 -0.2096  0.0568
 2052TIP3    H1 6089   4.472   2.274   2.130 -0.7016  0.4892  0.3461
 2052TIP3    H2 6090   4.422   2.132   2.146  1.8086 -0.4760 -0.1536
 2053TIP3   OH2 6091   3.953   0.878   1.978  0.3247  0.2669  0.8424
 2053TIP3    H1 6092   3.944   0.970   2.001 -1.8505  0.1350  0.6255
 2053TIP3    H2 6093   3.954   0.877   1.882 -1.2887 -0.0513  0.8176
 2054TIP3   OH2 6094   1.980   0.940   5.503 -0.1910  0.0202 -0.1611
 2054TIP3    H1 6095   1.904   0.949   5.445  0.8447 -1.1660 -1.7490
 2054TIP3    H2 6096   1.982   1.022   5.553 -2.5168  0.0506 -0.0719
 2055TIP3   OH2 6097   3.894   1.560   4.376  0.0907  0.3884 -0.2497
 2055TIP3    H1 6098   3.841   1.594   4.448 -0.9928  0.0293 -0.8599
 2055TIP3    H2 6099   3.868   1.613   4.300  2.8921  2.3226  0.0734
 2056TIP3   OH2 6100   3.556   0.078   0.208 -0.0715 -0.5977  0.5777
 2056TIP3    H1 6101   3.602  -0.001   0.236 -0.5308 -0.9324  0.3948
 2056TIP3    H2 6102   3.475   0.046   0.169  0.3069 -0.1171 -0.6474
 2057TIP3   OH2 6103   4.046   1.442   5.774 -0.2344  0.0662  0.1592
 2057TIP3    H1 6104   4.099   1.422   5.696  0.4958  1.4795  0.2855
 2057TIP3    H2 6105   4.050   1.362   5.826  0.6419 -0.3179 -0.4821
 2058TIP3   OH2 6106   2.579   2.423   4.374 -0.1712  0.6272  0.2381
 2058TIP3    H1 6107   2.658   2.411   4.426  0.2576 -0.9039 -0.7267
 2058TIP3    H2 6108   2.509   2.383   4.426  0.2030 -0.6399 -0.2372
 2059TIP3   OH2 6109   4.315   1.171   2.335  0.6654 -0.4115 -0.2163
 2059TIP3    H1 6110   4.278   1.110   2.271 -1.8020  1.3773 -0.5556
 2059TIP3    H2 6111   4.342   1.247   2.284  1.7502 -0.3147  0.4797
 2060TIP3   OH2 6112   6.377   4.131   6.826  0.0096 -0.2107 -0.1028
 2060TIP3    H1 6113   6.366   4.210   6.879  0.1584 -0.4219  0.2443
 2060TIP3    H2 6114   6.288   4.106   6.801 -0.2978 -1.5795  2.1980
 2061TIP3   OH2 6115   4.650   0.598   2.663  0.3201  0.3295 -0.1184
 2061TIP3    H1 6116   4.663   0.536   2.591  0.4877 -0.0129  0.2014
 2061TIP3    H2 6117   4.567   0.572   2.701 -0.3233  1.2370 -0.9004
 2062TIP3   OH2 6118   3.625   0.662   1.404  0.1087 -0.3285  0.0457
 2062TIP3    H1 6119   3.692   0.632   1.342 -0.7194 -2.6772  0.2361
 2062TIP3    H2 6120   3.666   0.651   1.490 -0.3608 -1.3651  0.1402
 2063TIP3   OH2 6121   4.363   0.838   3.145 -0.1150 -0.1316  0.3699
 2063TIP3    H1 6122   4.399   0.909   3.091  0.0991 -1.9270 -1.9439
 2063TIP3    H2 6123   4.438   0.806   3.195  0.2315 -0.0057 -0.0614
 2064TIP3   OH2 6124   3.100   0.473   3.180  0.3116  0.8434 -0.8760
 2064TIP3    H1 6125   3.115   0.444   3.270  1.5742  2.2208 -0.6144
 2064TIP3    H2 6126   3.152   0.414   3.126 -0.2392  0.1795 -0.6846
 2065TIP3   OH2 6127   2.170   2.393   3.068 -0.6615 -0.1765  0.4148
 2065TIP3    H1 6128   2.175   2.441   2.985  0.3974  1.4729  1.4104
 2065TIP3    H2 6129   2.232   2.322   3.059  1.2238  1.3952  0.6518
 2066TIP3   OH2 6130   1.522   2.150   1.584  0.3712  0.3880  0.3846
 2066TIP3    H1 6131   1.612   2.152   1.552 -0.0023 -0.1942 -0.7324
 2066TIP3    H2 6132   1.501   2.242   1.601  0.4680  0.7769 -1.4035
 2067TIP3   OH2 6133   4.872   3.900   2.699 -0.0108  0.1083 -0.1063
 2067TIP3    H1 6134   4.790   3.916   2.747 -0.2532  1.6667 -1.0194
 2067TIP3    H2 6135   4.903   3.816   2.733 -1.3666  0.0790  1.1222
 2068TIP3   OH2 6136   4.103   0.497   5.359  0.8691 -0.3199  0.3311
 2068TIP3    H1 6137   4.095   0.410   5.319  0.5156 -0.8778  1.6160
 2068TIP3    H2 6138   4.067   0.557   5.293 -1.2280 -1.4063  0.4621
 2069TIP3   OH2 6139   2.468   6.736   2.475  0.3634 -0.0105  0.0093
 2069TIP3    H1 6140   2.495   6.821   2.508 -1.5169  0.9932 -0.9313
 2069TIP3    H2 6141   2.439   6.688   2.553  1.6127  0.1208  0.5675
 2070TIP3   OH2 6142   3.515   0.090   5.156 -0.1049  0.3481  0.4536
 2070TIP3    H1 6143   3.609   0.092   5.136 -0.1956  0.6020  0.0301
 2070TIP3    H2 6144   3.480   0.020   5.100 -0.5898  1.9821 -1.3610
 2071TIP3   OH2 6145   3.980   1.152   1.489  0.0336  0.3424 -0.7508
 2071TIP3    H1 6146   4.008   1.224   1.432  0.0622  0.1911 -0.9280
 2071TIP3    H2 6147   4.057   1.133   1.543  0.4084 -0.3554 -1.5302
 2072TIP3   OH2 6148   4.559   2.204   3.853  0.2360 -0.8899  0.7824
 2072TIP3    H1 6149   4.510   2.257   3.790  0.3522  1.1565  2.3641
 2072TIP3    H2 6150   4.524   2.116   3.843 -3.0350  0.3011  1.1398
 2073TIP3   OH2 6151   5.470   0.091   2.100  0.0329 -0.0184  0.6921
 2073TIP3    H1 6152   5.498   0.006   2.135  1.0243  0.8746  2.0972
 2073TIP3    H2 6153   5.539   0.117   2.040  0.4111  0.4330  1.3154
 2074TIP3   OH2 6154   4.060   0.433   3.775 -0.2659  0.2654  0.0093
 2074TIP3    H1 6155   3.978   0.472   3.745  0.0818  1.2910  0.3820
 2074TIP3    H2 6156   4.085   0.484   3.853  0.6231 -0.1567  0.0153
 2075TIP3   OH2 6157   0.629   1.409   4.491 -0.6881 -0.6411  0.4239
 2075TIP3    H1 6158   0.723   1.390   4.485 -0.1833  1.4862  1.2543
 2075TIP3    H2 6159   0.594   1.383   4.406  0.5797 -1.8042  0.2321
 2076TIP3   OH2 6160   0.909   7.308   2.997 -0.3496  0.2632 -0.3647
 2076TIP3    H1 6161   0.844   7.346   2.938 -0.6313  1.9153  0.9622
 2076TIP3    H2 6162   0.993   7.331   2.958 -0.5521 -0.0114 -0.9580
 2077TIP3   OH2 6163   5.377   2.343   4.879 -0.5324  0.4571  0.4584
 2077TIP3    H1 6164   5.392   2.370   4.970  0.2306 -0.1560  0.5224
 2077TIP3    H2 6165   5.461   2.306   4.851 -1.0888 -0.3975 -0.1217
 2078TIP3   OH2 6166   1.262   6.957   0.812  0.6201  0.0022  0.1906
 2078TIP3    H1 6167   1.184   6.990   0.768  0.5528 -0.3241  0.0627
 2078TIP3    H2 6168   1.241   6.964   0.906  0.4916  0.0407  0.1590
 2079TIP3   OH2 6169   2.066   0.058   3.670  0.5566  0.3436  1.1925
 2079TIP3    H1 6170   2.001  -0.002   3.707 -0.5312 -0.2230 -1.5393
 2079TIP3    H2 6171   2.061   0.135   3.727 -2.0491  0.0601  1.4351
 2080TIP3   OH2 6172   0.795   7.736   4.249 -0.1227 -0.0094 -0.4091
 2080TIP3    H1 6173   0.736   7.687   4.193 -0.6459 -0.3164  0.4022
 2080TIP3    H2 6174   0.867   7.676   4.267 -1.5344 -1.0984  1.8939
 2081TIP3   OH2 6175   1.132   6.408   3.904  0.1785  0.0328 -0.3301
 2081TIP3    H1 6176   1.188   6.449   3.970 -0.3335  0.2318 -0.0174
 2081TIP3    H2 6177   1.148   6.458   3.824  0.0169  0.4568 -0.0976
 2082TIP3   OH2 6178   7.491   7.813   3.596 -0.0632 -0.2887  0.1502
 2082TIP3    H1 6179   7.564   7.800   3.535 -0.9297 -1.4453 -0.6709
 2082TIP3    H2 6180   7.513   7.893   3.643  0.6175  0.6497 -1.6998
 2083TIP3   OH2 6181   2.579   1.993   2.515  0.4162 -0.0631 -0.1336
 2083TIP3    H1 6182   2.505   2.040   2.477  1.0905  1.8755  0.8742
 2083TIP3    H2 6183   2.541   1.944   2.588  0.0714  0.7979  0.2793
 2084TIP3   OH2 6184   3.693   3.656   1.965 -0.7671 -0.6337  0.0192
 2084TIP3    H1 6185   3.637   3.715   1.915 -0.0370  0.2688  0.2398
 2084TIP3    H2 6186   3.758   3.625   1.902 -0.8338 -0.7762  0.0218
 2085TIP3   OH2 6187   4.219   1.182   3.306  0.2839 -0.0782 -0.0707
 2085TIP3    H1 6188   4.199   1.099   3.262  0.5073 -0.1887  0.0402
 2085TIP3    H2 6189   4.149   1.191   3.371  1.8651 -1.6119  1.9227
 2086TIP3   OH2 6190   6.212   2.161   1.420 -0.1975 -0.3826  0.3585
 2086TIP3    H1 6191   6.180   2.238   1.373  0.4322  0.7134  1.7021
 2086TIP3    H2 6192   6.161   2.160   1.501  0.6562 -0.6747  0.8920
 2087TIP3   OH2 6193   4.594   0.314   2.484  0.2442  0.7713  0.1999
 2087TIP3    H1 6194   4.689   0.324   2.484  0.2125  1.1192 -0.5012
 2087TIP3    H2 6195   4.579   0.230   2.527  1.0710 -0.8806 -2.5672
 2088TIP3   OH2 6196   4.765   0.837   1.686  0.4728 -0.4191  0.3180
 2088TIP3    H1 6197   4.818   0.916   1.695  0.8218 -0.4324 -1.5071
 2088TIP3    H2 6198   4.716   0.832   1.768  1.9602  0.5638  1.2892
 2089TIP3   OH2 6199   5.834   2.934   2.812  0.9378  0.4309  0.4058
 2089TIP3    H1 6200   5.901   3.000   2.794  1.0415  0.1948 -0.0967
 2089TIP3    H2 6201   5.772   2.942   2.740  1.2189 -0.3499  0.0626
 2090TIP3   OH2 6202   3.188   0.935   2.903  0.2411  0.0533 -0.2433
 2090TIP3    H1 6203   3.196   0.953   2.810 -1.0814 -0.8641 -0.5356
 2090TIP3    H2 6204   3.140   0.853   2.909  2.7190 -1.3713  1.1876
 2091TIP3   OH2 6205   4.478   0.665   1.819 -0.1541  0.1767  0.4047
 2091TIP3    H1 6206   4.466   0.593   1.882 -0.9155 -0.4398 -0.4387
 2091TIP3    H2 6207   4.482   0.744   1.874 -1.4445 -0.2936  1.1947
 2092TIP3   OH2 6208   4.622   2.089   0.976 -0.1510  0.2433 -0.2038
 2092TIP3    H1 6209   4.694   2.050   1.027 -1.1187 -0.3752  0.7013
 2092TIP3    H2 6210   4.580   2.150   1.036  0.1642  1.2910 -1.0256
 2093TIP3   OH2 6211   5.292   0.714   2.611  0.3468 -0.0905  0.3844
 2093TIP3    H1 6212   5.378   0.744   2.643  0.7796 -0.4885 -0.3962
 2093TIP3    H2 6213   5.308   0.689   2.520 -0.7772  0.5683  0.0027
 2094TIP3   OH2 6214   8.353   7.898   1.767  0.5595  0.3015  0.3127
 2094TIP3    H1 6215   8.437   7.864   1.799  0.4476 -0.5274 -0.2696
 2094TIP3    H2 6216   8.314   7.940   1.844 -0.1874 -2.5918  1.5757
 2095TIP3   OH2 6217   6.036   1.672   2.077  0.1643  0.2209 -0.4388
 2095TIP3    H1 6218   6.037   1.586   2.034 -0.4916 -0.0168  0.0131
 2095TIP3    H2 6219   5.998   1.655   2.163 -0.6774  1.0929 -0.6298
 2096TIP3   OH2 6220   1.531   7.729   3.080 -0.6872 -0.3729 -0.2857
 2096TIP3    H1 6221   1.548   7.659   3.018  1.1487 -1.1757  1.0749
 2096TIP3    H2 6222   1.521   7.685   3.164  0.4812  0.9891  0.5868
 2097TIP3   OH2 6223   3.017   6.562   0.578 -0.0828 -0.7211 -0.4663
 2097TIP3    H1 6224   3.086   6.509   0.539 -0.9944 -1.4266 -1.1730
 2097TIP3    H2 6225   2.936   6.528   0.539 -0.6764  1.4247 -1.2236
 2098TIP3   OH2 6226   4.746   2.068   1.428  0.3202  0.1722  0.3394
 2098TIP3    H1 6227   4.762   2.102   1.516 -1.1055  0.9300  0.3244
 2098TIP3    H2 6228   4.761   2.143   1.371 -0.3514  0.1053  0.0776
 2099TIP3   OH2 6229   3.288   1.126   2.618  0.0764 -0.1989 -0.0339
 2099TIP3    H1 6230   3.215   1.175   2.580  0.3183 -0.4988 -0.9111
 2099TIP3    H2 6231   3.284   1.145   2.712 -1.6114 -0.8500  0.0500
 2100TIP3   OH2 6232   3.532   0.877   3.055  0.5216 -0.6289  0.0148
 2100TIP3    H1 6233   3.511   0.968   3.076 -2.6465 -0.5273 -3.3034
 2100TIP3    H2 6234   3.458   0.826   3.089  0.4691 -1.5496 -1.4260
 2101TIP3   OH2 6235   0.285   5.488   3.766  0.2703  0.9280 -0.0037
 2101TIP3    H1 6236   0.377   5.513   3.764  0.3953  0.4976  0.3907
 2101TIP3    H2 6237   0.241   5.564   3.804  0.2083  1.9017 -1.9561
 2102TIP3   OH2 6238   2.160   3.244   2.708  0.2419 -0.3189 -0.3953
 2102TIP3    H1 6239   2.186   3.181   2.775 -0.0676  0.6834  0.6760
 2102TIP3    H2 6240   2.074   3.214   2.679  0.0558 -0.3401  0.1747
 2103TIP3   OH2 6241   4.445   0.997   5.532 -0.7099  0.3010  0.7964
 2103TIP3    H1 6242   4.521   0.971   5.584 -1.8531 -2.5786  1.1618
 2103TIP3    H2 6243   4.460   1.089   5.512  2.4032  0.0597  1.6434
 2104TIP3   OH2 6244   4.001   2.294   2.931  0.7004  0.0253 -0.1629
 2104TIP3    H1 6245   4.042   2.260   2.852  0.5507  0.1785 -0.3088
 2104TIP3    H2 6246   3.984   2.217   2.985 -1.1070 -0.3164 -1.1837
 2105TIP3   OH2 6247   1.403   7.899   3.320 -0.1257  0.2654  0.4550
 2105TIP3    H1 6248   1.390   7.958   3.246 -2.0430  0.9734  1.3391
 2105TIP3    H2 6249   1.332   7.835   3.313  0.6518 -0.6559  0.7600
 2106TIP3   OH2 6250   4.571   0.028   3.317  0.2720 -0.2811 -0.0992
 2106TIP3    H1 6251   4.559   0.113   3.275  0.5717  0.0038  0.3798
 2106TIP3    H2 6252   4.484  -0.013   3.314  0.5800 -0.8013 -2.1117
 2107TIP3   OH2 6253   2.227   1.285   3.077  0.0423  0.8725  0.4054
 2107TIP3    H1 6254   2.156   1.221   3.067  0.7946  0.1578 -0.4699
 2107TIP3    H2 6255   2.255   1.274   3.168  1.3022 -1.2776 -0.2064
 2108TIP3   OH2 6256   2.980   0.943   4.748 -0.8956  0.2578 -0.4180
 2108TIP3    H1 6257   2.942   0.915   4.831  1.3606 -0.3719  0.4493
 2108TIP3    H2 6258   2.919   0.910   4.682 -0.9650 -2.2886  0.8263
 2109TIP3   OH2 6259   2.834   0.087   4.207  0.1765  0.6038 -0.2000
 2109TIP3    H1 6260   2.754   0.127   4.172  0.1301  1.2534  0.6291
 2109TIP3    H2 6261   2.887   0.161   4.235  0.8872  0.1509 -0.3392
 2110TIP3   OH2 6262   2.995   2.524   2.311  0.0437 -0.2911  0.3005
 2110TIP3    H1 6263   2.940   2.513   2.233  0.8150 -1.2677 -0.1147
 2110TIP3    H2 6264   3.028   2.613   2.304  0.1741 -0.3969 -0.5411
 2111TIP3   OH2 6265   1.866   3.146   2.707  0.1483  0.3180  0.1976
 2111TIP3    H1 6266   1.786   3.195   2.726 -0.1243 -0.4091  0.9264
 2111TIP3    H2 6267   1.872   3.080   2.776  2.2206  1.3537  1.0726
 2112TIP3   OH2 6268   4.248   0.230   4.018 -0.1851 -0.0564  0.3333
 2112TIP3    H1 6269   4.209   0.179   4.089 -1.5030  0.6666  0.1539
 2112TIP3    H2 6270   4.199   0.313   4.019 -0.1002  0.0169 -1.3124
 2113TIP3   OH2 6271   2.290   0.494   4.533  0.4190  0.5429  0.0431
 2113TIP3    H1 6272   2.373   0.526   4.498 -0.2665  1.2030 -1.0296
 2113TIP3    H2 6273   2.293   0.399   4.520 -0.3204  0.8800 -3.0013
 2114TIP3   OH2 6274   4.576   0.949   2.602  0.3302 -0.7206 -0.1210
 2114TIP3    H1 6275   4.508   0.883   2.614  1.2164 -1.5993  0.2050
 2114TIP3    H2 6276   4.534   1.032   2.620 -0.0016 -1.4641  2.7002
 2115TIP3   OH2 6277   3.788   0.323   2.759 -0.1867  0.3751 -0.2844
 2115TIP3    H1 6278   3.813   0.347   2.670  0.1897 -1.7057 -0.7766
 2115TIP3    H2 6279   3.694   0.306   2.754 -0.5037  1.9526  0.1216
 2116TIP3   OH2 6280   3.525   2.106   1.860 -0.0770 -0.1151  0.4560
 2116TIP3    H1 6281   3.618   2.130   1.863  0.0503 -0.2392 -2.1583
 2116TIP3    H2 6282   3.520   2.025   1.911  0.8520  1.0462  2.4682
 2117TIP3   OH2 6283   4.249   1.889   1.497 -0.0936  0.3950  0.0601
 2117TIP3    H1 6284   4.330   1.923   1.535  0.3343  0.2949 -0.7652
 2117TIP3    H2 6285   4.277   1.819   1.438 -0.7584  0.5352 -0.4283
 2118TIP3   OH2 6286   0.895   7.385   1.502  0.2833 -0.0131 -0.4909
 2118TIP3    H1 6287   0.883   7.441   1.425 -0.2788  0.2069 -0.2387
 2118TIP3    H2 6288   0.829   7.317   1.492 -2.0091  1.8336  1.4712
 2119TIP3   OH2 6289   5.047   2.111   4.650 -0.3856 -0.0897 -0.2346
 2119TIP3    H1 6290   5.039   2.202   4.679  2.1400 -0.0022  0.2844
 2119TIP3    H2 6291   5.024   2.113   4.557 -2.2486  0.7240  0.2098
 2120TIP3   OH2 6292   8.433   0.549   2.327 -0.3510  0.0892  0.4428
 2120TIP3    H1 6293   8.427   0.589   2.241  0.6316  0.0120  0.3275
 2120TIP3    H2 6294   8.400   0.616   2.387 -0.4604  0.3747  0.0639
 2121TIP3   OH2 6295   5.766   6.654   0.983 -0.0863 -0.1932  0.0211
 2121TIP3    H1 6296   5.769   6.696   1.069 -1.0569  1.1252 -0.5666
 2121TIP3    H2 6297   5.699   6.703   0.935  1.4708  0.0635 -1.9694
 2122TIP3   OH2 6298   1.692   7.693   2.682  0.1628 -0.0331 -0.3034
 2122TIP3    H1 6299   1.638   7.709   2.759  1.3674  0.1681  0.5159
 2122TIP3    H2 6300   1.652   7.746   2.613  0.4503  1.6803  0.7916
 2123TIP3   OH2 6301   6.285   0.683   2.994 -0.3930  0.0768  0.3827
 2123TIP3    H1 6302   6.334   0.765   3.004  0.5732 -0.4407 -0.0352
 2123TIP3    H2 6303   6.330   0.622   3.052  1.2353 -1.1822 -2.1116
 2124TIP3   OH2 6304   5.236   1.351   0.707 -0.0385 -0.4778  0.0914
 2124TIP3    H1 6305   5.308   1.317   0.760  0.6541  0.7874 -0.0214
 2124TIP3    H2 6306   5.211   1.278   0.650  2.2735 -0.4303 -1.0238
 2125TIP3   OH2 6307   4.698   7.592   1.658 -0.2738 -0.0446 -0.0507
 2125TIP3    H1 6308   4.763   7.533   1.619  0.7337  1.8398 -1.3561
 2125TIP3    H2 6309   4.689   7.562   1.748 -0.9086 -3.0891 -1.0721
 2126TIP3   OH2 6310   4.460   1.429   1.453 -0.5393  0.5899  0.8226
 2126TIP3    H1 6311   4.420   1.354   1.410 -1.4426  1.3904  0.2491
 2126TIP3    H2 6312   4.549   1.401   1.472 -0.0777  0.2445 -1.6666
 2127TIP3   OH2 6313   5.833   0.564   1.847  0.2622  0.2036  0.2566
 2127TIP3    H1 6314   5.875   0.642   1.811 -0.8714  1.0719  0.7805
 2127TIP3    H2 6315   5.875   0.552   1.932  0.1086  0.5203  0.3786
 2128TIP3   OH2 6316   2.507   7.825   5.347 -0.0621  0.0832 -0.2923
 2128TIP3    H1 6317   2.603   7.818   5.352 -0.1618 -1.6356 -0.5416
 2128TIP3    H2 6318   2.490   7.843   5.254 -0.0714 -1.4384 -0.5951
 2129TIP3   OH2 6319   2.205   7.622   3.590 -0.0302 -0.7539 -0.1061
 2129TIP3    H1 6320   2.144   7.696   3.595  0.9944  0.1902 -1.1435
 2129TIP3    H2 6321   2.175   7.561   3.657 -1.7597 -0.0448 -0.2122
 2130TIP3   OH2 6322   4.297   0.074   4.521  0.8507  0.8009  0.4966
 2130TIP3    H1 6323   4.285  -0.009   4.566 -1.7904  1.2751  0.7039
 2130TIP3    H2 6324   4.271   0.141   4.584  0.3939  1.6457 -0.5570
 2131TIP3   OH2 6325   0.450   0.529   1.244  0.1244  0.3759  0.1357
 2131TIP3    H1 6326   0.409   0.464   1.187 -0.7788  0.7243  0.3816
 2131TIP3    H2 6327   0.377   0.577   1.283  0.7706  1.4442  0.0734
 2132TIP3   OH2 6328   4.738   0.377   3.456  0.1046  0.1978  0.4950
 2132TIP3    H1 6329   4.667   0.335   3.407 -0.2864  2.9252 -1.3293
 2132TIP3    H2 6330   4.814   0.373   3.397  0.7407 -0.1730  1.3222
 2133TIP3   OH2 6331   5.485   0.698   2.931 -0.0081 -0.0526 -0.2211
 2133TIP3    H1 6332   5.427   0.772   2.917 -1.5509 -1.2326 -0.1322
 2133TIP3    H2 6333   5.546   0.701   2.858 -2.0618 -0.5780 -1.9944
 2134TIP3   OH2 6334   6.274   0.285   3.333 -0.3367 -0.1598 -0.5178
 2134TIP3    H1 6335   6.190   0.243   3.350  0.1778 -0.7669  0.6074
 2134TIP3    H2 6336   6.328   0.263   3.410  1.2223 -0.7823 -1.7593
 2135TIP3   OH2 6337   6.539   0.614   1.979  0.5301 -0.6161  0.0630
 2135TIP3    H1 6338   6.572   0.672   2.047 -0.8217  0.1102  0.1255
 2135TIP3    H2 6339   6.546   0.664   1.898  0.6316 -0.8704 -0.0863
 2136TIP3   OH2 6340   7.409   2.786   3.283  0.3022 -0.0807 -0.3804
 2136TIP3    H1 6341   7.400   2.744   3.198 -0.1026  1.4115 -1.0869
 2136TIP3    H2 6342   7.354   2.865   3.278 -0.2441 -0.2988  1.4778
 2137TIP3   OH2 6343   5.591   1.437   2.488  0.2723 -0.1090 -0.9040
 2137TIP3    H1 6344   5.580   1.342   2.496 -2.5116  0.1507 -0.8822
 2137TIP3    H2 6345   5.608   1.467   2.577 -1.9538 -0.3078 -0.3584
 2138TIP3   OH2 6346   5.595   1.592   3.816 -0.6306  0.0163 -0.5100
 2138TIP3    H1 6347   5.599   1.528   3.745  0.6474  0.9949 -1.3542
 2138TIP3    H2 6348   5.686   1.607   3.839 -0.9956  0.4439  0.6745
 2139TIP3   OH2 6349   5.491   0.160   2.863 -0.0914  0.1234  0.0186
 2139TIP3    H1 6350   5.490   0.246   2.821  1.9906 -0.2714 -0.9178
 2139TIP3    H2 6351   5.419   0.112   2.822 -0.2229  0.8894 -0.6506
 2140TIP3   OH2 6352   7.184   2.322   3.020 -0.2668 -0.0226 -0.2192
 2140TIP3    H1 6353   7.198   2.374   3.099 -0.4495 -0.3595  0.0361
 2140TIP3    H2 6354   7.168   2.233   3.053 -0.0187 -0.2268 -0.6469
 2141TIP3   OH2 6355   8.213   0.356   1.871 -0.2661 -0.2378 -0.0433
 2141TIP3    H1 6356   8.191   0.386   1.959  1.1296 -0.5040  0.4214
 2141TIP3    H2 6357   8.263   0.428   1.833 -3.6381  1.2467 -1.8592
 2142TIP3   OH2 6358   0.316   0.230   3.225 -0.0259  0.5134 -0.3102
 2142TIP3    H1 6359   0.339   0.149   3.179  1.1141  0.5729  0.1382
 2142TIP3    H2 6360   0.372   0.296   3.186  0.8977  0.5806  1.0908
 2143TIP3   OH2 6361   5.027   1.476   2.384 -0.0018  0.7316  0.0248
 2143TIP3    H1 6362   5.093   1.470   2.315  0.1986 -1.3745  0.3680
 2143TIP3    H2 6363   5.079   1.487   2.465 -0.0386 -1.3901  0.3472
 2144TIP3   OH2 6364   7.457   0.415   3.696  0.2375 -0.1882  0.9801
 2144TIP3    H1 6365   7.387   0.470   3.730 -1.9138 -3.8468  2.7266
 2144TIP3    H2 6366   7.514   0.398   3.771  0.6580 -0.7169  0.5536
 2145TIP3   OH2 6367   8.411   0.981   3.621  0.0066  0.2062 -0.3365
 2145TIP3    H1 6368   8.496   1.019   3.642 -0.2526 -0.3094  1.6965
 2145TIP3    H2 6369   8.375   1.040   3.554  0.4420  2.4705  1.3437
 2146TIP3   OH2 6370   1.517   0.372   2.904  0.1714 -0.5854  0.2646
 2146TIP3    H1 6371   1.484   0.418   2.827  0.4523  1.1667  1.1582
 2146TIP3    H2 6372   1.602   0.413   2.922  0.9289 -2.2096  0.4434
 2147TIP3   OH2 6373   8.384   0.992   6.132  0.3963 -0.7895  0.5379
 2147TIP3    H1 6374   8.463   0.957   6.091  0.8785  0.1395  0.6652
 2147TIP3    H2 6375   8.316   0.983   6.066  1.6474  2.7832 -1.3140
 2148TIP3   OH2 6376   7.371   0.833   4.424  0.0191  0.3943  0.3294
 2148TIP3    H1 6377   7.363   0.926   4.402 -0.3305  0.2831 -0.0137
 2148TIP3    H2 6378   7.280   0.803   4.434 -0.0408 -0.6581 -2.6861
 2149TIP3   OH2 6379   5.926   0.807   3.248 -0.1644  0.1078  0.5494
 2149TIP3    H1 6380   6.008   0.805   3.297  1.1647 -0.4954 -1.6238
 2149TIP3    H2 6381   5.943   0.752   3.172 -2.0883  1.1949 -0.6970
 2150TIP3   OH2 6382   6.700   0.410   1.790 -0.9421 -0.0690 -0.0974
 2150TIP3    H1 6383   6.644   0.381   1.862 -0.3766  0.5231  0.5978
 2150TIP3    H2 6384   6.789   0.393   1.821 -0.7030 -0.1567 -0.8155
 2151TIP3   OH2 6385   7.972   1.115   1.890  0.2259  0.0139 -0.6115
 2151TIP3    H1 6386   7.949   1.204   1.915  1.2123  0.0804  0.0620
 2151TIP3    H2 6387   8.029   1.084   1.960 -0.2795 -1.2230 -0.7275
 2152TIP3   OH2 6388   5.780   1.525   1.089 -0.0454 -0.3265  0.1707
 2152TIP3    H1 6389   5.802   1.439   1.124  0.3484  0.1961  1.2188
 2152TIP3    H2 6390   5.783   1.514   0.994  1.5761 -1.0653  0.3010
 2153TIP3   OH2 6391   4.333   7.753   1.741 -0.0243 -0.2166 -0.6456
 2153TIP3    H1 6392   4.321   7.844   1.713  0.7054 -0.6555 -2.4691
 2153TIP3    H2 6393   4.284   7.746   1.823 -0.9799  1.5336 -1.0475
 2154TIP3   OH2 6394   4.569   3.522   2.306 -0.2191  0.2900  0.5178
 2154TIP3    H1 6395   4.479   3.539   2.333  0.5399  0.2446  3.2632
 2154TIP3    H2 6396   4.573   3.428   2.291 -0.0797 -0.0726  2.6977
 2155TIP3   OH2 6397   0.737   0.883   3.148 -0.1999 -0.5342 -0.0329
 2155TIP3    H1 6398   0.771   0.811   3.201  1.5939  0.3989  0.1174
 2155TIP3    H2 6399   0.814   0.937   3.129 -1.2377  0.4559 -1.5315
 2156TIP3   OH2 6400   6.758   2.629   2.866  0.0593 -0.2786 -0.0547
 2156TIP3    H1 6401   6.843   2.586   2.877 -0.7441 -2.1703 -0.9963
 2156TIP3    H2 6402   6.694   2.559   2.876 -1.4480  1.2582  1.3349
 2157TIP3   OH2 6403   8.083   1.880   2.912  0.2777  0.4806 -0.1288
 2157TIP3    H1 6404   8.113   1.798   2.874 -1.4124 -0.1657 -0.1021
 2157TIP3    H2 6405   8.144   1.897   2.984  1.8831  0.3480 -1.4352
 2158TIP3   OH2 6406   7.662   1.071   2.370 -0.4368  0.1343 -0.5095
 2158TIP3    H1 6407   7.667   1.033   2.458 -0.3422 -1.6876 -1.2649
 2158TIP3    H2 6408   7.568   1.073   2.350 -0.3653 -1.0260 -1.0049
 2159TIP3   OH2 6409   3.838   3.338   2.521 -0.6729  0.4189 -0.3607
 2159TIP3    H1 6410   3.846   3.245   2.545  1.7064  0.9282  0.9661
 2159TIP3    H2 6411   3.767   3.370   2.577 -0.4622 -0.2479  0.2987
 2160TIP3   OH2 6412   0.333   7.089   4.077 -0.0888 -0.1206 -0.2065
 2160TIP3    H1 6413   0.314   7.000   4.047  2.8102 -1.0752  0.5622
 2160TIP3    H2 6414   0.381   7.129   4.005 -1.1782  0.7383 -0.4552
 2161TIP3   OH2 6415   1.257   1.744   4.411  0.2391  0.0494 -0.3834
 2161TIP3    H1 6416   1.261   1.740   4.316 -0.1270  0.6578 -0.4251
 2161TIP3    H2 6417   1.164   1.756   4.431  0.4008  0.6097  0.0269
 2162TIP3   OH2 6418   7.403   1.226   2.486 -0.4875 -0.4907 -0.0456
 2162TIP3    H1 6419   7.370   1.171   2.557  0.2373  0.2162  0.8419
 2162TIP3    H2 6420   7.327   1.277   2.458 -0.8697 -1.0521 -0.0512
 2163TIP3   OH2 6421   3.292   7.678   2.010 -0.3390 -0.2364  0.5236
 2163TIP3    H1 6422   3.376   7.636   1.991  0.7252  1.6110  0.9082
 2163TIP3    H2 6423   3.229   7.633   1.956  1.4519  0.4119 -2.2071
 2164TIP3   OH2 6424   5.722   0.996   1.651  0.5979 -0.0828 -0.3414
 2164TIP3    H1 6425   5.692   1.072   1.700  1.1946  0.3380 -0.6162
 2164TIP3    H2 6426   5.796   1.029   1.599  1.7301 -1.1701  0.5654
 2165TIP3   OH2 6427   5.985   0.650   2.257 -0.3310  0.5272  0.1516
 2165TIP3    H1 6428   5.931   0.727   2.239  2.3323  1.9519 -2.1950
 2165TIP3    H2 6429   6.001   0.654   2.351 -2.1797  1.4715  0.4604
 2166TIP3   OH2 6430   7.302   2.063   4.362 -0.3578 -0.7116 -0.0832
 2166TIP3    H1 6431   7.363   2.069   4.436 -0.3360  0.1555 -0.1618
 2166TIP3    H2 6432   7.236   2.130   4.380 -0.0921 -0.1679 -1.0846
 2167TIP3   OH2 6433   5.315   0.012   3.538 -0.2891 -0.1392 -0.4844
 2167TIP3    H1 6434   5.331   0.106   3.531 -0.5399 -0.0046  0.7044
 2167TIP3    H2 6435   5.371  -0.027   3.471  0.9889  0.7317  0.0715
 2168TIP3   OH2 6436   5.086   2.265   1.195  0.8036 -1.0044 -0.4522
 2168TIP3    H1 6437   5.135   2.235   1.271 -1.0205 -1.5435  0.5619
 2168TIP3    H2 6438   5.130   2.226   1.120  0.2380 -3.8449  0.6324
 2169TIP3   OH2 6439   3.275   6.814   3.340  0.2118 -0.5793  0.1651
 2169TIP3    H1 6440   3.218   6.750   3.297 -0.5075  0.5948 -0.6631
 2169TIP3    H2 6441   3.215   6.875   3.383  0.8559  0.2160 -0.0419
 2170TIP3   OH2 6442   6.033   1.498   2.888 -0.5987 -0.0730  0.5862
 2170TIP3    H1 6443   6.127   1.515   2.889 -0.2544 -1.8871  0.8679
 2170TIP3    H2 6444   5.994   1.582   2.862  1.1005  0.6015  0.1111
 2171TIP3   OH2 6445   5.425   0.659   1.564 -0.0137  0.0816 -0.2974
 2171TIP3    H1 6446   5.365   0.704   1.623  0.0392  1.2363 -1.0905
 2171TIP3    H2 6447   5.457   0.584   1.613  0.1907  1.1402  1.1961
 2172TIP3   OH2 6448   5.366   2.039   2.248  0.0813 -0.4808  0.0546
 2172TIP3    H1 6449   5.306   2.063   2.319 -1.1158 -0.1610 -1.0381
 2172TIP3    H2 6450   5.367   2.116   2.190 -0.8809 -1.6301 -1.5464
 2173TIP3   OH2 6451   5.706   2.230   4.219  0.3500  0.5254  0.3626
 2173TIP3    H1 6452   5.622   2.196   4.249  0.1280  0.2562 -0.5374
 2173TIP3    H2 6453   5.699   2.325   4.229 -0.0896  0.5089  0.2076
 2174TIP3   OH2 6454   4.536   1.276   1.923 -0.8063 -0.1993  0.3330
 2174TIP3    H1 6455   4.484   1.216   1.869 -0.2061 -0.9889  0.6291
 2174TIP3    H2 6456   4.625   1.242   1.917 -0.3616  1.0214  0.0188
 2175TIP3   OH2 6457   5.026   0.229   4.164 -0.0097 -0.1284  0.0104
 2175TIP3    H1 6458   4.980   0.145   4.171  0.7260 -0.4324  1.4927
 2175TIP3    H2 6459   4.983   0.284   4.230  0.3516  0.2585 -0.0785
 2176TIP3   OH2 6460   5.679   2.999   1.329 -0.3498 -0.1303 -0.3382
 2176TIP3    H1 6461   5.714   3.083   1.359 -0.6347  0.2923 -1.1922
 2176TIP3    H2 6462   5.702   2.938   1.399  0.8161  0.4358 -0.2055
 2177TIP3   OH2 6463   8.252   0.909   1.445  0.0718 -0.2617 -0.2263
 2177TIP3    H1 6464   8.185   0.873   1.504  1.2056  2.1744  2.6810
 2177TIP3    H2 6465   8.306   0.834   1.422 -0.7698 -1.3900  1.3485
 2178TIP3   OH2 6466   4.859   1.129   2.749  0.2170 -0.0429  0.4597
 2178TIP3    H1 6467   4.856   1.147   2.843  0.3993  0.7341  0.3196
 2178TIP3    H2 6468   4.952   1.128   2.728  0.1945 -0.8417  0.4057
 2179TIP3   OH2 6469   4.995   1.614   3.413  0.4194  0.6057  0.0702
 2179TIP3    H1 6470   4.952   1.645   3.333 -0.6727  1.5861  1.0072
 2179TIP3    H2 6471   5.079   1.659   3.414  0.0526  1.3066 -0.0613
 2180TIP3   OH2 6472   2.058   7.532   4.180  0.7824 -0.1426  0.5349
 2180TIP3    H1 6473   1.997   7.591   4.223 -0.9692  0.3586 -2.4881
 2180TIP3    H2 6474   2.141   7.581   4.175  0.5025  0.4546  1.6767
 2181TIP3   OH2 6475   5.209   3.158   3.203 -0.0620 -0.3713 -0.0649
 2181TIP3    H1 6476   5.292   3.204   3.218 -0.3643 -0.1311  0.8903
 2181TIP3    H2 6477   5.228   3.068   3.230 -0.2376 -0.2188  0.5732
 2182TIP3   OH2 6478   6.184   1.876   1.350  0.4042 -0.5094 -0.0623
 2182TIP3    H1 6479   6.161   1.862   1.259  1.2834 -1.6886 -0.1169
 2182TIP3    H2 6480   6.195   1.971   1.358 -0.8174 -0.2897 -0.8874
 2183TIP3   OH2 6481   6.116   0.568   3.332 -0.7077  0.2851  0.2603
 2183TIP3    H1 6482   6.170   0.628   3.384 -1.9781  1.8767 -0.2249
 2183TIP3    H2 6483   6.172   0.492   3.318  0.3814  0.6941  2.2155
 2184TIP3   OH2 6484   5.358   1.813   2.083 -0.3898  0.2601  0.4755
 2184TIP3    H1 6485   5.266   1.789   2.091 -0.3927 -0.0616 -0.4707
 2184TIP3    H2 6486   5.368   1.887   2.143 -1.3062  0.4237  0.4405
 2185TIP3   OH2 6487   5.514   0.168   1.751 -0.3408 -0.2535 -0.7118
 2185TIP3    H1 6488   5.607   0.148   1.744 -0.4613 -1.0936 -0.1280
 2185TIP3    H2 6489   5.502   0.247   1.699  0.7723  0.0912 -0.4679
 2186TIP3   OH2 6490   0.571   0.871   4.183  0.0664 -0.1016 -0.4202
 2186TIP3    H1 6491   0.589   0.958   4.218  0.0280  0.2051 -1.1570
 2186TIP3    H2 6492   0.487   0.847   4.223  0.8187 -0.4606  0.9948
 2187TIP3   OH2 6493   7.966   1.035   3.535 -0.4435  0.6208 -0.1798
 2187TIP3    H1 6494   8.031   0.984   3.584  0.4804  2.0934  0.1698
 2187TIP3    H2 6495   7.885   1.024   3.584 -0.3955 -0.9416 -0.4125
 2188TIP3   OH2 6496   5.842   0.697   3.515  0.3686 -0.2265 -0.2479
 2188TIP3    H1 6497   5.869   0.730   3.429 -0.2978  1.9136  0.3297
 2188TIP3    H2 6498   5.756   0.735   3.529 -1.0300 -3.3134 -0.0789
 2189TIP3   OH2 6499   5.375   1.141   2.837  0.1202 -0.2525 -0.2582
 2189TIP3    H1 6500   5.367   1.050   2.868  0.0774  0.5427  2.1623
 2189TIP3    H2 6501   5.404   1.133   2.746  2.6019 -2.6603  0.6722
 2190TIP3   OH2 6502   4.573   3.158   1.592  0.0610 -0.0340  0.0461
 2190TIP3    H1 6503   4.484   3.155   1.628  0.1256  2.4487  0.4883
 2190TIP3    H2 6504   4.630   3.166   1.669  0.5680  0.0773 -0.3382
 2191TIP3   OH2 6505   5.987   1.055   3.386 -0.3539  0.5848 -0.2751
 2191TIP3    H1 6506   6.010   1.080   3.297 -0.6614 -1.0311 -0.8124
 2191TIP3    H2 6507   6.030   1.120   3.441  2.4121 -0.2253 -1.4352
 2192TIP3   OH2 6508   0.289   0.688   2.385 -0.3528 -0.4722 -0.1436
 2192TIP3    H1 6509   0.271   0.626   2.315 -0.3748 -2.2708  1.4224
 2192TIP3    H2 6510   0.292   0.635   2.464  1.0603  1.3213  1.0519
 2193TIP3   OH2 6511   7.346   2.466   3.863  0.2987  0.5673  0.0752
 2193TIP3    H1 6512   7.351   2.405   3.789  0.3511 -0.2151  0.7256
 2193TIP3    H2 6513   7.272   2.435   3.915 -0.5999  1.9285 -0.3633
 2194TIP3   OH2 6514   8.064   0.772   2.236 -0.0610 -0.6927 -0.4411
 2194TIP3    H1 6515   8.134   0.728   2.284 -0.7809  0.8435  2.1654
 2194TIP3    H2 6516   7.985   0.755   2.289 -1.1338 -0.0213 -1.7913
 2195TIP3   OH2 6517   7.894   1.425   1.817  0.1843  0.0986  0.6675
 2195TIP3    H1 6518   7.842   1.494   1.858  0.8678  0.9390  0.1242
 2195TIP3    H2 6519   7.983   1.438   1.850  0.4203 -0.2100  0.1733
 2196TIP3   OH2 6520   5.624   1.928   1.761  0.0740 -0.0529  0.7532
 2196TIP3    H1 6521   5.671   1.922   1.845 -0.1838  1.2455  1.0024
 2196TIP3    H2 6522   5.690   1.961   1.700  0.5213 -1.8996  0.2157
 2197TIP3   OH2 6523   6.849   0.766   1.297  0.4566  0.4729 -0.0495
 2197TIP3    H1 6524   6.841   0.719   1.214 -0.2211  0.8023 -0.1770
 2197TIP3    H2 6525   6.942   0.787   1.303  0.8923 -1.5179  0.3804
 2198TIP3   OH2 6526   4.834   3.611   1.685 -0.0609 -0.2920 -0.1242
 2198TIP3    H1 6527   4.823   3.700   1.650  0.9214 -0.2148 -0.2418
 2198TIP3    H2 6528   4.886   3.565   1.620  2.3251  0.0414  1.4583
 2199TIP3   OH2 6529   4.152   0.416   2.250 -0.2959 -0.0203 -0.2229
 2199TIP3    H1 6530   4.120   0.327   2.234  0.8972 -0.3643 -0.8178
 2199TIP3    H2 6531   4.099   0.472   2.194  1.3597 -0.7989 -2.6671
 2200TIP3   OH2 6532   7.119   0.489   2.717  0.2018 -0.2763  0.7279
 2200TIP3    H1 6533   7.095   0.397   2.730  0.1624 -0.4551 -0.5954
 2200TIP3    H2 6534   7.064   0.537   2.779 -1.6298 -0.9107 -0.3718
 2201TIP3   OH2 6535   5.570   6.550   2.019 -0.5918  0.0285 -0.7006
 2201TIP3    H1 6536   5.484   6.526   1.986 -0.0631  0.7621 -2.6674
 2201TIP3    H2 6537   5.566   6.645   2.029 -0.4342 -0.0806  0.4695
 2202TIP3   OH2 6538   7.213   1.505   0.168 -0.2762 -0.4316  0.3338
 2202TIP3    H1 6539   7.252   1.436   0.221 -1.6906 -1.3033  0.2647
 2202TIP3    H2 6540   7.157   1.553   0.229  0.2437  0.2823  0.2479
 2203TIP3   OH2 6541   6.394   0.671   4.225  0.5654  0.5802 -0.0143
 2203TIP3    H1 6542   6.314   0.629   4.257  0.4062  0.9252  0.0360
 2203TIP3    H2 6543   6.451   0.598   4.199 -0.1144  0.3534 -0.9049
 2204TIP3   OH2 6544   7.571   2.818   0.689 -0.2331  0.3381 -0.1851
 2204TIP3    H1 6545   7.577   2.905   0.651  1.1661 -0.6151 -2.2542
 2204TIP3    H2 6546   7.662   2.793   0.706 -0.5842 -0.8547 -0.0132
 2205TIP3   OH2 6547   7.658   0.743   1.337 -0.2550 -0.4645 -0.2155
 2205TIP3    H1 6548   7.648   0.682   1.410 -1.5669  0.0398  0.0357
 2205TIP3    H2 6549   7.736   0.793   1.359 -1.2441  0.4163  1.3867
 2206TIP3   OH2 6550   5.561   0.901   1.842 -0.4111 -0.0582 -0.0385
 2206TIP3    H1 6551   5.625   0.911   1.772  0.0509  0.3769  0.4380
 2206TIP3    H2 6552   5.476   0.908   1.799 -0.1455  2.6225 -0.2401
 2207TIP3   OH2 6553   5.766   0.054   1.634 -0.1993 -0.5486 -0.6566
 2207TIP3    H1 6554   5.848   0.102   1.645  0.6979 -2.0065 -0.9009
 2207TIP3    H2 6555   5.792  -0.038   1.632 -1.9553 -1.1012  0.4980
 2208TIP3   OH2 6556   7.139   0.849   2.774 -0.0086 -0.6558  0.2605
 2208TIP3    H1 6557   7.134   0.787   2.847 -0.4764 -1.1327 -0.1722
 2208TIP3    H2 6558   7.051   0.849   2.736 -0.2258  0.8577  0.7308
 2209TIP3   OH2 6559   5.891   0.729   1.341  0.4504  0.1235  0.4736
 2209TIP3    H1 6560   5.953   0.680   1.394  3.2712 -0.5300 -3.2589
 2209TIP3    H2 6561   5.806   0.710   1.381  1.7252 -5.4053  0.9823
 2210TIP3   OH2 6562   5.615   7.357   1.561 -0.0886  0.7864 -0.1421
 2210TIP3    H1 6563   5.690   7.353   1.621 -1.6313 -0.5900  1.7627
 2210TIP3    H2 6564   5.627   7.282   1.503  0.8417  1.5094 -0.9200
 2211TIP3   OH2 6565   1.151   6.855   2.092 -0.3130 -0.2691  0.2464
 2211TIP3    H1 6566   1.129   6.880   2.002 -0.1424  0.2305  0.3451
 2211TIP3    H2 6567   1.067   6.835   2.133 -0.5369  1.0998  0.4615
 2212TIP3   OH2 6568   6.396   1.351   2.335  0.0367  0.1638  0.2197
 2212TIP3    H1 6569   6.373   1.440   2.361 -1.5302  0.1637 -1.0520
 2212TIP3    H2 6570   6.471   1.363   2.275  0.3046  0.5633  0.6297
 2213TIP3   OH2 6571   8.010   1.060   1.410  0.3563 -0.1243 -0.0207
 2213TIP3    H1 6572   8.092   1.010   1.404  0.2573 -0.1720 -0.9734
 2213TIP3    H2 6573   8.025   1.120   1.483  0.7255 -1.0882  0.7129
 2214TIP3   OH2 6574   7.897   0.136   2.928  0.2149 -0.1894 -0.3020
 2214TIP3    H1 6575   7.841   0.167   2.999 -0.5312 -0.1748 -0.8943
 2214TIP3    H2 6576   7.963   0.081   2.971  1.1436  1.6557  0.6830
 2215TIP3   OH2 6577   7.124   2.125   2.292  0.1854  0.6816  0.0623
 2215TIP3    H1 6578   7.161   2.080   2.216 -1.3657  0.2543 -0.4584
 2215TIP3    H2 6579   7.084   2.055   2.344  2.2717  0.8095  1.9050
 2216TIP3   OH2 6580   2.102   6.384   2.681  0.0560 -0.1086  0.5334
 2216TIP3    H1 6581   2.141   6.363   2.596  1.4899  1.3820  0.7818
 2216TIP3    H2 6582   2.161   6.344   2.745  0.0126  0.3338  0.8543
 2217TIP3   OH2 6583   7.827   1.066   4.413 -0.6719  0.1780  0.0775
 2217TIP3    H1 6584   7.863   1.142   4.459  0.9228 -0.7209  0.3675
 2217TIP3    H2 6585   7.756   1.102   4.359 -0.4315  1.7478  0.7713
 2218TIP3   OH2 6586   6.299   0.477   2.074  0.0298  0.1822 -0.2165
 2218TIP3    H1 6587   6.364   0.525   2.022  2.0529  1.0497  2.9675
 2218TIP3    H2 6588   6.216   0.491   2.028  1.5064  2.0484 -2.4092
 2219TIP3   OH2 6589   5.842   2.299   2.594  0.6459  0.0452  0.1962
 2219TIP3    H1 6590   5.765   2.297   2.537  1.9040 -1.0443 -1.5232
 2219TIP3    H2 6591   5.870   2.391   2.592  1.6479 -0.2728 -2.3518
 2220TIP3   OH2 6592   7.094   1.132   2.502 -0.7242  0.0874  0.2384
 2220TIP3    H1 6593   7.073   1.054   2.451  0.9697  0.7240 -1.4627
 2220TIP3    H2 6594   7.155   1.101   2.569  0.5121  0.0697 -0.8817
 2221TIP3   OH2 6595   5.026   3.111   0.699 -0.5845 -0.1373  0.5966
 2221TIP3    H1 6596   4.937   3.138   0.720 -0.5407 -0.5772  1.3438
 2221TIP3    H2 6597   5.018   3.065   0.615 -0.9713  0.3287  0.3758
 2222TIP3   OH2 6598   6.413   3.193   5.179  0.5398 -0.3300 -0.3595
 2222TIP3    H1 6599   6.460   3.121   5.222  1.7514 -0.7283 -2.2854
 2222TIP3    H2 6600   6.470   3.219   5.106 -0.5651  1.6139 -0.5602
 2223TIP3   OH2 6601   6.827   1.566   2.523 -0.4127 -0.1932 -0.4475
 2223TIP3    H1 6602   6.911   1.525   2.504 -0.0625  0.9220 -1.3980
 2223TIP3    H2 6603   6.789   1.513   2.594  1.6550  0.0635  0.8836
 2224TIP3   OH2 6604   6.701   2.472   3.340  0.2611 -0.4081  0.6526
 2224TIP3    H1 6605   6.657   2.526   3.405  0.1383  0.8516 -0.4522
 2224TIP3    H2 6606   6.633   2.410   3.311 -0.1842  0.1649  0.4621
 2225TIP3   OH2 6607   5.040   1.269   0.255 -0.2862 -0.0949 -0.5697
 2225TIP3    H1 6608   4.985   1.202   0.296  0.3715 -0.1501  0.2194
 2225TIP3    H2 6609   5.075   1.227   0.176 -1.0294 -0.1976 -0.8519
 2226TIP3   OH2 6610   5.336   2.031   2.825  0.1430  0.0871  0.0444
 2226TIP3    H1 6611   5.273   1.964   2.853  0.4714 -0.0012  0.5788
 2226TIP3    H2 6612   5.291   2.077   2.754 -0.9930  0.7588  1.1641
 2227TIP3   OH2 6613   6.320   1.643   0.734  0.0385  0.8401  0.6165
 2227TIP3    H1 6614   6.323   1.688   0.818 -0.5695  2.2136 -0.0655
 2227TIP3    H2 6615   6.326   1.714   0.669 -0.3683 -0.1202 -0.4925
 2228TIP3   OH2 6616   7.768   0.221   5.302 -0.5505  0.5177  0.0281
 2228TIP3    H1 6617   7.811   0.136   5.292 -0.6886  0.5612 -1.0866
 2228TIP3    H2 6618   7.679   0.200   5.330 -0.2847  0.3443  0.7336
 2229TIP3   OH2 6619   3.993   0.368   1.154 -0.2752  0.3250 -0.4761
 2229TIP3    H1 6620   3.964   0.356   1.064 -0.9433  0.7565 -0.3181
 2229TIP3    H2 6621   4.034   0.284   1.178  2.4629  1.1195 -2.1185
 2230TIP3   OH2 6622   3.266   6.857   1.814  0.4919 -0.1656  0.2125
 2230TIP3    H1 6623   3.244   6.916   1.743  1.6749  0.8807  0.6948
 2230TIP3    H2 6624   3.245   6.770   1.780  0.1434  0.4004 -1.0511
 2231TIP3   OH2 6625   5.666   1.126   2.287  0.2898  0.2761  0.1066
 2231TIP3    H1 6626   5.624   1.120   2.373  0.8173 -1.4909  0.2675
 2231TIP3    H2 6627   5.605   1.176   2.233 -1.6636 -1.5233  0.5620
 2232TIP3   OH2 6628   6.572   2.045   3.785  1.0504  0.0154  0.6797
 2232TIP3    H1 6629   6.580   1.961   3.741  0.2008 -0.2277  0.9820
 2232TIP3    H2 6630   6.641   2.099   3.747 -2.1016  1.1027 -3.8260
 2233TIP3   OH2 6631   7.200   0.699   3.849  0.2013 -0.0642 -0.0631
 2233TIP3    H1 6632   7.276   0.751   3.822 -1.0004  1.1883 -1.1000
 2233TIP3    H2 6633   7.148   0.759   3.902 -0.0187 -0.9658  0.7555
 2234TIP3   OH2 6634   6.104   2.374   4.065 -0.0112  0.2078 -0.0260
 2234TIP3    H1 6635   6.085   2.453   4.014 -1.6388 -0.0188  0.2018
 2234TIP3    H2 6636   6.186   2.340   4.027  0.0112  1.2845 -0.9760
 2235TIP3   OH2 6637   6.840   7.813   2.914 -0.1589  0.0460  0.3811
 2235TIP3    H1 6638   6.811   7.727   2.884  0.5175  0.2895 -1.0323
 2235TIP3    H2 6639   6.773   7.874   2.882  0.2596  0.2354 -0.1527
 2236TIP3   OH2 6640   6.602   1.642   1.283  0.0339  0.1037  0.0806
 2236TIP3    H1 6641   6.646   1.559   1.269 -0.0588  0.1662 -0.5763
 2236TIP3    H2 6642   6.557   1.660   1.201  1.5408  1.7154 -0.4237
 2237TIP3   OH2 6643   4.245   6.732   5.045  0.0750 -0.2215  0.4806
 2237TIP3    H1 6644   4.285   6.649   5.072 -0.4525 -0.5240  0.3425
 2237TIP3    H2 6645   4.311   6.798   5.066 -0.3093 -0.4486  2.4936
 2238TIP3   OH2 6646   5.008   0.754   3.187  0.0025 -0.0738 -0.2787
 2238TIP3    H1 6647   4.965   0.670   3.173  0.5562 -0.7059  1.6498
 2238TIP3    H2 6648   4.990   0.803   3.107 -1.5869 -1.4740 -0.8307
 2239TIP3   OH2 6649   6.860   0.176   2.153  0.2013 -0.3019  0.1210
 2239TIP3    H1 6650   6.816   0.155   2.235  0.5649 -0.2403  0.3331
 2239TIP3    H2 6651   6.795   0.227   2.104 -0.1279 -0.6063  0.2374
 2240TIP3   OH2 6652   6.750   1.325   1.876  0.2290 -0.6444 -0.2289
 2240TIP3    H1 6653   6.683   1.339   1.808  2.0779 -0.0503 -1.9912
 2240TIP3    H2 6654   6.747   1.404   1.929 -0.8354 -0.8506  0.0220
 2241TIP3   OH2 6655   3.457   1.554   3.195  0.6395  0.0795  0.1035
 2241TIP3    H1 6656   3.431   1.527   3.106 -1.4998 -1.6456  1.2082
 2241TIP3    H2 6657   3.537   1.505   3.212  0.7826  0.0285 -0.6898
 2242TIP3   OH2 6658   4.432   1.780   1.965  0.0430  0.4969 -0.2629
 2242TIP3    H1 6659   4.489   1.731   1.906 -0.8677  1.3651 -1.9048
 2242TIP3    H2 6660   4.466   1.870   1.961  1.4549  0.1117  2.4085
 2243TIP3   OH2 6661   3.889   7.870   1.063  0.1305 -0.3492 -0.5509
 2243TIP3    H1 6662   3.962   7.808   1.054 -0.0095 -0.8053  1.2087
 2243TIP3    H2 6663   3.871   7.899   0.974 -1.4506 -4.7445 -1.8035
 2244TIP3   OH2 6664   7.741   0.280   2.708 -0.3199  0.0581 -0.1445
 2244TIP3    H1 6665   7.710   0.366   2.737 -3.4009 -1.0995  0.2109
 2244TIP3    H2 6666   7.774   0.239   2.788 -0.9972  0.0288  0.1199
 2245TIP3   OH2 6667   2.211   7.858   2.981  0.1479  0.1119  0.3607
 2245TIP3    H1 6668   2.259   7.827   3.057 -1.0880 -1.1452  0.6370
 2245TIP3    H2 6669   2.184   7.778   2.935 -0.3776  0.8253 -0.5904
 2246TIP3   OH2 6670   7.741   0.638   0.760 -0.1228  0.5747  0.4477
 2246TIP3    H1 6671   7.716   0.592   0.680 -0.4173  0.0263  0.8471
 2246TIP3    H2 6672   7.661   0.681   0.789  0.2472  1.6733 -0.1356
 2247TIP3   OH2 6673   6.796   1.819   2.417  0.0670  0.0864  0.5720
 2247TIP3    H1 6674   6.802   1.732   2.458  0.4847  0.0068  0.3362
 2247TIP3    H2 6675   6.871   1.867   2.451  0.5856 -0.0774 -0.3425
 2248TIP3   OH2 6676   7.569   1.045   2.736  0.0201 -0.0631 -0.4379
 2248TIP3    H1 6677   7.519   0.967   2.756  0.8689 -1.0287 -1.9770
 2248TIP3    H2 6678   7.509   1.118   2.751 -1.1207 -1.0773 -0.1017
 2249TIP3   OH2 6679   0.235   1.401   2.686 -0.0413  0.1898  0.1782
 2249TIP3    H1 6680   0.286   1.383   2.607 -1.2863  0.4652 -0.6907
 2249TIP3    H2 6681   0.292   1.372   2.758  0.1896 -2.2526 -0.9197
 2250TIP3   OH2 6682   7.068   7.568   4.467  0.3668 -0.1467  0.3860
 2250TIP3    H1 6683   6.997   7.615   4.421  1.1396  1.7099  1.0231
 2250TIP3    H2 6684   7.027   7.538   4.548 -0.3389 -1.2619 -0.3647
 2251TIP3   OH2 6685   4.686   3.479   1.901 -0.9062  0.4518  0.0577
 2251TIP3    H1 6686   4.763   3.469   1.958 -1.4910  1.8336  1.1156
 2251TIP3    H2 6687   4.719   3.527   1.825 -0.4385 -0.0778 -0.0718
 2252TIP3   OH2 6688   1.599   0.549   4.570  0.1685  0.1928  0.0594
 2252TIP3    H1 6689   1.538   0.591   4.631 -0.8489 -1.7270  0.3905
 2252TIP3    H2 6690   1.632   0.473   4.618  0.0801 -0.7996 -1.4259
 2253TIP3   OH2 6691   7.963   0.852   2.894 -0.4064 -1.0560 -0.6649
 2253TIP3    H1 6692   7.882   0.902   2.908 -0.0145 -1.1993  2.5063
 2253TIP3    H2 6693   7.971   0.846   2.799 -2.9004  0.9514 -1.0683
 2254TIP3   OH2 6694   5.078   2.546   1.210  0.4354  0.0446  0.0402
 2254TIP3    H1 6695   5.018   2.587   1.148 -0.4333 -1.0891  0.1191
 2254TIP3    H2 6696   5.073   2.453   1.190  0.2454 -0.3218  1.7394
 2255TIP3   OH2 6697   6.384   0.913   3.159 -0.2345  0.0738 -0.2259
 2255TIP3    H1 6698   6.354   0.866   3.238 -0.1531  0.6767  0.1669
 2255TIP3    H2 6699   6.304   0.935   3.112 -0.2798 -0.3534 -0.3553
 2256TIP3   OH2 6700   6.818   0.466   5.314  0.0420 -0.0666  0.0974
 2256TIP3    H1 6701   6.771   0.548   5.330  1.7953  1.0394 -0.2802
 2256TIP3    H2 6702   6.787   0.437   5.228 -1.1976 -0.2551  0.5931
 2257TIP3   OH2 6703   6.294   1.618   2.313  0.3112  0.0768 -0.5610
 2257TIP3    H1 6704   6.280   1.623   2.219 -2.1871  3.2559 -0.0661
 2257TIP3    H2 6705   6.365   1.679   2.330 -0.4559  0.8695 -0.1719
 2258TIP3   OH2 6706   7.598   2.655   1.897 -0.4299 -0.2930 -0.1974
 2258TIP3    H1 6707   7.553   2.579   1.861 -1.7525 -0.6721  2.1199
 2258TIP3    H2 6708   7.682   2.621   1.928 -0.6080 -0.6016 -0.0562
 2259TIP3   OH2 6709   6.197   3.037   1.960  0.3334  0.3523  0.4536
 2259TIP3    H1 6710   6.137   3.012   1.891  0.6406  0.8413  0.0043
 2259TIP3    H2 6711   6.272   3.075   1.914  1.4347 -1.1821  0.9654
 2260TIP3   OH2 6712   1.515   7.610   4.874  0.1756 -0.4423  0.0198
 2260TIP3    H1 6713   1.479   7.690   4.837  1.0802  0.1047  0.2915
 2260TIP3    H2 6714   1.592   7.639   4.923  0.9401 -1.5641 -0.4906
 2261TIP3   OH2 6715   6.630   1.722   0.163  0.4160  0.1539  0.0561
 2261TIP3    H1 6716   6.680   1.641   0.163 -1.4387 -1.0052  0.2168
 2261TIP3    H2 6717   6.565   1.711   0.233 -0.5009  1.3697 -0.5815
 2262TIP3   OH2 6718   7.799   3.675   4.464  0.0130  0.1167 -0.7257
 2262TIP3    H1 6719   7.747   3.640   4.536 -0.1296 -0.0986 -0.9311
 2262TIP3    H2 6720   7.784   3.614   4.392  0.5293  0.0647 -0.7940
 2263TIP3   OH2 6721   6.956   1.704   2.184  0.1710  0.4230 -0.4132
 2263TIP3    H1 6722   7.031   1.750   2.146  0.6387  2.0861  2.3591
 2263TIP3    H2 6723   6.888   1.771   2.192 -0.0570  0.0214  1.1996
 2264TIP3   OH2 6724   7.448   0.935   2.180  0.0590  0.8009  0.2166
 2264TIP3    H1 6725   7.406   1.005   2.130 -1.7611  1.6031  2.8038
 2264TIP3    H2 6726   7.376   0.880   2.210  1.2539 -0.5132  0.7325
 2265TIP3   OH2 6727   6.590   1.001   3.041  0.1663 -0.3571  0.1735
 2265TIP3    H1 6728   6.549   1.085   3.020 -0.0853  0.2348  2.8466
 2265TIP3    H2 6729   6.527   0.958   3.100  0.6105 -2.1126 -0.6030
 2266TIP3   OH2 6730   7.909   1.396   2.758 -0.2650  0.6124 -0.0710
 2266TIP3    H1 6731   7.862   1.479   2.761 -3.2500 -1.0157  0.9530
 2266TIP3    H2 6732   7.967   1.398   2.834 -0.1247  1.8348 -0.2012
 2267TIP3   OH2 6733   7.646   2.303   3.565 -0.0998  0.4028  0.4053
 2267TIP3    H1 6734   7.662   2.346   3.649  0.3689  0.0280  0.5078
 2267TIP3    H2 6735   7.696   2.222   3.569 -1.6669 -0.5837  0.5497
 2268TIP3   OH2 6736   4.634   1.218   1.594  0.2506  0.6577 -0.2469
 2268TIP3    H1 6737   4.556   1.269   1.613 -0.3974  0.1955 -1.6070
 2268TIP3    H2 6738   4.689   1.277   1.542 -0.1282  0.2594 -1.1008
 2269TIP3   OH2 6739   3.753   4.198   2.784  0.3506 -0.0788 -0.6231
 2269TIP3    H1 6740   3.796   4.269   2.831  0.0386 -0.8394  0.8757
 2269TIP3    H2 6741   3.795   4.196   2.698  0.7945  1.4899 -0.4513
 2270TIP3   OH2 6742   6.648   1.252   3.484  0.0201 -1.3175 -0.2045
 2270TIP3    H1 6743   6.652   1.274   3.577 -0.8312 -0.2153 -0.4185
 2270TIP3    H2 6744   6.555   1.246   3.465  0.1622 -0.5078 -1.2114
 2271TIP3   OH2 6745   4.965   3.163   2.377  0.4011 -0.2601 -0.4949
 2271TIP3    H1 6746   4.907   3.098   2.337  0.4812 -2.6631  3.0447
 2271TIP3    H2 6747   4.908   3.237   2.396 -0.7767 -1.2572 -0.1009
 2272TIP3   OH2 6748   0.250   0.661   3.245  0.2893  0.2108 -0.2443
 2272TIP3    H1 6749   0.191   0.639   3.318  0.5210  2.0770  0.5282
 2272TIP3    H2 6750   0.217   0.609   3.172 -0.1913 -1.4137  1.0738
 2273TIP3   OH2 6751   6.577   0.375   0.223 -0.2184  0.2153 -0.1497
 2273TIP3    H1 6752   6.664   0.335   0.218 -0.6837 -0.6572 -1.8627
 2273TIP3    H2 6753   6.551   0.387   0.131 -1.7097  0.8812  0.3496
 2274TIP3   OH2 6754   6.332   3.047   0.662 -0.1931  0.0652  0.1420
 2274TIP3    H1 6755   6.305   3.030   0.752  0.6953  0.3823  0.4692
 2274TIP3    H2 6756   6.409   2.993   0.649  2.5331  3.5192  1.1164
 2275TIP3   OH2 6757   6.848   1.537   3.303 -0.7519  0.2806 -0.3831
 2275TIP3    H1 6758   6.845   1.470   3.235  0.3173 -0.8060  0.6249
 2275TIP3    H2 6759   6.763   1.531   3.346 -0.3122 -1.0847  0.3196
 2276TIP3   OH2 6760   7.567   1.331   2.033  0.2719  0.6722 -0.0717
 2276TIP3    H1 6761   7.517   1.378   2.099 -0.0012 -0.8839  0.8459
 2276TIP3    H2 6762   7.527   1.356   1.950 -0.0807  1.7849  0.4358
 2277TIP3   OH2 6763   7.776   3.298   2.053 -0.7324  0.1807  0.1398
 2277TIP3    H1 6764   7.706   3.262   1.998 -0.3101 -0.5411  0.0812
 2277TIP3    H2 6765   7.808   3.224   2.104 -1.2371  0.8851  1.4998
 2278TIP3   OH2 6766   5.972   2.327   0.899  0.0456  0.3302 -0.5146
 2278TIP3    H1 6767   6.005   2.359   0.815  0.1811 -0.8374 -0.9075
 2278TIP3    H2 6768   5.963   2.233   0.888  0.5340  0.0997  0.9505
 2279TIP3   OH2 6769   0.280   1.664   0.956 -0.1724  0.0547  0.2647
 2279TIP3    H1 6770   0.344   1.620   1.012 -0.6647 -0.7743  0.1835
 2279TIP3    H2 6771   0.316   1.752   0.943  0.5879 -0.1692  0.8111
 2280TIP3   OH2 6772   6.986   7.801   3.156  0.2387 -0.4306  0.0728
 2280TIP3    H1 6773   6.956   7.798   3.065 -0.1089 -0.8253  0.1981
 2280TIP3    H2 6774   7.077   7.831   3.151  0.6430 -1.7306 -0.5063
 2281TIP3   OH2 6775   6.423   1.701   1.071 -0.4214  0.0431 -0.2284
 2281TIP3    H1 6776   6.327   1.696   1.073 -0.4417  0.5112  0.2946
 2281TIP3    H2 6777   6.442   1.770   1.007 -0.4672  0.6884  0.4501
 2282TIP3   OH2 6778   6.627   3.711   2.701  0.0273 -0.3870  0.0508
 2282TIP3    H1 6779   6.566   3.765   2.751 -0.4410 -0.0938 -0.8159
 2282TIP3    H2 6780   6.694   3.772   2.671  0.4792 -0.6197  0.5933
 2283TIP3   OH2 6781   1.151   0.655   3.123 -0.1468 -0.0360 -0.4025
 2283TIP3    H1 6782   1.234   0.607   3.117 -1.0042 -1.8030  1.1611
 2283TIP3    H2 6783   1.176   0.745   3.144  1.3914 -0.4647 -0.3474
 2284TIP3   OH2 6784   2.540   0.892   4.358 -0.1703  0.3440 -0.7862
 2284TIP3    H1 6785   2.480   0.966   4.350  0.4566  0.7023 -2.1904
 2284TIP3    H2 6786   2.594   0.896   4.279  1.6875  0.0042  0.4502
 2285TIP3   OH2 6787   1.123   0.261   2.962  0.1344  0.5424  0.3006
 2285TIP3    H1 6788   1.191   0.230   3.022 -0.1806 -0.0470  0.3565
 2285TIP3    H2 6789   1.171   0.313   2.897  0.7262 -0.3241  0.0247
 2286TIP3   OH2 6790   8.253   2.290   2.960 -0.1553 -0.1759  0.0711
 2286TIP3    H1 6791   8.331   2.335   2.928  0.9704 -0.6770  2.0525
 2286TIP3    H2 6792   8.255   2.302   3.055 -2.2856 -0.5335  0.1949
 2287TIP3   OH2 6793   7.807   1.804   3.602 -0.2876 -0.2574 -0.6593
 2287TIP3    H1 6794   7.866   1.755   3.658  1.1128  1.2578 -0.7427
 2287TIP3    H2 6795   7.835   1.781   3.513  0.0261  0.2643 -0.6994
 2288TIP3   OH2 6796   3.422   7.230   6.601 -0.1221  0.2100 -0.3796
 2288TIP3    H1 6797   3.504   7.267   6.633  0.8882 -2.2428 -0.0032
 2288TIP3    H2 6798   3.371   7.213   6.681 -0.3671  0.3358 -0.5107
 2289TIP3   OH2 6799   0.468   3.654   4.274  0.2624 -0.4673 -0.6142
 2289TIP3    H1 6800   0.408   3.621   4.206  0.7201 -1.8985 -0.3454
 2289TIP3    H2 6801   0.442   3.607   4.353 -1.9056  3.0274  0.8163
 2290TIP3   OH2 6802   5.714   2.399   3.525  0.0463  0.4362 -0.0525
 2290TIP3    H1 6803   5.676   2.418   3.611 -1.1593  1.6831 -0.8346
 2290TIP3    H2 6804   5.726   2.485   3.485  4.1346  0.1232  0.2996
 2291TIP3   OH2 6805   7.119   1.059   3.854 -0.5085  0.5016  0.0524
 2291TIP3    H1 6806   7.049   1.051   3.789  1.0577  0.9854 -1.7402
 2291TIP3    H2 6807   7.074   1.055   3.938 -2.7655  1.6019 -1.0618
 2292TIP3   OH2 6808   7.153   1.115   1.515  0.7294  0.7201 -0.5843
 2292TIP3    H1 6809   7.128   1.199   1.477 -0.9659  0.3311 -0.3913
 2292TIP3    H2 6810   7.111   1.050   1.459 -1.7366  0.1440  1.8231
 2293TIP3   OH2 6811   7.605   2.305   1.350 -0.1669 -0.6719 -0.2158
 2293TIP3    H1 6812   7.550   2.352   1.287  0.0323 -0.5693 -0.3127
 2293TIP3    H2 6813   7.554   2.227   1.372  0.4524 -1.5232 -1.7199
 2294TIP3   OH2 6814   7.729   2.718   3.211 -0.9318 -0.1412  0.1376
 2294TIP3    H1 6815   7.816   2.744   3.179  0.0688 -0.8229  2.1865
 2294TIP3    H2 6816   7.684   2.684   3.134  0.3526  0.9426 -1.1111
 2295TIP3   OH2 6817   8.345   1.226   4.808  0.2126 -0.2632  0.1933
 2295TIP3    H1 6818   8.414   1.160   4.799  0.0760 -0.2980 -0.6596
 2295TIP3    H2 6819   8.270   1.178   4.844  0.7856 -0.1132  1.6373
 2296TIP3   OH2 6820   6.130   3.496   1.833  0.1151  0.3318  0.1406
 2296TIP3    H1 6821   6.147   3.444   1.755 -2.2107  0.0710 -0.2245
 2296TIP3    H2 6822   6.206   3.553   1.841  0.2812  0.5298 -2.4489
 2297TIP3   OH2 6823   6.607   0.350   0.613 -0.7886 -0.2496  0.1960
 2297TIP3    H1 6824   6.545   0.295   0.565  0.7250 -0.9824 -0.9461
 2297TIP3    H2 6825   6.558   0.380   0.690 -1.7927 -2.7756  0.5794
 2298TIP3   OH2 6826   3.174   0.148   1.381 -0.2473 -0.2439 -0.1845
 2298TIP3    H1 6827   3.146   0.088   1.311 -0.9051 -1.3342  0.9914
 2298TIP3    H2 6828   3.108   0.137   1.449 -0.7139  2.2868 -0.1897
 2299TIP3   OH2 6829   3.754   7.752   5.066  0.0802 -0.1226 -0.0449
 2299TIP3    H1 6830   3.700   7.759   5.144  0.4980 -1.1659  0.3518
 2299TIP3    H2 6831   3.695   7.775   4.994 -0.4228  0.4200  0.5314
 2300TIP3   OH2 6832   6.071   2.450   1.705 -0.0707  0.0412  0.1344
 2300TIP3    H1 6833   6.113   2.534   1.691 -0.9481  0.4884  0.1554
 2300TIP3    H2 6834   6.093   2.427   1.795  2.0436 -0.8341 -0.5673
 2301TIP3   OH2 6835   7.499   0.823   1.730 -0.1994  0.0813  0.5141
 2301TIP3    H1 6836   7.538   0.857   1.810 -0.1253 -1.5795  1.1842
 2301TIP3    H2 6837   7.551   0.863   1.660 -0.1292  1.3634  1.2801
 2302TIP3   OH2 6838   7.844   1.704   4.440 -0.3683 -0.3030 -0.1296
 2302TIP3    H1 6839   7.892   1.637   4.488 -0.6700 -0.3015  0.1746
 2302TIP3    H2 6840   7.829   1.773   4.504 -1.3509 -0.5878 -0.0355
 2303TIP3   OH2 6841   0.816   0.771   4.114  0.3031  1.2568  0.2515
 2303TIP3    H1 6842   0.838   0.686   4.151 -0.8818  0.4959 -0.7396
 2303TIP3    H2 6843   0.754   0.809   4.176  0.1550  1.0148  0.2523
 2304TIP3   OH2 6844   7.833   4.136   3.229 -0.3022  0.0628 -0.2832
 2304TIP3    H1 6845   7.877   4.215   3.198 -1.5308  0.3959 -1.2151
 2304TIP3    H2 6846   7.740   4.153   3.215 -0.6739 -1.0071  0.7846
 2305TIP3   OH2 6847   5.239   7.349   2.256 -0.5519 -0.3546 -0.0950
 2305TIP3    H1 6848   5.205   7.294   2.186 -0.1595  2.3198 -2.5053
 2305TIP3    H2 6849   5.195   7.433   2.244 -0.8726  0.0389  3.2357
 2306TIP3   OH2 6850   7.813   2.205   2.712  0.1290  0.3610 -0.2459
 2306TIP3    H1 6851   7.838   2.147   2.784 -1.4641 -0.0916 -0.0302
 2306TIP3    H2 6852   7.757   2.271   2.753  1.6551  1.8927 -0.5468
 2307TIP3   OH2 6853   0.045   3.243   0.416  0.5802 -0.2040 -0.3616
 2307TIP3    H1 6854   0.033   3.239   0.321  1.9670 -0.8998 -0.5182
 2307TIP3    H2 6855  -0.030   3.193   0.451  0.4370 -0.5277 -1.1162
 2308TIP3   OH2 6856   8.385   0.066   4.390 -0.6434 -0.4145  0.4616
 2308TIP3    H1 6857   8.469   0.045   4.431  0.9071  2.0082 -1.3619
 2308TIP3    H2 6858   8.392   0.158   4.365 -3.2765 -0.5752 -1.0944
 2309TIP3   OH2 6859   1.573   1.725   6.323  0.2345  0.1652 -0.2384
 2309TIP3    H1 6860   1.581   1.671   6.244 -3.0846 -0.0710 -0.5008
 2309TIP3    H2 6861   1.509   1.679   6.377  0.4498  1.7344  1.3984
 2310TIP3   OH2 6862   7.931   0.567   4.390  0.1109 -0.6722 -0.0128
 2310TIP3    H1 6863   7.859   0.527   4.342 -0.5809 -1.0209  1.3242
 2310TIP3    H2 6864   7.953   0.645   4.338 -0.6695 -1.0118 -0.8681
 2311TIP3   OH2 6865   0.057   1.314   5.034 -0.0254  0.0500  0.1511
 2311TIP3    H1 6866  -0.037   1.322   5.021 -0.1974 -1.6704  0.2253
 2311TIP3    H2 6867   0.088   1.404   5.043 -1.7315  0.5974  0.6760
 2312TIP3   OH2 6868   0.733   2.816   4.444  0.6946 -0.4399 -0.3207
 2312TIP3    H1 6869   0.761   2.908   4.450  0.2571 -0.4457  2.1342
 2312TIP3    H2 6870   0.801   2.768   4.490  0.2187 -1.2120 -0.4268
 2313TIP3   OH2 6871   2.317   1.177   4.666  0.4478  0.2976  0.3909
 2313TIP3    H1 6872   2.332   1.271   4.675  0.5377  0.0655  3.2950
 2313TIP3    H2 6873   2.399   1.137   4.697 -0.8143 -0.7345  2.5401
 2314TIP3   OH2 6874   5.772   6.971   2.506 -0.1407 -0.0978  0.5298
 2314TIP3    H1 6875   5.827   6.999   2.433  1.5201 -1.8561  1.0632
 2314TIP3    H2 6876   5.808   7.017   2.582 -0.5253  0.0791  0.6100
 2315TIP3   OH2 6877   0.669   2.245   4.240 -0.2058  0.9809  0.6248
 2315TIP3    H1 6878   0.628   2.159   4.249 -0.2606  0.8731 -0.5391
 2315TIP3    H2 6879   0.631   2.281   4.159  1.4883  1.1415 -0.1259
 2316TIP3   OH2 6880   0.211   1.469   1.480 -0.2342 -0.3931  0.8354
 2316TIP3    H1 6881   0.119   1.446   1.467 -0.2946  0.8499 -1.1288
 2316TIP3    H2 6882   0.239   1.416   1.554 -1.0153 -4.9977 -1.9864
 2317TIP3   OH2 6883   6.098   7.930   4.943 -0.1255 -0.0309 -0.2949
 2317TIP3    H1 6884   6.041   8.007   4.931  0.4869  0.6268  1.0028
 2317TIP3    H2 6885   6.044   7.857   4.912 -1.2777  0.7270 -0.1435
 2318TIP3   OH2 6886   0.909   2.425   4.210 -0.4033  0.0013 -0.7062
 2318TIP3    H1 6887   0.983   2.373   4.178 -1.7011 -1.0403 -2.1104
 2318TIP3    H2 6888   0.839   2.361   4.224 -0.6756  0.8076  1.8150
 2319TIP3   OH2 6889   0.082   0.649   3.795 -0.2508 -0.1064 -0.0079
 2319TIP3    H1 6890  -0.001   0.656   3.748 -0.6757  1.3344  0.9263
 2319TIP3    H2 6891   0.094   0.555   3.809 -2.6265 -0.2147  1.4405
 2320TIP3   OH2 6892   7.984   1.648   3.714  0.2138  0.6472  0.2081
 2320TIP3    H1 6893   8.012   1.575   3.769  2.5556  0.8489 -0.6439
 2320TIP3    H2 6894   8.020   1.628   3.627  0.4109  2.5013 -0.1701
 2321TIP3   OH2 6895   3.517   3.743   3.824 -0.2518 -0.0486  0.0573
 2321TIP3    H1 6896   3.573   3.669   3.802 -1.2545 -0.0130 -2.8280
 2321TIP3    H2 6897   3.429   3.705   3.830 -0.3602  0.4148  1.4927
 2322TIP3   OH2 6898   6.672   7.164   2.598  0.3192 -0.1100 -0.0163
 2322TIP3    H1 6899   6.646   7.121   2.517  2.4050 -1.2235 -0.1349
 2322TIP3    H2 6900   6.648   7.102   2.667 -0.6006  0.4314  0.1616
 2323TIP3   OH2 6901   7.447   6.676   2.854 -0.1576  0.1174  0.2775
 2323TIP3    H1 6902   7.386   6.739   2.816  0.1924 -1.4404 -2.9923
 2323TIP3    H2 6903   7.497   6.727   2.918 -1.7308  2.4792 -0.3123
 2324TIP3   OH2 6904   1.880   0.565   3.238  0.4359  0.0031  0.2011
 2324TIP3    H1 6905   1.790   0.543   3.261 -0.5804  1.3857 -2.3225
 2324TIP3    H2 6906   1.901   0.641   3.293 -0.0326 -0.1333  0.5689
 2325TIP3   OH2 6907   0.884   0.533   4.239 -0.1012  0.6110 -0.0250
 2325TIP3    H1 6908   0.947   0.467   4.210 -1.1512 -0.0798 -0.7550
 2325TIP3    H2 6909   0.823   0.485   4.295 -0.2479  1.1798  0.3052
 2326TIP3   OH2 6910   3.340   1.219   4.214  0.2958  0.3292  0.1061
 2326TIP3    H1 6911   3.316   1.261   4.131  0.3332  1.0847  0.4739
 2326TIP3    H2 6912   3.412   1.272   4.248  0.0966  0.1829  0.7568
 2327TIP3   OH2 6913   3.834   0.835   2.680 -0.1009  0.2525 -0.2142
 2327TIP3    H1 6914   3.768   0.904   2.670 -0.9019 -0.3040  1.0672
 2327TIP3    H2 6915   3.902   0.874   2.734 -0.1715  0.3066 -0.1640
 2328TIP3   OH2 6916   1.862   0.471   4.209  0.3732 -0.3648 -0.4787
 2328TIP3    H1 6917   1.779   0.519   4.214  0.5998  0.1153 -1.3064
 2328TIP3    H2 6918   1.923   0.523   4.261 -0.1633 -1.4130  1.2491
 2329TIP3   OH2 6919   6.418   0.229   4.963 -1.0817  0.2914 -0.0042
 2329TIP3    H1 6920   6.345   0.280   5.000 -1.0476  1.4930 -1.5423
 2329TIP3    H2 6921   6.495   0.262   5.008 -1.3313 -0.0308  0.6639
 2330TIP3   OH2 6922   0.481   0.316   5.172  0.7430 -0.1185  0.4251
 2330TIP3    H1 6923   0.423   0.364   5.114 -0.8074 -1.7457  0.5773
 2330TIP3    H2 6924   0.535   0.263   5.114  2.3039  1.5966  0.2693
 2331TIP3   OH2 6925   6.695   1.714   3.925 -0.2655  0.4889  0.1922
 2331TIP3    H1 6926   6.599   1.710   3.915 -0.1849  0.4419 -0.6196
 2331TIP3    H2 6927   6.709   1.729   4.019 -1.0409 -0.4159  0.4565
 2332TIP3   OH2 6928   6.658   7.664   2.411  0.3930 -0.0405 -0.6420
 2332TIP3    H1 6929   6.642   7.681   2.318  0.9391 -1.4285 -1.0067
 2332TIP3    H2 6930   6.693   7.747   2.444 -0.6606  0.7452 -1.4587
 2333TIP3   OH2 6931   6.758   1.052   2.304  0.0325 -0.2436  0.0215
 2333TIP3    H1 6932   6.837   1.106   2.301  0.2211 -0.5774 -1.6109
 2333TIP3    H2 6933   6.757   1.006   2.220 -1.8869 -0.2570  0.0207
 2334TIP3   OH2 6934   1.095   1.375   3.646 -0.5526  0.0786  0.2996
 2334TIP3    H1 6935   1.159   1.381   3.575 -0.6789 -1.5721  0.0252
 2334TIP3    H2 6936   1.147   1.359   3.724 -0.4732  1.1027  0.4678
 2335TIP3   OH2 6937   0.802   3.660   1.707 -0.1793  0.2732 -0.4055
 2335TIP3    H1 6938   0.895   3.685   1.705  0.4036 -1.7693 -0.5312
 2335TIP3    H2 6939   0.771   3.677   1.618  0.4907 -0.4847 -0.7909
 2336TIP3   OH2 6940   0.852   1.473   2.579 -0.0024 -0.8019  0.1613
 2336TIP3    H1 6941   0.879   1.430   2.497  0.2178  0.8699 -0.6576
 2336TIP3    H2 6942   0.757   1.482   2.572  0.3541  2.4397 -1.4953
 2337TIP3   OH2 6943   1.325   1.954   4.060 -0.0751  0.0644  0.1374
 2337TIP3    H1 6944   1.401   1.955   4.118  0.5609 -0.2100 -0.6908
 2337TIP3    H2 6945   1.335   2.032   4.005 -0.1839 -0.1930 -0.2486
 2338TIP3   OH2 6946   0.936   1.037   2.661 -0.5707  0.0248  0.0376
 2338TIP3    H1 6947   0.913   0.997   2.745 -0.5846 -0.6813 -0.2979
 2338TIP3    H2 6948   1.005   1.101   2.683 -0.7988  0.0686  0.6260
 2339TIP3   OH2 6949   5.973   1.757   2.832  0.0272 -0.4487  0.5122
 2339TIP3    H1 6950   6.023   1.834   2.808 -0.8889 -0.0418 -0.1373
 2339TIP3    H2 6951   5.883   1.777   2.803 -0.8981 -0.4041  3.2584
 2340TIP3   OH2 6952   1.510   0.505   2.139  0.7039  0.1168  0.1701
 2340TIP3    H1 6953   1.600   0.501   2.105  1.0589  2.7128  0.6364
 2340TIP3    H2 6954   1.494   0.599   2.149 -1.4891 -0.4023  1.6533
 2341TIP3   OH2 6955   0.049   2.839   3.245 -0.5695  0.5626 -0.5708
 2341TIP3    H1 6956   0.028   2.818   3.154  0.6167 -0.6708 -0.5719
 2341TIP3    H2 6957   0.140   2.868   3.242  0.4549 -2.3414  0.6071
 2342TIP3   OH2 6958   2.790   0.960   3.319  0.6913  0.0654  0.5301
 2342TIP3    H1 6959   2.726   0.989   3.384  1.9302  0.5873  1.5212
 2342TIP3    H2 6960   2.742   0.896   3.265 -0.7232  0.6170  1.1174
 2343TIP3   OH2 6961   7.184   0.782   5.100 -0.9336  0.0188 -0.6497
 2343TIP3    H1 6962   7.175   0.877   5.106  1.6214  0.3455 -1.3410
 2343TIP3    H2 6963   7.279   0.766   5.101 -1.2131 -2.3314 -3.2668
 2344TIP3   OH2 6964   0.526   2.877   2.408  0.1734 -0.3882  0.3616
 2344TIP3    H1 6965   0.511   2.841   2.496  1.5316  0.5583  1.0082
 2344TIP3    H2 6966   0.621   2.872   2.397 -0.0775 -1.4657 -1.4930
 2345TIP3   OH2 6967   2.845   0.240   2.887 -0.1034  0.3616 -0.1388
 2345TIP3    H1 6968   2.844   0.147   2.867 -1.3014  0.4348 -0.4669
 2345TIP3    H2 6969   2.911   0.277   2.828  1.6207 -0.5303  1.2139
 2346TIP3   OH2 6970   1.290   0.623   3.908 -0.4151  0.5397 -0.0878
 2346TIP3    H1 6971   1.338   0.618   3.825 -1.7769  0.1873 -0.8615
 2346TIP3    H2 6972   1.289   0.717   3.929  0.5308  0.5598 -0.1142
 2347TIP3   OH2 6973   8.253   0.596   3.207  0.3398  0.3015 -0.0368
 2347TIP3    H1 6974   8.260   0.640   3.122  2.3918  1.5281  0.7147
 2347TIP3    H2 6975   8.235   0.667   3.269 -0.8874 -0.5504  0.5913
 2348TIP3   OH2 6976   5.348   7.343   2.537 -0.3688  0.0528 -0.5448
 2348TIP3    H1 6977   5.288   7.324   2.609 -0.7667  1.7942 -0.3877
 2348TIP3    H2 6978   5.295   7.332   2.458 -1.0375  1.9324 -0.3941
 2349TIP3   OH2 6979   2.517   0.825   2.577 -0.5649 -0.6854 -0.6701
 2349TIP3    H1 6980   2.477   0.831   2.664  0.1186 -0.6928 -0.3573
 2349TIP3    H2 6981   2.611   0.821   2.594 -0.5032 -2.1346 -1.3490
 2350TIP3   OH2 6982   7.483   7.953   4.801 -0.1208 -0.3705 -0.4945
 2350TIP3    H1 6983   7.490   7.975   4.894 -1.3740  1.9653 -0.8862
 2350TIP3    H2 6984   7.388   7.949   4.785 -0.0195  2.5214 -2.2976
 2351TIP3   OH2 6985   2.658   0.102   1.067  0.2802  0.2798  0.3787
 2351TIP3    H1 6986   2.687   0.181   1.113  0.6612  0.8810 -0.8725
 2351TIP3    H2 6987   2.595   0.134   1.003 -0.2461 -0.5537  0.4761
 2352TIP3   OH2 6988   0.410   1.332   2.926  0.0070  0.2267  0.0788
 2352TIP3    H1 6989   0.327   1.361   2.965  0.4183 -0.4695  1.5139
 2352TIP3    H2 6990   0.417   1.240   2.950 -0.2203 -0.5107 -2.5702
 2353TIP3   OH2 6991   0.577   0.832   3.459 -0.0375  0.3097  0.1015
 2353TIP3    H1 6992   0.554   0.921   3.484  0.9023  0.5714  0.0817
 2353TIP3    H2 6993   0.616   0.794   3.538  1.6056  0.6611 -0.5109
 2354TIP3   OH2 6994   6.181   7.494   1.330 -0.0994 -0.1409 -0.0327
 2354TIP3    H1 6995   6.268   7.459   1.347 -0.2450 -0.4751  0.0363
 2354TIP3    H2 6996   6.123   7.442   1.386 -0.4348 -0.4444 -0.6465
 2355TIP3   OH2 6997   7.864   0.607   3.398 -0.4059  0.5668 -0.6338
 2355TIP3    H1 6998   7.897   0.602   3.309 -0.4838 -1.1606 -0.5838
 2355TIP3    H2 6999   7.934   0.571   3.452 -0.9587  0.1728 -0.1637
 2356TIP3   OH2 7000   3.320   1.326   3.953  0.4508  0.2958 -0.5459
 2356TIP3    H1 7001   3.353   1.386   3.886  0.1355  0.5019 -0.5159
 2356TIP3    H2 7002   3.352   1.240   3.925 -0.2022  0.2901 -1.3078
 2357TIP3   OH2 7003   1.248   0.446   2.731  0.2635 -0.1086  0.4330
 2357TIP3    H1 7004   1.227   0.439   2.638  2.5344  1.9292 -0.2799
 2357TIP3    H2 7005   1.169   0.482   2.771 -0.7855 -1.1434 -0.6628
 2358TIP3   OH2 7006   8.445   0.119   5.660 -0.1917 -0.4410  0.0561
 2358TIP3    H1 7007   8.376   0.052   5.667  0.3120 -0.9448  0.2415
 2358TIP3    H2 7008   8.420   0.171   5.584 -0.0945 -1.4144 -0.6551
 2359TIP3   OH2 7009   1.116   0.672   5.625 -0.1639 -0.0778  0.7758
 2359TIP3    H1 7010   1.103   0.614   5.549 -0.1800  1.9269 -0.7946
 2359TIP3    H2 7011   1.200   0.645   5.661  0.2195 -0.5392 -0.4270
 2360TIP3   OH2 7012   6.156   7.897   2.007  0.4757 -0.7493 -0.5198
 2360TIP3    H1 7013   6.116   7.848   2.078  1.1746 -0.1306  0.3082
 2360TIP3    H2 7014   6.150   7.989   2.034 -0.2926 -0.3998 -1.7866
 2361TIP3   OH2 7015   1.041   1.115   3.605 -0.2579  0.5838 -0.2985
 2361TIP3    H1 7016   1.135   1.105   3.621 -0.1545  0.9648 -0.6746
 2361TIP3    H2 7017   1.024   1.208   3.621 -0.8204  0.2576  1.0797
 2362TIP3   OH2 7018   5.137   7.214   2.051  0.6870 -0.0870 -0.5721
 2362TIP3    H1 7019   5.072   7.245   1.987 -0.0794 -0.6445 -0.0813
 2362TIP3    H2 7020   5.211   7.187   1.998  0.6100  0.7706 -1.1316
 2363TIP3   OH2 7021   1.647   0.604   3.922 -0.1238  0.5944 -0.3261
 2363TIP3    H1 7022   1.643   0.580   4.014  1.3485  2.5293  0.2838
 2363TIP3    H2 7023   1.677   0.695   3.922 -0.4201  0.7351 -2.7011
 2364TIP3   OH2 7024   0.193   1.566   5.067  0.3314 -0.1056 -0.2304
 2364TIP3    H1 7025   0.120   1.613   5.107  0.5946  0.3486 -0.2850
 2364TIP3    H2 7026   0.212   1.615   4.987  0.3244 -0.5506 -0.5050
 2365TIP3   OH2 7027   6.711   2.171   3.305  0.6666  0.2954 -0.2738
 2365TIP3    H1 7028   6.748   2.137   3.223  0.4555  0.6945 -0.5367
 2365TIP3    H2 7029   6.768   2.245   3.328  0.8705  0.0362  0.0728
 2366TIP3   OH2 7030   7.789   2.301   2.048 -0.1398 -0.7042 -0.3173
 2366TIP3    H1 7031   7.764   2.393   2.046  1.5741 -0.1824  0.8175
 2366TIP3    H2 7032   7.866   2.298   2.104  0.4120 -2.6960 -1.1137
 2367TIP3   OH2 7033   6.400   2.636   3.775  0.3183  0.2829 -0.1539
 2367TIP3    H1 7034   6.422   2.550   3.811 -0.0038  1.8988  4.0951
 2367TIP3    H2 7035   6.483   2.668   3.738  1.3953 -0.2466  1.7377
 2368TIP3   OH2 7036   0.553   1.535   3.924  0.2900  0.3740  0.3192
 2368TIP3    H1 7037   0.567   1.453   3.878 -2.2792  0.6140 -0.9706
 2368TIP3    H2 7038   0.578   1.603   3.861 -1.2224  0.6526 -0.0032
 2369TIP3   OH2 7039   0.586   0.818   3.921  0.2241  0.3825  0.0837
 2369TIP3    H1 7040   0.547   0.731   3.927 -0.4454  0.6508 -0.2841
 2369TIP3    H2 7041   0.604   0.843   4.012  1.5245 -0.6209  0.1247
 2370TIP3   OH2 7042   3.019   2.025   3.737 -1.0332  0.1238  0.2730
 2370TIP3    H1 7043   3.099   1.972   3.741 -1.4526 -0.5331 -0.0906
 2370TIP3    H2 7044   3.050   2.112   3.712 -0.6752 -0.7079 -2.3060
 2371TIP3   OH2 7045   0.832   0.865   5.026 -0.3114 -0.1100  0.4360
 2371TIP3    H1 7046   0.828   0.916   5.107 -0.4086  0.6899 -0.0718
 2371TIP3    H2 7047   0.771   0.909   4.966  1.1168  0.3911 -0.6781
 2372TIP3   OH2 7048   0.992   4.082   1.744 -0.9639  0.5715  0.1366
 2372TIP3    H1 7049   1.026   4.061   1.657 -0.6410 -0.9059  0.6170
 2372TIP3    H2 7050   0.903   4.047   1.744 -0.8112  0.1810  0.5510
 2373TIP3   OH2 7051   6.414   1.937   3.277 -0.1057  0.0822 -0.0006
 2373TIP3    H1 7052   6.506   1.941   3.304  0.1179  0.6069 -0.8398
 2373TIP3    H2 7053   6.381   1.857   3.317  1.1259 -0.9226 -0.9574
 2374TIP3   OH2 7054   8.452   3.332   3.909  0.0190  0.0208 -0.7970
 2374TIP3    H1 7055   8.472   3.412   3.958 -0.4556 -0.0407 -0.4954
 2374TIP3    H2 7056   8.483   3.261   3.965 -0.9922 -0.0717 -0.3451
 2375TIP3   OH2 7057   2.484   1.100   3.112  0.5319  0.7350  0.6186
 2375TIP3    H1 7058   2.403   1.102   3.164  0.9167 -0.0839  1.2642
 2375TIP3    H2 7059   2.455   1.079   3.024  0.0543  0.1898  0.8996
 2376TIP3   OH2 7060   2.025   3.286   5.494 -0.3856  0.6471  0.3973
 2376TIP3    H1 7061   2.048   3.263   5.404 -1.5422  0.6248  0.0929
 2376TIP3    H2 7062   2.004   3.379   5.490 -2.7117  0.1602  0.1337
 2377TIP3   OH2 7063   1.316   1.164   3.139 -0.2080  0.7608 -0.2405
 2377TIP3    H1 7064   1.249   1.228   3.113 -1.7530 -1.6883 -2.5812
 2377TIP3    H2 7065   1.395   1.193   3.094  0.0274  2.9999  1.5661
 2378TIP3   OH2 7066   2.129   1.972   3.109  0.2008 -0.1795  0.1399
 2378TIP3    H1 7067   2.162   1.885   3.135 -1.3902 -0.3270  1.7069
 2378TIP3    H2 7068   2.142   2.026   3.186 -0.8859  0.4129 -0.0907
 2379TIP3   OH2 7069   1.573   0.120   2.801  0.0457 -0.1152  0.5440
 2379TIP3    H1 7070   1.519   0.127   2.722 -1.8536 -1.2391  1.7125
 2379TIP3    H2 7071   1.559   0.203   2.847  0.3298  0.1026  0.2500
 2380TIP3   OH2 7072   8.371   2.454   4.534 -0.0253 -0.4592 -0.0872
 2380TIP3    H1 7073   8.385   2.499   4.617  1.7131  1.0312 -1.1396
 2380TIP3    H2 7074   8.446   2.395   4.526  0.7887  0.7249 -1.4096
 2381TIP3   OH2 7075   1.196   0.779   1.813 -0.5666  0.6766  0.6731
 2381TIP3    H1 7076   1.199   0.766   1.908 -0.3166 -1.1539  0.4347
 2381TIP3    H2 7077   1.103   0.792   1.794 -1.0359 -2.0671  0.8275
 2382TIP3   OH2 7078   1.897   0.817   2.087  0.4246  0.4444  0.2854
 2382TIP3    H1 7079   1.817   0.853   2.048  0.0064  0.4455  1.1250
 2382TIP3    H2 7080   1.936   0.892   2.133  0.9853  0.4789 -0.2464
 2383TIP3   OH2 7081   0.150   2.949   3.826 -0.5218 -0.2599 -0.5744
 2383TIP3    H1 7082   0.205   3.026   3.843  0.8017 -1.4484  0.6985
 2383TIP3    H2 7083   0.075   2.960   3.886 -0.1029 -0.1826 -0.0593
 2384TIP3   OH2 7084   3.681   6.433   0.176 -0.4452  0.3655 -0.3772
 2384TIP3    H1 7085   3.644   6.463   0.093  0.3347 -2.1125 -1.6497
 2384TIP3    H2 7086   3.775   6.447   0.168 -0.3188 -0.2813 -0.0710
 2385TIP3   OH2 7087   1.384   0.700   1.618 -0.1452  0.1547  0.2020
 2385TIP3    H1 7088   1.449   0.631   1.618 -1.0451 -0.7062  0.6530
 2385TIP3    H2 7089   1.332   0.684   1.697 -0.5719  1.1423  0.1296
 2386TIP3   OH2 7090   6.726   7.685   4.620 -0.1749 -0.0823  0.6856
 2386TIP3    H1 7091   6.747   7.592   4.627  0.2201  0.0132  0.7556
 2386TIP3    H2 7092   6.733   7.704   4.526  1.8918  0.3832  0.9196
 2387TIP3   OH2 7093   2.776   1.159   6.667 -0.1190 -0.2010 -0.0619
 2387TIP3    H1 7094   2.723   1.232   6.638  2.5502  1.3611 -1.1994
 2387TIP3    H2 7095   2.801   1.114   6.586  1.3905 -0.1033  0.3383
 2388TIP3   OH2 7096   7.349   8.027   2.036  0.2641 -0.1304  0.2446
 2388TIP3    H1 7097   7.403   7.995   2.108 -0.3530 -0.8378  0.3961
 2388TIP3    H2 7098   7.303   7.950   2.003  1.0663  0.0562 -1.3754
 2389TIP3   OH2 7099   1.546   2.728   3.608  0.3649 -0.4782  0.1064
 2389TIP3    H1 7100   1.581   2.665   3.545  0.7963  0.5628 -0.7123
 2389TIP3    H2 7101   1.586   2.704   3.691  1.2891 -0.6786 -0.3909
 2390TIP3   OH2 7102   7.823   2.346   6.874  0.1349 -0.3360  0.0406
 2390TIP3    H1 7103   7.789   2.298   6.949  3.2517 -1.3707  0.8408
 2390TIP3    H2 7104   7.908   2.307   6.856  0.8204  1.9691 -2.0800
 2391TIP3   OH2 7105   0.958   1.923   3.433 -0.0085 -0.1350  0.3287
 2391TIP3    H1 7106   1.045   1.902   3.465  0.1878 -1.3601 -0.9961
 2391TIP3    H2 7107   0.971   1.995   3.372  0.0396 -0.1104  0.3684
 2392TIP3   OH2 7108   1.438   2.099   3.541  0.1808  0.1951 -0.4116
 2392TIP3    H1 7109   1.494   2.127   3.614 -1.0449  1.0415  0.2161
 2392TIP3    H2 7110   1.391   2.178   3.515 -0.5326 -0.4467 -1.1089
 2393TIP3   OH2 7111   4.336   2.529   2.149 -0.5304  0.5863  0.8108
 2393TIP3    H1 7112   4.404   2.463   2.154 -0.0181  1.1426  1.3660
 2393TIP3    H2 7113   4.360   2.583   2.074 -1.1092 -0.0231  0.1774
 2394TIP3   OH2 7114   1.572   1.455   2.835 -0.3058 -0.6365 -0.5572
 2394TIP3    H1 7115   1.629   1.432   2.762  0.7049  2.0630 -0.6840
 2394TIP3    H2 7116   1.507   1.515   2.797  0.2400  0.7955  0.7402
 2395TIP3   OH2 7117   1.079   1.024   3.352 -0.1976  0.3438  0.5324
 2395TIP3    H1 7118   1.016   0.953   3.354 -0.5022  0.6004  0.1418
 2395TIP3    H2 7119   1.087   1.052   3.443  0.9248 -1.0563  0.8785
 2396TIP3   OH2 7120   1.935   2.393   2.857 -0.5297  0.3164  0.0055
 2396TIP3    H1 7121   1.866   2.378   2.793 -0.8607  0.9104  0.2184
 2396TIP3    H2 7122   2.015   2.361   2.814 -0.9900 -0.7093 -0.0884
 2397TIP3   OH2 7123   6.645   0.671   5.654  0.0751 -0.0343  0.1205
 2397TIP3    H1 7124   6.607   0.749   5.694  2.8610  2.0870 -1.1787
 2397TIP3    H2 7125   6.684   0.623   5.728 -1.2082  0.0224  0.8532
 2398TIP3   OH2 7126   0.286   0.559   4.221 -0.5575 -0.9639 -0.5712
 2398TIP3    H1 7127   0.192   0.576   4.222 -0.5659 -1.0141  0.5302
 2398TIP3    H2 7128   0.316   0.592   4.137 -1.5689 -0.9918 -0.9489
 2399TIP3   OH2 7129   3.380   6.543   0.226 -0.2248 -0.5013  0.2242
 2399TIP3    H1 7130   3.384   6.543   0.131 -0.7297 -0.2722  0.2039
 2399TIP3    H2 7131   3.439   6.614   0.252  0.6503 -1.1708  0.1200
 2400TIP3   OH2 7132   7.729   0.351   3.552  0.6983 -0.4698  0.6591
 2400TIP3    H1 7133   7.756   0.317   3.637 -0.9594  0.8210  1.7460
 2400TIP3    H2 7134   7.650   0.402   3.571  2.1728  2.6131 -1.1059
 2401TIP3   OH2 7135   2.769   1.958   5.576  0.3719 -0.1634  0.0496
 2401TIP3    H1 7136   2.778   1.956   5.671 -1.0076 -0.4136  0.1916
 2401TIP3    H2 7137   2.846   1.911   5.543  0.4246 -0.8138  1.0765
 2402TIP3   OH2 7138   1.975   0.924   2.784  0.0230 -0.2249  0.2355
 2402TIP3    H1 7139   1.970   0.911   2.689  1.1036  0.4807  0.0807
 2402TIP3    H2 7140   1.918   0.856   2.820  0.4335 -1.1750 -0.8746
 2403TIP3   OH2 7141   2.887   0.386   4.722 -0.3907  0.2115 -0.5173
 2403TIP3    H1 7142   2.826   0.363   4.792 -0.0407  1.7130  0.3061
 2403TIP3    H2 7143   2.847   0.352   4.642 -2.0445  0.7299  0.0838
 2404TIP3   OH2 7144   1.464   1.475   4.698 -0.2572 -0.6476  0.4894
 2404TIP3    H1 7145   1.531   1.476   4.767  2.5407  0.0153 -2.1347
 2404TIP3    H2 7146   1.441   1.383   4.688  0.7413 -0.9632  0.9999
 2405TIP3   OH2 7147   1.381   1.170   6.818 -0.0967 -0.2059  0.8634
 2405TIP3    H1 7148   1.307   1.209   6.772  1.0004  1.6928  0.6388
 2405TIP3    H2 7149   1.379   1.211   6.905  0.3592 -0.5577  1.0418
 2406TIP3   OH2 7150   8.323   0.496   4.165  0.0732  0.0626 -0.0533
 2406TIP3    H1 7151   8.267   0.423   4.192 -0.7696  0.7087 -0.0548
 2406TIP3    H2 7152   8.320   0.557   4.238  0.2961  0.3765 -0.3036
 2407TIP3   OH2 7153   6.158   7.184   4.881  0.2473  0.4348 -0.2862
 2407TIP3    H1 7154   6.175   7.101   4.836 -1.5058  0.1114 -0.3974
 2407TIP3    H2 7155   6.090   7.163   4.945  1.9755  1.1141  1.8443
 2408TIP3   OH2 7156   7.412   0.346   6.570 -0.8371  0.4139  0.5785
 2408TIP3    H1 7157   7.351   0.394   6.625 -0.8415  0.1234  0.8320
 2408TIP3    H2 7158   7.374   0.348   6.483 -0.5339  1.3894  0.4655
 2409TIP3   OH2 7159   8.214   0.959   2.568  0.4130 -0.4089 -0.6338
 2409TIP3    H1 7160   8.131   1.007   2.568  0.0314 -1.0466 -1.9294
 2409TIP3    H2 7161   8.195   0.878   2.615  0.7183  0.1216  0.4222
 2410TIP3   OH2 7162   2.485   3.033   6.580  0.1779  0.4970  0.3252
 2410TIP3    H1 7163   2.488   3.103   6.515  0.3489 -0.6227 -0.8954
 2410TIP3    H2 7164   2.426   2.967   6.541 -0.1462  0.0572  1.5480
 2411TIP3   OH2 7165   0.917   1.343   4.527  0.5098 -0.5286 -0.1493
 2411TIP3    H1 7166   0.990   1.286   4.501  1.2257  0.2387  0.1427
 2411TIP3    H2 7167   0.954   1.398   4.596 -0.1395  0.3740 -0.5165
 2412TIP3   OH2 7168   5.963   1.232   5.336 -0.1160 -0.3389 -0.4068
 2412TIP3    H1 7169   6.047   1.277   5.322  0.1669 -0.7267  0.0478
 2412TIP3    H2 7170   5.963   1.208   5.429 -0.8218 -0.1594 -0.3576
 2413TIP3   OH2 7171   2.148   2.077   3.379  0.1136  0.1038  0.0088
 2413TIP3    H1 7172   2.226   2.132   3.381  0.4473 -0.3815  0.4468
 2413TIP3    H2 7173   2.076   2.137   3.397  0.2243  0.8161 -1.8070
 2414TIP3   OH2 7174   1.832   0.683   2.720  0.3475  0.5125  0.0304
 2414TIP3    H1 7175   1.817   0.588   2.725 -0.0366  0.5349 -0.7348
 2414TIP3    H2 7176   1.769   0.714   2.656  1.2189  1.1363 -0.5337
 2415TIP3   OH2 7177   1.183   0.479   5.413  0.7005 -0.3353 -0.0340
 2415TIP3    H1 7178   1.097   0.460   5.375  1.1099  0.8085 -1.5617
 2415TIP3    H2 7179   1.232   0.398   5.402  0.3726 -0.4440 -0.7064
 2416TIP3   OH2 7180   3.174   1.021   3.164 -0.2270 -0.0201 -0.2945
 2416TIP3    H1 7181   3.199   0.973   3.084 -1.2482 -0.1280 -0.5530
 2416TIP3    H2 7182   3.171   0.954   3.232  0.7496  0.0894 -0.1388
 2417TIP3   OH2 7183   2.746   1.759   4.170  0.0759  0.0552 -0.3554
 2417TIP3    H1 7184   2.778   1.832   4.224 -0.6613  0.9699 -1.1491
 2417TIP3    H2 7185   2.824   1.730   4.122  0.1574  0.9968 -0.8090
 2418TIP3   OH2 7186   2.522   0.568   3.362 -0.3016 -0.9630 -0.2408
 2418TIP3    H1 7187   2.566   0.644   3.401 -2.4844  0.3771 -0.3540
 2418TIP3    H2 7188   2.574   0.547   3.284  0.4805  0.2298 -0.0450
 2419TIP3   OH2 7189   2.423   1.133   4.318  0.1079  0.2031 -0.2462
 2419TIP3    H1 7190   2.423   1.227   4.301 -0.5196  0.4059  0.8405
 2419TIP3    H2 7191   2.330   1.108   4.314  0.3091 -0.4642 -1.0035
 2420TIP3   OH2 7192   1.620   1.766   1.678  0.0985  0.8024  0.4664
 2420TIP3    H1 7193   1.638   1.680   1.718 -0.2693  0.9449  0.9478
 2420TIP3    H2 7194   1.684   1.825   1.718 -1.0659  1.1968  1.7690
 2421TIP3   OH2 7195   2.514   0.908   6.402  0.0449  0.2621 -0.5850
 2421TIP3    H1 7196   2.471   0.919   6.487  0.2441 -0.1678 -0.4254
 2421TIP3    H2 7197   2.443   0.883   6.342  0.1030 -0.6099 -0.2856
 2422TIP3   OH2 7198   6.645   1.335   2.205 -0.0837  0.2052 -0.2830
 2422TIP3    H1 7199   6.729   1.361   2.243  0.6624 -0.1513 -1.6716
 2422TIP3    H2 7200   6.653   1.240   2.192 -1.0167  0.0248  0.3304
 2423TIP3   OH2 7201   5.994   6.864   5.204  0.0655  0.4040 -0.3316
 2423TIP3    H1 7202   5.995   6.776   5.167 -1.2157  0.1335  0.2241
 2423TIP3    H2 7203   6.076   6.871   5.254  0.0686 -0.5557 -0.1976
 2424TIP3   OH2 7204   1.547   1.802   4.775  0.8236  0.1659 -0.5555
 2424TIP3    H1 7205   1.624   1.745   4.775  1.0100  0.4113 -0.3069
 2424TIP3    H2 7206   1.473   1.743   4.768  0.9911 -0.1499  0.1940
 2425TIP3   OH2 7207   6.800   1.588   1.646 -0.5001 -0.3651  0.1173
 2425TIP3    H1 7208   6.754   1.662   1.686 -0.1219 -0.3388  0.4918
 2425TIP3    H2 7209   6.843   1.544   1.718 -0.7832 -0.9980 -0.0960
 2426TIP3   OH2 7210   7.296   7.754   3.049 -0.4200 -0.1272 -0.4373
 2426TIP3    H1 7211   7.270   7.697   2.976 -1.6731  1.9623 -1.6907
 2426TIP3    H2 7212   7.256   7.838   3.028  1.0001  1.0890  1.6172
 2427TIP3   OH2 7213   7.237   7.436   3.153  0.1992  0.3707  0.2786
 2427TIP3    H1 7214   7.168   7.466   3.212 -1.0299  0.1494 -1.0350
 2427TIP3    H2 7215   7.280   7.517   3.124  0.8980  0.4743  1.5495
 2428TIP3   OH2 7216   2.644   0.765   3.622 -0.2678  0.1998 -0.4738
 2428TIP3    H1 7217   2.599   0.841   3.585  0.5177  1.2177  0.6248
 2428TIP3    H2 7218   2.589   0.739   3.696  0.8194  1.3429  0.7673
 2429TIP3   OH2 7219   8.082   0.359   3.658 -0.5827 -0.6898 -0.0090
 2429TIP3    H1 7220   8.071   0.452   3.639 -2.3261 -0.4007  2.1150
 2429TIP3    H2 7221   8.131   0.357   3.740 -2.0729 -1.5640  0.8879
 2430TIP3   OH2 7222   3.544   1.402   4.292  0.3809 -0.0742 -0.0682
 2430TIP3    H1 7223   3.561   1.486   4.249  1.5396 -0.5919 -0.6631
 2430TIP3    H2 7224   3.577   1.337   4.230 -0.1857 -0.9607  0.5418
 2431TIP3   OH2 7225   2.186   1.322   3.663 -0.5435  0.0294 -0.2012
 2431TIP3    H1 7226   2.097   1.319   3.627 -1.0063 -1.1105  0.9863
 2431TIP3    H2 7227   2.173   1.340   3.756  0.5827  1.7478 -0.3498
 2432TIP3   OH2 7228   5.984   7.462   5.387  0.0288  0.0347 -0.0945
 2432TIP3    H1 7229   6.039   7.396   5.428  1.2485 -0.3551 -2.2972
 2432TIP3    H2 7230   5.993   7.447   5.293 -0.9627  2.2998 -0.5996
 2433TIP3   OH2 7231   1.152   1.015   2.842  0.2691  0.4426 -0.0076
 2433TIP3    H1 7232   1.180   1.101   2.872 -0.8363  1.7819 -2.6568
 2433TIP3    H2 7233   1.220   0.988   2.780 -1.7020  1.5156 -2.7106
 2434TIP3   OH2 7234   0.982   2.562   2.459  0.3208  0.3653  0.5310
 2434TIP3    H1 7235   0.992   2.468   2.444 -1.2950 -0.2602  3.0564
 2434TIP3    H2 7236   1.031   2.579   2.539 -0.9254  1.3065  1.1197
 2435TIP3   OH2 7237   1.010   2.753   4.090  1.0362  0.4180 -0.3207
 2435TIP3    H1 7238   1.012   2.784   3.999  1.3467 -2.3289 -1.2699
 2435TIP3    H2 7239   1.042   2.663   4.086  1.8192  0.5260  2.6387
 2436TIP3   OH2 7240   2.906   1.028   2.822  0.0495 -0.1928  0.3129
 2436TIP3    H1 7241   2.915   1.029   2.918 -1.0281 -0.2119  0.4214
 2436TIP3    H2 7242   2.945   1.111   2.794 -1.6361  0.8473  0.9742
 2437TIP3   OH2 7243   1.085   1.897   3.884 -0.6968  0.0147 -0.6895
 2437TIP3    H1 7244   1.077   1.806   3.855 -0.6758 -0.4368  0.6751
 2437TIP3    H2 7245   1.165   1.928   3.843  1.1020 -1.6211  1.4429
 2438TIP3   OH2 7246   8.388   0.867   2.363  0.0517 -0.0445 -0.3935
 2438TIP3    H1 7247   8.464   0.856   2.421 -1.6323 -2.7717  1.4530
 2438TIP3    H2 7248   8.322   0.908   2.419 -0.5381  0.3350 -1.3659
 2439TIP3   OH2 7249   8.016   1.467   4.781 -0.1693  0.2750 -0.4397
 2439TIP3    H1 7250   8.055   1.410   4.847 -0.8765 -0.4205 -0.6074
 2439TIP3    H2 7251   7.967   1.532   4.831 -2.1669 -1.2944 -0.2714
 2440TIP3   OH2 7252   7.725   7.948   4.619  0.4174  1.0310  0.1259
 2440TIP3    H1 7253   7.662   7.951   4.691 -0.1919 -0.1959 -0.3534
 2440TIP3    H2 7254   7.788   7.881   4.645 -2.5921 -3.1173 -2.7101
 2441TIP3   OH2 7255   1.807   1.337   4.996  0.2084  0.9441 -0.4163
 2441TIP3    H1 7256   1.896   1.373   5.002 -0.2198  2.5580 -2.9737
 2441TIP3    H2 7257   1.804   1.297   4.909 -1.2044 -0.1543  0.1353
 2442TIP3   OH2 7258   6.670   1.751   4.208  0.0062 -0.0857  0.0783
 2442TIP3    H1 7259   6.600   1.816   4.216 -0.2501 -0.2726 -0.6740
 2442TIP3    H2 7260   6.629   1.669   4.235  0.5295  0.1871  1.7411
 2443TIP3   OH2 7261   7.845   2.808   5.997 -0.1150 -0.5738 -0.2532
 2443TIP3    H1 7262   7.751   2.830   5.996 -0.2733 -1.1509  1.0379
 2443TIP3    H2 7263   7.882   2.859   5.925 -1.3455  0.0363 -0.4702
 2444TIP3   OH2 7264   1.083   1.074   4.018  0.7107  0.6409 -0.2623
 2444TIP3    H1 7265   1.129   1.092   4.101  1.6950  0.2585 -0.7125
 2444TIP3    H2 7266   0.991   1.078   4.041  0.9293 -2.2535  1.5298
 2445TIP3   OH2 7267   0.226   0.352   5.533  0.1060  0.0062 -0.0137
 2445TIP3    H1 7268   0.162   0.399   5.481 -1.0734 -1.8436 -0.3007
 2445TIP3    H2 7269   0.309   0.395   5.515 -0.6154  0.6779 -1.8269
 2446TIP3   OH2 7270   7.385   6.960   2.872 -0.3466 -0.1462  0.6947
 2446TIP3    H1 7271   7.312   6.971   2.933 -1.3691  1.6681 -0.7837
 2446TIP3    H2 7272   7.364   7.019   2.799  1.8761 -0.6977 -0.4366
 2447TIP3   OH2 7273   1.329   1.949   2.856  0.4775  0.3931  0.3124
 2447TIP3    H1 7274   1.401   2.008   2.833  0.1618  0.7750  0.3058
 2447TIP3    H2 7275   1.260   2.006   2.888 -0.6196  0.2289 -1.6544
 2448TIP3   OH2 7276   0.276   1.805   5.796  0.2831  0.5855  0.0994
 2448TIP3    H1 7277   0.351   1.746   5.799  0.1397  0.4500  1.3852
 2448TIP3    H2 7278   0.200   1.749   5.812  0.2316  1.2399  2.3432
 2449TIP3   OH2 7279   0.519   1.747   2.863 -0.0453 -0.1479  0.1576
 2449TIP3    H1 7280   0.526   1.673   2.922  1.7719 -0.5078 -0.4597
 2449TIP3    H2 7281   0.582   1.728   2.793 -0.4442  1.3809 -0.6507
 2450TIP3   OH2 7282   0.514   2.016   2.343 -0.4573  0.6366  0.0135
 2450TIP3    H1 7283   0.588   2.075   2.359 -1.2647  1.0285  2.6565
 2450TIP3    H2 7284   0.457   2.065   2.284  0.4268  1.1690 -0.4093
 2451TIP3   OH2 7285   3.361   0.566   3.605 -0.0494 -0.1101  0.1202
 2451TIP3    H1 7286   3.448   0.571   3.645 -0.0791 -1.7182  0.4332
 2451TIP3    H2 7287   3.328   0.655   3.608  1.1679  0.3308  0.9564
 2452TIP3   OH2 7288   4.837   2.796   4.350 -0.4836  0.0508  0.6659
 2452TIP3    H1 7289   4.879   2.786   4.265  1.2481  0.4144  1.4516
 2452TIP3    H2 7290   4.744   2.809   4.330  0.0153  0.9135 -1.1953
 2453TIP3   OH2 7291   0.974   3.045   2.718 -0.0602  0.1394 -0.2347
 2453TIP3    H1 7292   0.906   3.105   2.747  1.9987  2.2458  0.4329
 2453TIP3    H2 7293   0.989   3.069   2.626  0.1164  0.0226 -0.2353
 2454TIP3   OH2 7294   2.560   3.451   3.561  0.1856  0.0636  0.7552
 2454TIP3    H1 7295   2.502   3.525   3.546 -1.0637 -0.6280  2.0726
 2454TIP3    H2 7296   2.507   3.374   3.540  2.0305 -0.4337 -2.4139
 2455TIP3   OH2 7297   1.277   3.912   4.499  0.1254 -0.1232  0.2204
 2455TIP3    H1 7298   1.218   3.969   4.548 -0.1080  0.2936 -0.5326
 2455TIP3    H2 7299   1.247   3.823   4.518 -1.4306  0.1154 -0.9846
 2456TIP3   OH2 7300   1.864   3.487   3.549  0.1457  0.3430  0.1763
 2456TIP3    H1 7301   1.863   3.441   3.633 -1.3334  2.1868  1.2027
 2456TIP3    H2 7302   1.788   3.453   3.503  1.6284 -1.5433 -0.9321
 2457TIP3   OH2 7303   4.219   2.126   2.594 -0.2086 -0.1338  0.3838
 2457TIP3    H1 7304   4.131   2.116   2.631  0.0760  0.2331  1.1506
 2457TIP3    H2 7305   4.211   2.090   2.505 -1.4644  1.0336  0.0014
 2458TIP3   OH2 7306   2.654   2.339   2.552 -0.5913  0.1753 -0.3327
 2458TIP3    H1 7307   2.655   2.366   2.460  2.1493  2.8156  0.4023
 2458TIP3    H2 7308   2.684   2.249   2.551  2.0383  1.0151 -1.8284
 2459TIP3   OH2 7309   1.039   0.344   1.695 -0.1224 -0.0693 -0.8401
 2459TIP3    H1 7310   0.950   0.372   1.714 -0.3129 -1.5973  0.5685
 2459TIP3    H2 7311   1.094   0.394   1.756 -0.4024 -2.2424  1.2113
 2460TIP3   OH2 7312   1.786   2.778   3.971 -0.2763  0.2803 -0.7035
 2460TIP3    H1 7313   1.746   2.785   4.057  1.1140  0.1826 -0.0375
 2460TIP3    H2 7314   1.716   2.746   3.914 -0.9444 -0.5645  0.5845
 2461TIP3   OH2 7315   1.621   1.305   5.231  0.4289 -0.3388 -0.0735
 2461TIP3    H1 7316   1.669   1.229   5.199 -2.1261 -1.5527 -1.1502
 2461TIP3    H2 7317   1.563   1.270   5.298 -1.7222  0.4147 -1.4942
 2462TIP3   OH2 7318   4.358   1.973   3.789 -0.0871  0.6349 -0.2610
 2462TIP3    H1 7319   4.288   2.038   3.781 -0.0683  0.6363 -0.4106
 2462TIP3    H2 7320   4.314   1.888   3.785 -0.4006  0.6260  2.2952
 2463TIP3   OH2 7321   3.330   0.202   3.572  0.0293 -0.4173  0.2987
 2463TIP3    H1 7322   3.412   0.251   3.558 -0.0329  0.4158  2.5741
 2463TIP3    H2 7323   3.350   0.113   3.543  1.2971  0.1180 -0.5050
 2464TIP3   OH2 7324   3.691   1.603   3.969 -0.0692 -0.5146  0.0379
 2464TIP3    H1 7325   3.771   1.551   3.975 -0.3140 -1.0199 -1.0940
 2464TIP3    H2 7326   3.660   1.591   3.880 -0.6241  0.8485  0.0285
 2465TIP3   OH2 7327   6.508   7.183   3.791 -0.4426  0.4818  0.2112
 2465TIP3    H1 7328   6.583   7.188   3.851  0.1999  1.4124 -0.6279
 2465TIP3    H2 7329   6.436   7.150   3.844  0.5630 -0.4083  1.0473
 2466TIP3   OH2 7330   0.063   7.502   2.604 -0.6864 -0.0292 -0.0623
 2466TIP3    H1 7331   0.048   7.591   2.635 -0.1187  0.2640 -0.6048
 2466TIP3    H2 7332   0.095   7.513   2.515  2.4375 -0.5952  0.9258
 2467TIP3   OH2 7333   1.511   2.926   2.767  0.5588  0.3263 -0.4614
 2467TIP3    H1 7334   1.452   2.852   2.782  0.2137  0.9256  1.3314
 2467TIP3    H2 7335   1.593   2.886   2.738 -0.0856 -0.6565 -0.9481
 2468TIP3   OH2 7336   7.524   1.610   4.736 -0.1121  0.9277  0.2469
 2468TIP3    H1 7337   7.430   1.591   4.738 -0.0801  0.5272 -1.3351
 2468TIP3    H2 7338   7.564   1.529   4.705  0.6007  1.6229 -0.6908
 2469TIP3   OH2 7339   1.712   3.075   2.403  0.4306 -0.2111  0.2144
 2469TIP3    H1 7340   1.766   3.008   2.445  0.3648 -0.5842 -0.2986
 2469TIP3    H2 7341   1.765   3.155   2.407 -0.1442  0.0986  2.2923
 2470TIP3   OH2 7342   7.953   2.417   3.501  0.2538  0.0317  0.5142
 2470TIP3    H1 7343   8.009   2.489   3.471 -0.1242  0.2940  0.4319
 2470TIP3    H2 7344   7.958   2.421   3.597  0.3835  0.0473  0.5073
 2471TIP3   OH2 7345   0.507   0.576   4.023 -0.4458 -0.1067 -0.6799
 2471TIP3    H1 7346   0.512   0.556   4.116 -1.5678 -0.2432 -0.6406
 2471TIP3    H2 7347   0.468   0.497   3.984  0.1963 -0.1293 -1.2926
 2472TIP3   OH2 7348   1.826   0.105   3.386  0.0132  0.0051 -0.4151
 2472TIP3    H1 7349   1.893   0.040   3.363  0.3430 -0.3979  1.6301
 2472TIP3    H2 7350   1.875   0.175   3.428 -0.9584 -0.8198  2.1791
 2473TIP3   OH2 7351   2.426   3.340   2.879 -0.1273  0.3015 -0.3185
 2473TIP3    H1 7352   2.339   3.358   2.915 -0.9831 -2.3242 -0.9425
 2473TIP3    H2 7353   2.414   3.351   2.784  0.8537  2.2949 -0.2314
 2474TIP3   OH2 7354   1.670   2.697   2.735 -0.3050 -0.0833  0.0974
 2474TIP3    H1 7355   1.748   2.723   2.688 -0.9019 -0.6094 -1.2006
 2474TIP3    H2 7356   1.627   2.633   2.678 -1.2512 -0.4188  1.1602
 2475TIP3   OH2 7357   3.688   3.333   3.244 -0.8915 -0.3836  0.4029
 2475TIP3    H1 7358   3.741   3.271   3.195 -1.6183  0.4991 -1.5323
 2475TIP3    H2 7359   3.600   3.297   3.241 -1.0912  0.1139  0.3405
 2476TIP3   OH2 7360   4.275   2.741   3.517  0.3688 -0.5207  0.3988
 2476TIP3    H1 7361   4.235   2.672   3.463  1.4284 -1.6779  1.0555
 2476TIP3    H2 7362   4.349   2.772   3.466 -0.6570  0.7953 -0.3013
 2477TIP3   OH2 7363   1.403   0.726   4.225  0.1253  0.0576 -0.4572
 2477TIP3    H1 7364   1.392   0.815   4.190  0.4903 -0.0860 -0.9558
 2477TIP3    H2 7365   1.425   0.739   4.317  0.1359  0.4835 -0.5173
 2478TIP3   OH2 7366   4.301   4.188   2.139 -0.2070  0.4146  0.3832
 2478TIP3    H1 7367   4.388   4.186   2.177 -0.6503 -1.4473  1.3292
 2478TIP3    H2 7368   4.306   4.127   2.065 -1.4345 -1.8268  2.0976
 2479TIP3   OH2 7369   1.443   1.657   1.965  0.2797  0.1700 -0.4815
 2479TIP3    H1 7370   1.502   1.596   1.920  1.8694  1.9718 -0.9438
 2479TIP3    H2 7371   1.371   1.670   1.904  0.7405 -0.0162 -1.0699
 2480TIP3   OH2 7372   0.467   3.412   2.731 -0.4003 -0.1868 -0.1330
 2480TIP3    H1 7373   0.546   3.425   2.783 -0.0106 -0.3923 -0.6691
 2480TIP3    H2 7374   0.499   3.382   2.646 -1.1117 -1.5816  0.0757
 2481TIP3   OH2 7375   1.179   1.073   4.276 -0.3236 -0.2839  0.2015
 2481TIP3    H1 7376   1.161   1.128   4.353 -0.0958 -0.2566  0.2338
 2481TIP3    H2 7377   1.274   1.075   4.267 -0.2442 -1.4085  0.7408
 2482TIP3   OH2 7378   2.026   2.545   2.200 -0.5506  0.1962 -0.0010
 2482TIP3    H1 7379   2.010   2.482   2.129 -1.2958  1.2409 -0.7775
 2482TIP3    H2 7380   1.975   2.512   2.273 -1.2577  0.1075 -0.5290
 2483TIP3   OH2 7381   4.048   3.418   2.059 -0.0858  0.4208 -0.3844
 2483TIP3    H1 7382   3.996   3.338   2.050 -2.3924  1.7965  0.0254
 2483TIP3    H2 7383   4.129   3.391   2.100 -1.1435 -1.5931  0.4103
 2484TIP3   OH2 7384   4.018   1.138   2.387 -0.0230 -0.5134  0.1117
 2484TIP3    H1 7385   4.104   1.179   2.388 -0.3602  0.1771  1.3404
 2484TIP3    H2 7386   4.030   1.053   2.429  0.0610 -0.4087  0.2998
 2485TIP3   OH2 7387   4.006   1.608   1.856 -0.0655  0.3463 -0.1605
 2485TIP3    H1 7388   4.023   1.656   1.775  1.0144  0.5431  0.1836
 2485TIP3    H2 7389   4.004   1.674   1.925  1.1330 -0.0496  0.2714
 2486TIP3   OH2 7390   2.547   0.739   5.084  0.3505  0.5845 -0.0348
 2486TIP3    H1 7391   2.562   0.690   5.165  2.7618 -0.8611 -1.2707
 2486TIP3    H2 7392   2.568   0.676   5.014 -0.1729  2.2654 -1.7576
 2487TIP3   OH2 7393   1.241   1.989   3.171 -0.1971 -0.0060  0.2890
 2487TIP3    H1 7394   1.151   2.020   3.177 -0.2376  0.2522 -1.4902
 2487TIP3    H2 7395   1.291   2.065   3.142  0.5890 -0.1763  1.1600
 2488TIP3   OH2 7396   2.174   2.778   0.596  0.3768 -0.1226 -0.3470
 2488TIP3    H1 7397   2.109   2.711   0.576 -0.1277  0.0519  0.7117
 2488TIP3    H2 7398   2.198   2.763   0.687 -2.4737  3.3647  1.1343
 2489TIP3   OH2 7399   3.794   3.257   2.270  0.5074 -0.1424  0.2291
 2489TIP3    H1 7400   3.823   3.293   2.354  0.7605  3.2304 -1.2232
 2489TIP3    H2 7401   3.767   3.334   2.219 -0.6318 -2.2160 -2.3913
 2490TIP3   OH2 7402   0.938   1.283   4.156 -0.3737  0.7170 -0.1822
 2490TIP3    H1 7403   1.029   1.299   4.181 -0.1333  1.3510 -1.4675
 2490TIP3    H2 7404   0.889   1.355   4.197 -0.3587  0.1529  0.8428
 2491TIP3   OH2 7405   3.906   1.396   3.975  0.1413 -0.0760  0.5640
 2491TIP3    H1 7406   3.969   1.326   3.959 -0.5712 -0.8629  1.1537
 2491TIP3    H2 7407   3.958   1.466   4.016  0.2012 -1.6398  3.2680
 2492TIP3   OH2 7408   0.375   0.635   5.198 -0.0668  0.0057  0.4276
 2492TIP3    H1 7409   0.325   0.563   5.237 -0.7480  0.9483  1.3469
 2492TIP3    H2 7410   0.464   0.623   5.232 -0.1589 -0.4371  0.5199
 2493TIP3   OH2 7411   1.783   3.356   4.081  0.5772  0.0446 -0.1600
 2493TIP3    H1 7412   1.699   3.386   4.114  0.5152  0.9202 -1.0856
 2493TIP3    H2 7413   1.846   3.421   4.111  1.1654 -1.3392  1.7215
 2494TIP3   OH2 7414   1.125   2.407   5.813 -0.0816  0.2447  0.2128
 2494TIP3    H1 7415   1.207   2.391   5.767  0.3703  1.0223  0.7477
 2494TIP3    H2 7416   1.136   2.365   5.898 -0.3329  0.1288  0.1879
 2495TIP3   OH2 7417   4.441   1.223   2.567 -0.1427  0.2276  0.0301
 2495TIP3    H1 7418   4.390   1.269   2.634  0.3645  2.4786 -1.0699
 2495TIP3    H2 7419   4.377   1.201   2.499 -0.1914  0.2518  0.0686
 2496TIP3   OH2 7420   2.741   1.534   3.004 -0.1565  0.5150 -0.0302
 2496TIP3    H1 7421   2.807   1.550   2.937 -0.6061  0.0365 -0.5975
 2496TIP3    H2 7422   2.750   1.441   3.024 -1.1767  0.2752 -0.6713
 2497TIP3   OH2 7423   2.083   0.095   3.412  0.4786 -0.6879  0.5986
 2497TIP3    H1 7424   2.064   0.080   3.504 -0.6445  0.1297  0.5071
 2497TIP3    H2 7425   2.171   0.133   3.411 -0.2107  0.9691  1.4654
 2498TIP3   OH2 7426   1.886   2.022   1.542 -0.3605 -0.1468 -0.2371
 2498TIP3    H1 7427   1.970   2.068   1.537 -1.3439  2.0885  2.7424
 2498TIP3    H2 7428   1.824   2.080   1.498 -0.9690 -0.2084  0.5287
 2499TIP3   OH2 7429   2.393   3.227   3.540  0.2365 -0.2456 -0.5235
 2499TIP3    H1 7430   2.330   3.247   3.471 -0.2761  0.7797  0.2253
 2499TIP3    H2 7431   2.443   3.153   3.506  0.6514  0.8524 -2.4054
 2500TIP3   OH2 7432   1.958   3.371   5.180 -0.3207 -0.3876  0.2190
 2500TIP3    H1 7433   2.009   3.291   5.167 -2.4915 -1.4915 -1.8365
 2500TIP3    H2 7434   1.872   3.340   5.211 -0.5543  1.2850  1.3145
 2501TIP3   OH2 7435   3.456   4.185   1.712  0.3077 -0.0766 -0.0980
 2501TIP3    H1 7436   3.537   4.139   1.686 -0.9438 -0.8929 -2.6902
 2501TIP3    H2 7437   3.429   4.232   1.634 -1.3905  0.7296  0.9497
 2502TIP3   OH2 7438   1.770   1.854   3.823  0.2850  0.3031  0.1726
 2502TIP3    H1 7439   1.823   1.891   3.753  0.6827 -0.9399 -0.1888
 2502TIP3    H2 7440   1.680   1.875   3.799  0.3368 -1.0469 -1.2763
 2503TIP3   OH2 7441   2.173   1.679   2.269  0.3726 -0.1183  0.0975
 2503TIP3    H1 7442   2.222   1.681   2.351  1.1633 -0.3550 -0.3693
 2503TIP3    H2 7443   2.176   1.769   2.237 -0.9917  0.2514  0.9356
 2504TIP3   OH2 7444   4.126   1.953   3.474 -0.3692  0.3042 -0.8494
 2504TIP3    H1 7445   4.166   2.037   3.494 -1.4677  0.7963 -0.6731
 2504TIP3    H2 7446   4.186   1.888   3.510  0.4814  1.0127 -0.9833
 2505TIP3   OH2 7447   3.023   1.595   2.998  0.1964 -0.2622  0.5108
 2505TIP3    H1 7448   3.061   1.550   3.074 -2.0771 -0.2402  1.7281
 2505TIP3    H2 7449   2.967   1.663   3.036 -0.3957  0.2414 -1.2072
 2506TIP3   OH2 7450   3.228   2.942   3.770  0.5473  0.0474 -0.4201
 2506TIP3    H1 7451   3.237   2.865   3.827 -1.0438  1.8209  2.3025
 2506TIP3    H2 7452   3.280   2.920   3.692  2.4308 -2.6109  1.5023
 2507TIP3   OH2 7453   0.966   0.067   5.041 -0.1012  0.1137 -0.3892
 2507TIP3    H1 7454   0.914   0.014   4.981 -0.3703  1.1546 -1.0780
 2507TIP3    H2 7455   0.912   0.072   5.120 -0.7524  0.6207 -0.8588
 2508TIP3   OH2 7456   2.752   1.964   4.572  0.4432 -0.1345 -0.5315
 2508TIP3    H1 7457   2.758   2.020   4.649 -1.1681 -0.3630 -0.2259
 2508TIP3    H2 7458   2.757   1.875   4.606 -1.4204 -0.2673 -0.5454
 2509TIP3   OH2 7459   2.923   1.587   2.705 -0.3192  0.3333  0.1074
 2509TIP3    H1 7460   2.989   1.604   2.772  0.6350 -2.7795  0.0378
 2509TIP3    H2 7461   2.909   1.672   2.664  1.7231  1.5863  1.8635
 2510TIP3   OH2 7462   1.155   7.736   2.967  0.2135  0.4213 -0.1407
 2510TIP3    H1 7463   1.172   7.756   3.059 -0.6083 -0.8334  0.3044
 2510TIP3    H2 7464   1.070   7.692   2.967  0.2745  0.2599 -1.4860
 2511TIP3   OH2 7465   2.015   2.344   3.294 -0.0437  0.0423 -0.3912
 2511TIP3    H1 7466   2.087   2.366   3.236  0.6276 -0.4258  0.2519
 2511TIP3    H2 7467   1.938   2.384   3.254  0.7640  1.5306 -0.4665
 2512TIP3   OH2 7468   3.387   3.547   3.389 -0.3560 -0.4900 -0.3800
 2512TIP3    H1 7469   3.322   3.608   3.423  1.7694  1.9090 -0.3878
 2512TIP3    H2 7470   3.370   3.543   3.295  0.4897  1.4257 -0.6402
 2513TIP3   OH2 7471   3.796   1.390   3.664  0.3610 -0.3841 -0.3301
 2513TIP3    H1 7472   3.820   1.401   3.756  0.4091 -0.2024 -0.3638
 2513TIP3    H2 7473   3.864   1.437   3.616  0.7317 -1.0867 -0.4922
 2514TIP3   OH2 7474   1.533   3.077   3.817  0.3495  0.2379 -0.0328
 2514TIP3    H1 7475   1.521   3.105   3.907 -1.2065 -2.0044  0.4987
 2514TIP3    H2 7476   1.473   3.002   3.806  0.5971  0.3723 -2.8613
 2515TIP3   OH2 7477   2.403   2.578   4.000 -0.0405 -0.4094  0.1040
 2515TIP3    H1 7478   2.401   2.673   4.012 -0.8146 -0.2167 -1.4633
 2515TIP3    H2 7479   2.496   2.557   3.991  0.1433  0.1748  0.5439
 2516TIP3   OH2 7480   2.357   3.798   4.051  0.2435 -0.3526  0.1278
 2516TIP3    H1 7481   2.327   3.866   3.991 -1.1363 -1.3099 -0.2903
 2516TIP3    H2 7482   2.425   3.751   4.003 -1.2752 -1.5010 -0.9392
 2517TIP3   OH2 7483   8.392   0.916   2.961 -0.2698  0.1699  1.0437
 2517TIP3    H1 7484   8.425   0.942   2.875 -0.8932  0.6682  0.9479
 2517TIP3    H2 7485   8.470   0.889   3.009 -0.1923 -2.5185 -0.5004
 2518TIP3   OH2 7486   7.092   0.024   1.787  0.3747  0.1906  0.4274
 2518TIP3    H1 7487   7.129   0.100   1.740  0.2940 -0.5176 -0.7864
 2518TIP3    H2 7488   7.153   0.010   1.860  1.7932 -0.1425 -0.8003
 2519TIP3   OH2 7489   2.372   0.365   3.037 -0.4380 -0.3666  0.2441
 2519TIP3    H1 7490   2.395   0.382   2.946  0.0606  0.8791  0.5827
 2519TIP3    H2 7491   2.338   0.449   3.069  0.0996 -0.5711  1.4057
 2520TIP3   OH2 7492   2.465   1.044   3.875  0.3579 -0.0056 -0.2948
 2520TIP3    H1 7493   2.398   1.035   3.943  0.0434 -2.5755 -0.9082
 2520TIP3    H2 7494   2.470   1.139   3.860 -1.7615  0.3799  1.1049
 2521TIP3   OH2 7495   3.706   0.284   2.218 -0.0823  0.0162 -0.5304
 2521TIP3    H1 7496   3.625   0.238   2.241  0.4625 -0.4870  0.4133
 2521TIP3    H2 7497   3.676   0.363   2.173 -1.0542 -1.0664 -1.8549
 2522TIP3   OH2 7498   3.851   1.752   4.159  0.3781 -0.1214  0.2955
 2522TIP3    H1 7499   3.906   1.825   4.187 -2.9355  2.2974  0.8284
 2522TIP3    H2 7500   3.808   1.784   4.079 -2.0118 -1.0107  1.1806
 2523TIP3   OH2 7501   3.371   2.294   5.527 -0.3203  0.5384 -0.0440
 2523TIP3    H1 7502   3.439   2.230   5.546  0.1739  0.8749 -0.6794
 2523TIP3    H2 7503   3.375   2.305   5.432 -0.6944  1.1912  0.0188
 2524TIP3   OH2 7504   1.931   0.582   1.649  0.2155 -0.3669  0.6099
 2524TIP3    H1 7505   1.992   0.519   1.610 -0.9613 -0.3775 -1.3015
 2524TIP3    H2 7506   1.987   0.642   1.698  1.5870 -1.4490  0.4062
 2525TIP3   OH2 7507   1.027   2.212   4.615  0.3474 -0.4143  0.0136
 2525TIP3    H1 7508   0.993   2.173   4.534  0.6419  0.0483 -0.3409
 2525TIP3    H2 7509   0.962   2.191   4.681 -1.0175  1.0797 -0.8018
 2526TIP3   OH2 7510   2.000   2.648   3.501 -0.1735 -0.3233 -0.0103
 2526TIP3    H1 7511   2.031   2.738   3.508  2.3457 -1.0518 -1.1203
 2526TIP3    H2 7512   2.046   2.612   3.425 -1.8151 -2.2904 -0.1337
 2527TIP3   OH2 7513   1.434   1.266   5.922  0.0591 -0.0484  0.2220
 2527TIP3    H1 7514   1.438   1.234   6.012  0.5125  0.0235  0.2270
 2527TIP3    H2 7515   1.340   1.276   5.904 -0.0906 -1.2766  0.2609
 2528TIP3   OH2 7516   2.695   5.195   0.100 -0.2322  0.2190 -0.3262
 2528TIP3    H1 7517   2.691   5.130   0.029 -2.0162 -0.0966  0.0398
 2528TIP3    H2 7518   2.730   5.147   0.175 -1.2826 -0.2639 -0.1347
 2529TIP3   OH2 7519   4.041   1.893   1.995  0.0159  0.0801 -0.0879
 2529TIP3    H1 7520   4.056   1.930   2.082  0.3846  1.5919 -0.7737
 2529TIP3    H2 7521   4.127   1.897   1.953 -0.0803 -0.9929 -0.3870
 2530TIP3   OH2 7522   1.836   1.543   2.485 -0.6886 -0.7552  0.5185
 2530TIP3    H1 7523   1.791   1.611   2.435  1.3082  0.0546 -0.2173
 2530TIP3    H2 7524   1.915   1.523   2.434 -0.7523 -2.9568  1.2028
 2531TIP3   OH2 7525   2.242   0.643   3.090  0.0776 -0.1766 -0.5101
 2531TIP3    H1 7526   2.185   0.636   3.013 -1.3020  1.7506  0.3025
 2531TIP3    H2 7527   2.318   0.692   3.060 -0.0454 -0.1925 -0.8467
 2532TIP3   OH2 7528   1.261   1.539   6.060 -0.3988 -0.7215  0.1749
 2532TIP3    H1 7529   1.238   1.450   6.035 -0.4573 -0.9037  0.8808
 2532TIP3    H2 7530   1.182   1.590   6.045 -0.0181 -0.5432 -1.3873
 2533TIP3   OH2 7531   3.005   3.991   3.262  0.7245  0.2511 -0.0113
 2533TIP3    H1 7532   3.044   3.991   3.174  0.8309 -1.0960  0.0140
 2533TIP3    H2 7533   3.035   4.072   3.302  0.8295  0.7895 -1.1555
 2534TIP3   OH2 7534   1.140   3.248   1.861 -0.3691 -0.0266  0.3156
 2534TIP3    H1 7535   1.129   3.243   1.766  1.0307 -0.4065  0.1639
 2534TIP3    H2 7536   1.093   3.328   1.886  0.6738  1.0004 -0.9221
 2535TIP3   OH2 7537   5.224   2.254   2.537 -0.9197  1.1536 -0.3431
 2535TIP3    H1 7538   5.281   2.331   2.536 -0.2025  0.6295 -0.1911
 2535TIP3    H2 7539   5.185   2.254   2.625 -0.4627  1.0091 -0.1418
 2536TIP3   OH2 7540   3.001   1.658   1.934 -0.1588 -0.3208 -0.5674
 2536TIP3    H1 7541   3.052   1.608   1.998  2.0516  0.1363 -1.9041
 2536TIP3    H2 7542   3.006   1.606   1.854 -1.3794 -0.0043 -0.8532
 2537TIP3   OH2 7543   2.255   0.980   3.258  0.2943 -0.0548 -0.4676
 2537TIP3    H1 7544   2.282   0.888   3.265  1.9676  0.3742 -1.0634
 2537TIP3    H2 7545   2.168   0.976   3.218  0.1416 -1.4008 -0.0374
 2538TIP3   OH2 7546   1.855   1.997   3.223 -0.0092 -0.4228 -0.6149
 2538TIP3    H1 7547   1.787   2.058   3.195  0.5025  0.6458  0.4025
 2538TIP3    H2 7548   1.922   2.004   3.155 -0.2521 -0.3592 -0.8498
 2539TIP3   OH2 7549   6.505   6.294   2.915  0.0087  0.4507 -0.0739
 2539TIP3    H1 7550   6.487   6.337   2.999 -0.6420  0.8094 -0.3899
 2539TIP3    H2 7551   6.557   6.357   2.867  2.2000 -0.6050  0.8551
 2540TIP3   OH2 7552   3.123   1.446   4.336 -0.1626 -0.1880  0.4877
 2540TIP3    H1 7553   3.061   1.515   4.362 -1.2442 -0.6047 -0.9191
 2540TIP3    H2 7554   3.198   1.493   4.301  0.0443  0.3130  1.5820
 2541TIP3   OH2 7555   4.005   2.421   5.881 -0.1956 -0.4275  0.2394
 2541TIP3    H1 7556   4.003   2.454   5.791 -0.8492  0.0205  0.4124
 2541TIP3    H2 7557   3.929   2.363   5.887  0.4833 -1.3185  0.1763
 2542TIP3   OH2 7558   3.509   2.591   2.510  0.4883 -0.7439  0.7925
 2542TIP3    H1 7559   3.577   2.568   2.573  0.9560 -1.9938 -0.1412
 2542TIP3    H2 7560   3.518   2.685   2.497 -0.2019 -0.3151  3.2496
 2543TIP3   OH2 7561   4.050   0.413   4.604 -0.6729  0.1321  0.4849
 2543TIP3    H1 7562   4.102   0.454   4.535 -1.6187 -0.6617 -0.7140
 2543TIP3    H2 7563   4.113   0.359   4.652 -0.3018 -0.4959 -0.6921
 2544TIP3   OH2 7564   3.846   2.519   3.325  0.0549  0.4647  0.1553
 2544TIP3    H1 7565   3.832   2.425   3.313  2.0374  0.2837 -1.0455
 2544TIP3    H2 7566   3.814   2.537   3.413 -1.4180 -1.1094 -0.0358
 2545TIP3   OH2 7567   1.735   2.364   4.345  0.0316  0.1035 -0.3093
 2545TIP3    H1 7568   1.701   2.383   4.432  1.3800  1.9651 -0.1413
 2545TIP3    H2 7569   1.755   2.450   4.308 -0.2747 -0.6772 -2.3510
 2546TIP3   OH2 7570   3.458   2.320   2.415 -0.3201 -0.0600  0.6884
 2546TIP3    H1 7571   3.473   2.410   2.444 -0.7373  0.1418  0.2782
 2546TIP3    H2 7572   3.395   2.285   2.478  0.4896 -0.3415  1.3548
 2547TIP3   OH2 7573   2.326   0.566   1.090  0.1830 -0.3025  0.1706
 2547TIP3    H1 7574   2.269   0.512   1.036 -0.6583  1.7048 -1.0323
 2547TIP3    H2 7575   2.335   0.518   1.172 -0.8526 -2.0451 -0.7137
 2548TIP3   OH2 7576   1.514   3.108   4.406 -0.5696  0.0810  0.2921
 2548TIP3    H1 7577   1.609   3.104   4.402 -0.6453 -1.5978 -0.1636
 2548TIP3    H2 7578   1.491   3.067   4.490 -1.0720 -3.6292 -1.5539
 2549TIP3   OH2 7579   3.328   0.824   3.959  0.6184  0.0249  0.2582
 2549TIP3    H1 7580   3.360   0.895   3.903  0.3161  0.0220  0.0775
 2549TIP3    H2 7581   3.386   0.824   4.035  1.4576 -0.4147 -0.3788
 2550TIP3   OH2 7582   2.105   3.158   5.171  0.3851 -0.5149  0.1225
 2550TIP3    H1 7583   2.130   3.077   5.126  0.4823 -0.6062  0.3407
 2550TIP3    H2 7584   2.180   3.179   5.226  1.4351  1.1499 -1.8561
 2551TIP3   OH2 7585   2.076   2.805   4.003 -0.0467 -0.0211  0.0923
 2551TIP3    H1 7586   2.028   2.736   3.958 -0.9210  0.2974  0.5239
 2551TIP3    H2 7587   2.022   2.826   4.079  0.5802  0.6282  0.3652
 2552TIP3   OH2 7588   4.857   2.605   2.889 -0.2900  0.3671  0.0810
 2552TIP3    H1 7589   4.763   2.619   2.877 -0.1535  0.4144 -0.9995
 2552TIP3    H2 7590   4.876   2.525   2.840  0.1821  0.1952  0.5357
 2553TIP3   OH2 7591   2.131   0.793   4.140 -0.0434 -0.8161  0.3133
 2553TIP3    H1 7592   2.046   0.826   4.112  1.5836  1.3193 -2.4110
 2553TIP3    H2 7593   2.132   0.803   4.235 -1.6158  2.1402  0.0436
 2554TIP3   OH2 7594   1.564   2.046   1.912  0.0751 -0.1162 -0.5499
 2554TIP3    H1 7595   1.597   1.957   1.921 -2.0307 -1.0684 -1.7806
 2554TIP3    H2 7596   1.626   2.090   1.854 -0.0980 -1.4667 -1.7873
 2555TIP3   OH2 7597   1.555   2.846   2.383 -0.4309 -0.2913  0.1739
 2555TIP3    H1 7598   1.622   2.778   2.376 -0.8568 -0.8193  1.1428
 2555TIP3    H2 7599   1.604   2.928   2.395  0.0374 -0.7245  1.2780
 2556TIP3   OH2 7600   0.831   0.854   2.862  0.5227 -0.4883 -0.5985
 2556TIP3    H1 7601   0.814   0.760   2.872  1.7323 -0.5824  0.7654
 2556TIP3    H2 7602   0.894   0.874   2.932 -0.4332  1.5154 -0.2804
 2557TIP3   OH2 7603   2.264   1.834   3.373  0.4673 -0.3400 -0.2705
 2557TIP3    H1 7604   2.312   1.814   3.452 -0.7185 -0.1323  0.5213
 2557TIP3    H2 7605   2.207   1.908   3.397 -1.2501 -1.4632 -0.7446
 2558TIP3   OH2 7606   2.392   1.218   3.531 -0.0999 -0.7745 -0.1960
 2558TIP3    H1 7607   2.333   1.212   3.456 -0.1800 -0.7373 -0.1366
 2558TIP3    H2 7608   2.336   1.248   3.603  0.1058 -0.2043 -0.2711
 2559TIP3   OH2 7609   0.717   2.628   4.192 -0.2038  0.1044 -0.4174
 2559TIP3    H1 7610   0.796   2.575   4.185 -0.0529  0.3363 -0.4710
 2559TIP3    H2 7611   0.726   2.675   4.274 -0.8727 -0.8152  0.2003
 2560TIP3   OH2 7612   1.600   0.741   5.362 -0.1135 -0.7600  0.3650
 2560TIP3    H1 7613   1.648   0.695   5.293 -0.7250  2.0999 -2.0657
 2560TIP3    H2 7614   1.508   0.730   5.338 -0.3873 -0.7118  1.3796
 2561TIP3   OH2 7615   2.954   2.520   1.687 -0.4512  0.0496 -0.0861
 2561TIP3    H1 7616   3.046   2.512   1.715 -0.5246 -0.8750 -0.0748
 2561TIP3    H2 7617   2.923   2.429   1.684 -1.2011  0.3240 -0.6483
 2562TIP3   OH2 7618   2.990   2.683   2.751  0.6330 -0.1530 -0.3427
 2562TIP3    H1 7619   3.010   2.684   2.658  2.4684 -2.2276 -0.0108
 2562TIP3    H2 7620   2.927   2.611   2.762  0.6296 -0.0955  0.0456
 2563TIP3   OH2 7621   4.594   2.818   3.004 -0.2064 -0.3417  0.4312
 2563TIP3    H1 7622   4.572   2.776   2.921  2.7659 -1.5707  0.1853
 2563TIP3    H2 7623   4.551   2.764   3.071  0.3650 -1.4975 -0.1181
 2564TIP3   OH2 7624   4.488   2.127   6.140 -0.7185 -0.1524  0.1348
 2564TIP3    H1 7625   4.540   2.046   6.132  1.3825  1.0803  0.8298
 2564TIP3    H2 7626   4.487   2.144   6.235 -1.1178  0.6574 -0.0164
 2565TIP3   OH2 7627   8.178   1.532   3.896 -0.0787  0.2006 -0.2146
 2565TIP3    H1 7628   8.162   1.626   3.892  0.3460  0.2140 -2.0931
 2565TIP3    H2 7629   8.208   1.516   3.985 -0.6135  1.7658  0.2551
 2566TIP3   OH2 7630   1.674   0.331   3.775 -0.2345 -0.0166 -0.1718
 2566TIP3    H1 7631   1.647   0.268   3.841  0.8395 -0.5343 -0.2061
 2566TIP3    H2 7632   1.666   0.416   3.817 -0.7411 -0.2583  0.2133
 2567TIP3   OH2 7633   4.042   1.475   3.235 -0.5246 -0.5224 -0.3663
 2567TIP3    H1 7634   3.997   1.432   3.162 -1.2377 -1.3620  0.5601
 2567TIP3    H2 7635   4.083   1.404   3.284 -0.1230  0.0273  0.1068
 2568TIP3   OH2 7636   1.446   1.362   4.075 -0.7358  0.1364  0.4772
 2568TIP3    H1 7637   1.514   1.300   4.046 -2.1771 -1.5521  0.6147
 2568TIP3    H2 7638   1.484   1.448   4.059 -0.3279 -0.7212 -3.8189
 2569TIP3   OH2 7639   1.064   2.079   5.180  0.6138  0.0115  1.1516
 2569TIP3    H1 7640   1.106   2.107   5.262 -0.1473  0.6780  1.3235
 2569TIP3    H2 7641   1.077   2.153   5.121  2.3164 -0.9926  0.2400
 2570TIP3   OH2 7642   4.602   3.028   2.819  0.3380 -0.1568  0.2274
 2570TIP3    H1 7643   4.689   3.030   2.779  0.6253 -1.5276  0.7511
 2570TIP3    H2 7644   4.614   2.979   2.901 -0.5514  1.2608  1.2401
 2571TIP3   OH2 7645   1.925   0.594   3.729 -0.4668 -0.3216  0.4034
 2571TIP3    H1 7646   2.010   0.570   3.765  1.1683  3.9323 -0.2773
 2571TIP3    H2 7647   1.870   0.611   3.806  0.0670 -0.6806  0.8619
 2572TIP3   OH2 7648   1.056   2.594   2.725 -0.2378  0.1632 -0.0125
 2572TIP3    H1 7649   0.992   2.655   2.761  1.0505  0.7369  1.3615
 2572TIP3    H2 7650   1.018   2.507   2.740 -0.7356  0.5009  0.6783
 2573TIP3   OH2 7651   1.147   2.049   4.822  0.6444 -0.8369  0.0041
 2573TIP3    H1 7652   1.215   2.058   4.754 -0.2060  1.5307 -0.5724
 2573TIP3    H2 7653   1.163   2.122   4.881 -1.2371 -0.4073  0.0008
 2574TIP3   OH2 7654   2.385   2.198   3.429 -0.5137  0.6676  0.1381
 2574TIP3    H1 7655   2.397   2.199   3.524 -0.6832 -0.3367  0.1724
 2574TIP3    H2 7656   2.473   2.189   3.394 -0.5321  0.1529  0.2226
 2575TIP3   OH2 7657   3.360   3.265   2.474  0.1347 -0.2383  0.0790
 2575TIP3    H1 7658   3.344   3.189   2.531  0.8126 -0.3774  0.0840
 2575TIP3    H2 7659   3.435   3.309   2.513  1.2846 -0.9495 -1.3238
 2576TIP3   OH2 7660   4.137   1.477   4.476 -0.0945 -0.0911 -0.0042
 2576TIP3    H1 7661   4.183   1.494   4.394  0.4078 -0.0495  0.2853
 2576TIP3    H2 7662   4.047   1.506   4.459  0.2133  0.7479 -0.2605
 2577TIP3   OH2 7663   3.516   2.605   0.784  0.0916 -0.0437 -0.0714
 2577TIP3    H1 7664   3.553   2.580   0.869 -0.2460 -0.5505 -0.0705
 2577TIP3    H2 7665   3.585   2.656   0.743  0.5617 -0.4554  0.1876
 2578TIP3   OH2 7666   0.976   0.701   4.432 -0.1498  0.1101  0.3014
 2578TIP3    H1 7667   0.971   0.790   4.396 -1.1774 -0.3116 -0.6315
 2578TIP3    H2 7668   0.950   0.645   4.359 -3.3120 -0.7215  1.9909
 2579TIP3   OH2 7669   3.280   1.478   2.030  0.2093  0.1035  0.0005
 2579TIP3    H1 7670   3.241   1.429   2.103 -0.8922  2.0184  0.7282
 2579TIP3    H2 7671   3.256   1.427   1.952 -0.7975 -0.5922  0.7417
 2580TIP3   OH2 7672   0.554   0.757   1.950  0.6898 -0.0500  0.1155
 2580TIP3    H1 7673   0.537   0.740   1.858  2.1758  0.3121 -0.2415
 2580TIP3    H2 7674   0.468   0.753   1.992  0.0843 -0.8394 -1.1794
 2581TIP3   OH2 7675   1.515   0.509   2.403 -0.2265  0.4552  0.0462
 2581TIP3    H1 7676   1.455   0.582   2.420  0.3536  0.9202  0.1442
 2581TIP3    H2 7677   1.507   0.493   2.309  1.5694  2.4010 -0.4813
 2582TIP3   OH2 7678   0.474   7.890   4.524  0.6353  0.4122 -0.5834
 2582TIP3    H1 7679   0.494   7.967   4.577  1.1839 -0.0002 -0.1746
 2582TIP3    H2 7680   0.534   7.897   4.449  0.1163  0.8046 -0.9590
 2583TIP3   OH2 7681   0.006   1.771   5.437 -0.1743  0.0835  0.4658
 2583TIP3    H1 7682   0.019   1.687   5.482  0.8978 -0.3541 -0.6134
 2583TIP3    H2 7683  -0.017   1.747   5.347 -0.8400  0.9494  0.3940
 2584TIP3   OH2 7684   1.638   1.705   2.389  0.2448  0.1561  0.2447
 2584TIP3    H1 7685   1.598   1.766   2.451  2.1137 -0.6651  2.3633
 2584TIP3    H2 7686   1.569   1.643   2.369 -0.0272 -0.4181  2.7237
 2585TIP3   OH2 7687   3.262   1.205   2.892 -0.0428  0.1965 -0.1327
 2585TIP3    H1 7688   3.224   1.126   2.930  1.3400 -0.7921 -0.7500
 2585TIP3    H2 7689   3.187   1.254   2.858 -0.7889 -1.5562 -1.0600
 2586TIP3   OH2 7690   4.559   2.720   2.740 -0.0671 -0.1632  0.4975
 2586TIP3    H1 7691   4.635   2.709   2.683 -0.3331  0.9289 -0.0772
 2586TIP3    H2 7692   4.484   2.704   2.683 -0.3404  1.0668  0.5070
 2587TIP3   OH2 7693   1.324   1.267   3.424  0.1571 -0.3541 -0.3611
 2587TIP3    H1 7694   1.339   1.222   3.341  0.4491 -1.3476  0.2146
 2587TIP3    H2 7695   1.334   1.198   3.490 -1.4493  0.1293  0.4044
 2588TIP3   OH2 7696   2.205   2.366   2.787 -0.1801  0.9032 -0.0679
 2588TIP3    H1 7697   2.231   2.274   2.792 -2.1087  0.3773  0.6871
 2588TIP3    H2 7698   2.260   2.402   2.717  2.3985 -0.1789  1.3336
 2589TIP3   OH2 7699   4.878   3.002   4.832  0.2881 -0.0542 -0.0267
 2589TIP3    H1 7700   4.932   2.926   4.855  1.1756  0.4609 -0.3859
 2589TIP3    H2 7701   4.865   2.994   4.738  0.6383  0.4116 -0.1121
 2590TIP3   OH2 7702   1.639   0.044   4.462  0.0129  0.0665 -0.3222
 2590TIP3    H1 7703   1.629   0.125   4.512  2.1807  0.5521 -0.6207
 2590TIP3    H2 7704   1.578  -0.017   4.503  2.4115  0.1191  3.6658
 2591TIP3   OH2 7705   4.291   0.751   4.109 -0.2210 -0.5691 -0.0015
 2591TIP3    H1 7706   4.235   0.829   4.111 -0.3597 -0.6406 -1.0213
 2591TIP3    H2 7707   4.251   0.692   4.173 -1.3912 -0.6634 -0.8122
 2592TIP3   OH2 7708   3.439   0.842   4.237  0.1627 -0.2782  0.3460
 2592TIP3    H1 7709   3.422   0.881   4.323  0.5257 -1.8573  1.1605
 2592TIP3    H2 7710   3.534   0.837   4.231  0.1118 -1.6935  0.5702
 2593TIP3   OH2 7711   5.257   4.255   5.464 -0.7657 -0.1209 -0.2439
 2593TIP3    H1 7712   5.271   4.191   5.394 -3.3455  0.9046 -1.7697
 2593TIP3    H2 7713   5.189   4.216   5.519  2.2836 -1.5840  2.6126
 2594TIP3   OH2 7714   1.714   1.717   5.472  0.0430 -0.3768  0.1095
 2594TIP3    H1 7715   1.682   1.628   5.484 -1.1027  0.0239  0.0952
 2594TIP3    H2 7716   1.717   1.729   5.377 -0.3756 -0.1980  0.1193
 2595TIP3   OH2 7717   1.564   2.174   4.123  0.3159 -0.1676  0.4773
 2595TIP3    H1 7718   1.654   2.206   4.124 -0.4229  1.9394  0.5135
 2595TIP3    H2 7719   1.510   2.252   4.132 -1.5859 -1.1374 -1.8655
 2596TIP3   OH2 7720   4.583   4.444   2.265  0.2430  0.2049 -0.1931
 2596TIP3    H1 7721   4.657   4.503   2.253 -1.2127  2.0291 -0.3449
 2596TIP3    H2 7722   4.506   4.496   2.242 -1.0808 -1.7385 -0.3229
 2597TIP3   OH2 7723   3.001   1.910   3.400  0.0363  0.2590  0.2109
 2597TIP3    H1 7724   2.948   1.932   3.324  1.0343 -1.5720 -1.0401
 2597TIP3    H2 7725   2.938   1.907   3.473 -1.2413  0.0966 -0.8792
 2598TIP3   OH2 7726   3.264   2.232   5.926  0.1097  0.3733  0.0104
 2598TIP3    H1 7727   3.219   2.243   5.842  0.0480  1.8033  0.2246
 2598TIP3    H2 7728   3.207   2.277   5.989 -0.7735 -2.2027  1.1271
 2599TIP3   OH2 7729   2.414   2.501   4.764 -0.1917 -0.2842  0.3078
 2599TIP3    H1 7730   2.429   2.591   4.735  1.6801 -0.3707  0.9381
 2599TIP3    H2 7731   2.332   2.504   4.813 -0.3164  1.0088  0.0256
 2600TIP3   OH2 7732   1.835   1.565   4.778  0.1527 -0.0219 -0.0387
 2600TIP3    H1 7733   1.837   1.589   4.686 -1.2103  1.2004  0.2193
 2600TIP3    H2 7734   1.784   1.484   4.781 -3.0398  1.8786 -0.0320
 2601TIP3   OH2 7735   3.461   0.768   1.925 -0.2693  0.4403 -0.0591
 2601TIP3    H1 7736   3.508   0.838   1.879  0.2546 -0.9149 -1.6182
 2601TIP3    H2 7737   3.495   0.771   2.014  0.3606  1.6182 -0.3173
 2602TIP3   OH2 7738   2.039   2.600   1.221 -0.2684  0.3787  0.1262
 2602TIP3    H1 7739   1.987   2.527   1.254 -0.0835 -1.1527 -2.8190
 2602TIP3    H2 7740   2.118   2.599   1.276 -1.3159 -0.1009  1.6667
 2603TIP3   OH2 7741   2.154   2.139   2.281  0.2811 -0.0785  0.3316
 2603TIP3    H1 7742   2.062   2.130   2.256  0.1157 -0.3537  1.0333
 2603TIP3    H2 7743   2.154   2.205   2.349  0.4605 -0.9150  1.1504
 2604TIP3   OH2 7744   1.666   1.212   3.734  0.3416  0.4763 -0.1205
 2604TIP3    H1 7745   1.588   1.265   3.718  0.3330 -0.2587 -2.6852
 2604TIP3    H2 7746   1.725   1.233   3.662  2.5869  1.0821  1.8362
 2605TIP3   OH2 7747   1.192   1.396   4.213 -0.7324 -0.4089 -0.8664
 2605TIP3    H1 7748   1.278   1.383   4.173  0.4242  0.9036  1.1489
 2605TIP3    H2 7749   1.187   1.490   4.229 -1.6267 -0.7613  1.0376
 2606TIP3   OH2 7750   3.494   3.492   2.558 -0.0524  1.0207  0.2954
 2606TIP3    H1 7751   3.455   3.497   2.471  0.8431 -0.6205 -0.2319
 2606TIP3    H2 7752   3.548   3.571   2.565  1.1222  0.3920 -1.2838
 2607TIP3   OH2 7753   3.346   4.620   3.297  0.0462  0.2730 -0.6246
 2607TIP3    H1 7754   3.356   4.649   3.206  0.2927  1.3953 -0.2412
 2607TIP3    H2 7755   3.270   4.667   3.329 -0.1064 -0.2117 -0.2795
 2608TIP3   OH2 7756   2.843   5.007   4.658 -0.5880  0.3610 -0.2670
 2608TIP3    H1 7757   2.820   4.924   4.618  1.0705 -0.1681 -0.1853
 2608TIP3    H2 7758   2.801   5.005   4.744  1.3868 -1.4753  0.7139
 2609TIP3   OH2 7759   2.862   1.761   3.132  0.3373 -0.0744  0.8955
 2609TIP3    H1 7760   2.859   1.854   3.107  0.9739  0.0985  1.4587
 2609TIP3    H2 7761   2.779   1.726   3.102 -0.6165  1.0598  2.1632
 2610TIP3   OH2 7762   5.102   0.902   4.057  0.3067 -0.7814  0.0390
 2610TIP3    H1 7763   5.151   0.847   4.118  0.2136 -3.4047 -2.1809
 2610TIP3    H2 7764   5.027   0.849   4.032 -1.2440  1.4314 -0.0976
 2611TIP3   OH2 7765   5.699   7.507   2.139  0.3228  0.7956  0.0393
 2611TIP3    H1 7766   5.704   7.583   2.197  0.1613  0.6664  0.2215
 2611TIP3    H2 7767   5.774   7.453   2.162  0.4889  0.9432 -0.1525
 2612TIP3   OH2 7768   2.263   2.418   3.786  0.0487 -0.4473 -0.9865
 2612TIP3    H1 7769   2.269   2.336   3.833  0.4765  0.0411 -0.1832
 2612TIP3    H2 7770   2.310   2.481   3.840 -1.1674  0.5633 -1.0675
 2613TIP3   OH2 7771   4.233   0.067   3.539  0.1051 -0.3290 -0.1485
 2613TIP3    H1 7772   4.167   0.025   3.594  1.9449 -2.1499  0.7761
 2613TIP3    H2 7773   4.234   0.014   3.459  0.4840 -0.3802 -0.1141
 2614TIP3   OH2 7774   2.914   0.397   0.811  0.4716 -0.1446 -0.5988
 2614TIP3    H1 7775   2.883   0.310   0.785  1.4862 -0.4988 -0.6382
 2614TIP3    H2 7776   2.844   0.456   0.784 -0.7305 -1.0677  0.4391
 2615TIP3   OH2 7777   4.084   3.496   3.916 -0.3416 -0.2340 -0.0448
 2615TIP3    H1 7778   4.075   3.412   3.961 -4.4333 -0.3139 -0.7975
 2615TIP3    H2 7779   4.043   3.559   3.975 -0.3387  0.6589 -0.9811
 2616TIP3   OH2 7780   1.731   0.989   5.380 -0.3855 -0.6597 -0.7056
 2616TIP3    H1 7781   1.691   0.918   5.330 -1.6345  0.3699 -1.2006
 2616TIP3    H2 7782   1.673   1.064   5.366  0.1945  0.1089  0.8844
 2617TIP3   OH2 7783   2.620   2.393   1.872 -0.1813 -0.0691  0.3423
 2617TIP3    H1 7784   2.628   2.320   1.934 -1.2338  0.2790  0.8859
 2617TIP3    H2 7785   2.614   2.471   1.927 -0.8246  0.2660 -0.1998
 2618TIP3   OH2 7786   4.524   2.463   3.977 -0.0813 -0.0032 -0.1579
 2618TIP3    H1 7787   4.441   2.416   3.990 -0.3354  0.8120  1.2126
 2618TIP3    H2 7788   4.586   2.395   3.952 -0.8424 -0.8181  0.1376
 2619TIP3   OH2 7789   2.710   1.723   2.322  0.3773  0.0955 -0.9658
 2619TIP3    H1 7790   2.658   1.769   2.256  0.6402 -0.6133 -1.6693
 2619TIP3    H2 7791   2.652   1.717   2.398  0.1548  1.1219 -1.0466
 2620TIP3   OH2 7792   3.490   1.800   2.751 -0.3531  0.3941 -0.1918
 2620TIP3    H1 7793   3.442   1.819   2.831 -1.1524  1.0468 -0.8089
 2620TIP3    H2 7794   3.539   1.881   2.733  2.7750 -1.0271  1.6479
 2621TIP3   OH2 7795   1.157   2.091   2.626 -0.1672 -0.5909  0.1050
 2621TIP3    H1 7796   1.120   2.005   2.606 -1.1589 -0.0282 -0.5103
 2621TIP3    H2 7797   1.144   2.102   2.720 -4.0424  0.7171 -0.4953
 2622TIP3   OH2 7798   3.675   2.366   4.990 -0.3853  0.4520  0.0788
 2622TIP3    H1 7799   3.686   2.302   5.060  2.7141 -0.9509 -1.5992
 2622TIP3    H2 7800   3.746   2.347   4.928 -1.2114  3.5679 -1.9601
 2623TIP3   OH2 7801   0.120   2.323   4.127 -0.6545  0.2272 -0.4509
 2623TIP3    H1 7802   0.169   2.401   4.153 -0.2234  0.1529 -1.0186
 2623TIP3    H2 7803   0.187   2.264   4.091 -0.6571 -1.2569  1.8570
 2624TIP3   OH2 7804   5.941   4.973   0.042 -0.0863  0.4499  0.0182
 2624TIP3    H1 7805   6.015   5.026   0.013 -0.1332  0.0181 -0.9203
 2624TIP3    H2 7806   5.976   4.883   0.044  0.1300  0.5641  2.0487
 2625TIP3   OH2 7807   3.615   1.619   0.956  0.1357  0.1689 -0.0174
 2625TIP3    H1 7808   3.529   1.612   0.996 -0.5694 -2.8596 -1.9188
 2625TIP3    H2 7809   3.669   1.556   1.004  0.5850  0.0895 -0.6204
 2626TIP3   OH2 7810   6.097   6.884   1.611  0.4662  0.1373 -0.2584
 2626TIP3    H1 7811   6.179   6.899   1.659  0.7825 -0.0198 -0.7450
 2626TIP3    H2 7812   6.125   6.846   1.528 -0.0212  1.1171 -0.8810
 2627TIP3   OH2 7813   1.179   3.291   2.148  0.3887  0.2316  0.4366
 2627TIP3    H1 7814   1.251   3.285   2.210  0.0705 -0.0392  0.7732
 2627TIP3    H2 7815   1.212   3.248   2.069  0.1648 -0.9440  0.9787
 2628TIP3   OH2 7816   2.291   1.483   3.343  0.3700 -0.2356 -0.1814
 2628TIP3    H1 7817   2.351   1.503   3.415  0.2354 -0.2502 -0.0667
 2628TIP3    H2 7818   2.304   1.555   3.281  1.5091 -0.9376 -0.7921
 2629TIP3   OH2 7819   8.351   1.548   4.762  0.0701  0.0121  0.1315
 2629TIP3    H1 7820   8.352   1.618   4.828 -0.2640  1.3837 -1.2836
 2629TIP3    H2 7821   8.346   1.467   4.813  1.7116  0.9562  1.8370
 2630TIP3   OH2 7822   3.063   3.184   3.998 -0.5863  0.2786  0.4284
 2630TIP3    H1 7823   3.147   3.216   3.966 -1.1099  2.6280  1.3217
 2630TIP3    H2 7824   3.000   3.252   3.973 -1.9297 -0.5629  1.4126
 2631TIP3   OH2 7825   7.248   7.102   0.586 -0.1451  0.2282 -0.4675
 2631TIP3    H1 7826   7.194   7.173   0.551 -1.1790 -0.3013  0.0329
 2631TIP3    H2 7827   7.218   7.024   0.539 -0.1215 -0.1351  0.1129
 2632TIP3   OH2 7828   2.357   3.635   3.564  0.1349  0.8861 -0.0340
 2632TIP3    H1 7829   2.315   3.605   3.645  0.7455 -0.0643 -0.0549
 2632TIP3    H2 7830   2.332   3.727   3.557 -1.1714  0.5849  0.4305
 2633TIP3   OH2 7831   2.226   3.016   1.631  0.1762  0.5383  0.1718
 2633TIP3    H1 7832   2.285   3.058   1.693  1.6921 -2.0726  0.5886
 2633TIP3    H2 7833   2.160   2.972   1.685  0.8598 -0.8124 -0.0501
 2634TIP3   OH2 7834   2.112   0.671   2.862  0.0498  0.2445 -0.0025
 2634TIP3    H1 7835   2.041   0.659   2.799 -0.2904 -0.7604  0.5820
 2634TIP3    H2 7836   2.187   0.626   2.823  0.1044  0.4509 -0.1400
 2635TIP3   OH2 7837   2.680   2.323   4.136 -0.0365 -0.1849  0.1143
 2635TIP3    H1 7838   2.712   2.405   4.096 -1.2552 -0.5298 -1.6425
 2635TIP3    H2 7839   2.635   2.351   4.215 -0.3092  0.8338 -0.3889
 2636TIP3   OH2 7840   3.214   4.177   4.164  0.1556 -0.4658 -0.4132
 2636TIP3    H1 7841   3.227   4.202   4.255 -0.0522  0.1755 -0.5520
 2636TIP3    H2 7842   3.197   4.260   4.119  2.3594 -0.5238 -1.4155
 2637TIP3   OH2 7843   0.995   1.432   6.605  0.1281 -0.0986 -0.1737
 2637TIP3    H1 7844   0.922   1.456   6.548  0.4603 -1.3163 -1.1411
 2637TIP3    H2 7845   0.983   1.486   6.684 -0.1933  1.8034 -1.4831
 2638TIP3   OH2 7846   1.550   3.498   4.126 -0.1047 -0.0281 -0.0847
 2638TIP3    H1 7847   1.551   3.533   4.216 -0.3762  1.1500 -0.5340
 2638TIP3    H2 7848   1.458   3.503   4.100 -0.1181 -0.9223 -0.2224
 2639TIP3   OH2 7849   1.019   2.905   4.604 -0.3033 -0.1633  0.2686
 2639TIP3    H1 7850   0.947   2.863   4.650  0.7590 -0.2800  1.8759
 2639TIP3    H2 7851   1.072   2.945   4.674  0.4946  1.0042 -0.9702
 2640TIP3   OH2 7852   1.715   2.581   3.461  0.0980  0.3562 -0.2470
 2640TIP3    H1 7853   1.753   2.518   3.399 -0.2213  0.6487 -0.7404
 2640TIP3    H2 7854   1.784   2.646   3.473  0.2284  0.2033 -0.1478
 2641TIP3   OH2 7855   0.623   1.108   1.736  0.4615  0.0904 -0.0333
 2641TIP3    H1 7856   0.528   1.100   1.744  0.4087  0.7601  0.1005
 2641TIP3    H2 7857   0.648   1.041   1.673  0.2816 -2.0729  2.1227
 2642TIP3   OH2 7858   2.193   1.059   2.608 -0.2141  0.1826 -0.1642
 2642TIP3    H1 7859   2.221   1.079   2.519 -0.7852  0.9849 -0.1813
 2642TIP3    H2 7860   2.187   0.964   2.612  1.0520  0.0786 -0.5910
 2643TIP3   OH2 7861   2.958   1.751   4.021  0.0219  0.2923  0.1297
 2643TIP3    H1 7862   3.047   1.740   3.988  0.7001 -2.1981  2.6528
 2643TIP3    H2 7863   2.903   1.716   3.950  1.1774 -0.3467 -0.4769
 2644TIP3   OH2 7864   2.134   2.344   2.470  0.8527 -0.1860  0.4634
 2644TIP3    H1 7865   2.058   2.402   2.468 -0.1119 -1.4828 -0.9146
 2644TIP3    H2 7866   2.172   2.359   2.557  0.3491  2.1350  0.3333
 2645TIP3   OH2 7867   1.826   1.119   5.730  0.0975  0.3543 -0.4665
 2645TIP3    H1 7868   1.854   1.166   5.652 -0.5615  4.3083  1.5535
 2645TIP3    H2 7869   1.898   1.130   5.792 -1.2962  1.3035  1.0335
 2646TIP3   OH2 7870   4.213   0.093   1.373  0.6159  0.7289 -0.4695
 2646TIP3    H1 7871   4.240   0.004   1.396 -1.3115  0.1515 -0.4035
 2646TIP3    H2 7872   4.282   0.123   1.313  2.8855  0.3435  1.8781
 2647TIP3   OH2 7873   2.956   1.202   4.627 -0.2211  0.0250 -0.0707
 2647TIP3    H1 7874   2.897   1.178   4.556  0.4429 -0.7115 -0.3721
 2647TIP3    H2 7875   3.019   1.130   4.632  0.7389  0.8787  0.1602
 2648TIP3   OH2 7876   2.126   0.178   2.465  0.5221 -0.7428  0.3380
 2648TIP3    H1 7877   2.193   0.228   2.418 -0.2585  0.5486  0.5897
 2648TIP3    H2 7878   2.153   0.181   2.557 -0.8668  1.4010  0.7101
 2649TIP3   OH2 7879   8.427   6.963   2.855  0.0033  0.7527 -0.4658
 2649TIP3    H1 7880   8.374   6.941   2.931  1.8675  0.0937  0.6993
 2649TIP3    H2 7881   8.510   6.995   2.892  1.3613 -0.6219 -2.2029
 2650TIP3   OH2 7882   4.931   0.324   2.828 -0.0443  0.0082 -0.1416
 2650TIP3    H1 7883   4.953   0.235   2.855  0.3564  0.5485  1.3577
 2650TIP3    H2 7884   4.994   0.379   2.874  0.0003  1.0463 -1.4054
 2651TIP3   OH2 7885   4.005   0.542   0.837 -0.4535 -0.0458 -0.0218
 2651TIP3    H1 7886   4.004   0.447   0.829 -0.7092 -0.2852  2.5611
 2651TIP3    H2 7887   4.038   0.573   0.752 -3.6422 -2.2384 -2.1829
 2652TIP3   OH2 7888   1.428   0.701   2.714 -0.0797  0.0907 -0.5652
 2652TIP3    H1 7889   1.376   0.623   2.734  2.3373 -1.1100  1.2858
 2652TIP3    H2 7890   1.440   0.745   2.798  1.5842  0.5471 -1.0227
 2653TIP3   OH2 7891   3.601   0.655   2.403 -0.6091  0.5177 -0.1371
 2653TIP3    H1 7892   3.510   0.628   2.392 -0.0756 -0.8335 -1.5056
 2653TIP3    H2 7893   3.647   0.576   2.430  0.0921  1.2810  0.9281
 2654TIP3   OH2 7894   0.895   0.952   4.347  0.3696 -0.0270  0.4704
 2654TIP3    H1 7895   0.977   1.001   4.339  0.5917 -0.6972 -1.5825
 2654TIP3    H2 7896   0.839   0.986   4.276  1.0162 -3.6032 -1.8738
 2655TIP3   OH2 7897   2.781   2.628   0.585 -0.4530  0.3074 -0.2630
 2655TIP3    H1 7898   2.760   2.545   0.630  0.8080 -0.0618 -0.3415
 2655TIP3    H2 7899   2.741   2.695   0.640  0.0438 -0.2328  0.7686
 2656TIP3   OH2 7900   1.452   3.142   2.939  0.0203  0.0330 -0.4814
 2656TIP3    H1 7901   1.482   3.051   2.937 -1.3463 -0.4258 -0.0343
 2656TIP3    H2 7902   1.357   3.137   2.933 -0.0987  1.4236  0.0169
 2657TIP3   OH2 7903   2.429   1.763   3.568 -0.5742  0.0428 -0.1424
 2657TIP3    H1 7904   2.469   1.831   3.621  1.7022 -2.2093  1.1728
 2657TIP3    H2 7905   2.440   1.683   3.620 -1.8454 -1.5756 -2.2643
 2658TIP3   OH2 7906   1.161   7.228   4.167 -0.3442  0.1702 -0.0787
 2658TIP3    H1 7907   1.145   7.136   4.187  0.1272  0.2089  0.4790
 2658TIP3    H2 7908   1.144   7.235   4.073 -0.7631 -0.4009 -0.0496
 2659TIP3   OH2 7909   1.549   1.519   3.337  0.2384 -0.4448 -0.1540
 2659TIP3    H1 7910   1.480   1.584   3.349 -0.5550 -1.4380  0.7461
 2659TIP3    H2 7911   1.576   1.529   3.246 -0.6826  0.3540 -0.3463
 2660TIP3   OH2 7912   2.896   0.748   4.546  0.0536 -0.5656  0.5555
 2660TIP3    H1 7913   2.803   0.729   4.543 -0.2222  0.8297 -0.2598
 2660TIP3    H2 7914   2.930   0.719   4.461  0.3952 -1.2138  0.9083
 2661TIP3   OH2 7915   4.436   3.616   5.458 -0.7556  0.3647  0.2104
 2661TIP3    H1 7916   4.384   3.696   5.449  0.1198  0.8569 -0.4290
 2661TIP3    H2 7917   4.381   3.548   5.418 -0.3107  1.1340 -1.7484
 2662TIP3   OH2 7918   2.256   1.647   1.597  0.0845  0.7062  0.1710
 2662TIP3    H1 7919   2.241   1.564   1.551  0.5985  0.5907  0.2036
 2662TIP3    H2 7920   2.227   1.714   1.536 -0.8015  0.4883  0.3338
 2663TIP3   OH2 7921   2.688   1.216   2.375  0.4275 -0.2767 -0.4359
 2663TIP3    H1 7922   2.594   1.217   2.394  0.6021 -0.7401  0.4869
 2663TIP3    H2 7923   2.724   1.285   2.431  0.8751 -1.2925  0.5369
 2664TIP3   OH2 7924   2.391   1.617   0.801 -0.3050 -0.0586 -0.1170
 2664TIP3    H1 7925   2.328   1.569   0.853  0.4687 -1.4207 -0.4143
 2664TIP3    H2 7926   2.341   1.646   0.724 -1.0285  0.5289  0.5663
 2665TIP3   OH2 7927   2.013   5.192   2.219 -0.0120  0.0608 -0.0021
 2665TIP3    H1 7928   2.048   5.103   2.210  1.5167  0.7690 -1.2345
 2665TIP3    H2 7929   1.931   5.180   2.267 -0.0066 -2.0478 -0.4553
 2666TIP3   OH2 7930   2.169   2.684   2.396  0.3225 -0.3437 -0.5366
 2666TIP3    H1 7931   2.118   2.634   2.333  2.4808 -1.4292 -1.4704
 2666TIP3    H2 7932   2.208   2.618   2.454 -0.1888  0.5289  0.8300
 2667TIP3   OH2 7933   2.721   2.054   1.721  0.5327  0.3563  0.0078
 2667TIP3    H1 7934   2.755   1.985   1.777 -0.3363  0.2615  0.4340
 2667TIP3    H2 7935   2.634   2.073   1.756  0.3030  0.8686 -0.8092
 2668TIP3   OH2 7936   2.763   3.510   1.969 -0.3683 -0.1338 -0.7065
 2668TIP3    H1 7937   2.801   3.436   1.922 -3.4760 -0.5828 -2.6045
 2668TIP3    H2 7938   2.745   3.575   1.902 -3.6888 -0.2866 -0.0764
 2669TIP3   OH2 7939   2.905   3.381   3.875 -0.0893 -1.1500 -0.2331
 2669TIP3    H1 7940   2.885   3.410   3.786  0.6007 -0.6584 -0.2341
 2669TIP3    H2 7941   2.866   3.448   3.932 -0.8187 -1.6389 -0.1515
 2670TIP3   OH2 7942   5.818   2.195   4.638 -0.1631  0.0996  0.3733
 2670TIP3    H1 7943   5.831   2.129   4.706  0.8084  0.6317  0.7118
 2670TIP3    H2 7944   5.855   2.156   4.559 -0.7735 -0.2871  0.2776
 2671TIP3   OH2 7945   5.653   1.123   0.647  0.5414  0.4106  0.5211
 2671TIP3    H1 7946   5.703   1.077   0.580  0.5837  1.3319 -0.0941
 2671TIP3    H2 7947   5.654   1.214   0.619  1.1916  0.9248  2.1737
 2672TIP3   OH2 7948   3.288   3.599   3.150  0.0000 -0.5850  0.5117
 2672TIP3    H1 7949   3.218   3.622   3.089  0.7027 -0.7253 -0.3693
 2672TIP3    H2 7950   3.362   3.653   3.122  0.1398 -0.1586  1.6692
 2673TIP3   OH2 7951   4.928   1.318   1.330  0.0010 -0.7617  0.1269
 2673TIP3    H1 7952   5.010   1.364   1.310  0.0183 -0.7752  0.1664
 2673TIP3    H2 7953   4.956   1.243   1.382 -0.0847 -0.5164  0.5282
 2674TIP3   OH2 7954   5.524   2.266   1.328 -0.5308  0.8145 -0.0311
 2674TIP3    H1 7955   5.470   2.291   1.403  1.5139  0.2713  1.6912
 2674TIP3    H2 7956   5.568   2.347   1.302 -1.1590  0.9801 -0.5940
 2675TIP3   OH2 7957   3.633   0.066   3.174 -0.2660 -0.8813  0.4546
 2675TIP3    H1 7958   3.565   0.128   3.146 -0.7241 -1.6496 -0.1267
 2675TIP3    H2 7959   3.606   0.038   3.261 -0.0557 -0.2626  0.7213
 2676TIP3   OH2 7960   2.877   2.432   2.068  0.2570 -0.5539 -0.6396
 2676TIP3    H1 7961   2.886   2.340   2.042  0.5997 -0.3169 -1.3563
 2676TIP3    H2 7962   2.936   2.479   2.010  2.1899 -0.1686  1.5674
 2677TIP3   OH2 7963   4.299   3.546   2.281 -0.0528  0.0704  0.1690
 2677TIP3    H1 7964   4.223   3.588   2.321  2.4702  3.2216  1.9218
 2677TIP3    H2 7965   4.313   3.594   2.199 -0.1523 -0.6821 -0.2869
 2678TIP3   OH2 7966   4.923   0.502   3.133  0.1774  0.0294  0.7276
 2678TIP3    H1 7967   4.838   0.526   3.096  0.9416  1.8532  0.0558
 2678TIP3    H2 7968   4.915   0.410   3.156 -1.6761 -0.0538 -0.1866
 2679TIP3   OH2 7969   3.856   1.821   0.864 -0.5454  0.0143 -0.1126
 2679TIP3    H1 7970   3.782   1.802   0.921 -1.6812  0.9947 -1.2196
 2679TIP3    H2 7971   3.834   1.905   0.823  0.1851 -0.7025 -2.0641
 2680TIP3   OH2 7972   2.159   1.932   1.748 -0.0860 -0.0870  0.6186
 2680TIP3    H1 7973   2.200   1.939   1.662 -0.9735 -0.3661  0.1707
 2680TIP3    H2 7974   2.149   1.838   1.763 -1.0262 -0.0132  0.4955
 2681TIP3   OH2 7975   5.197   3.143   2.827  0.7240 -0.1007 -0.0258
 2681TIP3    H1 7976   5.142   3.086   2.775  3.3008 -0.3824 -2.6082
 2681TIP3    H2 7977   5.217   3.093   2.906 -1.0127 -0.7611  0.0179
 2682TIP3   OH2 7978   3.827   1.804   3.798 -0.1778  0.6313 -0.1279
 2682TIP3    H1 7979   3.757   1.847   3.847 -1.2763 -0.1943 -0.9501
 2682TIP3    H2 7980   3.894   1.872   3.786  0.5400  0.6575  3.2715
 2683TIP3   OH2 7981   2.247   3.819   2.051  0.1260  0.2844 -0.0271
 2683TIP3    H1 7982   2.179   3.881   2.026  0.9469  0.9212 -0.6928
 2683TIP3    H2 7983   2.235   3.745   1.992  0.3454  0.6243 -0.5008
 2684TIP3   OH2 7984   3.672   1.662   1.817 -0.0008 -0.1720 -0.0307
 2684TIP3    H1 7985   3.675   1.633   1.909 -2.0117  0.4542  0.2403
 2684TIP3    H2 7986   3.754   1.711   1.805  1.5481 -2.4988  0.6488
 2685TIP3   OH2 7987   5.393   1.794   1.798  0.4148 -0.4824  0.4042
 2685TIP3    H1 7988   5.390   1.794   1.894 -0.6611  2.4880  0.4103
 2685TIP3    H2 7989   5.478   1.835   1.777 -0.0213  0.2890  0.1128
 2686TIP3   OH2 7990   5.528   1.957   3.382  0.4819  0.4803 -0.1014
 2686TIP3    H1 7991   5.599   1.934   3.322 -0.6643  0.0829 -1.3441
 2686TIP3    H2 7992   5.537   1.895   3.454  1.0630  0.0587 -0.5262
 2687TIP3   OH2 7993   2.724   2.225   2.852  0.5784 -0.2544 -0.4338
 2687TIP3    H1 7994   2.640   2.237   2.808  0.9776 -0.4965 -1.2765
 2687TIP3    H2 7995   2.776   2.301   2.826  1.1504 -0.8902 -1.1735
 2688TIP3   OH2 7996   4.456   1.578   2.484 -0.5576 -0.2211  0.5951
 2688TIP3    H1 7997   4.551   1.574   2.499 -0.2774  4.7687  0.7732
 2688TIP3    H2 7998   4.446   1.558   2.391  0.5942 -1.1906  0.6620
 2689TIP3   OH2 7999   4.219   3.280   2.283  0.5170  0.0654 -0.2397
 2689TIP3    H1 8000   4.214   3.264   2.377  1.5870  0.5485 -0.0869
 2689TIP3    H2 8001   4.256   3.369   2.276  0.4989  0.0108 -1.1137
 2690TIP3   OH2 8002   7.242   2.613   2.113  0.0898 -0.0753 -0.4020
 2690TIP3    H1 8003   7.255   2.605   2.018 -0.9960  1.1861 -0.6650
 2690TIP3    H2 8004   7.177   2.682   2.123  0.7290  0.3059  1.3084
 2691TIP3   OH2 8005   3.847   2.368   4.055  0.3479  0.0036  0.2294
 2691TIP3    H1 8006   3.910   2.331   4.115  0.3968  0.3402  0.3855
 2691TIP3    H2 8007   3.874   2.459   4.043 -1.4066  0.8064  2.0762
 2692TIP3   OH2 8008   3.661   3.702   2.635 -0.4600  0.1206 -0.4133
 2692TIP3    H1 8009   3.596   3.724   2.701  0.6044  2.6904 -0.1681
 2692TIP3    H2 8010   3.745   3.717   2.679  0.2716  3.2308 -2.7225
 2693TIP3   OH2 8011   4.044   2.104   3.237 -0.4443 -0.0057  0.2486
 2693TIP3    H1 8012   4.109   2.090   3.168 -1.2148  0.5686 -0.6113
 2693TIP3    H2 8013   4.081   2.061   3.314 -0.0339 -1.5674 -0.7807
 2694TIP3   OH2 8014   6.395   2.426   2.347 -0.1543 -0.0234  0.3378
 2694TIP3    H1 8015   6.470   2.449   2.292 -0.0748  1.0389  0.8952
 2694TIP3    H2 8016   6.428   2.431   2.437 -0.6409 -0.4995  0.5506
 2695TIP3   OH2 8017   4.178   3.620   3.396  0.3166  0.9323  0.4273
 2695TIP3    H1 8018   4.119   3.566   3.344  0.4955  1.0735  0.0745
 2695TIP3    H2 8019   4.252   3.563   3.416  0.0630  0.7567  0.8648
 2696TIP3   OH2 8020   3.288   3.549   0.363 -0.1559  0.3040  0.0529
 2696TIP3    H1 8021   3.307   3.553   0.270  0.9434 -0.0924  0.2495
 2696TIP3    H2 8022   3.368   3.513   0.402 -1.7081 -2.4865  0.7755
 2697TIP3   OH2 8023   1.673   3.760   2.083 -0.0898  0.1134  0.0573
 2697TIP3    H1 8024   1.581   3.769   2.109  0.0038  2.8189 -0.3549
 2697TIP3    H2 8025   1.719   3.742   2.165 -1.0025 -1.5770  0.2193
 2698TIP3   OH2 8026   1.977   1.546   2.167  0.4387  0.0503  0.7080
 2698TIP3    H1 8027   2.031   1.615   2.205 -0.4979  1.1892  0.0007
 2698TIP3    H2 8028   1.949   1.580   2.083 -1.4387 -0.4797  1.0830
 2699TIP3   OH2 8029   3.410   3.414   3.897 -0.0917 -0.3911 -0.0162
 2699TIP3    H1 8030   3.378   3.330   3.864  0.0939  0.0731 -1.4350
 2699TIP3    H2 8031   3.333   3.470   3.901  0.1120 -0.0114 -1.0892
 2700TIP3   OH2 8032   2.109   2.908   1.847 -0.7201  0.1395  0.1187
 2700TIP3    H1 8033   2.052   2.985   1.837 -0.1468  0.6891  0.9404
 2700TIP3    H2 8034   2.082   2.869   1.930  0.5495  0.7994  0.8605
 2701TIP3   OH2 8035   4.419   1.725   1.669  0.1009 -0.4092  0.4882
 2701TIP3    H1 8036   4.420   1.675   1.587 -1.8366  0.1722  0.0829
 2701TIP3    H2 8037   4.486   1.792   1.657 -2.5889  1.9096 -2.0957
 2702TIP3   OH2 8038   3.526   4.628   4.387 -0.1206 -0.5987  0.1716
 2702TIP3    H1 8039   3.587   4.650   4.316  0.3712 -3.2717 -0.2601
 2702TIP3    H2 8040   3.441   4.655   4.353  0.5187  1.2455 -0.0547
 2703TIP3   OH2 8041   3.519   2.511   2.053  0.6217 -0.2911  0.3162
 2703TIP3    H1 8042   3.548   2.428   2.015  1.8418 -0.2899  1.2042
 2703TIP3    H2 8043   3.432   2.492   2.087  0.7903 -1.1459  0.2922
 2704TIP3   OH2 8044   4.215   1.767   3.892  0.4700  0.2836 -0.4102
 2704TIP3    H1 8045   4.135   1.725   3.925  0.0562  0.9463 -0.5721
 2704TIP3    H2 8046   4.276   1.694   3.879  0.4914 -0.0622  1.3754
 2705TIP3   OH2 8047   4.031   2.020   1.316 -0.2510 -0.5815 -0.1699
 2705TIP3    H1 8048   4.115   1.978   1.338 -0.5743  0.2507  2.9658
 2705TIP3    H2 8049   4.053   2.112   1.304 -0.5218 -0.5820 -0.6581
 2706TIP3   OH2 8050   1.848   6.881   1.474 -0.0003 -0.0737  0.2530
 2706TIP3    H1 8051   1.827   6.946   1.541  3.2029  0.1856  1.1009
 2706TIP3    H2 8052   1.847   6.929   1.392 -3.8304 -0.3623  0.0282
 2707TIP3   OH2 8053   3.671   3.405   2.041  0.0900 -0.2088  0.3503
 2707TIP3    H1 8054   3.679   3.494   2.006  1.5724 -1.1218 -1.7195
 2707TIP3    H2 8055   3.577   3.385   2.035 -0.4606  1.6559  2.0691
 2708TIP3   OH2 8056   3.706   0.899   4.137 -0.1985  0.0619 -0.1866
 2708TIP3    H1 8057   3.717   0.810   4.171 -1.1429  0.0608  0.1394
 2708TIP3    H2 8058   3.760   0.953   4.195 -0.5634 -0.1443  0.3479
 2709TIP3   OH2 8059   1.927   3.325   2.968  0.2060 -0.4505 -0.1045
 2709TIP3    H1 8060   1.912   3.341   3.061  0.0748  0.6487 -0.3113
 2709TIP3    H2 8061   1.928   3.229   2.960  1.3645 -0.5598  1.2091
 2710TIP3   OH2 8062   4.231   4.013   1.922 -0.3595  0.6278 -0.1262
 2710TIP3    H1 8063   4.147   3.968   1.936 -1.2072  2.4280  0.7336
 2710TIP3    H2 8064   4.288   3.946   1.885 -2.0281 -0.7675 -0.2360
 2711TIP3   OH2 8065   5.259   2.441   3.033  0.5373 -0.9092 -0.0965
 2711TIP3    H1 8066   5.212   2.397   2.963 -0.7769 -1.7035  1.2539
 2711TIP3    H2 8067   5.240   2.534   3.020 -0.1059 -1.0928 -0.5045
 2712TIP3   OH2 8068   3.721   2.602   1.838 -0.0072 -0.7650 -0.3009
 2712TIP3    H1 8069   3.771   2.623   1.759  0.3527 -1.1968 -0.1913
 2712TIP3    H2 8070   3.653   2.541   1.809  0.7760 -1.7491 -0.0962
 2713TIP3   OH2 8071   3.045   2.292   2.458  0.2201  0.4847 -0.2980
 2713TIP3    H1 8072   3.011   2.370   2.415  0.1268  0.1193 -0.8947
 2713TIP3    H2 8073   2.967   2.238   2.474  0.3910  0.0970 -0.7493
 2714TIP3   OH2 8074   4.446   3.554   2.055  0.7376 -0.2032 -0.5134
 2714TIP3    H1 8075   4.464   3.513   2.140 -0.3790 -0.1919 -0.2576
 2714TIP3    H2 8076   4.512   3.518   1.996  1.7824  0.0925  0.4527
 2715TIP3   OH2 8077   4.758   4.629   2.853 -0.1533  0.1818  0.4850
 2715TIP3    H1 8078   4.836   4.575   2.850  1.3505  2.3666 -1.6233
 2715TIP3    H2 8079   4.707   4.602   2.777 -0.7438 -0.2291  1.0273
 2716TIP3   OH2 8080   4.999   1.633   1.957  0.7440  0.4032  0.4510
 2716TIP3    H1 8081   5.070   1.598   1.903  2.2962 -1.3593  3.4834
 2716TIP3    H2 8082   4.951   1.557   1.987 -0.7208  1.4148  0.7201
 2717TIP3   OH2 8083   4.294   4.437   1.932  0.2683 -0.3707  0.3834
 2717TIP3    H1 8084   4.257   4.421   2.019  0.8629  0.7089  0.8511
 2717TIP3    H2 8085   4.388   4.445   1.947  0.2884  0.6525 -0.2328
 2718TIP3   OH2 8086   1.515   1.408   4.402 -0.7421 -0.2056 -0.0410
 2718TIP3    H1 8087   1.460   1.380   4.329 -2.0417  0.7835  0.5258
 2718TIP3    H2 8088   1.469   1.484   4.439  1.0796  0.7324  0.3717
 2719TIP3   OH2 8089   4.522   0.192   1.209 -0.0629  0.5245 -0.0777
 2719TIP3    H1 8090   4.557   0.227   1.291 -1.3599  1.0616  0.2520
 2719TIP3    H2 8091   4.550   0.255   1.143  0.2709  0.5337  0.0694
 2720TIP3   OH2 8092   5.987   4.828   3.800  0.1442  0.1014 -0.6757
 2720TIP3    H1 8093   6.040   4.759   3.761  0.1876  0.1768 -0.7485
 2720TIP3    H2 8094   5.913   4.839   3.740  0.7253  0.9104 -1.2573
 2721TIP3   OH2 8095   3.375   3.190   1.240 -0.0466 -0.5535  0.1647
 2721TIP3    H1 8096   3.419   3.259   1.190  2.0357 -0.8492  1.5186
 2721TIP3    H2 8097   3.421   3.109   1.215  0.7321 -0.7604  2.1650
 2722TIP3   OH2 8098   4.991   1.992   2.195 -0.3364  0.2185  0.3215
 2722TIP3    H1 8099   5.047   2.026   2.264 -0.7874  0.7892  0.4061
 2722TIP3    H2 8100   5.044   2.000   2.115 -0.0265  0.0745  0.5100
 2723TIP3   OH2 8101   3.070   0.846   5.532  0.7581 -0.2009 -0.0386
 2723TIP3    H1 8102   3.003   0.915   5.530 -1.3310 -2.1432  1.0533
 2723TIP3    H2 8103   3.100   0.839   5.441 -0.6553  0.5838 -0.5862
 2724TIP3   OH2 8104   3.540   1.001   1.718 -0.5957  0.3525 -0.2172
 2724TIP3    H1 8105   3.592   1.058   1.662  2.0549  0.7077  2.5023
 2724TIP3    H2 8106   3.478   1.059   1.761 -1.1213  0.4100 -1.0297
 2725TIP3   OH2 8107   5.226   2.440   0.617  0.2992 -0.5659 -0.7931
 2725TIP3    H1 8108   5.141   2.478   0.596  1.1617  2.1403  0.3771
 2725TIP3    H2 8109   5.245   2.471   0.705  2.3370 -1.4228 -0.8957
 2726TIP3   OH2 8110   4.836   0.709   2.831 -0.4745 -0.4483 -0.4333
 2726TIP3    H1 8111   4.770   0.680   2.768 -0.8149  0.0187 -0.3011
 2726TIP3    H2 8112   4.904   0.750   2.778 -1.3963  1.1628 -0.4290
 2727TIP3   OH2 8113   4.545   3.255   2.219 -0.5070  0.4028  0.2273
 2727TIP3    H1 8114   4.546   3.207   2.301 -0.3430  0.3126  0.1733
 2727TIP3    H2 8115   4.637   3.260   2.193 -0.6442 -0.3710 -0.4161
 2728TIP3   OH2 8116   1.527   0.774   4.755  0.4129 -0.2131  0.6976
 2728TIP3    H1 8117   1.571   0.801   4.836  0.0918  0.1655  0.7481
 2728TIP3    H2 8118   1.446   0.733   4.784 -0.5090  1.4159  0.5236
 2729TIP3   OH2 8119   3.480   1.070   2.114  0.0511 -0.2138 -0.9078
 2729TIP3    H1 8120   3.386   1.062   2.098 -0.0060 -0.5441 -0.4052
 2729TIP3    H2 8121   3.512   1.122   2.040 -0.4360 -0.5705 -1.3759
 2730TIP3   OH2 8122   3.095   1.576   1.184 -0.6625  0.2520 -0.3644
 2730TIP3    H1 8123   3.119   1.583   1.276 -0.9371 -0.0026 -0.2707
 2730TIP3    H2 8124   3.109   1.483   1.163 -2.2382 -0.0556 -0.1110
 2731TIP3   OH2 8125   3.989   2.877   1.455 -0.1822  0.0820 -0.4368
 2731TIP3    H1 8126   4.041   2.877   1.535 -1.2360  0.1608  0.2607
 2731TIP3    H2 8127   3.989   2.786   1.427 -1.1699 -0.2430  0.5676
 2732TIP3   OH2 8128   4.631   2.234   1.658 -0.2291 -0.0825  0.5253
 2732TIP3    H1 8129   4.685   2.214   1.735 -1.3578  0.7465  1.5483
 2732TIP3    H2 8130   4.541   2.235   1.691 -0.6761  0.8809 -0.6707
 2733TIP3   OH2 8131   5.228   3.232   2.024 -0.6271  0.3429 -0.1225
 2733TIP3    H1 8132   5.263   3.191   2.103  1.3815  1.2876 -0.4864
 2733TIP3    H2 8133   5.223   3.325   2.046 -0.4752  0.5498 -0.9454
 2734TIP3   OH2 8134   1.950   7.589   1.921  0.0309 -0.0161  0.0446
 2734TIP3    H1 8135   1.975   7.525   1.854 -0.8917  0.2788 -0.5796
 2734TIP3    H2 8136   1.897   7.653   1.874 -0.9370 -0.0102  1.1373
 2735TIP3   OH2 8137   3.828   1.388   0.804 -0.1168 -0.8074 -0.2818
 2735TIP3    H1 8138   3.873   1.460   0.850  1.4395 -0.6433 -2.0121
 2735TIP3    H2 8139   3.750   1.371   0.857  0.0451  1.4420  0.7331
 2736TIP3   OH2 8140   2.958   0.066   3.975 -0.1422  1.0099 -0.0963
 2736TIP3    H1 8141   2.914   0.067   4.060  0.0350  0.0574  0.0181
 2736TIP3    H2 8142   2.965   0.158   3.950 -1.3358  1.2306  0.3283
 2737TIP3   OH2 8143   3.496   2.441   1.423  0.5906 -0.1706 -0.5753
 2737TIP3    H1 8144   3.412   2.463   1.384  1.0735 -0.1252 -1.6051
 2737TIP3    H2 8145   3.516   2.353   1.391  0.6259 -0.4432  0.1876
 2738TIP3   OH2 8146   5.103   0.637   1.640  0.0645 -0.3039  0.4024
 2738TIP3    H1 8147   5.143   0.718   1.672 -0.2579  0.9162 -2.1301
 2738TIP3    H2 8148   5.148   0.568   1.688  1.2255  1.3064  1.7084
 2739TIP3   OH2 8149   4.467   1.297   0.649  0.0114 -0.0056 -0.8842
 2739TIP3    H1 8150   4.532   1.230   0.628  0.4514 -0.7134  2.4337
 2739TIP3    H2 8151   4.416   1.259   0.721  0.7654  3.4611  1.6295
 2740TIP3   OH2 8152   4.166   2.933   0.373 -0.2492  0.5392  0.6989
 2740TIP3    H1 8153   4.183   2.853   0.422  0.3227 -0.8794 -1.7404
 2740TIP3    H2 8154   4.077   2.922   0.340  0.3781  0.1713 -0.9306
 2741TIP3   OH2 8155   3.191   4.404   4.384  0.2148 -0.1857  0.3385
 2741TIP3    H1 8156   3.104   4.380   4.350 -0.1790 -0.5333  1.5464
 2741TIP3    H2 8157   3.224   4.323   4.423  1.3516 -0.2068 -0.6452
 2742TIP3   OH2 8158   2.889   1.240   3.429  0.3050 -0.2547 -0.0215
 2742TIP3    H1 8159   2.806   1.238   3.478 -3.0700  0.5578 -5.2956
 2742TIP3    H2 8160   2.903   1.149   3.403  0.8948 -0.3353  0.5800
 2743TIP3   OH2 8161   7.011   2.500   2.875  0.5391 -0.0236  0.1004
 2743TIP3    H1 8162   6.986   2.463   2.790 -0.3200 -0.1298  0.3904
 2743TIP3    H2 8163   7.074   2.438   2.911  1.5362  0.4421 -0.8147
 2744TIP3   OH2 8164   1.778   7.147   3.187 -0.0448  0.1113 -0.8310
 2744TIP3    H1 8165   1.858   7.111   3.227 -1.6372 -1.3803  1.0924
 2744TIP3    H2 8166   1.774   7.107   3.100  0.2778 -1.3203 -0.1941
 2745TIP3   OH2 8167   4.531   1.523   2.818  0.5442  0.0697 -0.1553
 2745TIP3    H1 8168   4.615   1.497   2.778  0.7009  0.8127 -0.3135
 2745TIP3    H2 8169   4.469   1.458   2.786  0.5305  1.0490 -2.1968
 2746TIP3   OH2 8170   3.688   0.945   2.239 -0.2160  0.2954  0.7663
 2746TIP3    H1 8171   3.618   0.999   2.203  0.9563  2.3014  1.4476
 2746TIP3    H2 8172   3.711   0.986   2.322  1.0448 -0.9633  1.0762
 2747TIP3   OH2 8173   2.549   2.112   3.997 -0.3312  0.2278  0.5099
 2747TIP3    H1 8174   2.624   2.088   3.942 -0.9971  0.0732 -0.3372
 2747TIP3    H2 8175   2.583   2.181   4.054 -0.0629  1.5061 -1.1832
 2748TIP3   OH2 8176   3.760   1.856   2.172  0.2406 -0.0394 -0.4264
 2748TIP3    H1 8177   3.772   1.946   2.204  0.2148 -1.5636  4.1295
 2748TIP3    H2 8178   3.847   1.829   2.143  0.6684  0.7607  0.0889
 2749TIP3   OH2 8179   4.263   2.697   3.791  0.2815 -0.0532  0.5732
 2749TIP3    H1 8180   4.250   2.782   3.833  3.0331  0.6460  0.1233
 2749TIP3    H2 8181   4.276   2.718   3.698  0.3048 -1.0040  0.3550
 2750TIP3   OH2 8182   2.577   3.657   4.269  0.2077  0.4841  0.1303
 2750TIP3    H1 8183   2.486   3.632   4.281  0.2383  0.2798 -0.0646
 2750TIP3    H2 8184   2.575   3.753   4.264  0.2215  0.5894  1.9676
 2751TIP3   OH2 8185   4.783   3.538   3.069 -0.5441  0.2863 -0.6399
 2751TIP3    H1 8186   4.863   3.538   3.122  0.7309 -0.5109 -2.5044
 2751TIP3    H2 8187   4.766   3.630   3.051 -0.4315  0.5022  0.3420
 2752TIP3   OH2 8188   3.228   1.590   2.363  0.2866 -0.2233  0.1749
 2752TIP3    H1 8189   3.211   1.668   2.416  0.9319  0.1768 -0.1961
 2752TIP3    H2 8190   3.279   1.532   2.420 -0.4431 -0.4967  0.5479
 2753TIP3   OH2 8191   4.818   3.212   5.068 -0.1616 -0.0098  0.1540
 2753TIP3    H1 8192   4.843   3.281   5.007 -0.1454  0.9374  1.2221
 2753TIP3    H2 8193   4.847   3.131   5.026 -0.0366  0.6383 -1.0310
 2754TIP3   OH2 8194   5.611   2.622   1.810  0.0415 -0.0410 -0.0149
 2754TIP3    H1 8195   5.600   2.568   1.732  0.4964 -1.7333  1.0698
 2754TIP3    H2 8196   5.560   2.701   1.792 -2.4645 -1.7678 -0.7404
 2755TIP3   OH2 8197   5.118   3.557   1.743 -0.7635  0.1331  0.5166
 2755TIP3    H1 8198   5.120   3.461   1.750 -0.8193  0.1145  0.2773
 2755TIP3    H2 8199   5.030   3.577   1.712 -0.7451  0.2611  0.5472
 2756TIP3   OH2 8200   5.343   4.027   2.198 -0.2807  0.4724 -0.4208
 2756TIP3    H1 8201   5.280   4.093   2.226  0.3593  0.7023  0.5106
 2756TIP3    H2 8202   5.428   4.072   2.201  0.7039 -1.3679  3.9149
 2757TIP3   OH2 8203   2.204   1.904   2.110 -0.4134  0.0712  0.6377
 2757TIP3    H1 8204   2.234   1.956   2.036 -0.5951  0.1157  0.5948
 2757TIP3    H2 8205   2.140   1.959   2.154 -0.1351  0.1348  0.9615
 2758TIP3   OH2 8206   1.992   3.151   1.794 -0.0358 -0.1415 -0.4278
 2758TIP3    H1 8207   2.012   3.187   1.880 -1.4166 -0.8388  0.2109
 2758TIP3    H2 8208   1.941   3.220   1.751 -1.6916 -0.8399  0.3615
 2759TIP3   OH2 8209   1.823   3.616   3.205 -0.1759 -0.5314 -0.4423
 2759TIP3    H1 8210   1.908   3.659   3.211 -0.9097  0.8658  0.1698
 2759TIP3    H2 8211   1.815   3.593   3.112 -0.3817  1.9665 -1.0899
 2760TIP3   OH2 8212   2.771   1.504   4.489  0.4445 -0.2822  0.8767
 2760TIP3    H1 8213   2.852   1.527   4.444  1.4686 -0.8798  2.3853
 2760TIP3    H2 8214   2.709   1.486   4.418  2.4213 -2.5755 -0.3604
 2761TIP3   OH2 8215   1.562   7.893   1.438  0.7266 -0.6217  0.1058
 2761TIP3    H1 8216   1.648   7.894   1.397  0.1099  1.6738 -1.2572
 2761TIP3    H2 8217   1.567   7.961   1.506 -0.2105  0.0316 -0.4670
 2762TIP3   OH2 8218   5.093   1.811   4.003  0.1680  0.4229 -0.5045
 2762TIP3    H1 8219   5.143   1.766   4.072 -0.3863  1.5346  0.6312
 2762TIP3    H2 8220   5.074   1.742   3.939 -0.1990 -0.8557  0.9481
 2763TIP3   OH2 8221   3.822   3.047   2.849  0.4366  0.3117 -0.3755
 2763TIP3    H1 8222   3.901   3.031   2.796 -0.4438 -2.5150 -0.9463
 2763TIP3    H2 8223   3.781   2.960   2.857 -1.6230  1.4106  1.5029
 2764TIP3   OH2 8224   2.879   4.352   3.973  0.3035  0.4469 -0.2210
 2764TIP3    H1 8225   2.879   4.412   3.898  0.5517  0.0791 -0.5205
 2764TIP3    H2 8226   2.910   4.269   3.937  1.2650  0.4953  0.4750
 2765TIP3   OH2 8227   5.264   2.118   1.339  0.2126  0.0080  0.0216
 2765TIP3    H1 8228   5.215   2.039   1.363 -1.4882  1.4271  1.2955
 2765TIP3    H2 8229   5.352   2.085   1.317 -0.6024 -2.2862  0.0600
 2766TIP3   OH2 8230   2.955   4.601   3.253 -0.2641 -0.1579  0.1358
 2766TIP3    H1 8231   2.983   4.512   3.271 -0.3982 -0.6072 -1.7626
 2766TIP3    H2 8232   2.911   4.596   3.168 -1.5386  1.4545  0.6497
 2767TIP3   OH2 8233   3.695   3.463   3.804  0.0591 -0.2680  0.6017
 2767TIP3    H1 8234   3.742   3.502   3.878 -1.6237  0.7517  1.1637
 2767TIP3    H2 8235   3.632   3.403   3.845 -0.7776  0.1903  0.0055
 2768TIP3   OH2 8236   5.151   2.002   1.967 -0.0870 -0.4949  0.5308
 2768TIP3    H1 8237   5.201   2.083   1.978 -1.1309  0.4638 -1.5664
 2768TIP3    H2 8238   5.174   1.972   1.879 -1.8118 -1.0175  0.2530
 2769TIP3   OH2 8239   3.123   3.667   2.343 -0.8311 -0.2847 -0.2586
 2769TIP3    H1 8240   3.112   3.661   2.438  0.7006  0.4174 -0.0311
 2769TIP3    H2 8241   3.113   3.577   2.312  1.1155 -0.8988  0.8452
 2770TIP3   OH2 8242   6.253   6.442   6.852 -0.2813 -0.0837  0.1433
 2770TIP3    H1 8243   6.338   6.401   6.832  0.1013  0.5768  0.4048
 2770TIP3    H2 8244   6.189   6.386   6.808  0.2152 -1.1219  0.7176
 2771TIP3   OH2 8245   5.522   1.218   4.868  0.2938 -0.0464  0.0494
 2771TIP3    H1 8246   5.561   1.161   4.802 -0.7199  0.0546 -0.6583
 2771TIP3    H2 8247   5.507   1.160   4.943 -5.4655 -2.1862 -2.3725
 2772TIP3   OH2 8248   3.151   1.646   0.667  0.3294  0.1960 -0.1075
 2772TIP3    H1 8249   3.064   1.625   0.702  0.7085  0.1688  0.8520
 2772TIP3    H2 8250   3.146   1.738   0.644 -0.5811 -0.3087 -1.9936
 2773TIP3   OH2 8251   3.735   1.668   2.613 -0.3360 -0.1342  0.0249
 2773TIP3    H1 8252   3.694   1.702   2.533 -0.5340  0.7460  0.4951
 2773TIP3    H2 8253   3.662   1.657   2.674 -0.1436 -0.5225  0.1861
 2774TIP3   OH2 8254   3.147   6.653   1.570  0.3559 -0.2225 -0.2730
 2774TIP3    H1 8255   3.191   6.634   1.487 -0.6713 -2.4506 -0.3379
 2774TIP3    H2 8256   3.061   6.686   1.544 -0.2235 -1.5793 -0.0949
 2775TIP3   OH2 8257   3.808   0.836   3.486 -0.3344 -0.0154  0.1988
 2775TIP3    H1 8258   3.902   0.821   3.478 -0.2776 -0.7932  2.0742
 2775TIP3    H2 8259   3.780   0.862   3.398  1.4606 -0.7301 -0.6050
 2776TIP3   OH2 8260   3.006   1.439   3.217 -0.0777 -0.1441 -0.3413
 2776TIP3    H1 8261   3.098   1.446   3.242  0.7384 -2.6738 -2.4506
 2776TIP3    H2 8262   2.975   1.361   3.262 -1.0806  0.3962 -0.0763
 2777TIP3   OH2 8263   4.070   3.219   1.741  0.7028 -0.4643 -0.6045
 2777TIP3    H1 8264   4.046   3.210   1.648  1.1102  0.7595 -0.8271
 2777TIP3    H2 8265   3.988   3.202   1.788 -0.0656  1.3070 -1.2775
 2778TIP3   OH2 8266   4.076   1.449   2.851 -0.1435 -0.5934 -0.3686
 2778TIP3    H1 8267   4.059   1.517   2.786  0.7078  0.6450  0.6746
 2778TIP3    H2 8268   4.004   1.455   2.913  0.2807 -0.1888  0.0898
 2779TIP3   OH2 8269   5.329   2.346   1.514  0.0683  0.4593 -0.2011
 2779TIP3    H1 8270   5.304   2.259   1.483  0.7468 -0.2304  1.1695
 2779TIP3    H2 8271   5.245   2.392   1.525 -0.3139 -0.1276 -0.6209
 2780TIP3   OH2 8272   5.262   2.888   2.272  0.3362 -0.0983 -0.1760
 2780TIP3    H1 8273   5.243   2.982   2.270  2.4650  0.3911  0.3421
 2780TIP3    H2 8274   5.202   2.852   2.337 -0.4109  0.9396 -0.2918
 2781TIP3   OH2 8275   3.414   3.361   2.002  0.3669 -0.6183 -0.3292
 2781TIP3    H1 8276   3.431   3.344   1.909  2.7013  0.2758 -0.0853
 2781TIP3    H2 8277   3.323   3.391   2.004  0.6624  0.5522 -2.4870
 2782TIP3   OH2 8278   6.579   2.802   1.148  0.9524 -0.4603  0.1918
 2782TIP3    H1 8279   6.660   2.829   1.105  0.7532 -3.1042 -1.9652
 2782TIP3    H2 8280   6.514   2.799   1.078 -0.5900 -0.1029  1.5745
 2783TIP3   OH2 8281   4.572   2.493   3.002  0.1876 -0.6635 -0.6434
 2783TIP3    H1 8282   4.588   2.414   3.053  1.0609  0.3784  0.7560
 2783TIP3    H2 8283   4.575   2.465   2.911 -1.1036 -2.5279 -0.1557
 2784TIP3   OH2 8284   3.957   2.394   2.531  0.2039  0.0029 -0.1029
 2784TIP3    H1 8285   3.944   2.349   2.447  0.7362 -0.9746  0.3303
 2784TIP3    H2 8286   4.050   2.385   2.548  0.1902  0.6824  0.3306
 2785TIP3   OH2 8287   4.397   0.935   0.804  0.4979  0.4391 -0.0401
 2785TIP3    H1 8288   4.420   0.956   0.895  1.3988  1.7496 -0.5491
 2785TIP3    H2 8289   4.313   0.978   0.790  0.2305  0.0146  0.2479
 2786TIP3   OH2 8290   3.467   4.063   3.378  0.0556 -0.2905 -0.1918
 2786TIP3    H1 8291   3.500   4.138   3.427  0.3690  0.3466 -1.3402
 2786TIP3    H2 8292   3.492   3.987   3.430  1.1468  0.3294  0.2083
 2787TIP3   OH2 8293   2.161   2.555   4.363 -0.6562 -1.1713 -0.1481
 2787TIP3    H1 8294   2.145   2.489   4.297  0.2122 -1.1792 -0.3575
 2787TIP3    H2 8295   2.217   2.512   4.428  0.0984 -0.5806 -0.4015
 2788TIP3   OH2 8296   2.269   3.229   2.270 -0.1952  0.1413 -0.2546
 2788TIP3    H1 8297   2.175   3.232   2.285 -0.5548  0.1230 -2.3141
 2788TIP3    H2 8298   2.280   3.160   2.204  1.2305  0.2853 -0.1740
 2789TIP3   OH2 8299   3.938   2.856   4.558  0.6474 -0.2464 -0.8564
 2789TIP3    H1 8300   4.008   2.792   4.570  0.1018 -0.8566 -0.9114
 2789TIP3    H2 8301   3.862   2.818   4.603 -0.3482 -0.7590 -2.9116
 2790TIP3   OH2 8302   3.928   3.757   2.680  0.5000  0.6529 -0.3643
 2790TIP3    H1 8303   3.941   3.840   2.634 -2.2093  0.7493 -1.0753
 2790TIP3    H2 8304   3.938   3.779   2.773 -0.0086  1.7541 -0.5624
 2791TIP3   OH2 8305   5.497   3.606   3.182  0.1692 -0.3118 -0.1106
 2791TIP3    H1 8306   5.515   3.599   3.276  1.8387  1.7520 -0.2313
 2791TIP3    H2 8307   5.520   3.520   3.147  0.0359 -0.9380  1.2991
 2792TIP3   OH2 8308   3.974   0.435   3.405 -0.5244  0.2792 -0.1973
 2792TIP3    H1 8309   3.927   0.392   3.334  0.1920 -1.2887  0.2468
 2792TIP3    H2 8310   4.044   0.484   3.362  0.4609 -1.3878 -0.5499
 2793TIP3   OH2 8311   4.474   3.416   3.023 -0.5597  0.1762 -0.1204
 2793TIP3    H1 8312   4.444   3.494   3.070  0.8235  0.9698 -0.5252
 2793TIP3    H2 8313   4.518   3.364   3.090  2.7908  2.0309 -0.7523
 2794TIP3   OH2 8314   0.523   6.958   3.025 -0.0931 -0.3924 -0.7498
 2794TIP3    H1 8315   0.468   6.911   2.962 -0.4985 -0.0588 -0.6455
 2794TIP3    H2 8316   0.490   7.048   3.023  1.0838  0.0426 -1.4194
 2795TIP3   OH2 8317   4.831   1.858   1.995  0.0131  0.2689  0.4784
 2795TIP3    H1 8318   4.916   1.817   1.978  0.6646  1.9545 -0.4708
 2795TIP3    H2 8319   4.847   1.913   2.072  0.0229  1.3031 -0.2669
 2796TIP3   OH2 8320   1.104   6.106   4.497  0.3175 -0.4518  0.2349
 2796TIP3    H1 8321   1.123   6.027   4.547  0.8499  0.2908  1.2178
 2796TIP3    H2 8322   1.181   6.162   4.508  0.4339 -0.2590 -1.3991
 2797TIP3   OH2 8323   2.489   3.009   2.256  0.0194  0.5104 -0.2711
 2797TIP3    H1 8324   2.579   3.002   2.223  0.1122  1.6791 -0.2988
 2797TIP3    H2 8325   2.453   2.921   2.246  1.8760 -0.5467  1.8932
 2798TIP3   OH2 8326   2.446   3.717   3.131 -0.0613  0.2244 -0.1140
 2798TIP3    H1 8327   2.466   3.811   3.129  0.1276  0.1697 -3.2219
 2798TIP3    H2 8328   2.532   3.675   3.123 -0.2537 -0.2264  0.1673
 2799TIP3   OH2 8329   4.408   3.357   1.347  0.0269  0.4667  1.0082
 2799TIP3    H1 8330   4.373   3.273   1.375  0.0089  0.5341  1.1906
 2799TIP3    H2 8331   4.501   3.355   1.372  0.3914 -0.1038 -0.3734
 2800TIP3   OH2 8332   5.749   3.511   1.882  0.4242 -0.6019 -0.0585
 2800TIP3    H1 8333   5.812   3.573   1.918  0.3211 -0.8152  0.4856
 2800TIP3    H2 8334   5.760   3.519   1.787 -0.5898  1.2960 -0.0412
 2801TIP3   OH2 8335   4.721   2.545   0.682  0.2811 -0.5346 -0.1444
 2801TIP3    H1 8336   4.675   2.479   0.631  1.5047 -1.1035 -0.5334
 2801TIP3    H2 8337   4.652   2.590   0.731 -0.7544 -0.9128 -1.2208
 2802TIP3   OH2 8338   3.938   1.428   4.669  0.3787  0.6098  0.6386
 2802TIP3    H1 8339   3.998   1.422   4.594 -0.9440 -1.1781 -0.3397
 2802TIP3    H2 8340   3.883   1.504   4.650  1.7663  1.7511  1.1274
 2803TIP3   OH2 8341   3.895   0.378   4.321  0.0658 -0.0654 -0.6396
 2803TIP3    H1 8342   3.839   0.456   4.332 -0.1411 -0.0707 -1.6535
 2803TIP3    H2 8343   3.912   0.349   4.411 -0.2282  0.8871 -0.2670
 2804TIP3   OH2 8344   3.464   2.032   1.459 -0.0038  0.5805  0.9747
 2804TIP3    H1 8345   3.372   2.056   1.453 -0.4683 -0.3111  3.8604
 2804TIP3    H2 8346   3.510   2.100   1.411 -2.2601  0.1305 -2.0001
 2805TIP3   OH2 8347   4.303   3.368   4.245 -0.1271  0.0317  0.0777
 2805TIP3    H1 8348   4.369   3.380   4.314  0.2543 -0.9407 -0.1068
 2805TIP3    H2 8349   4.263   3.454   4.234  0.1028  0.2883  1.2237
 2806TIP3   OH2 8350   4.429   2.769   3.998 -0.1401  0.2833  0.1945
 2806TIP3    H1 8351   4.421   2.726   3.913 -0.4745 -0.5913  0.6644
 2806TIP3    H2 8352   4.375   2.717   4.057  1.6776 -0.3062  1.3973
 2807TIP3   OH2 8353   3.823   3.144   3.107 -0.3304 -0.0857 -0.8677
 2807TIP3    H1 8354   3.839   3.108   3.020  0.0885  0.3649 -0.9800
 2807TIP3    H2 8355   3.905   3.187   3.131 -1.0814  1.5188 -1.0939
 2808TIP3   OH2 8356   3.299   2.780   2.281 -0.0147  0.0407  0.8704
 2808TIP3    H1 8357   3.350   2.846   2.328 -2.8894  1.8497  1.5335
 2808TIP3    H2 8358   3.306   2.805   2.189  0.9812 -0.2079  0.8775
 2809TIP3   OH2 8359   4.839   1.283   2.285  0.4703 -0.2332  0.4460
 2809TIP3    H1 8360   4.919   1.305   2.332 -0.0673 -0.7507  1.6305
 2809TIP3    H2 8361   4.768   1.310   2.344 -0.2526  1.4427 -1.1395
 2810TIP3   OH2 8362   3.672   1.635   3.483  0.4375  0.1658  0.2283
 2810TIP3    H1 8363   3.605   1.616   3.418  0.7687  0.2620 -0.1394
 2810TIP3    H2 8364   3.751   1.653   3.432  0.3859  1.5071  0.6079
 2811TIP3   OH2 8365   4.688   2.704   1.375  0.3246  0.0915 -0.1258
 2811TIP3    H1 8366   4.708   2.618   1.411  0.3413 -0.2731 -1.0218
 2811TIP3    H2 8367   4.595   2.700   1.354  0.0080  0.7438  1.0875
 2812TIP3   OH2 8368   4.043   1.013   4.401  0.2366 -0.2266 -0.5422
 2812TIP3    H1 8369   3.975   1.058   4.350  1.0733 -0.3516 -1.7973
 2812TIP3    H2 8370   4.042   1.057   4.486 -0.5296  0.6366 -0.9876
 2813TIP3   OH2 8371   4.541   1.904   3.410 -0.2591  0.4588  0.0369
 2813TIP3    H1 8372   4.488   1.982   3.428  0.7265  0.9147  1.0188
 2813TIP3    H2 8373   4.595   1.894   3.489  2.0352  0.7487 -1.4652
 2814TIP3   OH2 8374   4.727   0.915   2.385  0.1761  0.4035 -0.1662
 2814TIP3    H1 8375   4.694   0.825   2.389 -2.0096  1.0916 -1.6619
 2814TIP3    H2 8376   4.714   0.950   2.473 -3.9772  0.8936 -0.8637
 2815TIP3   OH2 8377   1.231   3.007   1.915 -0.6439  0.5838 -0.7649
 2815TIP3    H1 8378   1.150   2.959   1.934 -0.3032  0.0378 -0.6777
 2815TIP3    H2 8379   1.202   3.097   1.899 -1.3331  0.2837 -1.2721
 2816TIP3   OH2 8380   4.280   2.272   3.340 -0.2480  0.4948 -0.3039
 2816TIP3    H1 8381   4.314   2.203   3.397  0.1905  0.9517 -0.0055
 2816TIP3    H2 8382   4.248   2.339   3.401 -0.6702  0.5542 -0.5923
 2817TIP3   OH2 8383   1.048   2.065   4.105  0.0223  0.0225 -0.2333
 2817TIP3    H1 8384   1.136   2.031   4.091 -0.2077 -1.3490  1.5167
 2817TIP3    H2 8385   0.991   1.989   4.093 -0.9015  0.8124 -0.9493
 2818TIP3   OH2 8386   3.212   3.605   3.912 -0.4976 -0.1665 -0.3109
 2818TIP3    H1 8387   3.173   3.670   3.853 -0.0188 -0.0411 -0.4934
 2818TIP3    H2 8388   3.184   3.631   3.999  0.1204  0.5922 -0.3355
 2819TIP3   OH2 8389   6.187   2.693   1.690 -0.0659  0.4023  0.0021
 2819TIP3    H1 8390   6.155   2.783   1.685  0.4491  0.6065  0.4122
 2819TIP3    H2 8391   6.248   2.693   1.764 -0.8330 -0.5163  0.6468
 2820TIP3   OH2 8392   5.031   4.406   3.686 -0.4848 -0.0123 -0.5832
 2820TIP3    H1 8393   5.117   4.399   3.646 -0.2118 -0.2423  0.0336
 2820TIP3    H2 8394   5.033   4.487   3.736 -0.4987 -0.1979 -0.2755
 2821TIP3   OH2 8395   5.080   4.805   2.129  0.3117  0.1372 -0.0009
 2821TIP3    H1 8396   5.062   4.832   2.219 -1.3467  0.0562 -0.2848
 2821TIP3    H2 8397   5.141   4.732   2.137  2.0096  1.6199  0.9329
 2822TIP3   OH2 8398   5.788   3.057   2.331 -0.2712 -0.3684 -0.1409
 2822TIP3    H1 8399   5.694   3.052   2.311 -0.8528 -1.1536  2.5945
 2822TIP3    H2 8400   5.812   2.966   2.352  1.2736 -0.2882 -1.4920
 2823TIP3   OH2 8401   5.141   1.066   1.983 -0.4508  0.3235 -0.7092
 2823TIP3    H1 8402   5.179   0.996   1.930 -1.9157 -0.3158 -0.9398
 2823TIP3    H2 8403   5.101   1.126   1.920 -0.0670  0.8445 -0.4607
 2824TIP3   OH2 8404   3.441   1.424   1.456  0.0414  0.2778 -0.2865
 2824TIP3    H1 8405   3.524   1.426   1.409 -0.1247 -2.9140 -0.8358
 2824TIP3    H2 8406   3.462   1.454   1.545  1.1891  2.1729 -1.1762
 2825TIP3   OH2 8407   3.962   3.617   1.829 -0.0305 -0.3026  0.1692
 2825TIP3    H1 8408   3.941   3.557   1.757 -0.9838 -1.6193  1.5207
 2825TIP3    H2 8409   4.016   3.566   1.888  0.5080  0.6871  0.5399
 2826TIP3   OH2 8410   4.086   0.887   2.371 -0.1515 -0.0514  0.2759
 2826TIP3    H1 8411   4.159   0.831   2.346 -0.6754 -0.5129 -0.2487
 2826TIP3    H2 8412   4.011   0.828   2.377 -0.6891  0.5654 -0.1642
 2827TIP3   OH2 8413   6.748   3.205   1.777  0.6493 -0.0329 -0.4713
 2827TIP3    H1 8414   6.690   3.153   1.833 -1.2049  3.0540  0.5810
 2827TIP3    H2 8415   6.753   3.155   1.695 -0.6956 -2.0716  0.6365
 2828TIP3   OH2 8416   3.788   1.282   1.823  0.3280 -0.5985  0.1619
 2828TIP3    H1 8417   3.761   1.357   1.877  1.6011  0.6926 -0.9283
 2828TIP3    H2 8418   3.842   1.229   1.881  1.7048  0.7918  0.1738
 2829TIP3   OH2 8419   4.262   1.955   1.806  0.3128  0.2418 -0.1017
 2829TIP3    H1 8420   4.185   1.973   1.752 -0.0961 -0.3656  0.2775
 2829TIP3    H2 8421   4.300   1.876   1.769  0.4720  0.2631  0.0158
 2830TIP3   OH2 8422   3.261   1.164   3.376 -0.1253 -0.1971 -0.5696
 2830TIP3    H1 8423   3.267   1.259   3.387  1.8040 -0.5049  1.1987
 2830TIP3    H2 8424   3.244   1.152   3.282  1.6294  1.8001 -1.1725
 2831TIP3   OH2 8425   5.948   3.721   2.948 -0.4372  0.6756 -0.4323
 2831TIP3    H1 8426   5.985   3.679   2.871  0.8059 -0.7729  0.9134
 2831TIP3    H2 8427   5.916   3.806   2.917 -0.3259 -0.0531 -2.5991
 2832TIP3   OH2 8428   7.101   1.930   2.868 -0.1198 -0.2108  0.4780
 2832TIP3    H1 8429   7.045   1.865   2.909  0.7808 -2.0125 -1.0750
 2832TIP3    H2 8430   7.164   1.880   2.816 -0.0415  1.8921 -1.5850
 2833TIP3   OH2 8431   0.924   2.469   2.165  0.0723  0.5489 -0.2643
 2833TIP3    H1 8432   0.889   2.537   2.106  2.5584  1.0367 -1.2262
 2833TIP3    H2 8433   0.974   2.518   2.230  0.0649 -0.2247  0.3226
 2834TIP3   OH2 8434   5.655   0.499   4.041 -0.3410  0.5395  0.0261
 2834TIP3    H1 8435   5.710   0.531   3.969 -0.2126  0.6974  0.1915
 2834TIP3    H2 8436   5.666   0.404   4.039  1.5572  0.7025  1.3342
 2835TIP3   OH2 8437   3.823   2.104   1.893  0.8309 -0.6712  0.8483
 2835TIP3    H1 8438   3.861   2.085   1.979  0.4182  1.9866  1.6888
 2835TIP3    H2 8439   3.828   2.022   1.845  2.9674 -1.6869  2.7129
 2836TIP3   OH2 8440   4.095   0.876   3.247 -0.0052 -0.1417 -0.1307
 2836TIP3    H1 8441   4.175   0.846   3.204 -0.5243 -1.1096 -0.4134
 2836TIP3    H2 8442   4.053   0.932   3.182  0.5450  0.5520  0.0990
 2837TIP3   OH2 8443   4.676   0.545   1.673  0.2419  0.3739  0.1247
 2837TIP3    H1 8444   4.612   0.488   1.629  0.2303  0.4262  0.0732
 2837TIP3    H2 8445   4.624   0.621   1.700  0.1442  0.1053  0.6912
 2838TIP3   OH2 8446   5.999   0.390   2.922 -0.5376 -0.1098  0.2150
 2838TIP3    H1 8447   5.968   0.348   3.002 -0.4444 -0.8165 -0.1171
 2838TIP3    H2 8448   5.990   0.322   2.855 -1.1535  0.6592 -0.4888
 2839TIP3   OH2 8449   5.883   1.920   1.548 -0.1289  0.3328 -0.0932
 2839TIP3    H1 8450   5.811   1.963   1.501 -1.5918 -0.9379  0.9181
 2839TIP3    H2 8451   5.945   1.990   1.565 -0.2779  1.1308 -2.5340
 2840TIP3   OH2 8452   3.400   0.726   1.505 -0.3263  0.1418 -0.6558
 2840TIP3    H1 8453   3.427   0.671   1.431  0.4537  0.7705 -0.8423
 2840TIP3    H2 8454   3.472   0.787   1.517  0.4528 -1.2015  1.8957
 2841TIP3   OH2 8455   5.316   4.010   1.746 -0.3799  0.0201  0.5570
 2841TIP3    H1 8456   5.295   4.095   1.708 -1.1412  0.3470  1.6586
 2841TIP3    H2 8457   5.238   3.957   1.731  0.7120 -1.0273 -1.5895
 2842TIP3   OH2 8458   2.052   3.963   3.819 -0.0821 -0.1809  0.2345
 2842TIP3    H1 8459   2.028   3.981   3.910  0.2465 -0.7365  0.4349
 2842TIP3    H2 8460   2.036   3.869   3.808  0.0866 -0.1595 -0.2159
 2843TIP3   OH2 8461   5.188   1.268   2.998  0.3645  0.1368  0.9163
 2843TIP3    H1 8462   5.273   1.258   2.955 -1.1990  0.0588 -2.3142
 2843TIP3    H2 8463   5.195   1.351   3.046  2.0517  0.4728  0.1181
 2844TIP3   OH2 8464   5.098   2.256   2.795  0.5749 -0.3779 -0.7782
 2844TIP3    H1 8465   5.065   2.191   2.856  1.9332  0.1319  0.5414
 2844TIP3    H2 8466   5.023   2.312   2.775  0.1092 -0.5813  0.4069
 2845TIP3   OH2 8467   3.125   3.463   2.775 -0.1691 -0.3819  0.1823
 2845TIP3    H1 8468   3.190   3.444   2.843  1.0982 -1.9672 -1.4024
 2845TIP3    H2 8469   3.101   3.376   2.741 -0.0328  0.4116 -2.0347
 2846TIP3   OH2 8470   4.696   1.389   4.131 -0.3256 -0.3763  0.2837
 2846TIP3    H1 8471   4.715   1.425   4.217 -1.9949 -0.7039  0.7942
 2846TIP3    H2 8472   4.755   1.436   4.072  0.7923 -0.1197  1.5816
 2847TIP3   OH2 8473   4.815   1.774   4.381  0.1757 -0.2234 -0.4084
 2847TIP3    H1 8474   4.777   1.687   4.370 -0.3753 -0.0275 -0.0882
 2847TIP3    H2 8475   4.864   1.770   4.462  0.4955 -0.3572 -0.6093
 2848TIP3   OH2 8476   3.797   3.054   3.658 -0.3841 -0.2739 -0.4068
 2848TIP3    H1 8477   3.793   3.133   3.603 -0.7948  0.7512  1.0627
 2848TIP3    H2 8478   3.886   3.021   3.647 -0.5492 -0.2374 -1.9017
 2849TIP3   OH2 8479   4.187   2.657   2.926  0.1986 -1.4992  0.0785
 2849TIP3    H1 8480   4.202   2.727   2.990  0.8559 -1.6354  0.0804
 2849TIP3    H2 8481   4.203   2.576   2.975 -0.8819 -1.6714  0.1651
 2850TIP3   OH2 8482   2.820   1.832   1.818  0.1403 -0.2619  0.1380
 2850TIP3    H1 8483   2.890   1.777   1.854  0.7162  0.1985 -0.2786
 2850TIP3    H2 8484   2.797   1.791   1.735  0.9350  0.4053 -0.4285
 2851TIP3   OH2 8485   3.858   3.459   1.643 -0.4367  0.9068 -0.1495
 2851TIP3    H1 8486   3.841   3.365   1.635  0.1784  0.6093  1.8784
 2851TIP3    H2 8487   3.807   3.498   1.572 -0.4473 -0.9762 -1.2233
 2852TIP3   OH2 8488   3.186   1.888   4.492  0.7164 -0.1020 -0.0876
 2852TIP3    H1 8489   3.279   1.868   4.491  1.2323  2.1792  0.2336
 2852TIP3    H2 8490   3.163   1.903   4.400  0.7722 -0.1739 -0.1133
 2853TIP3   OH2 8491   1.192   1.712   3.044 -0.0489 -0.0185 -0.1855
 2853TIP3    H1 8492   1.136   1.752   3.110  0.5275  1.6704 -0.7150
 2853TIP3    H2 8493   1.252   1.781   3.017  2.4286 -1.8570  0.4960
 2854TIP3   OH2 8494   5.507   1.774   2.782 -0.1397  0.0551  0.3199
 2854TIP3    H1 8495   5.491   1.843   2.717  0.4559 -0.5494 -0.4633
 2854TIP3    H2 8496   5.549   1.820   2.855 -0.7785  0.7310  0.2739
 2855TIP3   OH2 8497   6.150   2.265   2.919 -0.0148 -0.0490 -0.0272
 2855TIP3    H1 8498   6.061   2.280   2.950  0.2082 -0.1587  0.6551
 2855TIP3    H2 8499   6.166   2.172   2.934  0.5027  0.1365  0.5885
 2856TIP3   OH2 8500   4.392   2.192   1.134 -0.2176  0.6643 -0.4438
 2856TIP3    H1 8501   4.399   2.205   1.228  0.4998 -0.1463 -0.3802
 2856TIP3    H2 8502   4.386   2.280   1.098 -1.0718  0.9548  0.4044
 2857TIP3   OH2 8503   2.171   1.785   3.963  0.0639 -0.0538  0.2646
 2857TIP3    H1 8504   2.153   1.874   3.995 -0.1354  0.8676 -2.2973
 2857TIP3    H2 8505   2.263   1.788   3.937 -0.1891 -0.3203 -0.6679
 2858TIP3   OH2 8506   4.199   1.715   1.086 -0.7432 -0.3278 -0.1822
 2858TIP3    H1 8507   4.252   1.662   1.146 -1.5728 -0.8508  0.0890
 2858TIP3    H2 8508   4.256   1.788   1.062  1.0640 -2.2086 -1.8968
 2859TIP3   OH2 8509   2.276   7.468   1.940  0.1528 -0.4231  0.0036
 2859TIP3    H1 8510   2.258   7.540   1.880  1.3615  1.0419  1.3619
 2859TIP3    H2 8511   2.252   7.502   2.026 -1.6461 -2.5294  0.3819
 2860TIP3   OH2 8512   4.285   0.651   2.391  0.1251 -0.1111 -0.2279
 2860TIP3    H1 8513   4.378   0.649   2.368  0.3515 -1.7937  0.7427
 2860TIP3    H2 8514   4.249   0.571   2.353 -0.6420 -0.1493  0.5513
 2861TIP3   OH2 8515   2.098   7.978   4.340  0.1016  0.3302  0.0822
 2861TIP3    H1 8516   2.123   8.024   4.420  0.5505 -1.3695  0.9191
 2861TIP3    H2 8517   2.112   7.886   4.359 -0.7774 -0.1724 -1.6073
 2862TIP3   OH2 8518   2.249   3.507   2.186 -0.3760 -0.6293 -0.4790
 2862TIP3    H1 8519   2.209   3.551   2.261 -1.7575 -1.1139 -0.9171
 2862TIP3    H2 8520   2.291   3.429   2.222 -1.2259 -0.9738 -0.2318
 2863TIP3   OH2 8521   3.228   1.031   1.752  0.2734 -0.8083 -0.4728
 2863TIP3    H1 8522   3.218   0.937   1.738  1.3403 -1.0612  0.3227
 2863TIP3    H2 8523   3.274   1.062   1.674 -1.6682 -0.6144 -1.5650
 2864TIP3   OH2 8524   4.207   1.529   2.160 -0.3725  0.4993 -0.1536
 2864TIP3    H1 8525   4.212   1.433   2.164 -0.7544  0.3891 -1.9326
 2864TIP3    H2 8526   4.259   1.552   2.083  0.2308  1.7770  0.6289
 2865TIP3   OH2 8527   3.086   3.861   2.129 -0.0655  0.7344  0.2894
 2865TIP3    H1 8528   3.091   3.811   2.211 -2.4696  0.3189  0.2128
 2865TIP3    H2 8529   3.153   3.929   2.139  0.8206 -0.3249  1.8880
 2866TIP3   OH2 8530   4.981   3.079   2.049  0.6616  0.5101 -0.0595
 2866TIP3    H1 8531   4.972   3.089   1.954  1.3678  1.1590 -0.0680
 2866TIP3    H2 8532   5.062   3.126   2.070  0.4867  0.4053  0.8676
 2867TIP3   OH2 8533   3.382   2.541   3.246  0.9005  0.0367  0.2291
 2867TIP3    H1 8534   3.391   2.635   3.230  1.9194 -0.2552 -0.9929
 2867TIP3    H2 8535   3.315   2.535   3.314  1.3975  1.6829  0.8922
 2868TIP3   OH2 8536   4.818   2.312   0.970  0.1581 -0.3512 -0.2454
 2868TIP3    H1 8537   4.902   2.355   0.949  1.8733 -2.3900  2.1412
 2868TIP3    H2 8538   4.813   2.239   0.909  1.2124 -1.5092  1.0252
 2869TIP3   OH2 8539   0.962   2.196   2.096  0.6082  0.1298  0.2124
 2869TIP3    H1 8540   0.912   2.277   2.094  0.3749 -0.0027  0.7521
 2869TIP3    H2 8541   0.925   2.146   2.168 -0.1781 -1.0550 -0.9789
 2870TIP3   OH2 8542   5.858   2.651   2.757 -0.2241  0.6291  0.2441
 2870TIP3    H1 8543   5.885   2.608   2.676 -2.0177 -0.3059  0.1221
 2870TIP3    H2 8544   5.838   2.741   2.731  1.0805  0.8755  0.0357
 2871TIP3   OH2 8545   5.532   2.748   2.695  0.2372  0.5210 -0.0264
 2871TIP3    H1 8546   5.568   2.834   2.674 -1.9983  1.6620  0.6400
 2871TIP3    H2 8547   5.510   2.753   2.788  1.9775 -1.4854  0.5173
 2872TIP3   OH2 8548   7.264   2.213   1.983 -0.2574 -0.3343 -0.1960
 2872TIP3    H1 8549   7.216   2.241   2.061  0.9933  1.1817  0.0388
 2872TIP3    H2 8550   7.266   2.117   1.989 -1.5803 -0.3062  0.7810
 2873TIP3   OH2 8551   6.018   0.482   2.028  0.3243 -0.7043 -0.0508
 2873TIP3    H1 8552   6.019   0.539   2.104  0.2232  0.3297 -0.8114
 2873TIP3    H2 8553   5.961   0.409   2.053 -2.2327  1.1809 -0.2292
 2874TIP3   OH2 8554   5.439   2.178   0.610  0.1181  0.3596 -0.3186
 2874TIP3    H1 8555   5.414   2.127   0.687 -0.5294 -0.3788 -1.0088
 2874TIP3    H2 8556   5.366   2.238   0.595  0.9542  1.6299  0.5947
 2875TIP3   OH2 8557   5.762   2.727   0.702  0.0423  0.3654 -0.6665
 2875TIP3    H1 8558   5.676   2.698   0.671 -0.4366  1.8266 -0.7536
 2875TIP3    H2 8559   5.761   2.710   0.796  0.5275 -1.7244 -1.0257
 2876TIP3   OH2 8560   7.486   3.253   3.271 -0.5653 -0.4736 -0.2217
 2876TIP3    H1 8561   7.565   3.250   3.325 -0.7518 -1.7782 -0.0084
 2876TIP3    H2 8562   7.417   3.216   3.327 -1.0591 -0.5019 -0.8431
 2877TIP3   OH2 8563   5.487   2.153   1.821  0.2768  0.2244  0.4523
 2877TIP3    H1 8564   5.530   2.077   1.782 -0.4082  1.2148 -2.3252
 2877TIP3    H2 8565   5.542   2.227   1.796 -1.0172  1.0586  0.0223
 2878TIP3   OH2 8566   7.786   3.960   2.519  0.3313  0.0086  0.4922
 2878TIP3    H1 8567   7.823   4.048   2.525  1.1014 -0.1676 -1.4255
 2878TIP3    H2 8568   7.847   3.905   2.568  0.8679  0.2460  0.0990
 2879TIP3   OH2 8569   7.067   2.932   3.916  0.4338 -0.4117  0.5248
 2879TIP3    H1 8570   6.975   2.909   3.924  0.4184 -1.9684 -2.9608
 2879TIP3    H2 8571   7.068   3.028   3.914 -1.1545 -0.3878  0.1409
 2880TIP3   OH2 8572   2.862   0.678  -0.023  0.3488 -0.0802 -0.0280
 2880TIP3    H1 8573   2.787   0.686   0.035 -0.4452  2.3554 -1.3068
 2880TIP3    H2 8574   2.936   0.711   0.029  0.0689 -0.0766  0.3695
 2881TIP3   OH2 8575   4.395   2.469   1.183 -0.4907  0.4380  0.4938
 2881TIP3    H1 8576   4.453   2.429   1.247  3.9438  3.4188 -1.3506
 2881TIP3    H2 8577   4.380   2.558   1.217 -1.0057  0.8595 -0.8035
 2882TIP3   OH2 8578   2.464   2.162   2.295 -0.3977 -0.6266 -0.0485
 2882TIP3    H1 8579   2.383   2.190   2.251 -0.7317 -1.7310 -0.1479
 2882TIP3    H2 8580   2.505   2.244   2.323 -2.3902 -0.1045  1.5100
 2883TIP3   OH2 8581   8.244   4.721   2.058  0.5597 -0.2883 -0.1430
 2883TIP3    H1 8582   8.235   4.815   2.078  0.2786 -0.2706 -0.3506
 2883TIP3    H2 8583   8.201   4.710   1.974  0.9327 -0.5385 -0.3020
 2884TIP3   OH2 8584   6.959   2.550   4.230 -0.0873 -0.0768 -0.5440
 2884TIP3    H1 8585   6.897   2.622   4.224  0.2466  0.3998  1.3719
 2884TIP3    H2 8586   6.959   2.511   4.142 -1.2327  1.4309 -1.2415
 2885TIP3   OH2 8587   5.036   4.151   1.709 -0.9999  0.0165 -0.1509
 2885TIP3    H1 8588   5.043   4.229   1.653 -2.0833 -0.8276 -1.5197
 2885TIP3    H2 8589   5.009   4.185   1.794 -0.3050  1.2428 -0.4045
 2886TIP3   OH2 8590   6.999   1.429   5.178 -0.1677  0.4426  0.3402
 2886TIP3    H1 8591   6.927   1.492   5.175 -0.6468 -0.0124  1.9984
 2886TIP3    H2 8592   6.959   1.347   5.206  0.8770  0.0256  0.6315
 2887TIP3   OH2 8593   4.439   4.411   2.504  0.0981 -1.2371 -0.2190
 2887TIP3    H1 8594   4.499   4.403   2.430  0.1623 -2.7450 -0.0303
 2887TIP3    H2 8595   4.354   4.428   2.464  0.7145  1.5056 -0.4656
 2888TIP3   OH2 8596   5.583   1.333   1.595 -0.1837  0.1667 -0.2588
 2888TIP3    H1 8597   5.617   1.383   1.669  1.1297 -0.6196 -0.3024
 2888TIP3    H2 8598   5.647   1.346   1.525 -2.2134  2.1747 -1.8063
 2889TIP3   OH2 8599   5.602   2.517   1.297  0.3855  0.1519  0.1420
 2889TIP3    H1 8600   5.692   2.490   1.275  1.4728  3.2356  0.5414
 2889TIP3    H2 8601   5.583   2.588   1.235 -1.9013 -0.6299 -0.0892
 2890TIP3   OH2 8602   5.758   3.257   1.449  0.0411 -0.0335 -0.4847
 2890TIP3    H1 8603   5.693   3.319   1.483  0.0381 -0.9593  1.2518
 2890TIP3    H2 8604   5.797   3.302   1.374 -2.5784  0.5520 -1.5455
 2891TIP3   OH2 8605   4.627   0.916   1.932  0.3675  0.4677 -0.3378
 2891TIP3    H1 8606   4.694   0.962   1.982  1.8402 -0.0324 -1.7886
 2891TIP3    H2 8607   4.549   0.917   1.988  1.2617  2.0339  0.9016
 2892TIP3   OH2 8608   7.415   3.755   2.353  0.0610  0.5803  0.7377
 2892TIP3    H1 8609   7.328   3.733   2.318  0.7294 -0.1252 -0.4925
 2892TIP3    H2 8610   7.457   3.670   2.366  0.6446  0.9349  1.1623
 2893TIP3   OH2 8611   5.739   2.429   2.115 -0.2391 -0.8732 -0.3070
 2893TIP3    H1 8612   5.829   2.440   2.085 -0.2457 -0.4332 -0.1722
 2893TIP3    H2 8613   5.741   2.350   2.169  0.2730 -0.3154  0.5031
 2894TIP3   OH2 8614   8.294   1.927   3.533 -0.0458 -0.1560  0.3365
 2894TIP3    H1 8615   8.334   2.005   3.495 -1.9740  1.2347  1.0994
 2894TIP3    H2 8616   8.309   1.935   3.627  2.7848 -2.4918  0.1678
 2895TIP3   OH2 8617   8.072   2.686   2.754 -0.2220 -0.4445 -0.2026
 2895TIP3    H1 8618   8.067   2.607   2.808  0.1400 -1.3344 -1.4588
 2895TIP3    H2 8619   7.994   2.683   2.699  0.0509 -0.1836 -0.6053
 2896TIP3   OH2 8620   6.150   2.095   3.455 -0.1664  0.5510  0.3075
 2896TIP3    H1 8621   6.174   2.006   3.480 -1.4900 -0.1062 -0.7079
 2896TIP3    H2 8622   6.059   2.104   3.483 -0.2953  1.2987 -0.3288
 2897TIP3   OH2 8623   5.252   1.117   1.215 -0.4163  0.3580  0.2089
 2897TIP3    H1 8624   5.348   1.119   1.224 -0.2940 -0.4433 -0.7479
 2897TIP3    H2 8625   5.234   1.031   1.176 -1.4398  0.8944 -0.5224
 2898TIP3   OH2 8626   6.108   3.569   0.606 -1.2694  0.3168 -0.2935
 2898TIP3    H1 8627   6.165   3.587   0.531 -1.1262 -0.7954 -0.4588
 2898TIP3    H2 8628   6.039   3.513   0.571 -0.3809 -1.4535  0.7082
 2899TIP3   OH2 8629   6.471   1.897   1.370  0.4889  0.4625  0.5406
 2899TIP3    H1 8630   6.492   1.806   1.347  0.6632  0.4838  0.6187
 2899TIP3    H2 8631   6.375   1.898   1.375  0.5131  0.1409  1.1197
 2900TIP3   OH2 8632   5.544   0.416   0.330  0.0378 -0.1741 -0.4252
 2900TIP3    H1 8633   5.502   0.337   0.294  1.3221 -1.2654  0.4412
 2900TIP3    H2 8634   5.564   0.393   0.421 -0.9984  1.7241  0.3022
 2901TIP3   OH2 8635   5.200   3.504   2.094 -0.2884 -0.3423  0.0339
 2901TIP3    H1 8636   5.217   3.545   2.179  0.0289  0.7861 -0.5644
 2901TIP3    H2 8637   5.246   3.559   2.031 -1.6457 -0.3923 -1.0183
 2902TIP3   OH2 8638   5.559   5.133   1.290 -0.1023 -0.0869 -0.2116
 2902TIP3    H1 8639   5.517   5.069   1.232 -0.1132 -2.3869  2.2170
 2902TIP3    H2 8640   5.652   5.124   1.270 -0.1305 -0.6247 -0.1112
 2903TIP3   OH2 8641   6.064   3.786   1.679 -0.0843  0.0331 -0.4849
 2903TIP3    H1 8642   6.051   3.871   1.720 -0.8556 -0.0242 -0.5912
 2903TIP3    H2 8643   6.151   3.758   1.707 -0.4274  0.1814  0.7714
 2904TIP3   OH2 8644   5.571   1.319   3.151 -0.3015 -0.4349  0.5742
 2904TIP3    H1 8645   5.577   1.345   3.059 -0.3425  0.0292  0.7009
 2904TIP3    H2 8646   5.531   1.394   3.194  0.2501 -0.4173  1.0683
 2905TIP3   OH2 8647   7.700   1.200   1.704  0.0583 -0.2520 -0.6523
 2905TIP3    H1 8648   7.772   1.253   1.740  1.4415 -1.8743 -0.9690
 2905TIP3    H2 8649   7.626   1.260   1.701  1.1975  1.2613  0.3829
 2906TIP3   OH2 8650   7.114   2.209   1.086  0.0907  0.2188 -0.5155
 2906TIP3    H1 8651   7.199   2.220   1.043  0.8514  2.1994  1.3780
 2906TIP3    H2 8652   7.132   2.155   1.163 -0.4349  0.3343 -0.3078
 2907TIP3   OH2 8653   8.004   5.739   6.802  0.2467 -0.3445  1.0241
 2907TIP3    H1 8654   7.979   5.647   6.794 -0.8033 -0.1288  1.6667
 2907TIP3    H2 8655   8.099   5.739   6.796  0.1160 -1.1716 -1.7047
 2908TIP3   OH2 8656   7.975   0.851   1.773  0.2279 -0.4167 -0.5201
 2908TIP3    H1 8657   8.015   0.801   1.844  2.8168  1.6907 -0.4086
 2908TIP3    H2 8658   7.927   0.921   1.816  0.7505  0.1126 -0.7877
 2909TIP3   OH2 8659   6.809   2.401   0.901  0.1335 -0.4786  0.1617
 2909TIP3    H1 8660   6.882   2.370   0.955  0.9163  1.4448  0.2606
 2909TIP3    H2 8661   6.824   2.361   0.815  1.8128  0.5319 -0.0625
 2910TIP3   OH2 8662   8.049   2.341   2.623 -0.2561 -0.4105 -0.4056
 2910TIP3    H1 8663   7.968   2.322   2.669 -0.4349 -0.9557 -0.9334
 2910TIP3    H2 8664   8.103   2.262   2.637  0.4373  0.2088  0.4867
 2911TIP3   OH2 8665   5.758   0.964   4.492 -0.0562  0.1590 -0.1141
 2911TIP3    H1 8666   5.775   1.009   4.575 -0.6923  0.2560 -0.0305
 2911TIP3    H2 8667   5.678   1.004   4.459  0.0122 -0.1099 -0.6141
 2912TIP3   OH2 8668   5.184   2.777   1.324  0.0674  0.5764 -0.3536
 2912TIP3    H1 8669   5.102   2.828   1.325  0.1896  0.7658  0.3875
 2912TIP3    H2 8670   5.164   2.701   1.270  0.0122  1.6197 -1.8154
 2913TIP3   OH2 8671   3.728   0.709   2.072 -0.1267  0.0732  0.1938
 2913TIP3    H1 8672   3.790   0.751   2.012  0.0290 -1.0332 -0.4400
 2913TIP3    H2 8673   3.717   0.772   2.143  1.2365  0.5551 -0.0027
 2914TIP3   OH2 8674   6.221   2.207   2.351  0.2381 -0.0721  0.4117
 2914TIP3    H1 8675   6.262   2.279   2.303  0.8258 -0.7373 -0.1066
 2914TIP3    H2 8676   6.271   2.201   2.432  0.4971 -0.2075  0.2419
 2915TIP3   OH2 8677   4.711   3.248   3.292  0.3823 -0.3941 -0.4048
 2915TIP3    H1 8678   4.731   3.310   3.362 -2.1944  1.2386 -1.0492
 2915TIP3    H2 8679   4.752   3.286   3.214  0.8952 -0.7769 -0.3218
 2916TIP3   OH2 8680   7.766   3.527   1.068 -0.0047  0.1295 -0.3570
 2916TIP3    H1 8681   7.725   3.565   1.145  1.0685 -1.3221  0.9538
 2916TIP3    H2 8682   7.765   3.432   1.085  1.2168 -0.1288 -1.6289
 2917TIP3   OH2 8683   3.265   1.808   2.582 -0.0656  0.2879  0.2186
 2917TIP3    H1 8684   3.355   1.825   2.612  0.1702 -1.1803  0.4063
 2917TIP3    H2 8685   3.240   1.887   2.535  0.5278  1.6089  2.0670
 2918TIP3   OH2 8686   4.637   3.093   2.485 -0.1967  0.1763  0.4926
 2918TIP3    H1 8687   4.559   3.071   2.536 -1.5177  0.7253 -1.2309
 2918TIP3    H2 8688   4.673   3.171   2.528 -1.4629  0.8150  0.4277
 2919TIP3   OH2 8689   6.941   1.260   2.297  0.1927 -0.2596  0.6010
 2919TIP3    H1 8690   6.979   1.261   2.384  1.5361 -0.1850  0.0293
 2919TIP3    H2 8691   7.016   1.259   2.238 -0.6512  2.6685 -0.5982
 2920TIP3   OH2 8692   6.088   3.530   3.663 -0.4555  0.0503  0.2559
 2920TIP3    H1 8693   6.099   3.625   3.657 -0.3180  0.1337  1.6974
 2920TIP3    H2 8694   6.013   3.510   3.607 -1.4138  1.1940  1.1226
 2921TIP3   OH2 8695   7.454   3.265   1.501 -0.0572  0.1556 -0.0853
 2921TIP3    H1 8696   7.410   3.348   1.479 -0.5417 -0.1821 -0.4144
 2921TIP3    H2 8697   7.410   3.236   1.581 -1.3249 -0.8141 -1.1007
 2922TIP3   OH2 8698   5.100   4.414   1.163  0.2189  0.1322 -0.7671
 2922TIP3    H1 8699   5.031   4.387   1.103  0.1102 -0.2196 -0.4860
 2922TIP3    H2 8700   5.176   4.430   1.107  0.4537 -1.3187 -0.8850
 2923TIP3   OH2 8701   6.378   4.964   1.973 -0.0957  0.1618  0.7515
 2923TIP3    H1 8702   6.310   4.947   1.908  0.5213  0.2918  0.0684
 2923TIP3    H2 8703   6.442   5.019   1.927  0.5428 -0.0803  1.3420
 2924TIP3   OH2 8704   5.643   4.082   1.055 -0.7483 -0.2560 -0.3323
 2924TIP3    H1 8705   5.732   4.064   1.026 -0.2108  2.7538 -0.6457
 2924TIP3    H2 8706   5.591   4.079   0.975 -0.3361  1.5189 -0.6746
 2925TIP3   OH2 8707   0.547   1.445   4.192 -0.0866 -0.2976 -0.3474
 2925TIP3    H1 8708   0.577   1.485   4.111  1.8419  0.1608  0.5540
 2925TIP3    H2 8709   0.507   1.362   4.165 -1.9310  1.0834 -1.9960
 2926TIP3   OH2 8710   6.900   2.619   1.697  0.2013  0.0968  0.3117
 2926TIP3    H1 8711   6.983   2.571   1.700  0.6192  0.7941  0.1153
 2926TIP3    H2 8712   6.877   2.620   1.604 -0.0858 -0.1886  0.3783
 2927TIP3   OH2 8713   6.526   1.332   1.668  0.4182  0.6568  0.9871
 2927TIP3    H1 8714   6.530   1.340   1.573 -0.4738 -0.3007  0.8629
 2927TIP3    H2 8715   6.449   1.382   1.694 -0.0376 -0.0773  1.0777
 2928TIP3   OH2 8716   7.876   2.237   1.353  0.3567 -0.0977 -0.0721
 2928TIP3    H1 8717   7.863   2.176   1.281  0.8818 -0.0255 -0.2254
 2928TIP3    H2 8718   7.787   2.266   1.375  0.1103 -0.8292 -0.0664
 2929TIP3   OH2 8719   6.659   1.603   1.978 -0.1230 -0.0215  0.4167
 2929TIP3    H1 8720   6.602   1.543   2.027 -0.3489  0.1671  0.3856
 2929TIP3    H2 8721   6.618   1.689   1.988  1.7034  0.6270  2.8196
 2930TIP3   OH2 8722   4.353   2.881   2.131 -0.1734  0.5694  0.0523
 2930TIP3    H1 8723   4.423   2.818   2.111 -0.7586 -0.1619  0.2869
 2930TIP3    H2 8724   4.285   2.828   2.173  0.0213  1.6560  1.7724
 2931TIP3   OH2 8725   2.153   7.512   6.071  0.0657 -0.1082  0.3912
 2931TIP3    H1 8726   2.138   7.604   6.091  1.8363  0.3974 -0.4926
 2931TIP3    H2 8727   2.073   7.484   6.026  0.0547  1.3568 -0.5449
 2932TIP3   OH2 8728   6.533   3.798  -0.029  0.0918 -0.6267 -0.2646
 2932TIP3    H1 8729   6.526   3.838   0.058  0.8281  0.0479 -0.5165
 2932TIP3    H2 8730   6.478   3.719  -0.023 -0.4047 -0.2260  0.5999
 2933TIP3   OH2 8731   5.221   3.304   1.599  0.2930 -0.3239 -0.6474
 2933TIP3    H1 8732   5.136   3.339   1.571  0.1796  0.6357  0.8465
 2933TIP3    H2 8733   5.230   3.222   1.551 -2.1077 -1.1167  0.1914
 2934TIP3   OH2 8734   4.724   1.790   1.747 -0.0613  0.2436 -0.8256
 2934TIP3    H1 8735   4.763   1.861   1.696 -1.3612  1.2213 -0.5026
 2934TIP3    H2 8736   4.754   1.806   1.837 -1.7592  1.4632 -0.4321
 2935TIP3   OH2 8737   5.273   1.898   0.428  0.2557  0.2789 -0.0595
 2935TIP3    H1 8738   5.239   1.866   0.345  0.3125 -0.3415  0.1569
 2935TIP3    H2 8739   5.353   1.944   0.405  0.7631 -0.6920 -0.2411
 2936TIP3   OH2 8740   5.950   2.707   1.480  0.2080 -0.2989  0.3275
 2936TIP3    H1 8741   5.883   2.741   1.539 -1.2796 -1.0700 -0.8779
 2936TIP3    H2 8742   6.026   2.692   1.536  0.2431  3.0035  1.2598
 2937TIP3   OH2 8743   7.147   4.144   5.388 -0.5654  0.4948 -0.4610
 2937TIP3    H1 8744   7.179   4.140   5.298  0.5646 -1.1839 -0.0273
 2937TIP3    H2 8745   7.204   4.207   5.432  0.2160 -0.2068 -0.4456
 2938TIP3   OH2 8746   3.837   2.827   2.309  0.0405 -0.1764 -0.3232
 2938TIP3    H1 8747   3.797   2.902   2.265 -3.0884 -1.3512  0.3565
 2938TIP3    H2 8748   3.785   2.752   2.280  0.8711 -1.5976  1.7201
 2939TIP3   OH2 8749   6.647   1.015   3.319  0.2141  0.0008 -0.0276
 2939TIP3    H1 8750   6.569   0.981   3.362  0.7735 -0.7695  0.4019
 2939TIP3    H2 8751   6.671   1.092   3.370 -1.6017  1.6216 -1.5779
 2940TIP3   OH2 8752   5.664   0.770   1.499  0.7886  0.3599 -0.1947
 2940TIP3    H1 8753   5.582   0.738   1.534  2.1724 -1.3499  1.5850
 2940TIP3    H2 8754   5.684   0.847   1.552  1.2144 -0.2844  0.6012
 2941TIP3   OH2 8755   3.372   7.658   3.498  0.3578 -0.1516 -0.1432
 2941TIP3    H1 8756   3.400   7.567   3.507  0.8161 -0.2584 -2.3891
 2941TIP3    H2 8757   3.454   7.708   3.493  0.1167  0.2468 -0.1989
 2942TIP3   OH2 8758   5.104   0.890   1.289 -0.0791  0.0123 -0.5075
 2942TIP3    H1 8759   5.024   0.843   1.311 -1.7797  0.9766 -4.2127
 2942TIP3    H2 8760   5.149   0.833   1.225  0.1523  1.2677 -1.4886
 2943TIP3   OH2 8761   5.662   2.334   1.733  0.2662 -0.3883 -0.3916
 2943TIP3    H1 8762   5.628   2.398   1.671 -0.0970 -1.5245 -1.3793
 2943TIP3    H2 8763   5.755   2.357   1.742 -0.1626  1.0992  0.3045
 2944TIP3   OH2 8764   3.082   7.521   1.892 -0.3092  0.4795 -0.5684
 2944TIP3    H1 8765   3.031   7.476   1.824 -3.0872  1.1379  0.9861
 2944TIP3    H2 8766   3.029   7.598   1.913  1.6110  1.4481  0.7991
 2945TIP3   OH2 8767   6.117   2.397   1.347 -0.3820  0.4285 -0.1758
 2945TIP3    H1 8768   6.098   2.454   1.272  1.0718 -0.1092 -0.9724
 2945TIP3    H2 8769   6.176   2.448   1.402  1.1650 -0.4035 -1.0409
 2946TIP3   OH2 8770   5.794   3.668   1.631 -0.3219  0.4486  0.0229
 2946TIP3    H1 8771   5.887   3.675   1.651  0.3198 -2.9244 -1.3609
 2946TIP3    H2 8772   5.781   3.727   1.557  0.7513  0.8279  0.1251
 2947TIP3   OH2 8773   8.368   1.422   2.231  0.1736  0.5020 -0.1812
 2947TIP3    H1 8774   8.313   1.500   2.227  1.0231  1.0026 -2.6458
 2947TIP3    H2 8775   8.398   1.419   2.322 -1.7862  1.6662  0.5544
 2948TIP3   OH2 8776   4.466   3.086   0.841  0.2755  0.1180 -0.6279
 2948TIP3    H1 8777   4.400   3.145   0.802  0.4438  2.1998  2.1195
 2948TIP3    H2 8778   4.414   3.018   0.885 -0.0035  0.5968 -0.2115
 2949TIP3   OH2 8779   5.144   1.896   1.696 -0.0636  0.1427 -0.1334
 2949TIP3    H1 8780   5.129   1.867   1.606 -0.0534  0.1955 -0.1523
 2949TIP3    H2 8781   5.225   1.854   1.722 -0.2600 -0.1701 -0.0196
 2950TIP3   OH2 8782   7.881   1.356   2.433 -0.2961  0.2393 -0.2836
 2950TIP3    H1 8783   7.903   1.404   2.513  0.8865  0.8847 -0.9749
 2950TIP3    H2 8784   7.789   1.377   2.416  0.2857  2.5662 -0.7544
 2951TIP3   OH2 8785   7.266   2.993   0.609  0.2840  0.7423  0.2338
 2951TIP3    H1 8786   7.268   3.014   0.516 -0.2525  1.0306  0.2803
 2951TIP3    H2 8787   7.303   3.071   0.652 -0.8979  1.2549  0.3523
 2952TIP3   OH2 8788   8.253   4.061   1.864 -0.0831 -0.1643 -0.0391
 2952TIP3    H1 8789   8.223   4.121   1.795  0.8353 -0.3851 -0.6331
 2952TIP3    H2 8790   8.231   3.974   1.831  1.0870 -0.3203 -0.4166
 2953TIP3   OH2 8791   0.944   4.158   2.330 -0.1857 -0.4585 -0.3350
 2953TIP3    H1 8792   0.976   4.244   2.358  0.9746 -0.8480 -0.4150
 2953TIP3    H2 8793   0.926   4.112   2.411 -1.3650  0.0538 -0.2970
 2954TIP3   OH2 8794   4.516   2.597   2.418  0.0179 -0.3091  0.0289
 2954TIP3    H1 8795   4.562   2.597   2.502  2.0464 -3.2488 -0.9606
 2954TIP3    H2 8796   4.498   2.505   2.400 -1.3884  0.3465 -2.2414
 2955TIP3   OH2 8797   5.558   3.041   3.042  0.3404 -0.3801  0.1217
 2955TIP3    H1 8798   5.503   3.109   3.003  1.0624 -0.7081 -1.5004
 2955TIP3    H2 8799   5.549   2.966   2.983  2.0466 -0.6337  0.1585
 2956TIP3   OH2 8800   1.026   6.199   6.340  0.0520  0.3013  0.7483
 2956TIP3    H1 8801   0.975   6.269   6.381  0.6424  1.3540 -0.3000
 2956TIP3    H2 8802   1.112   6.206   6.381  0.7795  1.6486 -0.9737
 2957TIP3   OH2 8803   6.739   2.236   3.678 -0.4318 -0.0641  0.1356
 2957TIP3    H1 8804   6.760   2.330   3.676 -0.0139 -0.1660 -0.4844
 2957TIP3    H2 8805   6.818   2.194   3.646 -0.7384 -0.6101  0.0963
 2958TIP3   OH2 8806   3.063   0.837   2.102 -0.0419 -0.4243  0.1871
 2958TIP3    H1 8807   3.091   0.902   2.037  1.6261  0.3943  1.6796
 2958TIP3    H2 8808   3.084   0.753   2.062  2.3092  0.1070  0.2107
 2959TIP3   OH2 8809   4.882   3.288   2.791  0.2954 -0.2333  0.1329
 2959TIP3    H1 8810   4.909   3.196   2.778  2.2047  0.2784  0.3196
 2959TIP3    H2 8811   4.904   3.306   2.883 -0.3914  0.3178  0.1880
 2960TIP3   OH2 8812   6.218   2.142   0.259  0.4471  0.4154  0.4167
 2960TIP3    H1 8813   6.283   2.093   0.209 -0.4473  0.4064 -0.7712
 2960TIP3    H2 8814   6.235   2.120   0.350  0.8312 -1.1644 -0.0280
 2961TIP3   OH2 8815   6.476   3.784   2.215  0.1020 -0.0588  0.5998
 2961TIP3    H1 8816   6.397   3.801   2.267  0.0380 -0.0339  0.4935
 2961TIP3    H2 8817   6.543   3.766   2.280  0.2331  0.8413  0.7257
 2962TIP3   OH2 8818   7.121   3.851   1.133  0.3823 -0.0051  0.4029
 2962TIP3    H1 8819   7.076   3.801   1.065 -0.6874  0.4838  0.7363
 2962TIP3    H2 8820   7.059   3.853   1.207  0.1636  2.2518  0.2071
 2963TIP3   OH2 8821   6.116   1.451   3.152  0.0049 -0.2579  0.0781
 2963TIP3    H1 8822   6.127   1.432   3.059 -1.7406 -3.0716  0.3960
 2963TIP3    H2 8823   6.065   1.378   3.186  0.7195  0.6521  3.2955
 2964TIP3   OH2 8824   6.532   1.897   1.970  0.2012 -0.3926 -0.1551
 2964TIP3    H1 8825   6.584   1.977   1.958  0.5946 -0.3089  1.7998
 2964TIP3    H2 8826   6.480   1.915   2.049 -1.1377 -1.3470 -0.7975
 2965TIP3   OH2 8827   4.168   4.104   2.392 -0.2133  0.0425 -0.2002
 2965TIP3    H1 8828   4.075   4.100   2.368 -0.7546  1.7960  1.4650
 2965TIP3    H2 8829   4.211   4.140   2.315 -0.8727 -1.0420 -1.0860
 2966TIP3   OH2 8830   4.112   2.808   2.297  0.5326  0.1776  0.1657
 2966TIP3    H1 8831   4.022   2.804   2.328  0.9746  0.5585  1.5097
 2966TIP3    H2 8832   4.117   2.889   2.246 -0.3276 -0.7071 -1.3432
 2967TIP3   OH2 8833   6.569   3.837   0.554 -0.1742  0.0049  0.4055
 2967TIP3    H1 8834   6.553   3.744   0.536 -0.6426  0.4861 -1.9279
 2967TIP3    H2 8835   6.481   3.874   0.564 -0.1189  0.6467 -1.3009
 2968TIP3   OH2 8836   5.059   2.730   0.857 -0.2010 -0.7180  0.0453
 2968TIP3    H1 8837   5.097   2.791   0.920  1.3384 -0.8459 -0.7520
 2968TIP3    H2 8838   4.998   2.677   0.908 -0.7569  0.7653  0.9585
 2969TIP3   OH2 8839   6.920   1.613   1.899 -0.3372 -0.3492 -0.1913
 2969TIP3    H1 8840   6.825   1.625   1.905 -0.3298 -1.5528  3.2923
 2969TIP3    H2 8841   6.953   1.639   1.985  2.1962 -2.5532 -0.4288
 2970TIP3   OH2 8842   5.841   0.820   0.925 -0.4352 -0.6082  0.0085
 2970TIP3    H1 8843   5.906   0.842   0.991 -1.9957 -2.3336  2.1992
 2970TIP3    H2 8844   5.767   0.878   0.943 -0.7807 -0.9224 -0.3777
 2971TIP3   OH2 8845   6.932   0.802   1.665  0.1898 -0.1209  1.5225
 2971TIP3    H1 8846   6.999   0.790   1.597  0.4110 -0.8436  1.8642
 2971TIP3    H2 8847   6.981   0.803   1.747 -0.1716 -0.1916  1.7400
 2972TIP3   OH2 8848   7.232   5.589   0.932 -0.3099  0.2720  0.2287
 2972TIP3    H1 8849   7.174   5.513   0.934 -0.3068  0.2706  0.3035
 2972TIP3    H2 8850   7.174   5.664   0.950 -0.4509  0.3776 -0.6639
 2973TIP3   OH2 8851   4.854   2.997   3.069  0.3879  0.4463  0.4900
 2973TIP3    H1 8852   4.775   2.998   3.125 -0.8682 -1.2372 -1.1812
 2973TIP3    H2 8853   4.902   2.919   3.097 -0.1996 -0.3522 -0.6863
 2974TIP3   OH2 8854   6.173   2.437   2.699 -0.5201 -0.2852  0.1213
 2974TIP3    H1 8855   6.206   2.366   2.645 -1.1483 -0.5381  0.0629
 2974TIP3    H2 8856   6.176   2.404   2.789 -0.9243 -0.4346  0.0821
 2975TIP3   OH2 8857   6.793   2.570   1.451 -0.5803  0.3205 -0.5483
 2975TIP3    H1 8858   6.788   2.529   1.365 -0.4499 -0.1921 -0.3117
 2975TIP3    H2 8859   6.713   2.622   1.458 -0.7597  0.0828 -0.8334
 2976TIP3   OH2 8860   0.365   3.962   6.934 -0.1084  0.3079 -0.3908
 2976TIP3    H1 8861   0.401   3.884   6.891 -1.5444  0.0665 -1.1720
 2976TIP3    H2 8862   0.272   3.961   6.913 -0.2897  1.8268  0.2411
 2977TIP3   OH2 8863   7.461   0.750   0.830 -0.6703  0.0910  0.1137
 2977TIP3    H1 8864   7.431   0.835   0.862 -0.9014  0.0298  0.0639
 2977TIP3    H2 8865   7.405   0.732   0.754 -0.3333  0.0913 -0.1340
 2978TIP3   OH2 8866   7.653   0.950   0.983  0.0144  0.0173  0.3775
 2978TIP3    H1 8867   7.649   0.857   1.004  1.5767 -0.3898 -1.0659
 2978TIP3    H2 8868   7.582   0.963   0.920  0.5313 -0.4504 -0.3104
 2979TIP3   OH2 8869   4.421   0.433   2.049  0.2333 -0.2470 -0.3610
 2979TIP3    H1 8870   4.492   0.386   2.005  0.9555 -0.1809  0.6908
 2979TIP3    H2 8871   4.459   0.457   2.134 -0.7502  0.6055 -0.1630
 2980TIP3   OH2 8872   6.061   0.160   1.820  0.5131  0.4867  0.0935
 2980TIP3    H1 8873   6.095   0.070   1.823 -0.4532  0.1624  2.0662
 2980TIP3    H2 8874   6.139   0.213   1.804  0.8074 -0.8164 -3.2742
 2981TIP3   OH2 8875   6.088   1.585   1.335 -0.1153 -0.3093  0.1663
 2981TIP3    H1 8876   6.048   1.499   1.348 -0.6325  0.1012  1.3817
 2981TIP3    H2 8877   6.032   1.645   1.384  0.2836  0.7164 -0.6102
 2982TIP3   OH2 8878   5.241   2.693   1.680 -0.3047  0.0071  0.3085
 2982TIP3    H1 8879   5.164   2.749   1.670  0.2712  0.5217 -1.5831
 2982TIP3    H2 8880   5.310   2.739   1.631 -0.0820 -2.7923 -2.1517
 2983TIP3   OH2 8881   6.861   0.441   3.948  0.6133  0.3285 -0.1266
 2983TIP3    H1 8882   6.885   0.487   3.868  0.2753 -0.0281 -0.4376
 2983TIP3    H2 8883   6.892   0.351   3.934 -0.6212 -0.0610 -0.4122
 2984TIP3   OH2 8884   5.983   1.532   2.551  0.0648 -0.1125  0.2275
 2984TIP3    H1 8885   5.941   1.466   2.495  1.1341 -0.5621 -0.0509
 2984TIP3    H2 8886   5.929   1.534   2.630 -0.8709 -0.2005 -0.3917
 2985TIP3   OH2 8887   4.955   4.504   2.099 -0.3914 -0.2109 -0.1607
 2985TIP3    H1 8888   5.038   4.532   2.139  0.8497 -2.3123 -1.1785
 2985TIP3    H2 8889   4.977   4.490   2.007 -2.2825  0.7425 -0.7819
 2986TIP3   OH2 8890   6.481   4.378   3.551 -0.6946  0.6126 -0.0256
 2986TIP3    H1 8891   6.405   4.388   3.493  0.6699 -1.4640 -2.2098
 2986TIP3    H2 8892   6.551   4.425   3.507 -0.7861  3.1542  2.3452
 2987TIP3   OH2 8893   7.954   3.342   0.444  0.3928 -0.1326  0.0563
 2987TIP3    H1 8894   7.962   3.388   0.527  1.7064 -0.2998  0.0383
 2987TIP3    H2 8895   8.018   3.385   0.387 -0.6733  0.1486 -0.9497
 2988TIP3   OH2 8896   6.572   2.910   0.765 -0.1388 -0.1735  0.3142
 2988TIP3    H1 8897   6.626   2.986   0.788  0.7999 -0.4574 -0.8892
 2988TIP3    H2 8898   6.634   2.837   0.761 -0.8962 -0.8321  0.6028
 2989TIP3   OH2 8899   5.300   0.142   2.608  0.3966  0.8029  0.7247
 2989TIP3    H1 8900   5.340   0.154   2.522 -0.8953 -1.9450 -0.3301
 2989TIP3    H2 8901   5.277   0.230   2.637 -3.4140  1.5005 -3.8593
 2990TIP3   OH2 8902   7.335   3.980   2.499  0.3182  0.3568  0.0014
 2990TIP3    H1 8903   7.242   3.963   2.511 -0.2399  2.8001 -0.6373
 2990TIP3    H2 8904   7.367   3.904   2.451 -1.3983 -0.3757 -0.0252
 2991TIP3   OH2 8905   5.582   0.720   2.047 -0.2618 -0.2081  0.5088
 2991TIP3    H1 8906   5.620   0.766   1.973  1.4736  1.5615  2.4151
 2991TIP3    H2 8907   5.487   0.729   2.035 -0.0839 -1.8862 -2.6075
 2992TIP3   OH2 8908   7.457   3.478   0.654  0.0980 -0.2107 -0.0240
 2992TIP3    H1 8909   7.422   3.538   0.719 -1.0897 -0.3031 -0.5663
 2992TIP3    H2 8910   7.458   3.529   0.572  1.3167 -0.1822 -0.0143
 2993TIP3   OH2 8911   6.378   2.214   2.614 -0.1442  0.2262  0.4715
 2993TIP3    H1 8912   6.463   2.218   2.659  1.1191 -0.4638 -1.7937
 2993TIP3    H2 8913   6.366   2.122   2.592 -2.3426  0.0249  2.2874
 2994TIP3   OH2 8914   3.689   3.418   2.733 -0.1659  0.0159 -0.0042
 2994TIP3    H1 8915   3.604   3.443   2.698 -0.3977 -0.4818  0.1963
 2994TIP3    H2 8916   3.698   3.468   2.814 -1.7040 -2.3176  1.6962
 2995TIP3   OH2 8917   5.824   1.199   0.870  0.0674 -0.0320  0.0119
 2995TIP3    H1 8918   5.763   1.142   0.824 -0.1609  0.5131 -0.3601
 2995TIP3    H2 8919   5.786   1.209   0.958 -0.4672  0.4562 -0.2771
 2996TIP3   OH2 8920   6.546   3.028   3.847  0.3766  0.4534  0.2707
 2996TIP3    H1 8921   6.557   3.075   3.929  0.7970  0.0966  0.4217
 2996TIP3    H2 8922   6.577   3.088   3.779  0.6484  0.4977  0.4353
 2997TIP3   OH2 8923   6.241   4.852   2.409  0.1789  0.1868  0.0521
 2997TIP3    H1 8924   6.317   4.803   2.443  0.3232  0.9281  0.8174
 2997TIP3    H2 8925   6.279   4.928   2.366 -0.0659 -0.1768 -0.8085
 2998TIP3   OH2 8926   6.621   4.747   2.271  0.0666  0.2577 -0.3166
 2998TIP3    H1 8927   6.631   4.802   2.193  0.2731  0.0608 -0.4312
 2998TIP3    H2 8928   6.702   4.697   2.275 -0.3666 -0.4727 -0.5520
 2999TIP3   OH2 8929   6.487   1.184   1.928  0.3974 -0.2506 -0.2986
 2999TIP3    H1 8930   6.570   1.229   1.917  0.1752  0.5933  1.3665
 2999TIP3    H2 8931   6.510   1.099   1.966  0.4886  0.0631  0.3540
 3000TIP3   OH2 8932   5.090   3.071   4.174 -0.3567  0.3902  0.3560
 3000TIP3    H1 8933   5.161   3.119   4.216  0.2384 -0.9002  0.8687
 3000TIP3    H2 8934   5.134   3.004   4.122 -1.1868 -0.1691  0.3645
 3001TIP3   OH2 8935   5.256   0.329   0.562  0.0278  0.2162 -0.4166
 3001TIP3    H1 8936   5.213   0.284   0.634  0.2210  0.2303 -0.2921
 3001TIP3    H2 8937   5.346   0.296   0.564  0.1590  0.5763 -0.3520
 3002TIP3   OH2 8938   6.610   3.337   2.743 -0.0150 -0.1895  0.1115
 3002TIP3    H1 8939   6.590   3.401   2.811 -0.8848  1.1976 -1.3907
 3002TIP3    H2 8940   6.604   3.253   2.787 -0.5462  0.6736  1.7471
 3003TIP3   OH2 8941   7.965   0.174   4.197  0.2658  0.1599 -0.6622
 3003TIP3    H1 8942   8.039   0.226   4.230 -0.5357  0.1170  1.2307
 3003TIP3    H2 8943   8.006   0.098   4.156  1.2658 -0.6165  1.6735
 3004TIP3   OH2 8944   5.916   1.684   2.339 -0.0658 -0.3085  0.4827
 3004TIP3    H1 8945   5.835   1.716   2.378  0.1791 -0.3659  1.0385
 3004TIP3    H2 8946   5.939   1.607   2.391  1.1691  0.5941  1.3195
 3005TIP3   OH2 8947   2.003   3.081   2.475 -0.3867  0.4560 -0.5007
 3005TIP3    H1 8948   2.032   3.169   2.452  0.3384  0.6689  1.1632
 3005TIP3    H2 8949   1.962   3.091   2.561 -0.5837 -0.7832 -0.4449
 3006TIP3   OH2 8950   4.341   2.322   0.708  0.6470 -1.0594 -0.3204
 3006TIP3    H1 8951   4.429   2.316   0.669  1.0645 -0.2404  0.4783
 3006TIP3    H2 8952   4.330   2.239   0.754  1.6766 -0.5053  0.9522
 3007TIP3   OH2 8953   6.295   3.948   1.119  0.2333  0.3978  0.1781
 3007TIP3    H1 8954   6.278   4.042   1.117  0.9216  0.5438  0.6837
 3007TIP3    H2 8955   6.324   3.931   1.209  1.3834 -0.0491 -0.2583
 3008TIP3   OH2 8956   6.062   2.908   0.941 -0.0143  0.6074  0.3361
 3008TIP3    H1 8957   6.150   2.945   0.935 -1.4489  4.0992  0.0214
 3008TIP3    H2 8958   6.071   2.820   0.904  2.9365  1.6031 -1.4815
 3009TIP3   OH2 8959   7.471   2.419   1.863  0.0518 -0.4905  0.1150
 3009TIP3    H1 8960   7.525   2.366   1.805 -0.1494 -1.2211  0.5996
 3009TIP3    H2 8961   7.410   2.358   1.903 -1.1079  0.3207 -0.3843
 3010TIP3   OH2 8962   7.086   2.554   1.426 -0.2187  0.4836 -0.1520
 3010TIP3    H1 8963   7.101   2.460   1.412 -0.5533  0.5342 -0.8888
 3010TIP3    H2 8964   6.996   2.559   1.458 -0.0989  0.5326  0.1821
 3011TIP3   OH2 8965   4.353   3.216   1.732  0.3422  0.2118 -0.1780
 3011TIP3    H1 8966   4.363   3.207   1.826  1.7888 -0.3474 -0.3698
 3011TIP3    H2 8967   4.258   3.222   1.718  0.0958 -0.1797  1.2570
 3012TIP3   OH2 8968   7.333   3.441   1.055  0.2746  0.1012  0.1159
 3012TIP3    H1 8969   7.400   3.375   1.037  0.8031  0.6958 -0.1108
 3012TIP3    H2 8970   7.377   3.506   1.109 -0.0663  0.5829 -0.1822
 3013TIP3   OH2 8971   7.570   2.346   2.392  0.3028 -0.2877  0.0370
 3013TIP3    H1 8972   7.567   2.405   2.317  0.4954 -0.1406  0.1445
 3013TIP3    H2 8973   7.479   2.342   2.424 -0.2844 -2.3954 -1.7778
 3014TIP3   OH2 8974   5.631   1.712   1.210 -0.2783  0.5315  0.1512
 3014TIP3    H1 8975   5.670   1.651   1.148 -1.1981 -2.0806  2.0471
 3014TIP3    H2 8976   5.705   1.752   1.254  0.3297 -0.7012  0.2659
 3015TIP3   OH2 8977   3.438   7.859   2.719 -0.0042 -0.2540 -0.0961
 3015TIP3    H1 8978   3.449   7.807   2.799  0.6844  1.2724  0.8197
 3015TIP3    H2 8979   3.356   7.906   2.732 -1.2726 -2.0001 -1.4627
 3016TIP3   OH2 8980   6.328   4.275   1.733 -0.0897  0.1946 -0.5473
 3016TIP3    H1 8981   6.313   4.300   1.825  0.5454  0.2639 -0.4599
 3016TIP3    H2 8982   6.252   4.311   1.686 -0.2460  0.4582 -0.1036
 3017TIP3   OH2 8983   5.986   2.541   3.204 -0.3834  0.7885  0.0631
 3017TIP3    H1 8984   5.965   2.486   3.128  0.3269  0.7267 -0.1023
 3017TIP3    H2 8985   6.043   2.486   3.258 -1.1096  0.7417  0.7745
 3018TIP3   OH2 8986   5.832   1.894   3.339  0.4314  0.0700 -0.5663
 3018TIP3    H1 8987   5.760   1.832   3.337 -0.2428  0.8021  0.3295
 3018TIP3    H2 8988   5.887   1.870   3.265  1.8320 -3.5626  1.5289
 3019TIP3   OH2 8989   5.585   2.253   3.186  0.0053 -0.0358 -0.4191
 3019TIP3    H1 8990   5.519   2.191   3.154  0.3575  0.3190 -1.8965
 3019TIP3    H2 8991   5.658   2.199   3.216 -0.8636 -0.4249  1.0555
 3020TIP3   OH2 8992   3.665   3.637   3.340 -0.3414  0.1464  0.2836
 3020TIP3    H1 8993   3.721   3.627   3.417 -1.8397  1.7433  1.6184
 3020TIP3    H2 8994   3.577   3.614   3.371 -1.1522  1.8790 -0.6407
 3021TIP3   OH2 8995   6.657   3.733   1.968 -0.2100  0.0197 -0.2955
 3021TIP3    H1 8996   6.606   3.771   2.040  1.1263  0.1478  0.6008
 3021TIP3    H2 8997   6.596   3.672   1.926 -0.9958 -0.1066  0.9811
 3022TIP3   OH2 8998   7.822   5.758   1.866 -0.0093  0.3429  0.7692
 3022TIP3    H1 8999   7.831   5.847   1.830 -0.3140 -0.9477 -2.7008
 3022TIP3    H2 9000   7.727   5.742   1.865  0.2271 -1.1950 -1.8332
 3023TIP3   OH2 9001   6.961   4.108   1.473  0.6897  0.3965  0.0473
 3023TIP3    H1 9002   6.868   4.129   1.482  0.8990  0.5038  2.1983
 3023TIP3    H2 9003   7.006   4.188   1.500  1.4128  0.0463 -0.1152
 3024TIP3   OH2 9004   5.970   2.134   2.434  0.2015 -0.2570  0.4691
 3024TIP3    H1 9005   5.949   2.206   2.493  0.7881 -0.5175  1.0035
 3024TIP3    H2 9006   6.061   2.149   2.409  0.4170 -0.9621  0.8071
 3025TIP3   OH2 9007   6.533   5.297   3.499  0.1224 -0.0298  0.3242
 3025TIP3    H1 9008   6.447   5.284   3.539  0.3523  2.2422  1.6399
 3025TIP3    H2 9009   6.536   5.390   3.478  1.7848 -0.3296 -0.8661
 3026TIP3   OH2 9010   7.061   3.404   1.006  0.0761 -0.7925 -0.3062
 3026TIP3    H1 9011   7.054   3.314   1.039 -0.6828  0.2112  2.4292
 3026TIP3    H2 9012   7.154   3.424   1.010 -0.0439 -0.5540  1.6961
 3027TIP3   OH2 9013   5.768   3.309   3.954  0.3095  0.1949  0.6827
 3027TIP3    H1 9014   5.771   3.291   4.048 -0.4817  0.1777  0.7065
 3027TIP3    H2 9015   5.676   3.298   3.930  0.9601 -2.8560 -0.6867
 3028TIP3   OH2 9016   6.090   3.208   0.625  0.2995 -0.3163 -0.2839
 3028TIP3    H1 9017   6.162   3.146   0.613  0.3099 -0.6006  1.1143
 3028TIP3    H2 9018   6.079   3.213   0.720  0.0559  1.5417 -0.3826
 3029TIP3   OH2 9019   7.374   4.276   2.069 -0.2957  0.4880 -0.0668
 3029TIP3    H1 9020   7.326   4.195   2.088 -0.2704  0.2544 -0.9816
 3029TIP3    H2 9021   7.446   4.275   2.131 -0.7541  0.2101  0.4713
 3030TIP3   OH2 9022   8.303   2.264   1.825  0.6990  0.2391  0.2370
 3030TIP3    H1 9023   8.270   2.294   1.909 -0.7267 -1.7647  0.4501
 3030TIP3    H2 9024   8.344   2.179   1.844  1.1776  0.1934 -0.9236
 3031TIP3   OH2 9025   6.746   4.750   0.844 -0.5462 -0.0265 -0.1952
 3031TIP3    H1 9026   6.814   4.703   0.796 -0.9741  1.3296 -2.2023
 3031TIP3    H2 9027   6.669   4.694   0.838 -0.8053  0.4793 -1.7893
 3032TIP3   OH2 9028   7.293   4.294   2.362  0.5553 -0.2980  0.1978
 3032TIP3    H1 9029   7.207   4.253   2.366  0.1273  0.6963  2.6344
 3032TIP3    H2 9030   7.279   4.376   2.315  0.0026  0.1641  1.1433
 3033TIP3   OH2 9031   5.683   3.475   0.679  0.1638 -0.4211  0.0201
 3033TIP3    H1 9032   5.657   3.545   0.619 -0.4922  1.0341  1.9697
 3033TIP3    H2 9033   5.603   3.424   0.692  0.2115 -0.5024  0.0008
 3034TIP3   OH2 9034   2.128   5.772   6.564 -0.3745  0.2646 -0.2724
 3034TIP3    H1 9035   2.125   5.693   6.618 -0.1644  0.8779  0.6348
 3034TIP3    H2 9036   2.125   5.739   6.474  0.4377 -0.8166  0.0866
 3035TIP3   OH2 9037   3.654   1.263   3.456 -0.2502  0.0780  0.1092
 3035TIP3    H1 9038   3.702   1.301   3.529 -1.8485  0.6469  0.8851
 3035TIP3    H2 9039   3.615   1.183   3.493 -0.7531  0.1734 -0.2089
 3036TIP3   OH2 9040   0.219   3.859   2.429  0.3161  0.4496 -0.3945
 3036TIP3    H1 9041   0.251   3.928   2.371 -1.3142  0.9274 -0.7502
 3036TIP3    H2 9042   0.258   3.879   2.514  0.3654  1.4396 -0.6418
 3037TIP3   OH2 9043   7.444   0.859   4.021  0.1780  0.2523  0.3349
 3037TIP3    H1 9044   7.521   0.890   4.069 -0.5190  0.8360  1.0840
 3037TIP3    H2 9045   7.370   0.891   4.072 -0.5587 -0.7613 -0.1007
 3038TIP3   OH2 9046   7.088   1.663   3.235 -0.2471 -0.1051 -0.0854
 3038TIP3    H1 9047   7.158   1.602   3.260 -0.2445 -0.0240  0.1066
 3038TIP3    H2 9048   7.007   1.616   3.255 -0.2478 -0.2897 -0.5276
 3039TIP3   OH2 9049   0.568   0.161   2.658 -0.2997 -0.2532  0.2968
 3039TIP3    H1 9050   0.498   0.134   2.718  0.0253  1.0470  1.2755
 3039TIP3    H2 9051   0.587   0.082   2.607 -0.6706 -1.3551  1.8191
 3040TIP3   OH2 9052   8.189   1.295   1.386 -0.2658 -0.1760  0.2711
 3040TIP3    H1 9053   8.170   1.217   1.335  0.4824  0.3475 -0.8293
 3040TIP3    H2 9054   8.175   1.268   1.477 -0.8783 -1.3283 -0.1542
 3041TIP3   OH2 9055   6.857   3.032   2.401  0.1723  0.3647  0.1570
 3041TIP3    H1 9056   6.938   3.066   2.364  0.5483 -0.3901  0.2732
 3041TIP3    H2 9057   6.835   3.093   2.471  1.4889 -0.2803  1.1581
 3042TIP3   OH2 9058   7.528   2.350   5.809 -0.1540  0.0550  0.1877
 3042TIP3    H1 9059   7.486   2.280   5.759  1.6575 -2.4477  2.0676
 3042TIP3    H2 9060   7.621   2.340   5.791  0.3522  0.3386  2.4593
 3043TIP3   OH2 9061   8.408   1.469   2.852 -0.9320  0.4866  0.5416
 3043TIP3    H1 9062   8.463   1.446   2.928  1.2125 -0.4962 -1.2458
 3043TIP3    H2 9063   8.362   1.388   2.830  0.8676 -0.1221 -1.1148
 3044TIP3   OH2 9064   8.245   5.032   6.668 -0.2278 -0.1239  0.4443
 3044TIP3    H1 9065   8.307   4.993   6.607  0.6949  0.9383  0.6808
 3044TIP3    H2 9066   8.260   4.987   6.751 -1.1878 -1.2707  0.0139
 3045TIP3   OH2 9067   5.942   0.938   1.499  0.6341 -0.2323 -0.3033
 3045TIP3    H1 9068   5.928   0.880   1.424  2.0297 -3.3812  1.7380
 3045TIP3    H2 9069   6.018   0.991   1.475  1.1436 -1.2950 -1.1020
 3046TIP3   OH2 9070   5.766   2.026   1.239  0.0479  0.1480  0.5215
 3046TIP3    H1 9071   5.709   2.039   1.314  2.1401  0.9734  2.0247
 3046TIP3    H2 9072   5.796   2.114   1.216 -0.1818 -0.1497 -0.9658
 3047TIP3   OH2 9073   5.928   2.612   4.342  0.4361 -0.5352 -0.5485
 3047TIP3    H1 9074   5.907   2.683   4.281 -0.3902  0.2837  0.6705
 3047TIP3    H2 9075   5.900   2.645   4.428  1.1644 -1.8514  0.2110
 3048TIP3   OH2 9076   3.247   7.279   6.409  0.2204 -0.4857  0.5465
 3048TIP3    H1 9077   3.315   7.265   6.475  0.1981 -1.0645  0.4512
 3048TIP3    H2 9078   3.294   7.283   6.326  0.0429 -2.0468  0.3501
 3049TIP3   OH2 9079   5.903   2.157   3.587  0.3671  0.3076 -0.2485
 3049TIP3    H1 9080   5.891   2.246   3.620 -0.2205  0.8725 -1.9042
 3049TIP3    H2 9081   5.875   2.100   3.659  1.0452  1.4502  0.9291
 3050TIP3   OH2 9082   6.222   1.697   2.579 -0.0180 -0.0161 -0.4546
 3050TIP3    H1 9083   6.212   1.642   2.501  0.5312 -0.9503  0.1310
 3050TIP3    H2 9084   6.140   1.684   2.628 -0.2423  0.3492 -0.7277
 3051TIP3   OH2 9085   2.672   3.102   2.642  0.7680 -0.1444  0.4354
 3051TIP3    H1 9086   2.685   3.175   2.703  2.4042 -0.7475  0.8282
 3051TIP3    H2 9087   2.700   3.136   2.557 -0.3606  0.3041  0.2285
 3052TIP3   OH2 9088   5.233   3.693   2.320 -0.2145  0.5011 -0.0620
 3052TIP3    H1 9089   5.244   3.691   2.415 -2.0946  0.4489  0.1780
 3052TIP3    H2 9090   5.213   3.784   2.300  0.7002  0.6135 -0.4809
 3053TIP3   OH2 9091   4.801   3.872   1.594  0.2154 -0.4111  0.1323
 3053TIP3    H1 9092   4.857   3.939   1.556 -0.6560  0.0007 -0.4382
 3053TIP3    H2 9093   4.712   3.901   1.574 -0.1905 -1.2565  0.6906
 3054TIP3   OH2 9094   6.864   4.183   2.073  0.4517  0.3607  0.3133
 3054TIP3    H1 9095   6.831   4.113   2.017  1.2113 -0.5439  0.9592
 3054TIP3    H2 9096   6.814   4.260   2.049 -0.1254 -0.3250 -0.6928
 3055TIP3   OH2 9097   5.980   2.542   2.534  0.3950 -0.4280  0.0440
 3055TIP3    H1 9098   6.014   2.582   2.454 -1.2323  0.1248 -0.3792
 3055TIP3    H2 9099   6.053   2.489   2.566  0.5443 -2.0016 -2.7174
 3056TIP3   OH2 9100   7.371   3.565   3.275  0.5266  0.3714  0.1352
 3056TIP3    H1 9101   7.450   3.618   3.268  0.9859 -0.3014  0.1115
 3056TIP3    H2 9102   7.326   3.577   3.192  0.0731  1.5758  0.5418
 3057TIP3   OH2 9103   4.289   3.231   3.177  0.3549 -0.4570  0.3260
 3057TIP3    H1 9104   4.316   3.310   3.226 -0.0967 -0.1785  0.1286
 3057TIP3    H2 9105   4.348   3.163   3.208  1.5500  0.2383 -0.3832
 3058TIP3   OH2 9106   6.930   1.775   3.024 -0.1635  0.0845 -0.1420
 3058TIP3    H1 9107   6.841   1.741   3.036  0.1604 -0.7198  0.0074
 3058TIP3    H2 9108   6.981   1.732   3.093  1.0744 -2.1861 -2.4023
 3059TIP3   OH2 9109   7.601   3.544   1.595  0.2196  0.1347 -0.5660
 3059TIP3    H1 9110   7.520   3.540   1.647  0.6845  0.9686  0.2292
 3059TIP3    H2 9111   7.601   3.631   1.557  1.9918  1.0657  1.4881
 3060TIP3   OH2 9112   6.452   3.901   2.827 -0.1251  0.2317  0.6604
 3060TIP3    H1 9113   6.379   3.940   2.778  1.1282  1.7174 -0.0519
 3060TIP3    H2 9114   6.479   3.970   2.888  2.2183  0.5756 -0.7079
 3061TIP3   OH2 9115   5.885   3.049   1.569 -0.5949  0.5096 -0.4533
 3061TIP3    H1 9116   5.840   3.120   1.525  1.0104  0.8446 -1.6002
 3061TIP3    H2 9117   5.841   3.041   1.654 -0.5475  3.1334 -0.1405
 3062TIP3   OH2 9118   4.201   2.911   1.637  0.4567 -0.0182 -0.2373
 3062TIP3    H1 9119   4.181   2.907   1.731  1.9464  1.0083  0.1491
 3062TIP3    H2 9120   4.253   2.991   1.628 -2.9791  2.0854 -2.5707
 3063TIP3   OH2 9121   4.475   3.807   2.451  0.3709  0.1439  0.4458
 3063TIP3    H1 9122   4.531   3.749   2.504 -0.4587 -2.0317 -0.9678
 3063TIP3    H2 9123   4.527   3.886   2.438  2.3637 -1.0785  0.7621
 3064TIP3   OH2 9124   5.781   2.853   3.301  0.5723 -0.5501 -0.8905
 3064TIP3    H1 9125   5.829   2.835   3.220 -0.2807 -1.2894 -1.2420
 3064TIP3    H2 9126   5.734   2.772   3.320 -0.2297  0.0296 -0.3379
 3065TIP3   OH2 9127   7.750   0.444   4.236  0.2132 -0.1935 -0.0759
 3065TIP3    H1 9128   7.667   0.486   4.213 -0.4371 -2.0837 -1.2677
 3065TIP3    H2 9129   7.799   0.441   4.153  1.4181  0.7736  0.5852
 3066TIP3   OH2 9130   6.502   2.052   1.638  0.0651  0.5864  0.1206
 3066TIP3    H1 9131   6.484   2.000   1.559  0.2014 -0.2499  0.6362
 3066TIP3    H2 9132   6.416   2.065   1.678  0.2402 -0.8665  0.9973
 3067TIP3   OH2 9133   6.916   2.045   2.009 -0.5618 -0.3443 -0.1521
 3067TIP3    H1 9134   6.994   1.989   2.008 -0.0645  0.3388  0.2160
 3067TIP3    H2 9135   6.919   2.089   2.094 -0.9198  0.2794 -0.4580
 3068TIP3   OH2 9136   4.435   0.943   1.567 -0.1716  0.7050  0.1614
 3068TIP3    H1 9137   4.521   0.905   1.546 -0.5445  0.4656 -0.9594
 3068TIP3    H2 9138   4.372   0.880   1.533 -0.7981  0.9828  0.8062
 3069TIP3   OH2 9139   4.111   0.853   3.511  0.0526  0.5753 -0.0062
 3069TIP3    H1 9140   4.201   0.876   3.535 -0.0348  1.8114 -0.8469
 3069TIP3    H2 9141   4.106   0.868   3.417 -1.3474  1.6531  0.2117
 3070TIP3   OH2 9142   6.834   1.234   0.686  0.0305 -0.3781 -0.2480
 3070TIP3    H1 9143   6.790   1.158   0.725 -0.5708  0.5505  0.9475
 3070TIP3    H2 9144   6.848   1.294   0.760  2.3048 -0.1648 -0.8197
 3071TIP3   OH2 9145   8.199   2.488   2.442  0.3435 -0.1866  0.0201
 3071TIP3    H1 9146   8.152   2.439   2.510  0.4715  0.0626  0.2886
 3071TIP3    H2 9147   8.289   2.493   2.474  0.5923 -0.8107 -0.5743
 3072TIP3   OH2 9148   8.112   1.393   0.983 -0.0524  0.2656  0.6013
 3072TIP3    H1 9149   8.095   1.301   1.001 -2.7758  0.7535  0.8216
 3072TIP3    H2 9150   8.206   1.398   0.967  0.4956 -2.1598  2.7697
 3073TIP3   OH2 9151   4.572   4.062   1.948  0.2099  0.5437  0.0514
 3073TIP3    H1 9152   4.544   3.987   2.001 -0.9284  1.6461  1.0208
 3073TIP3    H2 9153   4.565   4.137   2.006 -0.7845  1.7393 -1.5566
 3074TIP3   OH2 9154   8.182   2.098   2.276  0.0918 -0.6297  0.5200
 3074TIP3    H1 9155   8.113   2.035   2.298 -0.5917  0.3045  1.0728
 3074TIP3    H2 9156   8.244   2.091   2.349  0.3448 -1.1211  0.2618
 3075TIP3   OH2 9157   5.422   3.057   1.303  0.0978  0.4670 -0.3339
 3075TIP3    H1 9158   5.439   3.151   1.290  0.8334  0.5412  1.0358
 3075TIP3    H2 9159   5.508   3.019   1.318 -0.3501 -0.1500  0.7380
 3076TIP3   OH2 9160   7.167   6.133   0.962 -0.2844 -0.2288 -0.4075
 3076TIP3    H1 9161   7.226   6.112   1.034  0.7420  1.8515 -0.6079
 3076TIP3    H2 9162   7.079   6.116   0.997  0.3045 -1.0127  0.6976
 3077TIP3   OH2 9163   3.969   1.607   2.214  0.5984  0.3650 -0.1649
 3077TIP3    H1 9164   4.057   1.586   2.182  0.9456  0.1606  0.9099
 3077TIP3    H2 9165   3.922   1.524   2.213  0.9755  0.1298  0.9784
 3078TIP3   OH2 9166   5.469   2.500   2.588 -0.4233  0.2129  0.3551
 3078TIP3    H1 9167   5.518   2.581   2.604 -1.1238  0.6248  0.4182
 3078TIP3    H2 9168   5.478   2.450   2.669  1.0367 -0.3209 -0.1100
 3079TIP3   OH2 9169   5.217   3.893   1.996 -0.3325  0.1665  0.1063
 3079TIP3    H1 9170   5.278   3.903   1.923 -0.3998 -0.0561  0.0206
 3079TIP3    H2 9171   5.265   3.925   2.072 -0.6374  1.4106 -0.2083
 3080TIP3   OH2 9172   3.999   3.784   3.521 -0.3522 -0.5853  0.1217
 3080TIP3    H1 9173   4.053   3.793   3.599  0.3627 -0.8874 -0.3337
 3080TIP3    H2 9174   4.048   3.725   3.464 -1.0002 -0.5925 -0.4417
 3081TIP3   OH2 9175   5.737   3.946   1.859 -0.4147  0.3639  0.0284
 3081TIP3    H1 9176   5.804   3.889   1.897 -2.3311 -1.4997  0.6939
 3081TIP3    H2 9177   5.735   3.922   1.766  0.3651  0.9665 -0.1475
 3082TIP3   OH2 9178   7.815   2.847   1.352  0.3725 -0.2735  0.2934
 3082TIP3    H1 9179   7.823   2.758   1.387 -0.1397  0.2535  1.8079
 3082TIP3    H2 9180   7.735   2.881   1.392  0.8129  1.0172  0.0891
 3083TIP3   OH2 9181   7.540   0.528   0.991 -0.3289  0.0128  0.4811
 3083TIP3    H1 9182   7.509   0.608   0.947 -0.0131  0.3454  0.8628
 3083TIP3    H2 9183   7.624   0.553   1.029  1.3147 -1.4092 -2.1175
 3084TIP3   OH2 9184   4.794   3.286   2.143  0.1027 -0.2933 -0.3430
 3084TIP3    H1 9185   4.819   3.378   2.138  0.5532 -0.4358 -0.8321
 3084TIP3    H2 9186   4.875   3.239   2.122 -0.2630 -0.7831 -0.6528
 3085TIP3   OH2 9187   6.678   2.149   2.655  0.1966  0.3334  0.3171
 3085TIP3    H1 9188   6.694   2.059   2.684 -1.2952  0.6134  2.1210
 3085TIP3    H2 9189   6.644   2.139   2.566 -0.1365 -0.9115  0.5675
 3086TIP3   OH2 9190   2.085   7.792   6.098 -0.1390 -0.0353  0.4801
 3086TIP3    H1 9191   2.006   7.840   6.073 -0.5793 -0.4424  1.0779
 3086TIP3    H2 9192   2.086   7.796   6.194 -0.4071 -1.5734  0.5613
 3087TIP3   OH2 9193   0.362   2.213   0.267  0.2907 -0.6620  0.0080
 3087TIP3    H1 9194   0.341   2.256   0.350  1.6215  0.2372 -0.0982
 3087TIP3    H2 9195   0.356   2.282   0.201  2.4129 -0.5866 -0.1666
 3088TIP3   OH2 9196   6.057   7.934   2.487 -0.5262 -0.4994  0.1321
 3088TIP3    H1 9197   6.148   7.930   2.518 -0.5057 -1.9288 -0.0858
 3088TIP3    H2 9198   6.038   8.028   2.483  0.9262 -0.1783  0.2301
 3089TIP3   OH2 9199   7.541   4.115   2.592  0.1508 -0.1665  0.4507
 3089TIP3    H1 9200   7.463   4.089   2.543 -0.2754 -1.6454  1.8685
 3089TIP3    H2 9201   7.614   4.084   2.538 -0.2774 -0.4700  0.0390
 3090TIP3   OH2 9202   5.867   1.770   1.812 -0.3254 -0.4323 -0.0130
 3090TIP3    H1 9203   5.876   1.823   1.891  1.0757 -0.9554  0.1821
 3090TIP3    H2 9204   5.840   1.833   1.744 -0.1084  0.2735  0.5453
 3091TIP3   OH2 9205   3.056   1.302   2.118 -0.7732 -0.0662  0.1671
 3091TIP3    H1 9206   3.016   1.216   2.131 -2.0513  0.4844 -0.0555
 3091TIP3    H2 9207   3.010   1.360   2.178 -0.7540  0.7087 -0.5517
 3092TIP3   OH2 9208   0.867   2.237   3.483  0.4069  0.4271 -0.4441
 3092TIP3    H1 9209   0.784   2.227   3.531 -0.3575 -2.7773 -2.2791
 3092TIP3    H2 9210   0.850   2.196   3.398  3.8320 -0.1259 -0.9163
 3093TIP3   OH2 9211   7.931   2.310   4.009 -0.1514 -0.2474 -0.1747
 3093TIP3    H1 9212   7.891   2.224   4.001 -1.3031  0.0407  2.0106
 3093TIP3    H2 9213   8.024   2.292   4.023 -0.2554 -1.0994 -0.5840
 3094TIP3   OH2 9214   8.208   4.821   0.709  0.4803 -0.7152  0.0869
 3094TIP3    H1 9215   8.121   4.856   0.731  0.3516 -2.0246  1.6930
 3094TIP3    H2 9216   8.256   4.897   0.678 -0.8743  0.2537  0.2914
 3095TIP3   OH2 9217   6.378   2.470   1.179  0.6389  0.5084 -0.1949
 3095TIP3    H1 9218   6.404   2.548   1.229 -1.5854  0.1559  1.5863
 3095TIP3    H2 9219   6.404   2.397   1.235 -2.7042  0.1203  0.9654
 3096TIP3   OH2 9220   7.365   1.670   1.775  1.0289 -0.4383  0.1695
 3096TIP3    H1 9221   7.394   1.605   1.711  1.1592  0.7330 -0.9920
 3096TIP3    H2 9222   7.438   1.677   1.837  1.4932 -0.5724 -0.3553
 3097TIP3   OH2 9223   0.717   2.245   2.506  0.4849 -0.4503 -0.5749
 3097TIP3    H1 9224   0.707   2.300   2.428  0.4839  0.3436 -0.0176
 3097TIP3    H2 9225   0.809   2.252   2.529  0.9070 -2.2336 -1.6294
 3098TIP3   OH2 9226   1.398   2.209   3.122 -0.3438  0.1004  0.8017
 3098TIP3    H1 9227   1.389   2.272   3.193  0.9342  1.7835 -0.4893
 3098TIP3    H2 9228   1.416   2.263   3.044  0.7593 -1.8401 -0.3240
 3099TIP3   OH2 9229   0.006   1.780   2.184 -0.1543  0.2545  0.7107
 3099TIP3    H1 9230  -0.068   1.785   2.124  0.6750 -1.1637 -0.4604
 3099TIP3    H2 9231   0.062   1.854   2.158  0.0696 -0.1906 -0.1078
 3100TIP3   OH2 9232   8.092   2.744   3.673 -0.1466 -0.3823  0.9197
 3100TIP3    H1 9233   8.182   2.718   3.653 -0.9065 -2.0406 -0.5400
 3100TIP3    H2 9234   8.054   2.667   3.716 -1.4599 -0.4721 -0.3673
 3101TIP3   OH2 9235   0.010   1.604   1.924 -0.1605 -0.1073  0.4483
 3101TIP3    H1 9236  -0.055   1.535   1.927  0.2543 -0.5212 -0.0400
 3101TIP3    H2 9237   0.089   1.562   1.891 -0.0347  0.7055 -0.3138
 3102TIP3   OH2 9238   7.580   4.341   3.354 -0.0718 -0.2429 -0.2759
 3102TIP3    H1 9239   7.496   4.383   3.371 -0.2483 -0.2463 -1.1622
 3102TIP3    H2 9240   7.563   4.279   3.284  1.0357  1.0257 -1.7126
 3103TIP3   OH2 9241   3.353   6.353   6.798  0.3127  0.6783  0.9523
 3103TIP3    H1 9242   3.436   6.310   6.777 -0.7907 -1.8214  1.4747
 3103TIP3    H2 9243   3.287   6.295   6.761 -1.1921  3.1476 -0.3401
 3104TIP3   OH2 9244   5.776   4.852   1.867  0.1919 -0.2079  0.1623
 3104TIP3    H1 9245   5.800   4.779   1.810 -1.1842 -0.6006  0.0653
 3104TIP3    H2 9246   5.859   4.882   1.904  0.6565 -2.7279  1.2960
 3105TIP3   OH2 9247   7.433   5.807   2.470  0.6118 -0.1883  0.4086
 3105TIP3    H1 9248   7.476   5.729   2.506  0.3562 -0.7455 -0.4878
 3105TIP3    H2 9249   7.421   5.788   2.378 -0.0712  0.6474  0.3160
 3106TIP3   OH2 9250   1.356   2.426   3.305 -0.1953 -0.3253 -0.1036
 3106TIP3    H1 9251   1.402   2.422   3.389  0.5815  0.5227 -0.4802
 3106TIP3    H2 9252   1.292   2.496   3.315 -0.2814 -0.3995 -0.1313
 3107TIP3   OH2 9253   7.806   5.925   5.088  0.0001 -0.3618  0.0538
 3107TIP3    H1 9254   7.873   5.976   5.042 -1.0958  1.1109  0.0710
 3107TIP3    H2 9255   7.855   5.872   5.151  1.1108  1.0387  0.3770
 3108TIP3   OH2 9256   6.356   3.017   0.955 -0.3155 -0.6475  0.0904
 3108TIP3    H1 9257   6.383   2.926   0.964  0.1807 -0.3473  1.7347
 3108TIP3    H2 9258   6.423   3.067   1.002 -0.8237  0.5287 -0.4207
 3109TIP3   OH2 9259   7.375   1.512   1.497  0.3378 -0.1096 -0.0464
 3109TIP3    H1 9260   7.448   1.457   1.524  0.8688  0.8475  0.4931
 3109TIP3    H2 9261   7.402   1.550   1.413  0.3888  0.1181  0.0735
 3110TIP3   OH2 9262   7.524   3.073   3.533  0.1521 -0.0724 -0.2990
 3110TIP3    H1 9263   7.469   3.075   3.611  0.8120  2.0971  0.1521
 3110TIP3    H2 9264   7.603   3.121   3.559 -0.2526  2.0023 -2.7431
 3111TIP3   OH2 9265   8.399   1.863   2.707  0.0778  0.3855  0.0782
 3111TIP3    H1 9266   8.483   1.905   2.727 -0.7947  1.6911  1.1267
 3111TIP3    H2 9267   8.409   1.829   2.618  1.8534  0.1567  0.3543
 3112TIP3   OH2 9268   4.699   1.833   2.681  0.2096  0.5507  0.7215
 3112TIP3    H1 9269   4.609   1.819   2.712  0.2601 -0.3071  0.5035
 3112TIP3    H2 9270   4.753   1.783   2.742  0.3777 -0.4459 -0.2306
 3113TIP3   OH2 9271   0.615   1.375   2.456 -0.1173  0.0422 -0.3292
 3113TIP3    H1 9272   0.615   1.293   2.407 -1.5764 -0.9449  1.2506
 3113TIP3    H2 9273   0.561   1.356   2.533 -0.0030  2.3198  0.3330
 3114TIP3   OH2 9274   6.902   1.846   3.535  0.4511  0.0813  0.8511
 3114TIP3    H1 9275   6.991   1.812   3.527  0.6370  0.4317  1.4222
 3114TIP3    H2 9276   6.854   1.778   3.581  0.5054  0.0424  0.8505
 3115TIP3   OH2 9277   7.027   3.041   0.806  0.6165  0.0555 -0.1445
 3115TIP3    H1 9278   7.081   2.990   0.866  1.3427 -0.2782 -1.0680
 3115TIP3    H2 9279   7.080   3.119   0.788  0.1514  0.4299  0.0982
 3116TIP3   OH2 9280   1.287   2.665   3.402  0.9212 -0.2393  0.3007
 3116TIP3    H1 9281   1.369   2.702   3.368  0.7635  1.3857  1.6094
 3116TIP3    H2 9282   1.267   2.718   3.479 -1.8648  0.0263 -0.5369
 3117TIP3   OH2 9283   6.958   0.758   0.605  0.1444  0.2430  0.7818
 3117TIP3    H1 9284   7.014   0.733   0.679 -1.0874 -1.6908  1.1007
 3117TIP3    H2 9285   6.882   0.700   0.612  0.2670 -0.3401 -2.3523
 3118TIP3   OH2 9286   0.398   0.544   2.803  0.7469 -0.0349  0.5513
 3118TIP3    H1 9287   0.436   0.489   2.872 -1.2761  0.8376  2.4165
 3118TIP3    H2 9288   0.394   0.631   2.842  0.7875  0.7460 -1.1632
 3119TIP3   OH2 9289   7.700   4.343   0.748 -0.2872 -0.3665  0.1377
 3119TIP3    H1 9290   7.780   4.393   0.764 -2.0614  1.5925  3.3819
 3119TIP3    H2 9291   7.690   4.289   0.826 -1.0880 -2.1558 -1.1518
 3120TIP3   OH2 9292   7.809   3.389   1.504 -0.4386 -0.1814  0.1592
 3120TIP3    H1 9293   7.790   3.296   1.487  1.2046 -0.4011 -0.5703
 3120TIP3    H2 9294   7.723   3.429   1.513 -1.2704 -1.2657 -2.3869
 3121TIP3   OH2 9295   7.258   4.380   3.109 -0.3402  0.5768  0.5202
 3121TIP3    H1 9296   7.223   4.461   3.145  0.0903  0.9205  0.1659
 3121TIP3    H2 9297   7.252   4.317   3.181  1.2952  1.4821  1.4748
 3122TIP3   OH2 9298   7.290   2.108   1.708  0.7178 -0.5956  0.0309
 3122TIP3    H1 9299   7.282   2.168   1.783 -0.4134  0.2381 -0.7340
 3122TIP3    H2 9300   7.242   2.030   1.735  1.1523 -0.6775  0.5658
 3123TIP3   OH2 9301   7.425   2.736   2.408  0.0272 -0.2364  0.4610
 3123TIP3    H1 9302   7.382   2.654   2.383  0.2349 -0.8227  1.9780
 3123TIP3    H2 9303   7.495   2.746   2.342 -1.7038  0.1701 -1.3613
 3124TIP3   OH2 9304   8.328   2.040   2.508  0.0524 -0.5203 -0.5179
 3124TIP3    H1 9305   8.284   2.053   2.592  2.1729 -0.0474  0.5521
 3124TIP3    H2 9306   8.340   1.945   2.501 -3.3772 -0.9249 -2.0433
 3125TIP3   OH2 9307   1.115   4.533   1.298  0.3105 -0.5818 -0.1137
 3125TIP3    H1 9308   1.021   4.535   1.316  0.2262 -1.3082 -0.4358
 3125TIP3    H2 9309   1.122   4.548   1.204  0.5100 -0.6884 -0.1169
 3126TIP3   OH2 9310   0.741   3.290   1.420  0.0545  0.2037  0.0975
 3126TIP3    H1 9311   0.745   3.194   1.417 -3.6581 -0.0126 -0.5348
 3126TIP3    H2 9312   0.697   3.309   1.503 -1.6206  1.1960 -0.9839
 3127TIP3   OH2 9313   3.526   5.531   6.371  0.0165 -0.0537  0.1301
 3127TIP3    H1 9314   3.531   5.625   6.390  1.0712  0.1994 -1.2880
 3127TIP3    H2 9315   3.589   5.518   6.300 -0.2071 -1.8207  0.2375
 3128TIP3   OH2 9316   1.030   4.680   3.635  0.7366 -0.3204 -0.6014
 3128TIP3    H1 9317   1.018   4.693   3.541 -0.4265 -3.0207 -0.8742
 3128TIP3    H2 9318   0.952   4.719   3.675  0.7383 -0.0882 -0.8264
 3129TIP3   OH2 9319   8.168   4.221   0.580  0.5496 -0.6568 -0.1714
 3129TIP3    H1 9320   8.210   4.297   0.540 -0.2208  0.1256  0.5037
 3129TIP3    H2 9321   8.187   4.229   0.673  0.6767 -1.4241 -0.1320
 3130TIP3   OH2 9322   6.491   4.052   1.657 -0.7837 -0.1170  0.1109
 3130TIP3    H1 9323   6.546   4.126   1.681 -0.6087 -0.4120  0.6387
 3130TIP3    H2 9324   6.424   4.089   1.600 -0.1694  0.2860 -0.3677
 3131TIP3   OH2 9325   8.456   0.886   0.882 -0.0539  0.2454  0.6027
 3131TIP3    H1 9326   8.477   0.835   0.804 -2.6344 -0.9410  0.6039
 3131TIP3    H2 9327   8.418   0.822   0.943 -1.2719  1.7518  1.4711
 3132TIP3   OH2 9328   5.659   2.907   1.047  0.0923  0.2037 -0.7886
 3132TIP3    H1 9329   5.668   2.950   1.132 -0.8719 -2.6053  0.8126
 3132TIP3    H2 9330   5.589   2.956   1.004  1.0639  2.0995 -0.2976
 3133TIP3   OH2 9331   6.250   1.942   1.730  0.0788  0.1400  0.0863
 3133TIP3    H1 9332   6.241   1.913   1.820 -0.5675  0.5044  0.1417
 3133TIP3    H2 9333   6.296   1.871   1.686  0.6818  0.0994  0.7732
 3134TIP3   OH2 9334   7.275   2.048   3.708 -0.1076 -0.1585 -0.0848
 3134TIP3    H1 9335   7.364   2.073   3.733 -1.1830  1.7257  2.0244
 3134TIP3    H2 9336   7.240   2.005   3.786 -1.1177 -0.7187 -0.8432
 3135TIP3   OH2 9337   7.076   2.157   2.684 -0.4503  0.0209 -0.5417
 3135TIP3    H1 9338   7.110   2.078   2.726 -0.7107 -0.0043 -0.3814
 3135TIP3    H2 9339   7.003   2.185   2.739 -0.3418  0.3899 -0.5818
 3136TIP3   OH2 9340   0.931   4.042   1.385 -0.0991  0.2030 -0.4430
 3136TIP3    H1 9341   0.991   3.967   1.377  0.4980  0.6767 -0.4046
 3136TIP3    H2 9342   0.987   4.119   1.375 -0.8493  0.6366 -1.3416
 3137TIP3   OH2 9343   0.599   0.950   1.506 -0.1142 -0.0914 -0.2104
 3137TIP3    H1 9344   0.560   0.934   1.420 -0.1696  1.0047 -0.3957
 3137TIP3    H2 9345   0.690   0.971   1.487  0.2465 -1.3584  0.1205
 3138TIP3   OH2 9346   0.791   2.335   0.476 -0.1451 -0.5955 -0.3803
 3138TIP3    H1 9347   0.704   2.374   0.480  0.4282  0.6142  0.8981
 3138TIP3    H2 9348   0.775   2.241   0.466 -1.6364 -0.6053  1.6919
 3139TIP3   OH2 9349   6.853   3.293   0.622  0.1754 -0.2503  0.5069
 3139TIP3    H1 9350   6.945   3.283   0.649  0.3017  0.2472  0.2551
 3139TIP3    H2 9351   6.850   3.255   0.534 -0.0256 -0.9577  0.8087
 3140TIP3   OH2 9352   8.416   2.359   1.230  0.2563 -0.5607  0.0279
 3140TIP3    H1 9353   8.402   2.334   1.138  1.0158  1.0965 -0.5702
 3140TIP3    H2 9354   8.362   2.437   1.242  2.5732  1.1199  0.0126
 3141TIP3   OH2 9355   0.313   5.603   6.678  0.6346  0.6328  0.3547
 3141TIP3    H1 9356   0.241   5.541   6.687 -0.6137  2.2565  1.7868
 3141TIP3    H2 9357   0.391   5.547   6.672 -0.6247 -1.1181 -0.2500
 3142TIP3   OH2 9358   1.584   0.188   3.212 -0.0589  0.0340  0.7416
 3142TIP3    H1 9359   1.657   0.168   3.271  2.2003 -0.0193 -1.9528
 3142TIP3    H2 9360   1.586   0.283   3.201 -0.0124 -0.0245  0.2116
 3143TIP3   OH2 9361   8.212   3.490   0.517 -0.0753  0.1825 -0.0657
 3143TIP3    H1 9362   8.285   3.541   0.552  1.0178 -1.5546  0.2601
 3143TIP3    H2 9363   8.142   3.501   0.581  1.3432 -1.5739  1.8568
 3144TIP3   OH2 9364   5.634   2.341   2.411  0.0644  0.5402 -0.0013
 3144TIP3    H1 9365   5.611   2.280   2.342  0.1648 -0.0351  0.4632
 3144TIP3    H2 9366   5.565   2.407   2.410  1.3111  1.8648 -2.2131
 3145TIP3   OH2 9367   6.920   1.953   1.711 -0.2768 -0.2055 -0.4726
 3145TIP3    H1 9368   6.909   1.996   1.796  2.0421  1.8943 -1.1661
 3145TIP3    H2 9369   6.979   1.880   1.730 -1.3134 -0.9042  0.0692
 3146TIP3   OH2 9370   6.075   2.583   1.990 -0.1626  0.0341  0.2035
 3146TIP3    H1 9371   6.093   2.634   2.069  0.3268 -0.7207  0.5863
 3146TIP3    H2 9372   6.005   2.632   1.946 -1.3923 -0.2559  1.7760
 3147TIP3   OH2 9373   6.815   2.187   2.236  0.2019  0.4276 -0.5512
 3147TIP3    H1 9374   6.862   2.192   2.319  1.1499  0.9048 -1.1139
 3147TIP3    H2 9375   6.845   2.262   2.186 -0.7362  0.4194 -1.1445
 3148TIP3   OH2 9376   8.085   3.393   3.282 -0.0936  0.0137 -0.8247
 3148TIP3    H1 9377   8.065   3.357   3.369  0.3823  0.8722 -0.3423
 3148TIP3    H2 9378   8.127   3.321   3.235  1.9893  0.2596  0.5581
 3149TIP3   OH2 9379   8.436   4.449   1.159  0.1926 -0.2990 -0.6652
 3149TIP3    H1 9380   8.372   4.439   1.230 -1.2583 -1.2230 -2.0652
 3149TIP3    H2 9381   8.399   4.518   1.104  1.8741  1.2090  0.0434
 3150TIP3   OH2 9382   7.033   2.805   0.676 -0.2072 -0.1884  0.3373
 3150TIP3    H1 9383   7.023   2.897   0.703 -0.2904 -0.4077  1.0567
 3150TIP3    H2 9384   7.126   2.797   0.656  0.1821 -0.4564  2.1863
 3151TIP3   OH2 9385   7.216   2.519   0.098  0.1067 -0.1241  0.1825
 3151TIP3    H1 9386   7.137   2.574   0.107 -1.1530 -1.7422 -0.6875
 3151TIP3    H2 9387   7.256   2.548   0.017 -0.3358 -0.1981 -0.0655
 3152TIP3   OH2 9388   7.719   2.123   1.075 -0.1074 -0.0295 -0.0773
 3152TIP3    H1 9389   7.645   2.062   1.068  0.8781 -1.4506  1.5468
 3152TIP3    H2 9390   7.797   2.069   1.061  0.8033  0.7319  1.7982
 3153TIP3   OH2 9391   8.152   2.235   2.045 -0.8262  0.5984 -0.0760
 3153TIP3    H1 9392   8.160   2.180   2.122 -1.3252 -0.4155 -0.7320
 3153TIP3    H2 9393   8.154   2.325   2.079 -0.0153  0.1847  1.0008
 3154TIP3   OH2 9394   0.172   3.157   1.153  0.0545 -0.2178 -0.1922
 3154TIP3    H1 9395   0.144   3.205   1.231 -0.7357  1.0216 -1.2222
 3154TIP3    H2 9396   0.135   3.206   1.080 -0.0215 -1.9232 -1.3135
 3155TIP3   OH2 9397   6.261   3.714   0.980  0.2931 -0.0670  0.0798
 3155TIP3    H1 9398   6.267   3.793   1.033  0.3974 -0.6256  0.9088
 3155TIP3    H2 9399   6.171   3.713   0.948  0.2538  0.3129  0.1709
 3156TIP3   OH2 9400   1.111   1.463   3.941  0.3912 -0.3699 -0.2965
 3156TIP3    H1 9401   1.130   1.543   3.990 -1.8201 -0.3032  0.5328
 3156TIP3    H2 9402   1.078   1.402   4.008 -2.2017 -0.4341 -1.5613
 3157TIP3   OH2 9403   7.865   2.512   0.767  0.1985 -0.0030 -0.1590
 3157TIP3    H1 9404   7.791   2.466   0.727  1.4847 -0.9655 -1.4837
 3157TIP3    H2 9405   7.854   2.497   0.861 -0.5582 -1.2513 -0.4348
 3158TIP3   OH2 9406   7.926   3.686   3.393 -0.3091 -0.0112  0.2639
 3158TIP3    H1 9407   7.962   3.770   3.365  1.7086 -0.7522  0.5745
 3158TIP3    H2 9408   7.948   3.626   3.321 -1.6387 -0.3066  0.0992
 3159TIP3   OH2 9409   5.860   7.072   3.886  0.3735  0.6425 -0.1785
 3159TIP3    H1 9410   5.920   7.137   3.849 -1.9015  2.5344 -0.5854
 3159TIP3    H2 9411   5.857   7.093   3.980  0.0730  0.7604 -0.2157
 3160TIP3   OH2 9412   7.838   4.260   2.357 -0.9278  0.3237 -0.0011
 3160TIP3    H1 9413   7.836   4.314   2.436 -3.4382 -0.6405  0.6226
 3160TIP3    H2 9414   7.751   4.269   2.319 -0.4815 -1.0757 -1.4097
 3161TIP3   OH2 9415   8.332   2.747   2.779 -0.6994  0.1606 -0.4727
 3161TIP3    H1 9416   8.238   2.731   2.770 -0.4992 -0.3928 -1.6562
 3161TIP3    H2 9417   8.364   2.753   2.689  0.3085  0.9109 -0.0740
 3162TIP3   OH2 9418   7.159   3.255   2.561 -0.1287 -0.2314 -0.9327
 3162TIP3    H1 9419   7.246   3.224   2.586 -0.1797 -0.8803 -1.5501
 3162TIP3    H2 9420   7.100   3.215   2.624  0.1003  0.8684 -0.0064
 3163TIP3   OH2 9421   5.729   2.355   1.001 -0.3205  0.3438 -0.2168
 3163TIP3    H1 9422   5.655   2.383   0.947  1.3244  2.1463 -1.5853
 3163TIP3    H2 9423   5.806   2.371   0.947  1.1995 -0.0986  1.7620
 3164TIP3   OH2 9424   7.274   2.176   0.550  0.3597 -0.0708  0.2699
 3164TIP3    H1 9425   7.252   2.268   0.541  2.5300  0.6359  1.7993
 3164TIP3    H2 9426   7.287   2.145   0.460  0.0425  1.2000 -0.2150
 3165TIP3   OH2 9427   6.798   3.237   1.314 -0.0238  0.0021 -0.3879
 3165TIP3    H1 9428   6.832   3.164   1.261 -0.3842 -0.5766  0.1773
 3165TIP3    H2 9429   6.858   3.242   1.389 -0.5646 -0.3297  0.0635
 3166TIP3   OH2 9430   7.105   3.147   1.075  0.5413  0.3803 -0.2212
 3166TIP3    H1 9431   7.144   3.084   1.014 -0.4459 -3.0078  2.4734
 3166TIP3    H2 9432   7.171   3.158   1.143  0.0211  0.9720  0.1881
 3167TIP3   OH2 9433   3.740   3.490   2.990  0.3488 -0.4723  0.0102
 3167TIP3    H1 9434   3.714   3.450   3.072 -0.6269 -0.0144 -0.0697
 3167TIP3    H2 9435   3.825   3.531   3.009  0.3246 -0.7293  0.6698
 3168TIP3   OH2 9436   7.098   3.263   4.849 -0.1629 -0.0895 -0.2331
 3168TIP3    H1 9437   7.101   3.176   4.810  0.0515 -0.0392 -0.3276
 3168TIP3    H2 9438   7.182   3.272   4.894 -0.9789 -0.7288  1.4848
 3169TIP3   OH2 9439   8.307   1.221   2.778 -0.2419 -0.6911  0.0859
 3169TIP3    H1 9440   8.247   1.200   2.849 -0.6057 -0.8980 -0.2810
 3169TIP3    H2 9441   8.253   1.268   2.714  0.2963  0.3522  0.3762
 3170TIP3   OH2 9442   7.950   2.134   1.883  0.1801 -0.1326 -0.4690
 3170TIP3    H1 9443   8.027   2.172   1.925 -0.0529 -2.3093  2.0688
 3170TIP3    H2 9444   7.877   2.184   1.919  0.1569 -0.4250 -0.1057
 3171TIP3   OH2 9445   5.952   7.461   2.259  0.1998 -0.1829  0.6480
 3171TIP3    H1 9446   6.016   7.421   2.199 -1.0164 -0.9972 -0.1361
 3171TIP3    H2 9447   5.961   7.411   2.340  0.3587 -0.4969  0.4395
 3172TIP3   OH2 9448   7.844   2.015   0.775 -1.1000 -0.1900 -0.4050
 3172TIP3    H1 9449   7.780   2.015   0.846 -1.1157 -1.2660 -0.4103
 3172TIP3    H2 9450   7.923   1.979   0.814 -1.0264 -0.5270 -0.8638
 3173TIP3   OH2 9451   0.612   3.365   3.436  0.2752  0.3863 -0.3655
 3173TIP3    H1 9452   0.583   3.368   3.345 -0.0465 -1.4382 -0.3562
 3173TIP3    H2 9453   0.534   3.341   3.485  1.1020 -1.7108  0.0038
 3174TIP3   OH2 9454   7.238   3.636   0.825 -0.3753  0.0282  0.2562
 3174TIP3    H1 9455   7.153   3.646   0.781  0.1179  0.7809 -0.5368
 3174TIP3    H2 9456   7.216   3.632   0.918 -1.4178 -1.4395 -0.0329
 3175TIP3   OH2 9457   8.032   1.334   3.673 -0.4824  0.0550 -0.7355
 3175TIP3    H1 9458   7.946   1.364   3.701 -0.6862 -0.9471 -0.2881
 3175TIP3    H2 9459   8.015   1.282   3.595 -0.1791  0.6797 -1.2208
 3176TIP3   OH2 9460   6.977   4.558   3.972 -0.0158 -0.2893 -0.3413
 3176TIP3    H1 9461   7.068   4.575   3.947  0.3862 -0.7325  0.8017
 3176TIP3    H2 9462   6.982   4.523   4.061 -1.3854  0.6557  0.1254
 3177TIP3   OH2 9463   7.026   5.045   1.943  0.2971  0.0620  0.1402
 3177TIP3    H1 9464   6.930   5.045   1.942  0.2946  1.6214 -1.6517
 3177TIP3    H2 9465   7.049   5.038   2.036 -1.5230 -1.6528  0.5055
 3178TIP3   OH2 9466   6.449   2.441   3.441  0.4981  0.6886 -0.6002
 3178TIP3    H1 9467   6.445   2.375   3.372 -0.7615  0.6817 -0.5341
 3178TIP3    H2 9468   6.388   2.509   3.413 -0.9181  0.1522  1.0329
 3179TIP3   OH2 9469   0.548   5.518   2.830  0.0728 -0.0741 -0.1686
 3179TIP3    H1 9470   0.494   5.565   2.894  1.5086 -0.0568  1.0826
 3179TIP3    H2 9471   0.584   5.445   2.880  0.3113 -0.7220 -1.2858
 3180TIP3   OH2 9472   8.490   5.702   2.120 -0.0433 -0.2978 -0.4229
 3180TIP3    H1 9473   8.475   5.620   2.074 -0.3076 -0.9327  0.7622
 3180TIP3    H2 9474   8.402   5.732   2.144  0.2092 -1.4008  2.0698
 3181TIP3   OH2 9475   0.594   2.340   1.877  0.3498  0.9399  0.2112
 3181TIP3    H1 9476   0.671   2.373   1.831  0.4149 -0.5733 -0.7952
 3181TIP3    H2 9477   0.530   2.411   1.868  0.8903  1.3093 -0.8731
 3182TIP3   OH2 9478   1.180   0.735   2.503 -0.2116  0.3937  0.1285
 3182TIP3    H1 9479   1.110   0.795   2.475  0.7828  0.6361 -1.9193
 3182TIP3    H2 9480   1.140   0.648   2.500 -0.9079  0.6915  0.6256
 3183TIP3   OH2 9481   8.162   3.299   1.364 -0.0407 -0.3173  0.1469
 3183TIP3    H1 9482   8.147   3.346   1.447 -1.1132  0.7368 -0.6243
 3183TIP3    H2 9483   8.147   3.365   1.297  0.8702 -1.1652 -0.8922
 3184TIP3   OH2 9484   2.876   3.668   6.411  0.3906  0.1212  0.8208
 3184TIP3    H1 9485   2.818   3.705   6.478  0.4730  0.8224  0.5137
 3184TIP3    H2 9486   2.945   3.733   6.401  1.2399 -0.7165  1.1859
 3185TIP3   OH2 9487   0.650   3.119   1.073  0.3616 -0.4226  0.0385
 3185TIP3    H1 9488   0.590   3.080   1.009  0.5173 -1.7511  0.6779
 3185TIP3    H2 9489   0.606   3.105   1.157  1.2507 -0.8040  0.4424
 3186TIP3   OH2 9490   0.119   3.090   2.971  0.1225 -1.2082  0.4931
 3186TIP3    H1 9491   0.154   3.178   2.957 -0.0834 -1.0988  0.6610
 3186TIP3    H2 9492   0.187   3.045   3.021 -0.2054 -0.8221  1.3052
 3187TIP3   OH2 9493   8.030   1.248   1.619  0.5186  0.0926  0.2501
 3187TIP3    H1 9494   7.986   1.330   1.641  0.8561  0.0638  1.0789
 3187TIP3    H2 9495   8.005   1.188   1.690 -0.5945 -0.8476 -0.9188
 3188TIP3   OH2 9496   0.467   4.751   0.308 -0.2582 -0.0054  0.2540
 3188TIP3    H1 9497   0.557   4.742   0.340  0.3327  0.7803 -1.1331
 3188TIP3    H2 9498   0.465   4.701   0.226 -1.2439 -0.4866  0.5626
 3189TIP3   OH2 9499   7.293   1.089   2.698 -0.7240 -0.1591  0.0153
 3189TIP3    H1 9500   7.262   1.134   2.777  1.0559 -0.2021  0.7631
 3189TIP3    H2 9501   7.259   1.000   2.708  1.5279 -0.8495  1.9906
 3190TIP3   OH2 9502   6.939   3.277   1.975  0.8328 -0.2278 -0.1326
 3190TIP3    H1 9503   6.902   3.252   2.060  0.2234 -0.6698 -0.5241
 3190TIP3    H2 9504   6.865   3.272   1.914  1.1049  0.8132 -0.5491
 3191TIP3   OH2 9505   8.304   2.316   0.139 -0.3021 -0.4728  0.4134
 3191TIP3    H1 9506   8.285   2.246   0.077  2.1835 -0.0792 -0.8679
 3191TIP3    H2 9507   8.286   2.397   0.090  1.1249 -0.1674  0.3771
 3192TIP3   OH2 9508   0.105   3.581   3.315 -0.2105  0.1268  0.2152
 3192TIP3    H1 9509   0.047   3.528   3.261  0.1880 -0.9210  0.8031
 3192TIP3    H2 9510   0.138   3.649   3.256 -0.2644 -0.6394 -0.6949
 3193TIP3   OH2 9511   1.866   1.643   3.281 -0.0811 -0.1136 -0.0116
 3193TIP3    H1 9512   1.919   1.721   3.263 -0.1791 -0.1447 -0.4527
 3193TIP3    H2 9513   1.878   1.626   3.374 -0.5956  0.8261  0.2316
 3194TIP3   OH2 9514   8.437   2.261   3.786 -0.1407  0.4830  0.0188
 3194TIP3    H1 9515   8.484   2.208   3.722  1.5116 -2.0440  3.1734
 3194TIP3    H2 9516   8.498   2.331   3.810 -0.1461  0.5027 -0.0252
 3195TIP3   OH2 9517   1.109   2.893   3.388 -0.6660  0.4583 -0.2445
 3195TIP3    H1 9518   1.014   2.900   3.384 -0.7347  0.0463  0.5276
 3195TIP3    H2 9519   1.131   2.819   3.331 -0.9002 -0.1215  0.4164
 3196TIP3   OH2 9520   8.355   4.627   3.070 -0.3756 -0.2176 -0.5270
 3196TIP3    H1 9521   8.358   4.617   3.165 -0.3425 -0.2873 -0.5357
 3196TIP3    H2 9522   8.397   4.548   3.036 -0.1044 -0.0452 -0.5932
 3197TIP3   OH2 9523   5.216   3.167   2.284 -0.3084 -0.1550 -0.1150
 3197TIP3    H1 9524   5.273   3.197   2.355 -1.1358 -1.0615  0.9584
 3197TIP3    H2 9525   5.130   3.156   2.326 -0.6729 -1.2688 -1.1237
 3198TIP3   OH2 9526   0.294   4.225   3.856  0.3271  0.5482  0.2231
 3198TIP3    H1 9527   0.345   4.192   3.782 -0.1985  1.1893 -0.4340
 3198TIP3    H2 9528   0.219   4.268   3.816  0.2863  1.3165  1.1119
 3199TIP3   OH2 9529   7.512   2.077   2.297  0.3130  0.2715 -0.1448
 3199TIP3    H1 9530   7.443   2.143   2.288 -0.3237 -0.3050  0.4392
 3199TIP3    H2 9531   7.571   2.113   2.363 -0.4825 -0.1042  0.7878
 3200TIP3   OH2 9532   0.755   1.086   4.165  0.1667 -0.2691  0.1647
 3200TIP3    H1 9533   0.743   1.061   4.073 -0.0138 -1.2328  0.4447
 3200TIP3    H2 9534   0.826   1.150   4.163 -0.8128  0.8133 -0.8132
 3201TIP3   OH2 9535   0.365   2.823   2.189  0.1099 -0.3219  0.0822
 3201TIP3    H1 9536   0.378   2.733   2.158  2.6366  0.3667 -1.0102
 3201TIP3    H2 9537   0.435   2.836   2.253  0.2372  1.1023 -0.3309
 3202TIP3   OH2 9538   8.116   0.379   4.310  0.3715  0.1464 -0.1930
 3202TIP3    H1 9539   8.059   0.448   4.342  0.0789 -0.7447  1.2708
 3202TIP3    H2 9540   8.161   0.346   4.388  1.5652 -0.3622 -1.0653
 3203TIP3   OH2 9541   0.352   3.984   3.937 -0.6103  0.1207 -0.3942
 3203TIP3    H1 9542   0.326   4.075   3.923 -1.4034  0.2019  1.4087
 3203TIP3    H2 9543   0.448   3.987   3.939 -0.6312  0.9230 -0.3672
 3204TIP3   OH2 9544   7.009   2.726   3.581 -0.2851 -0.1343  0.2210
 3204TIP3    H1 9545   7.101   2.715   3.604 -0.7088 -0.8838  1.5754
 3204TIP3    H2 9546   7.002   2.818   3.555  0.8446 -0.0811  0.0628
 3205TIP3   OH2 9547   0.184   0.767   4.698 -0.1657 -0.0934 -0.3230
 3205TIP3    H1 9548   0.241   0.843   4.690  1.5823 -1.3257  0.1695
 3205TIP3    H2 9549   0.203   0.732   4.785 -1.4898 -0.6831 -0.2596
 3206TIP3   OH2 9550   2.468   3.039   4.863  0.0679  0.0090  0.2587
 3206TIP3    H1 9551   2.414   3.055   4.786 -0.7335 -0.8018  0.6492
 3206TIP3    H2 9552   2.483   3.126   4.900 -2.1348  0.1224  0.9341
 3207TIP3   OH2 9553   8.419   2.718   5.517  0.2375  0.2455  0.0589
 3207TIP3    H1 9554   8.473   2.640   5.511 -0.0591  0.0458 -0.0353
 3207TIP3    H2 9555   8.413   2.737   5.610  0.8270  0.5188  0.0421
 3208TIP3   OH2 9556   1.813   2.110   5.819  0.4667 -0.2904 -0.0521
 3208TIP3    H1 9557   1.835   2.026   5.778 -0.6543 -0.8509  0.4792
 3208TIP3    H2 9558   1.856   2.106   5.905 -1.1547 -1.1318  0.7410
 3209TIP3   OH2 9559   7.129   7.101   4.575 -0.6579 -0.3220  0.1801
 3209TIP3    H1 9560   7.205   7.047   4.594  0.3955  1.8228  2.3285
 3209TIP3    H2 9561   7.160   7.165   4.511 -1.0425 -0.3065  0.0079
 3210TIP3   OH2 9562   0.801   1.678   2.757 -0.4865 -0.0627  0.5700
 3210TIP3    H1 9563   0.847   1.754   2.721 -2.8514  1.5805  0.9564
 3210TIP3    H2 9564   0.831   1.605   2.702  3.0392  0.8079  1.1941
 3211TIP3   OH2 9565   0.559   3.001   4.634  0.0372  0.4246 -0.3883
 3211TIP3    H1 9566   0.636   3.005   4.577  0.0363 -2.5076 -0.6683
 3211TIP3    H2 9567   0.549   2.908   4.654 -0.7783  1.2269  3.3312
 3212TIP3   OH2 9568   7.748   2.807   4.090  0.1536  0.2085 -0.2460
 3212TIP3    H1 9569   7.762   2.715   4.071  1.6316  0.4902 -0.5619
 3212TIP3    H2 9570   7.652   2.817   4.092 -0.0122 -1.4377  0.4212
 3213TIP3   OH2 9571   0.767   3.955   2.919  0.8183  0.3700 -1.1685
 3213TIP3    H1 9572   0.761   3.929   3.011 -0.1146 -0.0051 -1.3268
 3213TIP3    H2 9573   0.753   3.874   2.871  1.2578  0.5751 -1.6506
 3214TIP3   OH2 9574   1.773   0.449   2.083  0.3415 -0.1508  0.4465
 3214TIP3    H1 9575   1.784   0.360   2.050  0.0592 -0.9116  2.3271
 3214TIP3    H2 9576   1.862   0.482   2.092  0.5253 -0.8990  1.4448
 3215TIP3   OH2 9577   1.724   3.678   2.339 -0.9090 -0.5154  0.2886
 3215TIP3    H1 9578   1.691   3.738   2.406  2.4482  1.2853  0.4431
 3215TIP3    H2 9579   1.724   3.592   2.381 -0.3483  0.3333  2.0596
 3216TIP3   OH2 9580   0.626   2.089   2.897 -0.0035 -0.3949 -0.0514
 3216TIP3    H1 9581   0.560   2.036   2.943 -0.3231  0.3454  0.3535
 3216TIP3    H2 9582   0.581   2.119   2.818  0.2476 -0.8943 -0.3906
 3217TIP3   OH2 9583   1.057   3.933   5.221  0.2644  0.3710  0.3488
 3217TIP3    H1 9584   1.147   3.903   5.206  0.0008 -0.6125  0.6781
 3217TIP3    H2 9585   1.016   3.862   5.271 -0.0475  1.7965  2.1852
 3218TIP3   OH2 9586   8.014   2.801   4.101 -0.0912  0.1045  0.1841
 3218TIP3    H1 9587   8.040   2.875   4.157  0.0153 -0.7451  1.2827
 3218TIP3    H2 9588   7.918   2.800   4.107 -0.0496 -0.3458  0.8363
 3219TIP3   OH2 9589   8.294   1.623   3.193  0.1783  0.9385 -0.2799
 3219TIP3    H1 9590   8.369   1.668   3.231  0.4425 -0.9952  1.6243
 3219TIP3    H2 9591   8.331   1.565   3.127  0.1444  1.3939 -0.7003
 3220TIP3   OH2 9592   0.669   2.860   3.605  0.4766 -0.4379 -0.4112
 3220TIP3    H1 9593   0.625   2.856   3.690 -0.6690 -1.2017 -1.0224
 3220TIP3    H2 9594   0.709   2.773   3.596  0.2785 -0.4853 -0.8203
 3221TIP3   OH2 9595   1.608   2.613   3.826  0.4466 -0.0952 -0.1232
 3221TIP3    H1 9596   1.526   2.572   3.854  0.4898  0.4420  0.8338
 3221TIP3    H2 9597   1.674   2.544   3.836  0.6348  0.3578  2.1156
 3222TIP3   OH2 9598   0.429   3.325   3.217 -0.1120 -0.0443  0.4627
 3222TIP3    H1 9599   0.457   3.242   3.178 -0.3595 -0.7728  1.7764
 3222TIP3    H2 9600   0.342   3.341   3.180 -0.5203 -0.9409  0.9969
 3223TIP3   OH2 9601   0.382   2.562   3.699 -0.4750  0.1241  0.2137
 3223TIP3    H1 9602   0.392   2.634   3.762 -0.3225 -0.5433  0.9684
 3223TIP3    H2 9603   0.336   2.601   3.625  0.3612  1.1986  0.2523
 3224TIP3   OH2 9604   8.103   3.653   3.898  0.4295 -0.4221  0.1892
 3224TIP3    H1 9605   8.071   3.637   3.810  0.3123 -1.2040  0.3688
 3224TIP3    H2 9606   8.125   3.566   3.932 -1.3892 -0.3293  1.6464
 3225TIP3   OH2 9607   1.242   1.928   3.611  0.1810 -0.1543 -0.1430
 3225TIP3    H1 9608   1.193   2.007   3.631  0.2152 -0.2686  0.4208
 3225TIP3    H2 9609   1.319   1.958   3.563 -1.9301 -0.2684 -3.6926
 3226TIP3   OH2 9610   0.955   2.455   6.489  0.1469 -0.1421 -0.3724
 3226TIP3    H1 9611   0.903   2.534   6.500  2.7005  1.4178  1.0582
 3226TIP3    H2 9612   0.902   2.386   6.529  0.1097  1.8201  3.2422
 3227TIP3   OH2 9613   0.430   1.531   3.321 -0.0024  0.1497 -0.3606
 3227TIP3    H1 9614   0.493   1.542   3.249  1.2686 -1.0048  0.5529
 3227TIP3    H2 9615   0.482   1.500   3.394 -1.6208 -0.6459  0.4809
 3228TIP3   OH2 9616   0.505   5.677   4.954 -0.3739  0.1110  0.0789
 3228TIP3    H1 9617   0.578   5.691   5.014  0.3739  0.2392 -0.8418
 3228TIP3    H2 9618   0.528   5.727   4.876 -2.4943  1.9774  0.5937
 3229TIP3   OH2 9619   0.418   3.909   2.955 -0.1749 -0.5375 -0.1562
 3229TIP3    H1 9620   0.372   3.934   3.035  0.8565 -0.0775  0.3089
 3229TIP3    H2 9621   0.459   3.991   2.925 -0.0698 -0.8318 -0.8249
 3230TIP3   OH2 9622   8.455   3.869   4.251  0.6169 -0.3828 -0.5485
 3230TIP3    H1 9623   8.484   3.852   4.161 -0.4995  0.2495 -1.0443
 3230TIP3    H2 9624   8.360   3.859   4.246  0.6088 -0.9148  0.6939
 3231TIP3   OH2 9625   0.671   6.391   3.291  0.0525  0.5752  0.2858
 3231TIP3    H1 9626   0.671   6.297   3.269  1.3662  0.7986 -0.7382
 3231TIP3    H2 9627   0.737   6.399   3.359 -1.3644  0.4792  1.6890
 3232TIP3   OH2 9628   0.424   4.031   4.974 -0.5130  0.0856  0.2303
 3232TIP3    H1 9629   0.476   3.988   5.041 -1.0609 -0.7620  0.1219
 3232TIP3    H2 9630   0.435   4.125   4.990 -0.2782 -0.1133  1.2145
 3233TIP3   OH2 9631   7.370   1.518   2.617 -0.7605 -0.0946  0.0182
 3233TIP3    H1 9632   7.394   1.452   2.551 -2.6005  0.0694 -0.8227
 3233TIP3    H2 9633   7.318   1.470   2.681 -0.8187  0.2130  0.2016
 3234TIP3   OH2 9634   0.715   1.982   5.955 -0.4474 -0.3361  0.0202
 3234TIP3    H1 9635   0.661   2.016   6.026  0.3789 -1.0235  0.9995
 3234TIP3    H2 9636   0.653   1.935   5.899 -1.0220 -0.3354  0.6374
 3235TIP3   OH2 9637   0.244   2.743   3.493 -0.3558 -0.0047  0.1802
 3235TIP3    H1 9638   0.249   2.829   3.534  0.9393  0.2330 -0.4397
 3235TIP3    H2 9639   0.299   2.751   3.415 -2.9714 -0.3632 -1.7516
 3236TIP3   OH2 9640   2.219   3.797   5.795  0.2029  0.0662  0.4555
 3236TIP3    H1 9641   2.201   3.710   5.832  3.4899 -1.1656 -0.6248
 3236TIP3    H2 9642   2.246   3.779   5.705  0.6166  2.2422  0.1198
 3237TIP3   OH2 9643   0.751   3.714   4.576  0.0274  0.0961  0.1617
 3237TIP3    H1 9644   0.808   3.761   4.515 -0.2403  1.4034  0.9178
 3237TIP3    H2 9645   0.670   3.765   4.578 -0.9825 -1.4350 -0.4577
 3238TIP3   OH2 9646   1.555   3.489   3.271 -0.0861  0.3278 -0.2424
 3238TIP3    H1 9647   1.549   3.523   3.360  1.4974  0.6467 -0.2400
 3238TIP3    H2 9648   1.615   3.549   3.226 -0.8652  0.1724 -1.5269
 3239TIP3   OH2 9649   0.753   2.858   4.021  0.5396  0.2583 -0.2752
 3239TIP3    H1 9650   0.830   2.828   4.068 -0.0482  1.9166  1.8357
 3239TIP3    H2 9651   0.697   2.780   4.013  1.7445 -0.5937 -0.4715
 3240TIP3   OH2 9652   7.174   3.454   2.391  0.1404 -0.1007 -0.5158
 3240TIP3    H1 9653   7.154   3.374   2.440 -0.6256 -0.5710 -1.5879
 3240TIP3    H2 9654   7.090   3.483   2.356  0.5007  0.8810 -0.6008
 3241TIP3   OH2 9655   1.157   0.093   2.681  0.2637 -0.1503  0.0981
 3241TIP3    H1 9656   1.115   0.113   2.765  0.8552  0.2686  0.2968
 3241TIP3    H2 9657   1.134   0.167   2.625  0.2101 -0.2316  0.0123
 3242TIP3   OH2 9658   0.310   2.707   3.939 -0.3727 -0.7584 -0.0610
 3242TIP3    H1 9659   0.376   2.773   3.917 -0.8645 -0.9010 -1.9850
 3242TIP3    H2 9660   0.226   2.752   3.928 -0.6641 -1.0782  0.7599
 3243TIP3   OH2 9661   1.141   2.702   3.652 -0.0179 -0.3285  1.1407
 3243TIP3    H1 9662   1.112   2.616   3.621  0.8285 -0.5674  0.9816
 3243TIP3    H2 9663   1.061   2.754   3.659 -0.3725 -0.6505 -0.2815
 3244TIP3   OH2 9664   0.940   2.850   3.828  0.3290 -0.0494 -0.7767
 3244TIP3    H1 9665   0.865   2.879   3.880  1.3602 -0.5017  1.0344
 3244TIP3    H2 9666   0.904   2.783   3.770 -0.5321 -0.8365  0.6243
 3245TIP3   OH2 9667   0.398   2.968   1.922  0.3891  0.1405  0.2732
 3245TIP3    H1 9668   0.350   2.899   1.876 -3.5930  1.5520  2.0597
 3245TIP3    H2 9669   0.403   2.937   2.013  2.3580  0.3080  0.2310
 3246TIP3   OH2 9670   8.112   2.905   2.342 -0.5328 -0.2924 -0.1586
 3246TIP3    H1 9671   8.091   2.816   2.371 -0.6235 -0.0964  0.3831
 3246TIP3    H2 9672   8.104   2.958   2.421 -0.3295  0.1736 -0.4509
 3247TIP3   OH2 9673   0.421   4.666   4.400 -0.4492 -0.1807 -0.2540
 3247TIP3    H1 9674   0.409   4.721   4.477 -0.9700 -0.1575 -0.3469
 3247TIP3    H2 9675   0.507   4.626   4.412 -0.4383 -0.0138  0.2357
 3248TIP3   OH2 9676   0.486   1.009   3.164 -0.4566  0.0162  0.5419
 3248TIP3    H1 9677   0.567   0.960   3.176 -0.6113 -0.9445 -1.9957
 3248TIP3    H2 9678   0.495   1.085   3.221  2.1597 -0.1468  0.4042
 3249TIP3   OH2 9679   7.905   1.903   3.199  0.3459 -0.7451 -0.1966
 3249TIP3    H1 9680   7.936   1.873   3.284  0.5346 -0.7673 -0.2742
 3249TIP3    H2 9681   7.932   1.995   3.194  0.2904 -0.7295 -0.2111
 3250TIP3   OH2 9682   2.020   1.240   2.730 -0.1802  0.5835  0.0062
 3250TIP3    H1 9683   1.942   1.192   2.701 -0.1815  0.0503  0.8776
 3250TIP3    H2 9684   2.093   1.182   2.708  0.1826  2.0623 -2.9219
 3251TIP3   OH2 9685   1.519   4.694   5.057  0.2343  0.5379  0.1852
 3251TIP3    H1 9686   1.586   4.647   5.007  0.0401  0.6807 -0.2154
 3251TIP3    H2 9687   1.485   4.629   5.119  0.6479  0.4259  0.2948
 3252TIP3   OH2 9688   0.050   4.584   3.571  0.3038 -0.0328  0.4042
 3252TIP3    H1 9689   0.037   4.500   3.614  0.8163  0.6477  1.9330
 3252TIP3    H2 9690   0.027   4.649   3.638  1.0748  1.0593 -0.3699
 3253TIP3   OH2 9691   8.296   2.146   4.382 -0.0837  0.0978 -0.1323
 3253TIP3    H1 9692   8.283   2.131   4.476  0.8757 -1.6748 -0.2585
 3253TIP3    H2 9693   8.208   2.142   4.345 -0.4442  0.5775  0.6623
 3254TIP3   OH2 9694   7.476   0.731   5.228 -0.4264 -0.1694  0.7226
 3254TIP3    H1 9695   7.465   0.703   5.137  0.9390  0.6694  0.2866
 3254TIP3    H2 9696   7.542   0.671   5.264  0.6016  0.8022  0.5243
 3255TIP3   OH2 9697   0.629   3.181   3.796  0.2616 -0.2714  0.4964
 3255TIP3    H1 9698   0.684   3.151   3.724 -0.1911 -0.4927  0.2467
 3255TIP3    H2 9699   0.566   3.240   3.756 -0.9162 -1.5211  0.4778
 3256TIP3   OH2 9700   0.336   3.465   4.114 -0.4069  0.0966 -0.3359
 3256TIP3    H1 9701   0.296   3.401   4.172  2.6004 -0.2425  1.4924
 3256TIP3    H2 9702   0.413   3.421   4.079  0.3197  1.8578 -1.0089
 3257TIP3   OH2 9703   7.261   1.745   2.511  0.0138 -0.1249 -0.4824
 3257TIP3    H1 9704   7.292   1.662   2.548  2.6604  1.8286  1.9335
 3257TIP3    H2 9705   7.316   1.759   2.434 -0.6983 -0.7770 -1.1173
 3258TIP3   OH2 9706   2.628   1.842   2.102 -0.3570  0.1294 -0.1016
 3258TIP3    H1 9707   2.608   1.936   2.102 -0.5427  0.1044  0.8539
 3258TIP3    H2 9708   2.716   1.836   2.065 -0.0863  0.7499  0.4250
 3259TIP3   OH2 9709   0.691   1.980   3.194  0.3542  0.3199  0.6217
 3259TIP3    H1 9710   0.636   2.058   3.198 -1.8503 -1.1690  0.3026
 3259TIP3    H2 9711   0.779   2.013   3.177 -0.5860  2.7087  0.2488
 3260TIP3   OH2 9712   0.563   3.256   4.443 -0.2194  0.6788 -0.1081
 3260TIP3    H1 9713   0.597   3.223   4.360 -2.3996  1.4706 -1.3537
 3260TIP3    H2 9714   0.555   3.178   4.498 -0.2565 -0.0954 -1.2010
 3261TIP3   OH2 9715   8.080   3.250   6.298  0.1767  0.4901 -0.2839
 3261TIP3    H1 9716   8.129   3.256   6.380  0.0416  0.1015 -0.1760
 3261TIP3    H2 9717   8.000   3.202   6.321  0.4746 -0.2505 -0.7999
 3262TIP3   OH2 9718   0.879   1.928   2.616  0.3322  0.2955 -0.1793
 3262TIP3    H1 9719   0.844   1.933   2.527  0.1712 -0.9760 -0.2005
 3262TIP3    H2 9720   0.966   1.890   2.605  0.3237  0.1589  0.1984
 3263TIP3   OH2 9721   7.630   0.456   4.613 -0.0093 -0.8752  0.4854
 3263TIP3    H1 9722   7.652   0.407   4.692 -1.0201 -2.2238 -0.0676
 3263TIP3    H2 9723   7.714   0.484   4.577  0.4328  0.6606  2.5905
 3264TIP3   OH2 9724   7.501   3.918   1.756  0.2617  0.1311 -0.0916
 3264TIP3    H1 9725   7.543   3.901   1.672  0.8579  1.1412 -0.0076
 3264TIP3    H2 9726   7.477   3.832   1.789 -1.8188 -0.1558 -2.2260
 3265TIP3   OH2 9727   0.993   3.160   4.193 -0.4275 -0.3313 -0.1489
 3265TIP3    H1 9728   0.901   3.153   4.217 -0.2867 -0.7444  0.2566
 3265TIP3    H2 9729   1.012   3.080   4.144 -0.0958 -0.5714  0.3741
 3266TIP3   OH2 9730   0.285   3.818   3.714 -0.0927 -0.2834  0.7768
 3266TIP3    H1 9731   0.265   3.866   3.795 -1.9819 -0.3018  0.3600
 3266TIP3    H2 9732   0.282   3.726   3.739 -0.4174 -0.2807  0.7574
 3267TIP3   OH2 9733   1.402   0.984   1.743  0.2487 -0.1295 -0.7349
 3267TIP3    H1 9734   1.336   1.026   1.798 -1.3047  0.0633 -2.6993
 3267TIP3    H2 9735   1.377   0.892   1.743  0.7893 -0.2759 -0.3751
 3268TIP3   OH2 9736   1.296   2.187   3.867  0.0291  0.7100  0.5392
 3268TIP3    H1 9737   1.244   2.187   3.787  0.8772 -2.7401 -0.1061
 3268TIP3    H2 9738   1.379   2.228   3.842  0.4968 -0.8648 -0.5212
 3269TIP3   OH2 9739   2.824   2.295   3.232  0.1382  0.2079  0.2685
 3269TIP3    H1 9740   2.743   2.275   3.279  0.2668 -2.8605 -0.6922
 3269TIP3    H2 9741   2.794   2.318   3.143  0.2630 -0.5370  0.0262
 3270TIP3   OH2 9742   6.616   7.680   1.238  0.3569  0.6230 -0.4128
 3270TIP3    H1 9743   6.645   7.676   1.147  0.8994 -0.3789 -0.2049
 3270TIP3    H2 9744   6.682   7.630   1.286  0.6939  2.0963  0.6954
 3271TIP3   OH2 9745   1.344   3.390   2.342 -0.0652 -0.2383 -0.4378
 3271TIP3    H1 9746   1.431   3.405   2.304 -0.4949  0.0901 -1.3092
 3271TIP3    H2 9747   1.301   3.475   2.337 -0.7955 -0.6336 -0.9467
 3272TIP3   OH2 9748   1.778   3.675   5.667 -0.5141 -0.5332 -0.2268
 3272TIP3    H1 9749   1.753   3.682   5.759 -0.0292 -0.6685 -0.0814
 3272TIP3    H2 9750   1.777   3.765   5.635  0.1886 -0.3912  0.1476
 3273TIP3   OH2 9751   2.276   2.928   5.356  0.0711 -0.0547  0.7356
 3273TIP3    H1 9752   2.364   2.932   5.394 -0.1652 -0.0875  1.2875
 3273TIP3    H2 9753   2.286   2.967   5.270  1.2107 -2.4464 -0.2805
 3274TIP3   OH2 9754   7.047   4.154   2.341  0.1661 -0.3333 -0.3926
 3274TIP3    H1 9755   7.014   4.121   2.424 -0.3077 -0.1605 -0.5137
 3274TIP3    H2 9756   6.981   4.130   2.277  1.0987 -1.5273 -0.9220
 3275TIP3   OH2 9757   1.273   3.447   4.080  0.3106  0.2342  0.0958
 3275TIP3    H1 9758   1.187   3.425   4.114  0.1214  0.2217 -0.3914
 3275TIP3    H2 9759   1.257   3.484   3.993  0.6593  1.8522  0.6964
 3276TIP3   OH2 9760   0.875   3.336   3.471  0.1752  0.2415  0.6027
 3276TIP3    H1 9761   0.903   3.409   3.416  1.5994  0.6505  1.8171
 3276TIP3    H2 9762   0.792   3.363   3.509  0.1082  0.7282  0.1010
 3277TIP3   OH2 9763   7.918   3.292   2.459  0.4243 -0.4842 -0.3886
 3277TIP3    H1 9764   7.962   3.290   2.374  0.1129 -1.0831 -0.5366
 3277TIP3    H2 9765   7.828   3.264   2.440  0.5456 -1.3232  0.2484
 3278TIP3   OH2 9766   8.254   3.024   4.997 -0.3607 -0.9954  0.1598
 3278TIP3    H1 9767   8.288   3.030   5.086 -1.0688 -1.3207  0.4633
 3278TIP3    H2 9768   8.255   3.114   4.964  0.4142 -0.9496  0.2980
 3279TIP3   OH2 9769   8.022   2.009   1.169 -0.2459  0.0362  0.0893
 3279TIP3    H1 9770   8.062   2.019   1.083 -1.1789  0.4525 -0.2976
 3279TIP3    H2 9771   7.980   1.923   1.166 -1.1994  0.5171 -0.2441
 3280TIP3   OH2 9772   8.479   4.873   4.881 -0.4626 -0.5455 -0.3860
 3280TIP3    H1 9773   8.551   4.831   4.834  0.2605  0.3434 -0.0865
 3280TIP3    H2 9774   8.444   4.937   4.819 -0.7166 -0.6799 -0.3807
 3281TIP3   OH2 9775   7.183   2.714   4.129  0.1797 -0.2869 -0.2295
 3281TIP3    H1 9776   7.157   2.636   4.178 -1.4361 -0.9166 -2.0151
 3281TIP3    H2 9777   7.102   2.746   4.091  0.7011  2.7159  1.0479
 3282TIP3   OH2 9778   7.475   2.339   3.185 -0.1233  0.0671 -0.1254
 3282TIP3    H1 9779   7.405   2.360   3.247 -0.9073 -1.4363 -0.4792
 3282TIP3    H2 9780   7.554   2.334   3.239  0.2624  4.5323 -0.1138
 3283TIP3   OH2 9781   0.007   1.345   2.505  0.6122  0.2923 -0.2572
 3283TIP3    H1 9782   0.090   1.381   2.538  1.6431 -1.4916 -0.8069
 3283TIP3    H2 9783  -0.040   1.317   2.583  2.0326 -1.7881 -0.1068
 3284TIP3   OH2 9784   0.670   1.887   3.466  0.4166 -0.1443  0.1254
 3284TIP3    H1 9785   0.763   1.884   3.444  0.2172 -0.1518 -0.7352
 3284TIP3    H2 9786   0.626   1.906   3.383 -0.3989 -0.7501  0.4110
 3285TIP3   OH2 9787   1.934   5.097   5.884 -0.0667 -0.1711 -0.2174
 3285TIP3    H1 9788   1.985   5.176   5.901 -2.3206  1.7878 -2.2230
 3285TIP3    H2 9789   1.853   5.129   5.845 -1.7695 -3.3778  0.5447
 3286TIP3   OH2 9790   0.553   3.596   3.645 -0.1369  0.6224  0.2628
 3286TIP3    H1 9791   0.634   3.642   3.624 -0.1256  1.2928  1.7621
 3286TIP3    H2 9792   0.515   3.576   3.559 -0.1427  3.3858 -0.4323
 3287TIP3   OH2 9793   8.069   1.061   4.857  0.1383  0.5307  0.6055
 3287TIP3    H1 9794   8.039   0.993   4.796 -1.8920  0.9112  1.1332
 3287TIP3    H2 9795   8.118   1.013   4.923  0.1573 -0.2131  0.0600
 3288TIP3   OH2 9796   1.104   3.329   2.474 -0.3308 -0.0284  0.2697
 3288TIP3    H1 9797   1.107   3.234   2.460  1.9197 -0.2307  1.8930
 3288TIP3    H2 9798   1.176   3.363   2.422 -0.9856  0.7756 -0.1142
 3289TIP3   OH2 9799   7.175   2.204   3.329 -0.9842 -0.3529  0.0604
 3289TIP3    H1 9800   7.106   2.271   3.323 -0.8944 -0.1770  0.9478
 3289TIP3    H2 9801   7.128   2.121   3.327 -1.3144 -0.2174  1.8342
 3290TIP3   OH2 9802   0.093   1.206   3.356 -0.4386  0.0621  0.2907
 3290TIP3    H1 9803   0.111   1.153   3.433 -0.5282 -0.4681 -0.0523
 3290TIP3    H2 9804   0.004   1.182   3.330 -0.4712  0.3623  0.1217
 3291TIP3   OH2 9805   5.511   3.580   3.715 -0.4636 -0.6649 -0.1965
 3291TIP3    H1 9806   5.472   3.502   3.755  0.6130  0.1928  2.6560
 3291TIP3    H2 9807   5.540   3.633   3.790  1.3848  1.1347 -2.1314
 3292TIP3   OH2 9808   0.852   4.096   3.803  0.1280  0.0949  0.1438
 3292TIP3    H1 9809   0.826   4.041   3.729  0.3014  0.1106  0.0698
 3292TIP3    H2 9810   0.811   4.181   3.785  2.2294  0.8585 -1.2480
 3293TIP3   OH2 9811   1.208   2.444   3.024  0.3759 -0.4625 -0.3670
 3293TIP3    H1 9812   1.168   2.529   3.004  0.1906 -0.3630  0.3774
 3293TIP3    H2 9813   1.288   2.442   2.972 -0.6566 -0.7167 -1.9579
 3294TIP3   OH2 9814   1.619   1.472   1.815 -0.1717  0.2182  0.1833
 3294TIP3    H1 9815   1.703   1.435   1.787  0.9022  1.0492  2.2026
 3294TIP3    H2 9816   1.557   1.400   1.805  1.0673 -0.8602  0.0676
 3295TIP3   OH2 9817   7.268   4.008   4.517 -0.3632  0.4778 -0.1112
 3295TIP3    H1 9818   7.341   4.009   4.455  0.6892 -1.2668  1.0598
 3295TIP3    H2 9819   7.309   3.999   4.603 -1.8889  0.9113  0.6727
 3296TIP3   OH2 9820   0.602   1.230   3.343 -0.0683  0.0252 -0.2655
 3296TIP3    H1 9821   0.582   1.314   3.384 -0.1596  0.2109 -0.6946
 3296TIP3    H2 9822   0.633   1.175   3.416 -0.9279  0.1284  0.1799
 3297TIP3   OH2 9823   1.269   1.435   2.402  0.4598  0.0138  0.7187
 3297TIP3    H1 9824   1.241   1.350   2.370  0.3196  0.2753  0.1334
 3297TIP3    H2 9825   1.357   1.447   2.366  0.1860  0.4375  0.1887
 3298TIP3   OH2 9826   7.250   4.040   2.121  0.2213 -0.0887 -0.4870
 3298TIP3    H1 9827   7.262   3.946   2.136  0.4023 -0.1591 -1.0817
 3298TIP3    H2 9828   7.237   4.076   2.209  1.1805 -0.5229 -0.1576
 3299TIP3   OH2 9829   8.442   2.005   5.245  0.1310 -0.5525 -0.2878
 3299TIP3    H1 9830   8.365   1.965   5.205  1.6724 -2.8336 -1.0770
 3299TIP3    H2 9831   8.468   1.944   5.314  1.4525  0.0012 -0.2866
 3300TIP3   OH2 9832   1.178   2.237   3.403  0.5228 -0.6198  0.1251
 3300TIP3    H1 9833   1.096   2.224   3.354 -0.5321  0.2748  1.5803
 3300TIP3    H2 9834   1.227   2.301   3.351 -1.1783  1.3541  0.8617
 3301TIP3   OH2 9835   0.102   2.346   2.666  1.0166 -0.3401 -0.5704
 3301TIP3    H1 9836   0.178   2.290   2.682  1.5276  0.5144  0.0273
 3301TIP3    H2 9837   0.071   2.321   2.579  1.1494 -1.6468 -0.2487
 3302TIP3   OH2 9838   0.647   4.021   4.029  0.2401 -0.5072 -0.5748
 3302TIP3    H1 9839   0.691   4.098   3.993  1.0424 -0.0189  1.3747
 3302TIP3    H2 9840   0.653   4.033   4.124  0.6304 -3.1244 -0.2407
 3303TIP3   OH2 9841   0.845   4.114   5.064 -0.5434 -0.1389  0.4425
 3303TIP3    H1 9842   0.926   4.146   5.026  0.1337 -1.0961  1.0716
 3303TIP3    H2 9843   0.854   4.129   5.158 -0.4983 -1.5234  0.6757
 3304TIP3   OH2 9844   7.421   1.770   4.246 -0.4041 -0.0780  0.7682
 3304TIP3    H1 9845   7.400   1.831   4.317  1.5639  1.8451 -0.2495
 3304TIP3    H2 9846   7.341   1.767   4.193 -0.9202  0.6917  1.4859
 3305TIP3   OH2 9847   1.530   1.898   3.319 -0.0429 -0.4749  0.1962
 3305TIP3    H1 9848   1.508   1.976   3.370  3.3591  0.8843 -0.2420
 3305TIP3    H2 9849   1.603   1.859   3.366  1.4129 -0.6782 -2.1550
 3306TIP3   OH2 9850   0.881   1.757   4.261  0.1467 -0.4515  0.1057
 3306TIP3    H1 9851   0.930   1.812   4.322  1.1834 -0.6067 -0.5856
 3306TIP3    H2 9852   0.866   1.812   4.185 -0.1085 -0.6443  0.0163
 3307TIP3   OH2 9853   1.213   4.037   4.926  0.5738  0.4012 -0.1590
 3307TIP3    H1 9854   1.212   3.960   4.868  2.0851  0.3949 -0.1838
 3307TIP3    H2 9855   1.200   4.001   5.014  1.2152  0.1119 -0.1771
 3308TIP3   OH2 9856   0.731   3.769   4.849  0.1680  0.3078  0.0708
 3308TIP3    H1 9857   0.754   3.743   4.760  1.2710  0.2465  0.3672
 3308TIP3    H2 9858   0.653   3.717   4.870 -0.0770  0.3058 -0.8424
 3309TIP3   OH2 9859   8.078   1.029   2.133  0.0184  0.3648  0.0342
 3309TIP3    H1 9860   8.073   0.939   2.164  0.4164 -0.2462 -1.6118
 3309TIP3    H2 9861   8.169   1.040   2.106  0.2450  1.6253  1.2543
 3310TIP3   OH2 9862   0.265   3.577   3.856  0.1200  0.7934  0.3030
 3310TIP3    H1 9863   0.291   3.538   3.939 -0.6622 -0.9931 -0.2646
 3310TIP3    H2 9864   0.173   3.602   3.869 -0.6258 -1.3744 -0.6738
 3311TIP3   OH2 9865   7.520   4.992   4.984  0.0571  0.3069 -0.1866
 3311TIP3    H1 9866   7.500   5.086   4.979 -1.7155 -0.0421 -0.0255
 3311TIP3    H2 9867   7.601   4.982   4.934  0.0431  1.8627 -0.5486
 3312TIP3   OH2 9868   7.532   2.375   4.477  0.0590  0.0852 -0.0819
 3312TIP3    H1 9869   7.457   2.316   4.484 -0.0934  0.3321  0.4595
 3312TIP3    H2 9870   7.504   2.443   4.416 -0.0290 -0.0201 -0.1572
 3313TIP3   OH2 9871   7.540   2.119   3.770 -0.0794  0.5260 -0.1676
 3313TIP3    H1 9872   7.550   2.165   3.854  0.3271  0.9082 -0.4228
 3313TIP3    H2 9873   7.629   2.105   3.739 -0.1986 -0.5464 -0.0416
 3314TIP3   OH2 9874   6.983   2.132   3.928 -0.1439 -0.4560 -0.1475
 3314TIP3    H1 9875   7.043   2.058   3.922  0.8309  0.3860 -0.9601
 3314TIP3    H2 9876   6.961   2.153   3.838 -2.2882 -1.2350  0.1716
 3315TIP3   OH2 9877   0.724   3.160   2.777  0.3679 -0.0782  0.1645
 3315TIP3    H1 9878   0.674   3.182   2.699  0.6835 -0.6238 -0.1980
 3315TIP3    H2 9879   0.680   3.083   2.812 -1.5932  1.9075  2.2235
 3316TIP3   OH2 9880   7.598   4.017   1.999  0.0836  0.2455  0.0938
 3316TIP3    H1 9881   7.671   4.058   1.954 -0.2786  2.1067  1.1569
 3316TIP3    H2 9882   7.559   3.958   1.934  1.7501  0.1673 -0.8564
 3317TIP3   OH2 9883   7.293   3.084   3.743 -0.2013 -0.1714 -0.4751
 3317TIP3    H1 9884   7.313   3.159   3.799 -0.5043  0.3847 -1.1017
 3317TIP3    H2 9885   7.265   3.016   3.803  3.2037 -0.8710  0.3978
 3318TIP3   OH2 9886   0.637   5.855   1.320 -0.3967 -0.0823  0.3746
 3318TIP3    H1 9887   0.597   5.894   1.398  0.6409  0.1592  0.7855
 3318TIP3    H2 9888   0.730   5.877   1.327  0.2393 -2.7395  0.7045
 3319TIP3   OH2 9889   8.177   2.279   4.893  0.1259  0.1232  0.0494
 3319TIP3    H1 9890   8.208   2.306   4.980  0.1240 -0.2510  0.1693
 3319TIP3    H2 9891   8.256   2.273   4.840  0.2862 -0.9967  0.4015
 3320TIP3   OH2 9892   7.404   3.383   4.682 -0.3287  0.6260  0.2202
 3320TIP3    H1 9893   7.422   3.298   4.721 -0.5586  0.4223 -0.1231
 3320TIP3    H2 9894   7.447   3.380   4.596  2.4902  2.0425  1.5207
 3321TIP3   OH2 9895   7.436   0.590   4.778 -0.0092 -0.4159 -0.0776
 3321TIP3    H1 9896   7.471   0.610   4.692  1.8977  1.4727  1.0972
 3321TIP3    H2 9897   7.373   0.520   4.763 -1.7093  1.7212 -3.3857
 3322TIP3   OH2 9898   0.046   1.935   6.221  0.6929 -0.2810  0.2286
 3322TIP3    H1 9899  -0.005   1.854   6.209  1.6557 -1.1651  1.9721
 3322TIP3    H2 9900   0.077   1.956   6.133 -1.3535 -0.6120 -0.6006
 3323TIP3   OH2 9901   0.506   3.335   5.500  0.7601  0.2621  0.0455
 3323TIP3    H1 9902   0.510   3.379   5.415 -1.0911  1.3421  0.4849
 3323TIP3    H2 9903   0.571   3.265   5.495  4.5276  3.6362 -0.3567
 3324TIP3   OH2 9904   7.795   4.325   3.895 -0.0518  0.9238 -0.5922
 3324TIP3    H1 9905   7.833   4.314   3.807 -0.2482  1.3588 -0.7361
 3324TIP3    H2 9906   7.765   4.416   3.896 -1.1581  0.5594 -0.5055
 3325TIP3   OH2 9907   0.297   2.960   3.123  0.0235  0.0583 -0.4968
 3325TIP3    H1 9908   0.328   2.875   3.157 -0.2981  0.3531  0.5728
 3325TIP3    H2 9909   0.377   3.008   3.101  0.2876  0.2303  0.7900
 3326TIP3   OH2 9910   8.044   2.178   3.588 -0.1781  0.1753 -0.4739
 3326TIP3    H1 9911   8.026   2.264   3.549  1.4627  0.5070 -0.5083
 3326TIP3    H2 9912   8.104   2.136   3.527 -0.1893 -0.6135  0.0551
 3327TIP3   OH2 9913   0.171   3.137   3.329  0.1830 -0.3994 -0.0192
 3327TIP3    H1 9914   0.202   3.082   3.256  0.8644 -1.1916  0.8633
 3327TIP3    H2 9915   0.083   3.163   3.302 -0.3084 -2.2433 -0.3095
 3328TIP3   OH2 9916   1.860   1.432   2.860 -0.1883  0.6995  0.5493
 3328TIP3    H1 9917   1.939   1.390   2.827 -0.4881  0.0976  0.5922
 3328TIP3    H2 9918   1.834   1.492   2.790 -0.1965  0.2422  0.1547
 3329TIP3   OH2 9919   0.164   3.841   4.087  0.6871 -0.2977  0.0793
 3329TIP3    H1 9920   0.187   3.869   3.998  1.2117 -0.1142  0.2701
 3329TIP3    H2 9921   0.233   3.879   4.142 -0.3320  0.6606  0.7174
 3330TIP3   OH2 9922   0.283   3.173   5.926 -0.4175 -0.4861  0.2601
 3330TIP3    H1 9923   0.369   3.141   5.899  0.6859  1.3474  1.4545
 3330TIP3    H2 9924   0.302   3.255   5.971 -2.6285 -0.9587  2.1381
 3331TIP3   OH2 9925   1.340   1.693   3.326  0.1373  0.0922 -0.6515
 3331TIP3    H1 9926   1.286   1.718   3.251  0.0307 -0.5981 -0.8054
 3331TIP3    H2 9927   1.395   1.770   3.343 -1.7465  1.2803  0.2916
 3332TIP3   OH2 9928   0.423   4.756   3.694  0.0665  0.6672  0.3791
 3332TIP3    H1 9929   0.393   4.677   3.737 -0.2600  1.5230  1.7596
 3332TIP3    H2 9930   0.492   4.790   3.750  0.6321  1.0377 -0.5155
 3333TIP3   OH2 9931   0.827   5.634   4.084 -0.2417 -0.2880  0.4952
 3333TIP3    H1 9932   0.802   5.724   4.104 -0.3988  0.0262 -1.0595
 3333TIP3    H2 9933   0.921   5.630   4.102 -0.3443  0.0301  1.0973
 3334TIP3   OH2 9934   0.217   4.650   1.140 -0.4395 -0.0418 -0.4587
 3334TIP3    H1 9935   0.229   4.690   1.226  1.2287  1.3470 -1.2939
 3334TIP3    H2 9936   0.217   4.556   1.157 -0.7382  0.2308  1.1311
 3335TIP3   OH2 9937   2.438   4.096   5.124  0.0942  0.6160  0.2527
 3335TIP3    H1 9938   2.344   4.115   5.130 -0.2426 -0.6309 -0.7191
 3335TIP3    H2 9939   2.461   4.058   5.208 -0.5630 -0.2185  0.0650
 3336TIP3   OH2 9940   2.022   1.954   4.717 -0.5043  0.7914 -0.6053
 3336TIP3    H1 9941   1.931   1.977   4.697 -0.3827  1.7308 -0.1127
 3336TIP3    H2 9942   2.019   1.924   4.808 -0.4996 -0.2340 -0.9403
 3337TIP3   OH2 9943   8.434   2.152   3.430 -0.7085 -0.1364  0.3698
 3337TIP3    H1 9944   8.501   2.184   3.490  1.1620  0.2347 -1.8374
 3337TIP3    H2 9945   8.392   2.231   3.395 -1.8522 -0.3518  1.2110
 3338TIP3   OH2 9946   0.814   2.872   3.344 -0.2261 -0.2815 -0.8290
 3338TIP3    H1 9947   0.783   2.919   3.422 -0.8632 -0.6076 -0.8890
 3338TIP3    H2 9948   0.795   2.780   3.362  1.9484 -0.6631 -0.2689
 3339TIP3   OH2 9949   0.511   3.010   3.381 -0.4359  0.2655 -0.2251
 3339TIP3    H1 9950   0.571   2.999   3.455  0.8127 -0.9467 -1.3750
 3339TIP3    H2 9951   0.565   2.992   3.304 -2.7801 -3.1109 -1.2011
 3340TIP3   OH2 9952   0.549   4.965   2.639  0.0304 -0.0676 -0.1450
 3340TIP3    H1 9953   0.513   4.992   2.723 -0.9680 -2.9638  0.4189
 3340TIP3    H2 9954   0.500   5.015   2.574 -2.0297 -0.8128  0.8263
 3341TIP3   OH2 9955   1.855   2.705   5.338 -0.0155  0.4541 -0.5136
 3341TIP3    H1 9956   1.783   2.691   5.400  0.0628 -0.1054 -0.5497
 3341TIP3    H2 9957   1.932   2.716   5.394  0.0348  0.0730 -0.5086
 3342TIP3   OH2 9958   7.761   2.527   4.108 -0.5589  0.2941  0.5625
 3342TIP3    H1 9959   7.779   2.437   4.081 -1.8986 -0.0939  0.9385
 3342TIP3    H2 9960   7.813   2.538   4.188  0.7285  0.3350 -0.2676
 3343TIP3   OH2 9961   1.823   3.128   6.083  0.1959  0.0301 -0.1795
 3343TIP3    H1 9962   1.890   3.119   6.151  0.4270  0.5302 -0.3318
 3343TIP3    H2 9963   1.873   3.148   6.004 -0.1086  0.0408 -0.3689
 3344TIP3   OH2 9964   7.678   3.541   3.418  0.2389 -0.1197 -0.5722
 3344TIP3    H1 9965   7.713   3.538   3.329  1.0815 -0.3848 -0.2402
 3344TIP3    H2 9966   7.673   3.634   3.439  1.5436 -0.0952 -0.3242
 3345TIP3   OH2 9967   7.075   2.869   3.139  0.3133 -0.2621  0.1373
 3345TIP3    H1 9968   7.071   2.795   3.199  0.1504 -0.2419  0.1501
 3345TIP3    H2 9969   7.060   2.831   3.053 -4.4758  0.3755  0.5715
 3346TIP3   OH2 9970   1.146   3.414   1.603  0.0390  0.0159 -0.0043
 3346TIP3    H1 9971   1.239   3.415   1.582 -0.1781 -0.2943 -1.0277
 3346TIP3    H2 9972   1.121   3.322   1.601 -0.4424  0.1504 -0.4529
 3347TIP3   OH2 9973   7.636   3.861   0.882 -0.1794  0.2249  0.3264
 3347TIP3    H1 9974   7.593   3.892   0.802  0.5943  0.7013  0.0867
 3347TIP3    H2 9975   7.674   3.940   0.920  1.6657 -0.3808 -0.1942
 3348TIP3   OH2 9976   0.634   2.672   3.160 -0.5826  0.4007  0.2518
 3348TIP3    H1 9977   0.685   2.603   3.118  0.4440 -0.2304  2.4438
 3348TIP3    H2 9978   0.699   2.728   3.201 -1.4230  2.6361 -1.3737
 3349TIP3   OH2 9979   7.629   3.456   3.905  0.0206 -0.2699 -0.6449
 3349TIP3    H1 9980   7.662   3.389   3.965 -0.5175 -0.0401 -0.0912
 3349TIP3    H2 9981   7.686   3.450   3.829  0.5010 -0.7892 -0.2456
 3350TIP3   OH2 9982   2.732   2.045   5.282 -0.0157  0.6916 -0.5518
 3350TIP3    H1 9983   2.796   1.979   5.312 -0.3520 -0.4047 -2.1984
 3350TIP3    H2 9984   2.786   2.117   5.250  0.4045 -0.1734 -1.8042
 3351TIP3   OH2 9985   0.691   2.631   2.659  0.0996  0.5718  0.4377
 3351TIP3    H1 9986   0.730   2.686   2.592 -0.0911  0.9546  0.6403
 3351TIP3    H2 9987   0.740   2.548   2.653  1.2165  1.1785  0.9532
 3352TIP3   OH2 9988   1.329   4.366   4.241  0.0342 -0.5246 -0.2043
 3352TIP3    H1 9989   1.413   4.382   4.197  0.7240 -1.6852  0.6619
 3352TIP3    H2 9990   1.339   4.405   4.328  0.0493 -1.5167  0.2535
 3353TIP3   OH2 9991   0.314   3.127   2.397 -0.4462  0.0712  0.2828
 3353TIP3    H1 9992   0.316   3.153   2.489  0.0671  2.4586 -0.3541
 3353TIP3    H2 9993   0.370   3.049   2.393  2.4347  1.9701  1.4467
 3354TIP3   OH2 9994   3.325   2.876   3.366 -0.5171  0.3512 -0.2282
 3354TIP3    H1 9995   3.328   2.969   3.389  1.0665 -0.1912  1.8198
 3354TIP3    H2 9996   3.244   2.844   3.405 -1.1739  0.9084 -1.1231
 3355TIP3   OH2 9997   0.093   3.590   4.271 -0.3161 -0.0953 -0.0080
 3355TIP3    H1 9998   0.164   3.608   4.209 -0.4281  1.9472  0.4383
 3355TIP3    H2 9999   0.018   3.639   4.238 -0.7942 -0.1779  0.9365
 3356TIP3   OH210000   7.292   4.219   3.337  0.2596 -0.1856  0.3086
 3356TIP3    H110001   7.276   4.126   3.324  1.0790 -0.2802 -0.0686
 3356TIP3    H210002   7.251   4.240   3.420  0.9147 -1.1004  0.8708
 3357TIP3   OH210003   6.900   5.472   4.488 -0.7159 -0.5845  0.1644
 3357TIP3    H110004   6.919   5.557   4.447  2.8420 -1.2303  0.3979
 3357TIP3    H210005   6.909   5.488   4.582  1.6356 -1.5614  0.1396
 3358TIP3   OH210006   7.806   3.824   3.620 -0.4325 -0.1413  0.0925
 3358TIP3    H110007   7.837   3.778   3.542 -2.3389 -1.1643 -0.0887
 3358TIP3    H210008   7.871   3.893   3.635 -0.8120  1.0733 -3.3316
 3359TIP3   OH210009   8.363   3.205   3.364 -0.1996  0.0521  0.0225
 3359TIP3    H110010   8.315   3.216   3.447  1.1531  0.1584  0.8061
 3359TIP3    H210011   8.340   3.282   3.313 -1.9362 -0.5584 -0.1772
 3360TIP3   OH210012   1.528   1.218   2.387 -0.4818 -0.9515 -0.2012
 3360TIP3    H110013   1.554   1.293   2.441 -2.3640  1.8831 -3.0647
 3360TIP3    H210014   1.586   1.223   2.311 -0.8110 -2.2539 -0.5349
 3361TIP3   OH210015   0.227   6.031   2.495 -1.0081 -0.1703 -0.1194
 3361TIP3    H110016   0.221   5.988   2.410 -1.0581 -1.8492  0.7171
 3361TIP3    H210017   0.165   5.984   2.551  0.3142 -0.2600  1.3208
 3362TIP3   OH210018   7.129   3.906   3.739  0.2232  0.1168 -0.5028
 3362TIP3    H110019   7.191   3.861   3.681  1.6793 -1.3332  2.0364
 3362TIP3    H210020   7.183   3.933   3.814 -1.7235  1.2824  0.5154
 3363TIP3   OH210021   8.114   5.228   2.704 -0.4236 -0.2924  0.0476
 3363TIP3    H110022   8.143   5.239   2.613  0.2262  2.3451  0.5303
 3363TIP3    H210023   8.181   5.172   2.743 -0.1878 -0.6600 -0.8762
 3364TIP3   OH210024   0.656   5.335   4.180  0.2474  0.1238  0.9334
 3364TIP3    H110025   0.568   5.326   4.218  0.1411 -0.2988  0.5907
 3364TIP3    H210026   0.654   5.280   4.102  1.0739 -0.4988  1.3495
 3365TIP3   OH210027   2.299   6.306   4.379  0.5959  0.2860  0.3796
 3365TIP3    H110028   2.227   6.297   4.441 -0.0666  1.4075 -0.2158
 3365TIP3    H210029   2.348   6.224   4.388 -0.5655 -0.3595  1.0108
 3366TIP3   OH210030   0.424   4.803   4.905 -0.2195 -0.5692 -0.3294
 3366TIP3    H110031   0.490   4.846   4.959  0.4051 -2.4225  0.4236
 3366TIP3    H210032   0.341   4.840   4.935  0.3616  0.7007 -0.2687
 3367TIP3   OH210033   0.583   1.672   2.549  0.1795  0.5683 -0.0355
 3367TIP3    H110034   0.502   1.671   2.498  1.6334  0.1968 -2.4187
 3367TIP3    H210035   0.572   1.601   2.613 -2.4132  2.2071  1.4226
 3368TIP3   OH210036   1.133   2.147   2.888  0.0256 -0.5558 -0.2335
 3368TIP3    H110037   1.162   2.191   2.968  0.0816 -3.3267  1.3198
 3368TIP3    H210038   1.044   2.118   2.907 -0.6199  0.3138 -1.8457
 3369TIP3   OH210039   7.276   3.762   3.563 -0.2044  0.7088  0.0247
 3369TIP3    H110040   7.348   3.754   3.626 -1.4651 -0.0084  1.4264
 3369TIP3    H210041   7.268   3.675   3.525  1.0879  1.3435 -1.7819
 3370TIP3   OH210042   7.985   1.389   4.165  0.8219  0.1505  0.7325
 3370TIP3    H110043   7.924   1.354   4.100  2.6505  0.9257 -1.4617
 3370TIP3    H210044   7.929   1.428   4.233 -1.1159 -1.0673 -0.1492
 3371TIP3   OH210045   8.221   3.214   3.110  0.6061 -0.2374 -0.2583
 3371TIP3    H110046   8.157   3.142   3.119  1.1590 -0.6144  0.6830
 3371TIP3    H210047   8.283   3.183   3.045  1.0453 -0.7734  0.4057
 3372TIP3   OH210048   1.561   0.969   3.707  0.0646 -0.2074  0.0238
 3372TIP3    H110049   1.546   0.939   3.796  0.4047  0.4050  0.2952
 3372TIP3    H210050   1.632   1.034   3.715 -1.0125  1.0629 -0.4605
 3373TIP3   OH210051   1.054   1.512   4.689  0.4280 -0.2937 -0.3417
 3373TIP3    H110052   0.978   1.565   4.667 -0.0320 -1.0644 -0.6209
 3373TIP3    H210053   1.127   1.574   4.688  0.2827 -0.0959 -3.1245
 3374TIP3   OH210054   0.443   2.734   2.650  0.5833 -0.2926  0.2981
 3374TIP3    H110055   0.369   2.675   2.657 -0.2667  1.0137  3.2567
 3374TIP3    H210056   0.520   2.678   2.663 -0.0579 -1.1825  0.2680
 3375TIP3   OH210057   7.446   3.551   1.276 -0.1582  0.0657  0.0472
 3375TIP3    H110058   7.504   3.620   1.244  0.7451 -1.0005 -0.6656
 3375TIP3    H210059   7.385   3.595   1.334  0.5666  1.4202 -0.2136
 3376TIP3   OH210060   1.715   3.804   3.442 -0.1250  0.5821 -0.3036
 3376TIP3    H110061   1.723   3.874   3.377  0.7360  0.2998 -0.5228
 3376TIP3    H210062   1.763   3.730   3.402 -1.3537 -0.2541 -0.2555
 3377TIP3   OH210063   7.507   4.616   5.208 -0.4425 -0.5329  0.0491
 3377TIP3    H110064   7.443   4.687   5.198  0.3725  0.0704 -0.9484
 3377TIP3    H210065   7.551   4.634   5.290  0.2196  0.4851 -0.5271
 3378TIP3   OH210066   7.892   1.310   4.587  0.0365  0.2498  0.0150
 3378TIP3    H110067   7.803   1.339   4.608 -0.5725 -0.4738 -1.4683
 3378TIP3    H210068   7.946   1.345   4.658 -1.6073 -0.3549  1.6231
 3379TIP3   OH210069   0.875   1.971   4.804 -0.1994 -0.3751 -0.4824
 3379TIP3    H110070   0.837   1.989   4.890 -0.2538  0.3863 -0.6629
 3379TIP3    H210071   0.965   2.000   4.811  0.3697 -2.1402 -0.0695
 3380TIP3   OH210072   8.387   3.715   4.526  0.0668  0.5456 -0.0906
 3380TIP3    H110073   8.416   3.776   4.458  1.6044 -0.0334  0.0206
 3380TIP3    H210074   8.342   3.770   4.591 -0.7854  1.1999 -1.2128
 3381TIP3   OH210075   2.059   3.091   3.745  0.1611  0.0209  0.3835
 3381TIP3    H110076   2.076   3.184   3.762 -0.3146  0.6813 -2.5439
 3381TIP3    H210077   1.980   3.072   3.795  1.1497  0.7489  2.2727
 3382TIP3   OH210078   2.689   3.889   4.404 -0.1381 -0.2661  0.9313
 3382TIP3    H110079   2.657   3.851   4.486 -1.7505 -1.6984 -0.3269
 3382TIP3    H210080   2.636   3.967   4.392  1.4334  1.0269  2.2221
 3383TIP3   OH210081   1.417   1.633   5.228 -0.5124  0.4580  0.2127
 3383TIP3    H110082   1.333   1.680   5.224 -0.6108  0.2546 -0.1157
 3383TIP3    H210083   1.393   1.540   5.231 -0.2940  0.3921 -0.0647
 3384TIP3   OH210084   3.809   4.528   3.615 -0.1453  0.1618  0.2813
 3384TIP3    H110085   3.833   4.601   3.673  0.9899  0.8825 -1.0643
 3384TIP3    H210086   3.731   4.559   3.569 -1.7508 -0.8717  2.2375
 3385TIP3   OH210087   0.442   4.656   2.563 -0.0014  0.0269 -0.0325
 3385TIP3    H110088   0.431   4.669   2.469 -0.8081  0.9787  0.1836
 3385TIP3    H210089   0.514   4.714   2.587 -0.2766  0.3246  0.0665
 3386TIP3   OH210090   1.569   4.214   5.598  0.4827 -0.1543  0.2443
 3386TIP3    H110091   1.601   4.136   5.551 -0.3336  0.3636 -1.2252
 3386TIP3    H210092   1.609   4.288   5.553 -0.3260  0.3580  0.3463
 3387TIP3   OH210093   0.646   2.371   3.269 -0.1955  0.4958  0.8509
 3387TIP3    H110094   0.681   2.354   3.182  1.9320 -0.3351  1.8339
 3387TIP3    H210095   0.573   2.310   3.278  1.2032 -1.2548  0.6107
 3388TIP3   OH210096   8.425   4.076   3.803  0.3824 -0.2654  0.8932
 3388TIP3    H110097   8.408   4.068   3.709  0.8023  0.8587  0.7123
 3388TIP3    H210098   8.424   3.986   3.835 -1.6899 -0.5270  0.1672
 3389TIP3   OH210099   0.869   3.454   3.797 -0.4180  0.2094 -0.1045
 3389TIP3    H110100   0.874   3.359   3.810  2.1547  0.2482 -0.5545
 3389TIP3    H210101   0.924   3.491   3.866  0.5403  1.2264 -1.3866
 3390TIP3   OH210102   4.035   3.273   3.235  0.0487  0.1492  0.5269
 3390TIP3    H110103   4.121   3.277   3.193  0.1139 -0.8199  0.5678
 3390TIP3    H210104   4.052   3.293   3.327  0.5316 -2.0305  0.9370
 3391TIP3   OH210105   2.536   4.317   2.154  0.1381 -0.0363 -0.0139
 3391TIP3    H110106   2.553   4.374   2.229 -1.0082 -0.6354  0.7251
 3391TIP3    H210107   2.440   4.316   2.147  0.2502  0.1607 -1.6046
 3392TIP3   OH210108   2.599   2.157   2.058 -0.2698  0.1175  0.1802
 3392TIP3    H110109   2.554   2.160   2.143 -0.1316 -3.0840  0.4391
 3392TIP3    H210110   2.530   2.174   1.994 -0.5475  1.6680  0.8653
 3393TIP3   OH210111   5.124   7.271   6.833 -0.3929 -0.2927  0.1513
 3393TIP3    H110112   5.114   7.189   6.881 -1.4224  1.5769  3.3507
 3393TIP3    H210113   5.201   7.313   6.874  0.8434 -0.1488 -2.2390
 3394TIP3   OH210114   1.895   3.357   3.243 -0.0650 -1.0778  0.6005
 3394TIP3    H110115   1.829   3.318   3.301  0.3272 -0.4425  1.4800
 3394TIP3    H210116   1.873   3.451   3.242 -0.6636 -1.2157 -1.0612
 3395TIP3   OH210117   1.610   5.065   2.796 -0.6179 -0.4019  0.0318
 3395TIP3    H110118   1.642   5.070   2.887  0.8558 -2.8669 -0.3176
 3395TIP3    H210119   1.524   5.024   2.803 -1.1350  0.7300  0.4287
 3396TIP3   OH210120   5.079   4.939   3.092  1.0725 -0.0060 -0.6793
 3396TIP3    H110121   5.151   4.966   3.036  1.1074  1.1658 -0.0865
 3396TIP3    H210122   5.108   4.856   3.131  1.7497  0.0466 -1.0753
 3397TIP3   OH210123   3.135   4.489   5.065 -0.6618 -0.7528  0.1298
 3397TIP3    H110124   3.048   4.475   5.028 -0.2085 -0.2425 -1.1561
 3397TIP3    H210125   3.134   4.579   5.097 -0.8982 -1.0423  0.9587
 3398TIP3   OH210126   1.631   2.788   1.539  0.0572 -0.4792 -0.0366
 3398TIP3    H110127   1.610   2.760   1.450 -0.3133  2.1423 -0.8076
 3398TIP3    H210128   1.727   2.783   1.543 -0.0027 -1.7893 -0.1715
 3399TIP3   OH210129   0.973   2.832   5.640 -0.4180 -0.0373 -0.0438
 3399TIP3    H110130   1.029   2.812   5.715  0.3815 -1.0362 -0.8871
 3399TIP3    H210131   0.972   2.751   5.589  0.3120  1.0822 -1.9054
 3400TIP3   OH210132   1.775   4.882   1.748 -0.0130 -0.6061 -0.0339
 3400TIP3    H110133   1.726   4.888   1.830 -0.2778 -1.1198 -0.1528
 3400TIP3    H210134   1.831   4.960   1.747  0.0595 -0.6501  0.6795
 3401TIP3   OH210135   3.271   4.659   4.316 -0.3104 -0.2140  0.1217
 3401TIP3    H110136   3.229   4.723   4.373  0.3630 -1.4602  2.0786
 3401TIP3    H210137   3.223   4.578   4.332 -0.7836 -0.3795 -1.9007
 3402TIP3   OH210138   2.704   3.990   5.924  0.0637  0.0823  0.3020
 3402TIP3    H110139   2.753   3.961   6.001 -1.1580 -1.9554  0.3564
 3402TIP3    H210140   2.640   4.052   5.958  0.1019 -0.1457  0.7929
 3403TIP3   OH210141   7.498   3.286   4.430 -0.2915  0.1155 -0.1867
 3403TIP3    H110142   7.403   3.276   4.423 -0.4203  0.4000  1.0658
 3403TIP3    H210143   7.527   3.208   4.477  0.1494 -0.1360 -0.8628
 3404TIP3   OH210144   2.145   4.082   5.219 -0.4059  0.3800  0.6094
 3404TIP3    H110145   2.073   4.130   5.260 -2.5315 -0.1907 -2.2765
 3404TIP3    H210146   2.114   4.065   5.130  2.2126 -2.2722  0.1462
 3405TIP3   OH210147   2.998   3.173   4.270 -0.4287 -0.1431 -0.3110
 3405TIP3    H110148   2.918   3.226   4.275 -1.7581 -2.0135 -0.8198
 3405TIP3    H210149   3.005   3.150   4.177 -0.1155 -1.1615 -0.0395
 3406TIP3   OH210150   4.809   2.456   3.876 -0.7097 -0.5817 -0.1715
 3406TIP3    H110151   4.854   2.452   3.960  0.1015  0.2884 -0.5536
 3406TIP3    H210152   4.724   2.495   3.896 -1.2147 -2.0084  0.5124
 3407TIP3   OH210153   1.552   5.032   2.269  0.1688  0.5019 -0.6948
 3407TIP3    H110154   1.542   5.114   2.318  1.9514  0.3753 -0.0779
 3407TIP3    H210155   1.587   4.970   2.333  3.5700  0.6325 -2.3082
 3408TIP3   OH210156   2.569   5.787   2.916  0.8785 -0.3263 -0.0238
 3408TIP3    H110157   2.593   5.726   2.846 -0.6581 -2.3116  1.1391
 3408TIP3    H210158   2.628   5.767   2.988  1.8363  1.0765 -0.4097
 3409TIP3   OH210159   2.142   7.117   2.550 -0.1544  0.3376 -0.4801
 3409TIP3    H110160   2.228   7.122   2.591  0.6224  1.0863 -2.1951
 3409TIP3    H210161   2.123   7.206   2.522  0.3092 -0.5432 -3.7521
 3410TIP3   OH210162   1.093   1.489   2.100  0.2784 -0.1406 -0.4973
 3410TIP3    H110163   1.165   1.481   2.037 -0.2990 -0.3947 -1.1330
 3410TIP3    H210164   1.026   1.539   2.054 -0.1847 -0.3977 -0.1091
 3411TIP3   OH210165   1.337   0.767   2.303  1.0255  0.5582  0.2874
 3411TIP3    H110166   1.387   0.845   2.323  0.2254  1.0417  0.4148
 3411TIP3    H210167   1.288   0.748   2.382 -0.3791  1.1453 -0.4244
 3412TIP3   OH210168   2.791   3.371   3.081  0.2675 -0.2193 -0.4854
 3412TIP3    H110169   2.717   3.319   3.052  0.0009  0.5152 -1.1410
 3412TIP3    H210170   2.858   3.306   3.106 -0.1967 -0.8687 -0.9199
 3413TIP3   OH210171   2.638   4.985   2.333 -0.3403  0.1855  0.5297
 3413TIP3    H110172   2.609   5.017   2.248  1.2462  1.5428  0.4746
 3413TIP3    H210173   2.639   5.063   2.389 -0.8010 -0.5908  1.6434
 3414TIP3   OH210174   1.648   2.817   4.224 -0.5090  0.2038 -0.0155
 3414TIP3    H110175   1.558   2.830   4.253 -0.0200  2.2625  0.7069
 3414TIP3    H210176   1.688   2.761   4.290 -0.6611  1.1431  0.8901
 3415TIP3   OH210177   8.382   3.665   3.092  0.2539 -0.3680  0.1514
 3415TIP3    H110178   8.326   3.711   3.028  1.0657 -1.0846 -1.1024
 3415TIP3    H210179   8.471   3.694   3.071  0.4772 -0.1020  1.4129
 3416TIP3   OH210180   8.500   1.505   4.553 -0.2781  0.0879 -0.3162
 3416TIP3    H110181   8.455   1.510   4.637 -1.4976 -1.8177 -0.8282
 3416TIP3    H210182   8.493   1.593   4.516 -1.0208  0.5519  0.9217
 3417TIP3   OH210183   0.068   4.067   3.065  0.4606 -0.3203 -0.2411
 3417TIP3    H110184   0.013   4.133   3.022  0.1431 -0.5122 -0.1341
 3417TIP3    H210185   0.005   4.011   3.112  0.6058 -1.6144 -1.5639
 3418TIP3   OH210186   2.989   5.247   3.195  0.2055  0.1796 -0.1803
 3418TIP3    H110187   2.894   5.241   3.185  0.3987 -0.0547 -2.0882
 3418TIP3    H210188   3.021   5.159   3.178  1.0204  0.9801 -3.1219
 3419TIP3   OH210189   1.008   5.907   2.503 -0.1089  0.1182 -0.3436
 3419TIP3    H110190   0.947   5.837   2.526  0.3745  0.6142  2.5197
 3419TIP3    H210191   0.960   5.988   2.523  0.9415  0.5296  0.5128
 3420TIP3   OH210192   3.442   4.397   3.180  0.2184  0.1317  0.2418
 3420TIP3    H110193   3.357   4.354   3.168 -0.1025  1.3634 -2.1774
 3420TIP3    H210194   3.421   4.475   3.231 -0.0306  0.1988  0.0405
 3421TIP3   OH210195   0.443   4.373   3.490 -0.2229 -0.2181  0.2023
 3421TIP3    H110196   0.517   4.401   3.436  0.1262  0.2042  0.8898
 3421TIP3    H210197   0.370   4.427   3.460  0.2391  0.8303  0.9166
 3422TIP3   OH210198   3.583   5.136   2.142  0.2872 -1.1305  0.3157
 3422TIP3    H110199   3.501   5.134   2.093  0.8249  2.0382 -0.7835
 3422TIP3    H210200   3.651   5.146   2.076  1.3074 -0.4080  1.4445
 3423TIP3   OH210201   0.868   3.429   4.478  0.0847 -1.3074  0.5580
 3423TIP3    H110202   0.808   3.457   4.547 -0.3503 -2.4497  0.6511
 3423TIP3    H210203   0.842   3.480   4.401  0.8041  0.2421  1.3116
 3424TIP3   OH210204   3.547   2.541   3.003  0.0554  0.1420  0.4277
 3424TIP3    H110205   3.641   2.528   3.018 -0.1591 -3.3198 -0.9225
 3424TIP3    H210206   3.507   2.528   3.089  0.5710 -1.1610  0.4816
 3425TIP3   OH210207   1.630   3.758   2.767 -0.1979 -0.3979 -0.1024
 3425TIP3    H110208   1.677   3.807   2.700  0.1147 -1.3927 -0.6039
 3425TIP3    H210209   1.561   3.711   2.719 -0.7253 -0.1776  0.4277
 3426TIP3   OH210210   1.831   4.403   2.112 -0.1175  0.4011  0.3779
 3426TIP3    H110211   1.821   4.433   2.203 -1.3394  1.1977 -0.0084
 3426TIP3    H210212   1.776   4.325   2.107  1.5983 -0.8813  0.8729
 3427TIP3   OH210213   0.140   4.759   4.394 -0.2757  0.3426  0.4951
 3427TIP3    H110214   0.214   4.703   4.419 -1.8641 -1.0216  2.3307
 3427TIP3    H210215   0.144   4.764   4.299  0.4835 -2.1083  0.3760
 3428TIP3   OH210216   1.350   3.452   2.815  0.2786  0.2719 -0.6872
 3428TIP3    H110217   1.276   3.405   2.854 -0.2406  0.5577 -1.3233
 3428TIP3    H210218   1.424   3.392   2.824 -0.1588 -0.2600 -0.5872
 3429TIP3   OH210219   1.178   4.154   1.067  0.4285 -0.4950 -0.1195
 3429TIP3    H110220   1.136   4.170   1.152  1.6049 -0.7265  0.5150
 3429TIP3    H210221   1.105   4.147   1.006 -0.3946  0.6692  0.6979
 3430TIP3   OH210222   1.139   3.395   4.848 -0.6625  0.5130 -0.0921
 3430TIP3    H110223   1.085   3.446   4.908 -2.7217 -0.2769 -1.2225
 3430TIP3    H210224   1.142   3.447   4.767 -0.4649  0.1315 -0.3338
 3431TIP3   OH210225   1.827   5.228   5.048  0.5589  0.2209  0.1434
 3431TIP3    H110226   1.815   5.220   5.143  0.8883  1.1190  0.2664
 3431TIP3    H210227   1.922   5.233   5.036  0.5271 -0.0871 -0.2509
 3432TIP3   OH210228   1.897   3.529   1.516  0.0454 -0.7559  0.3715
 3432TIP3    H110229   1.848   3.490   1.444 -2.9577  1.9702  0.7900
 3432TIP3    H210230   1.877   3.473   1.592 -1.7697 -0.2015  0.3328
 3433TIP3   OH210231   2.640   4.794   2.000 -0.5940  0.1163  0.3691
 3433TIP3    H110232   2.671   4.878   1.965  0.4784 -1.1291 -1.7771
 3433TIP3    H210233   2.616   4.813   2.091 -0.0922  2.6739  0.0012
 3434TIP3   OH210234   1.480   1.963   4.997 -0.4617 -0.0972  0.7581
 3434TIP3    H110235   1.506   1.905   4.925 -1.1632  0.2400  0.2131
 3434TIP3    H210236   1.414   2.021   4.957 -0.6601  0.2661  1.6080
 3435TIP3   OH210237   1.043   3.423   4.247  0.8048  0.7349 -0.1247
 3435TIP3    H110238   1.005   3.446   4.332 -0.0025  1.4159 -0.6682
 3435TIP3    H210239   1.015   3.333   4.231  0.8417  0.6544  0.2583
 3436TIP3   OH210240   1.163   2.742   2.971 -0.6726  0.9614  0.8956
 3436TIP3    H110241   1.074   2.776   2.968 -0.9518  0.1484 -0.5167
 3436TIP3    H210242   1.188   2.729   2.880  0.6886  0.6301  1.2893
 3437TIP3   OH210243   2.065   4.184   4.805 -0.7459 -0.1790  0.4969
 3437TIP3    H110244   2.123   4.159   4.733 -0.8507 -2.3985  1.1302
 3437TIP3    H210245   2.085   4.121   4.875 -0.6299  1.9258  2.4360
 3438TIP3   OH210246   0.935   2.141   4.352 -0.2040  0.2311 -0.1072
 3438TIP3    H110247   0.975   2.145   4.265  1.3747  2.2385  0.6724
 3438TIP3    H210248   0.862   2.080   4.341  0.2129  0.1052 -2.7286
 3439TIP3   OH210249   3.831   3.015   2.523 -0.4173 -0.5261  0.7072
 3439TIP3    H110250   3.889   2.969   2.583 -0.1139 -0.0839  0.7569
 3439TIP3    H210251   3.834   2.964   2.442  0.5307 -0.1698  0.5072
 3440TIP3   OH210252   3.764   3.980   0.900 -0.3304  0.1063 -0.3504
 3440TIP3    H110253   3.778   4.007   0.810 -0.4732 -0.4887 -0.5535
 3440TIP3    H210254   3.849   3.992   0.943  0.0754 -0.8271 -0.8819
 3441TIP3   OH210255   8.395   3.466   1.905  0.1194  0.1603  0.2303
 3441TIP3    H110256   8.380   3.475   1.811 -0.9996  0.1489  0.3996
 3441TIP3    H210257   8.450   3.541   1.928  0.8664 -0.1510 -0.5331
 3442TIP3   OH210258   1.030   3.600   4.028 -0.0197 -0.6551  0.1884
 3442TIP3    H110259   0.957   3.661   4.039  2.3248  2.4557 -0.8674
 3442TIP3    H210260   1.046   3.565   4.115 -0.3015  1.5999  1.1796
 3443TIP3   OH210261   1.523   3.532   4.979  0.0198 -0.6143 -0.1034
 3443TIP3    H110262   1.458   3.467   4.951 -0.8953  0.9053 -1.5604
 3443TIP3    H210263   1.513   3.536   5.075 -1.3007 -1.1713 -0.2047
 3444TIP3   OH210264   0.769   4.669   3.185  0.8277 -0.2513  0.0475
 3444TIP3    H110265   0.680   4.706   3.188  0.1624 -1.8433  0.4840
 3444TIP3    H210266   0.813   4.720   3.118 -1.8345 -2.3605 -3.5040
 3445TIP3   OH210267   5.174   4.639   3.764  0.3968  0.2589  0.3964
 3445TIP3    H110268   5.243   4.686   3.717 -0.8062  0.3200 -1.3891
 3445TIP3    H210269   5.220   4.571   3.813  1.7082 -0.0046 -1.1435
 3446TIP3   OH210270   2.664   3.478   4.463  0.6741  0.1008 -0.2357
 3446TIP3    H110271   2.681   3.513   4.551 -1.9043 -0.2702  0.4499
 3446TIP3    H210272   2.672   3.554   4.406  2.9588  0.2356  0.2185
 3447TIP3   OH210273   1.399   2.401   4.182 -0.3892  0.0501  0.2737
 3447TIP3    H110274   1.414   2.489   4.148 -2.3309  0.3154  0.0420
 3447TIP3    H210275   1.304   2.393   4.186 -0.2386 -2.0817  0.1748
 3448TIP3   OH210276   3.652   4.507   2.755  0.9573  0.4790 -0.4419
 3448TIP3    H110277   3.636   4.518   2.848  0.5044 -0.1826 -0.4385
 3448TIP3    H210278   3.619   4.419   2.735  0.5936  0.8134 -1.3203
 3449TIP3   OH210279   2.265   2.514   1.958  0.0305 -0.0009 -0.6975
 3449TIP3    H110280   2.170   2.523   1.948 -0.0117 -0.4552 -0.7204
 3449TIP3    H210281   2.302   2.568   1.888 -0.2247 -0.4998 -1.2204
 3450TIP3   OH210282   1.759   2.437   2.149 -0.2474 -0.3822 -0.5079
 3450TIP3    H110283   1.777   2.373   2.217  1.0304  1.1425  0.6412
 3450TIP3    H210284   1.673   2.413   2.115 -0.9290 -1.1332  1.6656
 3451TIP3   OH210285   1.853   1.316   3.156  0.1532  0.0246  0.2063
 3451TIP3    H110286   1.858   1.234   3.107  0.4139 -0.6291  1.3136
 3451TIP3    H210287   1.771   1.309   3.205  0.6399 -0.0028  1.0332
 3452TIP3   OH210288   2.691   2.994   4.024  0.1918  0.0390 -0.2211
 3452TIP3    H110289   2.766   2.978   3.967  0.5163  1.3933 -0.1946
 3452TIP3    H210290   2.615   2.981   3.967  0.5020  0.8308 -0.8297
 3453TIP3   OH210291   1.591   1.238   2.989 -0.6710 -0.1951  0.2013
 3453TIP3    H110292   1.593   1.162   2.930  2.6619  1.3238 -1.7619
 3453TIP3    H210293   1.587   1.314   2.930 -0.4365  1.2479  2.0198
 3454TIP3   OH210294   0.968   1.844   3.152  0.6763  0.4267 -0.7390
 3454TIP3    H110295   0.982   1.938   3.140 -0.6741  0.7664  0.2081
 3454TIP3    H210296   0.877   1.837   3.183  1.2567 -1.0567  0.7024
 3455TIP3   OH210297   1.397   3.393   1.492  0.6271  0.7181 -0.3511
 3455TIP3    H110298   1.350   3.392   1.408 -2.3488 -1.7644  1.2138
 3455TIP3    H210299   1.466   3.327   1.482  0.1756  0.3097 -0.8336
 3456TIP3   OH210300   7.986   2.437   2.924 -0.1794  0.2442 -0.2583
 3456TIP3    H110301   8.068   2.387   2.920 -1.1250 -1.4508  1.0634
 3456TIP3    H210302   7.923   2.377   2.964 -1.2747  2.6249  1.7130
 3457TIP3   OH210303   3.893   4.165   3.133  0.5540 -0.3652 -0.5374
 3457TIP3    H110304   3.909   4.146   3.040 -0.1582  0.3757 -0.8149
 3457TIP3    H210305   3.800   4.183   3.138  0.7661  0.5847  0.1447
 3458TIP3   OH210306   8.050   4.628   4.601 -0.2049  0.1338 -0.0624
 3458TIP3    H110307   8.042   4.723   4.614  1.9039 -0.0287  2.9532
 3458TIP3    H210308   8.126   4.618   4.544  0.7367  0.2233  1.1489
 3459TIP3   OH210309   2.027   3.859   4.596  0.4379 -0.9576 -0.4692
 3459TIP3    H110310   2.072   3.852   4.681  1.4011 -0.8462 -0.9611
 3459TIP3    H210311   1.949   3.910   4.614 -0.6553 -3.0301  0.8555
 3460TIP3   OH210312   0.963   5.013   3.432  0.1608 -0.1268  0.4864
 3460TIP3    H110313   0.930   5.034   3.345 -1.5427 -1.2334  0.8292
 3460TIP3    H210314   0.945   5.090   3.485 -1.9919 -0.7386  0.6797
 3461TIP3   OH210315   1.863   2.977   3.481 -0.2079 -0.5161  0.0397
 3461TIP3    H110316   1.920   2.981   3.404 -1.9098 -0.2517 -1.2449
 3461TIP3    H210317   1.906   3.032   3.546  0.3968  0.6755 -1.3351
 3462TIP3   OH210318   2.434   4.398   1.706  0.2742  0.2516  0.1353
 3462TIP3    H110319   2.370   4.469   1.696  0.5303  0.5723  0.7048
 3462TIP3    H210320   2.475   4.416   1.791  2.2645  0.9854 -0.9525
 3463TIP3   OH210321   3.046   4.841   3.365  0.4144 -0.6718  0.0449
 3463TIP3    H110322   3.000   4.763   3.331 -1.4569 -0.3803  1.7754
 3463TIP3    H210323   2.976   4.903   3.383  1.8548  1.1891 -0.7057
 3464TIP3   OH210324   2.199   3.259   3.321 -0.3021  0.3194  0.4453
 3464TIP3    H110325   2.120   3.310   3.339  0.9050  1.9632  1.1760
 3464TIP3    H210326   2.245   3.309   3.254  0.4213 -0.3025  0.4728
 3465TIP3   OH210327   4.109   5.784   4.328  0.1524  0.3002  0.0410
 3465TIP3    H110328   4.126   5.699   4.368  0.7830  1.7999  3.0567
 3465TIP3    H210329   4.187   5.836   4.346  0.0035  1.3997 -2.2195
 3466TIP3   OH210330   3.017   4.492   4.761 -0.3771  0.3522  0.3205
 3466TIP3    H110331   2.981   4.533   4.839  1.1809  2.4241  0.0087
 3466TIP3    H210332   2.950   4.504   4.694  0.5688  3.7250 -0.1245
 3467TIP3   OH210333   2.002   4.495   3.130 -0.3783  0.3949  0.2233
 3467TIP3    H110334   2.024   4.588   3.128  1.2363  0.0073 -2.3477
 3467TIP3    H210335   1.909   4.491   3.109 -0.2672  1.3761 -0.4650
 3468TIP3   OH210336   7.850   3.092   6.374 -0.3897  0.5705 -0.4288
 3468TIP3    H110337   7.769   3.118   6.331  0.2246  0.7255 -1.5227
 3468TIP3    H210338   7.877   3.013   6.327 -0.2652  0.1215  0.3830
 3469TIP3   OH210339   7.557   2.328   5.264  0.0659 -0.1293  0.0245
 3469TIP3    H110340   7.488   2.325   5.330 -1.1274 -0.0641 -1.2078
 3469TIP3    H210341   7.596   2.415   5.275  0.3224 -0.3703  1.0890
 3470TIP3   OH210342   3.579   3.870   4.127 -0.8499 -0.3641 -0.0815
 3470TIP3    H110343   3.587   3.920   4.208 -0.0335 -0.5525 -0.0382
 3470TIP3    H210344   3.505   3.811   4.142 -0.2286 -0.9297  0.8236
 3471TIP3   OH210345   2.051   4.027   2.036  0.6276  0.0075 -0.2041
 3471TIP3    H110346   1.991   4.035   2.109  2.1042  0.1451  1.0181
 3471TIP3    H210347   1.998   3.989   1.965 -0.3102 -2.1238  1.5806
 3472TIP3   OH210348   2.344   2.848   4.020 -0.4571  0.3019  0.3617
 3472TIP3    H110349   2.252   2.822   4.014  0.2919 -2.6545  0.8038
 3472TIP3    H210350   2.349   2.897   4.102 -1.4768 -0.4194  0.8724
 3473TIP3   OH210351   2.298   2.941   2.510  0.1540 -0.2013  0.3611
 3473TIP3    H110352   2.318   2.995   2.433 -0.1483 -0.8158 -0.1581
 3473TIP3    H210353   2.244   2.869   2.475  0.4713 -0.7803  1.0572
 3474TIP3   OH210354   2.768   3.982   4.123  0.5992  0.6383 -0.2622
 3474TIP3    H110355   2.793   3.917   4.189  0.9226  2.2442  1.2444
 3474TIP3    H210356   2.700   4.034   4.166 -2.3157 -0.9495 -2.7435
 3475TIP3   OH210357   1.206   2.476   4.436  0.5823  0.6362 -0.4125
 3475TIP3    H110358   1.146   2.418   4.389 -1.2585  0.6663  1.7846
 3475TIP3    H210359   1.166   2.563   4.430 -0.4522  0.4049  2.3211
 3476TIP3   OH210360   1.418   0.797   4.495  0.1505 -0.6698 -0.2858
 3476TIP3    H110361   1.464   0.819   4.576 -0.3368 -0.9267  0.0660
 3476TIP3    H210362   1.326   0.789   4.521  0.1654 -2.0110 -0.6199
 3477TIP3   OH210363   2.105   4.498   4.333  0.7447 -0.7497  0.0318
 3477TIP3    H110364   2.170   4.491   4.264 -1.0141  0.3945 -1.8007
 3477TIP3    H210365   2.146   4.457   4.409  3.7757  0.3313 -0.9266
 3478TIP3   OH210366   0.911   2.801   2.863  0.5783  0.2743  0.4216
 3478TIP3    H110367   0.937   2.869   2.801  1.1280 -0.9049 -0.6696
 3478TIP3    H210368   0.888   2.848   2.943  0.0747  1.7933 -0.6108
 3479TIP3   OH210369   3.230   5.462   5.147  0.2978 -0.7621  0.4235
 3479TIP3    H110370   3.251   5.504   5.064 -1.0378 -1.2915 -0.2131
 3479TIP3    H210371   3.140   5.490   5.166  0.9116  0.1006  2.1702
 3480TIP3   OH210372   0.779   4.224   1.892 -0.7889  0.1777  0.4282
 3480TIP3    H110373   0.868   4.240   1.860 -1.8170  0.3341 -2.4874
 3480TIP3    H210374   0.750   4.146   1.846 -2.8118  1.1920 -0.0927
 3481TIP3   OH210375   1.383   3.936   5.427  0.4512 -0.2106  0.7885
 3481TIP3    H110376   1.332   4.005   5.385 -0.4874 -1.1021  0.4518
 3481TIP3    H210377   1.386   3.962   5.519 -1.2251 -0.5012  0.9480
 3482TIP3   OH210378   3.829   3.245   1.086 -0.7361 -0.0395  0.1241
 3482TIP3    H110379   3.846   3.262   0.994 -1.3838 -0.3661 -0.0591
 3482TIP3    H210380   3.746   3.289   1.104 -0.0006  1.0877  0.8707
 3483TIP3   OH210381   1.586   5.722   4.847  0.5016  0.0344 -0.0192
 3483TIP3    H110382   1.661   5.668   4.873  0.7304  0.3294 -0.0540
 3483TIP3    H210383   1.622   5.811   4.844  0.4212  0.0368 -1.1061
 3484TIP3   OH210384   1.620   5.189   2.049  0.3204  1.3568  0.3334
 3484TIP3    H110385   1.536   5.233   2.063 -0.4031  0.1612 -0.2236
 3484TIP3    H210386   1.609   5.103   2.089  0.2189  0.0664 -2.3559
 3485TIP3   OH210387   1.328   2.891   3.156  0.6285 -0.6713 -0.3241
 3485TIP3    H110388   1.293   2.853   3.076  2.5949 -0.7579 -1.1524
 3485TIP3    H210389   1.385   2.823   3.192  1.5913  0.2598 -0.0849
 3486TIP3   OH210390   1.512   4.729   2.229 -1.2404  0.1136 -0.4450
 3486TIP3    H110391   1.441   4.786   2.199 -0.5508  0.1875 -1.9693
 3486TIP3    H210392   1.555   4.700   2.149  0.4431  0.0380  0.4644
 3487TIP3   OH210393   0.876   1.387   4.967 -0.0768 -0.3058  0.1674
 3487TIP3    H110394   0.832   1.366   4.885 -0.1797 -1.7531  0.5834
 3487TIP3    H210395   0.962   1.345   4.960 -0.6250 -1.6687  1.3906
 3488TIP3   OH210396   0.505   3.893   3.562 -0.6367 -0.0338 -0.2848
 3488TIP3    H110397   0.479   3.983   3.581 -3.2244 -0.4517 -1.6201
 3488TIP3    H210398   0.428   3.840   3.585  0.5464 -1.8133 -0.3123
 3489TIP3   OH210399   0.861   4.383   0.824 -0.1385  0.0661  0.4512
 3489TIP3    H110400   0.782   4.438   0.827 -1.6286 -1.9805 -0.2195
 3489TIP3    H210401   0.912   4.418   0.751 -0.0267  1.8939  1.3751
 3490TIP3   OH210402   0.373   2.251   2.466 -0.7006 -0.3474  0.3529
 3490TIP3    H110403   0.324   2.203   2.532 -2.5850  0.4535 -0.4361
 3490TIP3    H210404   0.340   2.219   2.383 -0.3869  0.7085 -0.1924
 3491TIP3   OH210405   2.348   3.893   0.725 -0.0479  0.2461 -0.4013
 3491TIP3    H110406   2.302   3.918   0.805  0.9048  3.0160 -0.6418
 3491TIP3    H210407   2.408   3.824   0.751 -0.2185  0.6616  1.1175
 3492TIP3   OH210408   3.616   3.610   0.842  0.2890  0.7169  0.6356
 3492TIP3    H110409   3.570   3.693   0.846  0.5480  0.9023 -0.2049
 3492TIP3    H210410   3.700   3.631   0.801  0.0081 -0.1108 -0.3957
 3493TIP3   OH210411   0.566   3.936   2.605 -0.1770 -0.0760 -0.6598
 3493TIP3    H110412   0.521   3.917   2.524 -3.1669  0.3090  0.8504
 3493TIP3    H210413   0.522   3.883   2.671  0.6463  1.3666  1.1123
 3494TIP3   OH210414   2.456   4.008   3.096  0.2655 -0.4751 -0.4212
 3494TIP3    H110415   2.385   4.070   3.081  1.4926  0.9252 -0.5620
 3494TIP3    H210416   2.534   4.062   3.106  1.2368 -1.9512  0.3091
 3495TIP3   OH210417   0.867   2.687   6.580  0.0881 -0.8864 -0.3489
 3495TIP3    H110418   0.901   2.776   6.588  0.0310 -0.9492  0.6122
 3495TIP3    H210419   0.776   2.693   6.608  0.7264 -1.6803  1.9926
 3496TIP3   OH210420   1.747   1.324   3.987 -0.7783 -0.3535  0.0884
 3496TIP3    H110421   1.741   1.416   4.013 -1.7994 -0.7834  1.4551
 3496TIP3    H210422   1.714   1.323   3.897  0.4602  0.8037 -0.3888
 3497TIP3   OH210423   7.177   0.128   6.500  0.2066 -0.2583 -0.0884
 3497TIP3    H110424   7.149   0.135   6.591  0.3452  1.0737 -0.1364
 3497TIP3    H210425   7.264   0.087   6.505  0.6294  0.6835  0.4515
 3498TIP3   OH210426   3.042   2.353   1.349 -0.2940  0.0816  0.4049
 3498TIP3    H110427   3.103   2.417   1.386 -2.5003  2.8112 -0.5170
 3498TIP3    H210428   3.054   2.359   1.255  1.0929 -2.5728  0.3736
 3499TIP3   OH210429   1.596   3.892   5.056 -0.2717  0.2992  0.1081
 3499TIP3    H110430   1.671   3.932   5.012  0.7764 -0.8804  0.8286
 3499TIP3    H210431   1.557   3.835   4.989 -0.4161  0.7418 -0.1931
 3500TIP3   OH210432   0.067   3.469   3.580  0.3460 -0.2723 -0.4340
 3500TIP3    H110433   0.042   3.488   3.490  0.4669 -0.6355 -0.5450
 3500TIP3    H210434   0.058   3.552   3.626 -2.1869 -0.6256 -0.2057
 3501TIP3   OH210435   1.761   2.308   2.619 -0.0690 -0.1308 -0.2551
 3501TIP3    H110436   1.764   2.252   2.542 -1.5569  1.7964 -1.7408
 3501TIP3    H210437   1.687   2.276   2.670  0.3746 -0.8442 -0.0556
 3502TIP3   OH210438   1.492   3.587   4.379  0.6574 -0.9025 -0.3491
 3502TIP3    H110439   1.518   3.677   4.360  1.8703 -1.2394 -0.3230
 3502TIP3    H210440   1.399   3.592   4.398  0.5610  0.2346 -1.1160
 3503TIP3   OH210441   2.934   4.262   4.939  0.0090  0.0498 -0.4258
 3503TIP3    H110442   2.948   4.331   4.874 -3.3087  0.4650 -0.7978
 3503TIP3    H210443   2.839   4.261   4.953  0.2585 -2.6836  1.5207
 3504TIP3   OH210444   0.220   4.348   4.781  0.2282 -0.1871 -0.0580
 3504TIP3    H110445   0.306   4.354   4.821  0.4093  0.7290 -0.5719
 3504TIP3    H210446   0.228   4.280   4.715 -0.3417 -2.4454  2.1072
 3505TIP3   OH210447   7.863   1.906   4.632  0.0154 -0.1775  0.0050
 3505TIP3    H110448   7.809   1.907   4.711  2.2154 -2.2107  1.5874
 3505TIP3    H210449   7.852   1.993   4.594 -0.6803  1.0088  2.8091
 3506TIP3   OH210450   1.725   3.735   3.711  0.1527 -0.4743  0.0988
 3506TIP3    H110451   1.688   3.653   3.743  0.3674 -0.5091  0.2574
 3506TIP3    H210452   1.716   3.730   3.616 -2.9152  0.7524  0.2528
 3507TIP3   OH210453   1.872   2.798   2.571  0.1275 -0.0417 -0.4501
 3507TIP3    H110454   1.918   2.852   2.507  0.8402 -2.5521 -2.1324
 3507TIP3    H210455   1.934   2.787   2.643  0.6722 -0.1288 -0.9276
 3508TIP3   OH210456   1.613   4.158   4.249  0.0892  0.0103 -0.1308
 3508TIP3    H110457   1.626   4.244   4.208  3.2467  0.5193  1.7563
 3508TIP3    H210458   1.655   4.096   4.189  0.4803  0.1790 -0.0368
 3509TIP3   OH210459   3.013   4.687   2.409  0.1367 -0.4281  0.2405
 3509TIP3    H110460   2.962   4.683   2.490  0.6028 -2.1052  0.4774
 3509TIP3    H210461   2.971   4.623   2.351  1.2179 -0.9401  0.0080
 3510TIP3   OH210462   3.268   2.183   3.167  0.6455 -0.8412  0.3856
 3510TIP3    H110463   3.350   2.229   3.186  0.0574  0.3309  0.0969
 3510TIP3    H210464   3.205   2.221   3.228  0.3533 -1.9035  0.7672
 3511TIP3   OH210465   1.486   0.813   2.994  1.0276 -0.3857 -0.1878
 3511TIP3    H110466   1.501   0.884   2.932  2.3527 -1.7712 -1.4884
 3511TIP3    H210467   1.532   0.841   3.073  0.2178  0.9075 -0.1514
 3512TIP3   OH210468   4.931   2.778   2.040 -0.0127  0.0745  0.6311
 3512TIP3    H110469   4.850   2.784   2.090 -0.1836  0.2741  0.3289
 3512TIP3    H210470   4.964   2.868   2.036 -0.0615  0.0762  0.2809
 3513TIP3   OH210471   8.435   3.130   2.136 -0.3727 -0.2856  0.1549
 3513TIP3    H110472   8.473   3.049   2.102  2.6661  0.9742  0.4288
 3513TIP3    H210473   8.399   3.174   2.059 -1.1793 -1.4147 -0.1294
 3514TIP3   OH210474   2.602   3.170   3.016  0.4485  0.1732  0.2755
 3514TIP3    H110475   2.528   3.131   3.062  0.8807  0.9352  1.6450
 3514TIP3    H210476   2.563   3.224   2.947 -0.2072 -0.9185 -0.2077
 3515TIP3   OH210477   7.837   4.398   5.010  0.0508  0.0013  0.2000
 3515TIP3    H110478   7.914   4.436   4.966  0.0264  2.1133  1.8939
 3515TIP3    H210479   7.860   4.399   5.102 -1.5968 -0.3478  0.6251
 3516TIP3   OH210480   1.127   4.835   2.304  0.3102  0.4586 -0.4797
 3516TIP3    H110481   1.097   4.899   2.368 -2.9055  0.8633 -2.2535
 3516TIP3    H210482   1.183   4.884   2.244  0.3077  0.9290 -0.0977
 3517TIP3   OH210483   1.145   4.136   3.745 -0.5842  0.0756 -0.3029
 3517TIP3    H110484   1.180   4.224   3.754 -1.4584  0.5986 -1.7705
 3517TIP3    H210485   1.060   4.139   3.791  1.0154 -1.0677  2.8791
 3518TIP3   OH210486   2.375   4.412   2.667 -0.1864 -0.0783 -0.2930
 3518TIP3    H110487   2.336   4.422   2.580 -0.8648 -0.8080 -0.0780
 3518TIP3    H210488   2.348   4.491   2.714  0.6991  0.6217 -0.9239
 3519TIP3   OH210489   4.281   4.893   3.732  0.1639 -0.4455  0.7748
 3519TIP3    H110490   4.273   4.971   3.788 -1.2780 -0.2341  0.2967
 3519TIP3    H210491   4.279   4.820   3.793 -3.1819 -0.2990  0.9431
 3520TIP3   OH210492   3.860   5.574   2.804 -0.0404 -0.2839  0.0736
 3520TIP3    H110493   3.818   5.538   2.882 -1.2698  0.3971 -0.2775
 3520TIP3    H210494   3.823   5.524   2.731  0.7054 -0.5465 -0.1422
 3521TIP3   OH210495   4.398   3.287   5.563 -0.6384 -0.6480  0.4828
 3521TIP3    H110496   4.466   3.346   5.533 -0.3410 -0.0617  2.2711
 3521TIP3    H210497   4.319   3.341   5.568 -1.3924 -1.4594 -2.1427
 3522TIP3   OH210498   1.906   3.433   4.741 -0.5361 -0.1646 -0.5103
 3522TIP3    H110499   1.868   3.506   4.790 -0.4632 -0.0100 -0.6820
 3522TIP3    H210500   1.865   3.355   4.779  0.7947 -0.1744  0.9320
 3523TIP3   OH210501   0.716   4.373   3.377  0.5000  0.1002  0.2985
 3523TIP3    H110502   0.773   4.423   3.320 -2.7696  2.2216 -1.2852
 3523TIP3    H210503   0.686   4.299   3.323  0.0781  0.1926  0.4025
 3524TIP3   OH210504   2.996   4.838   4.218 -0.2261  0.2375 -0.3439
 3524TIP3    H110505   2.950   4.797   4.145 -1.3821  1.5529 -0.3592
 3524TIP3    H210506   2.927   4.858   4.282  0.4679  1.2515  0.0924
 3525TIP3   OH210507   2.833   3.055   2.190  0.0459  0.5259  0.1210
 3525TIP3    H110508   2.754   3.066   2.137 -0.5941 -3.2086  0.1482
 3525TIP3    H210509   2.905   3.061   2.126 -0.5322 -0.6406 -0.6549
 3526TIP3   OH210510   8.139   3.077   5.506 -0.1789 -0.5960  0.7832
 3526TIP3    H110511   8.055   3.070   5.463  0.2906  0.3789 -0.3016
 3526TIP3    H210512   8.125   3.138   5.578  0.2210  1.7107 -1.0257
 3527TIP3   OH210513   1.300   2.900   2.456  0.3839  0.4233  0.3859
 3527TIP3    H110514   1.333   2.900   2.546  1.2943  1.7621  0.0606
 3527TIP3    H210515   1.377   2.886   2.402 -0.1734 -0.4485 -0.1947
 3528TIP3   OH210516   4.527   2.355   2.762  0.0068 -0.9988  0.1018
 3528TIP3    H110517   4.513   2.333   2.670  2.0833 -0.6797 -0.3220
 3528TIP3    H210518   4.560   2.274   2.801  0.0965 -0.8523  0.3298
 3529TIP3   OH210519   3.243   1.649   3.951  0.1322 -0.0761 -0.0145
 3529TIP3    H110520   3.239   1.573   4.009 -0.1578 -0.1869 -0.1769
 3529TIP3    H210521   3.334   1.677   3.953  0.2772 -0.5457 -0.1019
 3530TIP3   OH210522   2.568   3.038   4.460 -0.2239  0.3956  0.0593
 3530TIP3    H110523   2.618   2.990   4.393 -1.2628 -0.6212 -0.0094
 3530TIP3    H210524   2.617   3.023   4.541  1.7752  2.7119 -0.6302
 3531TIP3   OH210525   0.714   3.159   4.870 -0.5708 -0.0677  0.4102
 3531TIP3    H110526   0.699   3.070   4.840  0.9007 -0.5306  1.0453
 3531TIP3    H210527   0.805   3.160   4.900 -0.4675  1.7179  0.1139
 3532TIP3   OH210528   3.335   2.425   2.861  0.1360 -0.1546 -0.1866
 3532TIP3    H110529   3.360   2.336   2.888  2.8652  0.3172 -1.0068
 3532TIP3    H210530   3.412   2.478   2.881 -0.6807  1.6464 -1.7211
 3533TIP3   OH210531   2.358   1.684   4.309 -0.1959  0.4931 -0.1329
 3533TIP3    H110532   2.337   1.727   4.392 -0.3392  0.1371  0.0186
 3533TIP3    H210533   2.410   1.748   4.261  0.0878  0.6114  0.3335
 3534TIP3   OH210534   1.370   4.310   0.959 -0.1069 -0.1166 -0.0993
 3534TIP3    H110535   1.331   4.387   0.919 -0.0828 -0.6476 -1.1762
 3534TIP3    H210536   1.299   4.246   0.962  0.0249 -0.2461  0.2418
 3535TIP3   OH210537   8.182   4.673   3.808  0.1222 -0.0993  0.1607
 3535TIP3    H110538   8.255   4.674   3.871 -1.3798  0.1989  1.9438
 3535TIP3    H210539   8.129   4.749   3.832 -2.1508 -1.7501  0.5467
 3536TIP3   OH210540   8.335   4.355   3.874  0.1767 -0.2216  0.2214
 3536TIP3    H110541   8.334   4.259   3.872 -0.5779 -0.2115 -1.7950
 3536TIP3    H210542   8.242   4.379   3.879  0.3043  0.3989 -0.3407
 3537TIP3   OH210543   2.550   4.407   2.415  0.2322  0.3191 -0.3616
 3537TIP3    H110544   2.632   4.436   2.455  0.0092 -0.1647  0.4719
 3537TIP3    H210545   2.482   4.444   2.470 -0.1506  1.8576 -1.8538
 3538TIP3   OH210546   3.609   5.449   0.884 -0.0067  0.4863  0.3483
 3538TIP3    H110547   3.564   5.460   0.968 -0.8267  1.1883 -0.1823
 3538TIP3    H210548   3.688   5.503   0.892 -1.1781  2.3197 -0.1314
 3539TIP3   OH210549   3.544   7.385   4.544  0.1556  0.6580  0.4660
 3539TIP3    H110550   3.465   7.335   4.525  0.3030 -0.1476  1.9170
 3539TIP3    H210551   3.528   7.424   4.630  1.7263 -0.3139  1.2128
 3540TIP3   OH210552   3.448   5.820   3.394 -0.1014 -0.2069 -0.5733
 3540TIP3    H110553   3.410   5.776   3.318  0.0343 -2.2732  0.5045
 3540TIP3    H210554   3.469   5.749   3.455 -1.1789  1.4529  1.8506
 3541TIP3   OH210555   1.876   4.337   4.637 -0.5326 -0.1717 -0.2107
 3541TIP3    H110556   1.854   4.306   4.549 -2.6571 -0.7673  0.5033
 3541TIP3    H210557   1.900   4.257   4.685 -2.8208 -0.3135  0.7237
 3542TIP3   OH210558   5.306   3.536   0.960  0.1235  0.3244 -0.6458
 3542TIP3    H110559   5.217   3.507   0.980 -0.2305  0.9360 -1.3080
 3542TIP3    H210560   5.340   3.569   1.043  0.1441 -0.9558 -0.1254
 3543TIP3   OH210561   3.150   6.497   2.681 -0.3389  0.2496  0.2162
 3543TIP3    H110562   3.057   6.475   2.682  0.0766 -1.5494  0.0082
 3543TIP3    H210563   3.193   6.421   2.642  1.3287  0.6533  1.2076
 3544TIP3   OH210564   2.801   4.746   5.182 -0.1037 -0.3790 -0.1240
 3544TIP3    H110565   2.759   4.831   5.196 -0.8791 -0.6216 -0.8758
 3544TIP3    H210566   2.729   4.682   5.190 -0.0532 -0.7418 -2.1890
 3545TIP3   OH210567   2.071   3.302   4.305  0.3168  0.0621 -0.4169
 3545TIP3    H110568   2.124   3.291   4.227  2.3107  2.1021  0.5913
 3545TIP3    H210569   2.016   3.378   4.286  0.6396  0.4181  0.0498
 3546TIP3   OH210570   0.598   0.371   0.603 -0.0683 -1.2433 -0.3454
 3546TIP3    H110571   0.515   0.341   0.567 -0.8478  0.1420  0.2735
 3546TIP3    H210572   0.574   0.436   0.669  1.4669 -1.5010  0.4940
 3547TIP3   OH210573   2.007   3.348   2.317  0.7768  0.1931  0.3259
 3547TIP3    H110574   2.047   3.431   2.344  2.7647 -0.2056 -1.2016
 3547TIP3    H210575   2.008   3.351   2.221 -1.0634 -0.7198  0.2500
 3548TIP3   OH210576   2.974   2.676   3.226 -0.0069  0.5354 -0.1780
 3548TIP3    H110577   2.911   2.723   3.171 -1.2234 -1.5943 -0.6644
 3548TIP3    H210578   3.027   2.626   3.164 -0.1042 -0.3508  0.4346
 3549TIP3   OH210579   0.819   2.647   3.662  0.3200 -0.7379  0.5291
 3549TIP3    H110580   0.873   2.599   3.599 -0.2600 -2.1054  1.0646
 3549TIP3    H210581   0.769   2.580   3.707  0.6049  0.2470  2.3575
 3550TIP3   OH210582   2.786   2.897   3.062  0.0736 -0.4631  0.2054
 3550TIP3    H110583   2.803   2.957   2.990  0.9705  1.5753  2.0895
 3550TIP3    H210584   2.752   2.952   3.133 -0.3197 -2.3420  1.5352
 3551TIP3   OH210585   1.668   3.512   1.931 -0.1206 -0.2519 -0.1990
 3551TIP3    H110586   1.689   3.603   1.952  0.9999 -0.3553 -0.8141
 3551TIP3    H210587   1.599   3.488   1.992 -0.3543  0.9863  0.0320
 3552TIP3   OH210588   2.769   4.129   2.207  0.3998  0.3850 -0.0278
 3552TIP3    H110589   2.712   4.197   2.170 -0.7963 -0.0530  0.9933
 3552TIP3    H210590   2.846   4.129   2.149 -0.7166  0.8149 -1.5636
 3553TIP3   OH210591   2.208   4.391   4.559 -1.1866  0.0118 -0.0741
 3553TIP3    H110592   2.201   4.296   4.548  1.0566 -0.2853  0.8887
 3553TIP3    H210593   2.211   4.404   4.654  0.4921  0.8773 -0.2301
 3554TIP3   OH210594   1.770   5.675   1.282  0.3610 -0.6465 -0.7422
 3554TIP3    H110595   1.746   5.751   1.229 -1.3598 -1.1399 -0.7141
 3554TIP3    H210596   1.771   5.707   1.372  3.1661  0.1650 -1.0410
 3555TIP3   OH210597   1.639   3.090   4.141  0.2097  0.1126 -0.6234
 3555TIP3    H110598   1.720   3.140   4.150 -0.2465  0.9311 -1.0260
 3555TIP3    H210599   1.663   3.001   4.167  1.1137  0.4574 -0.2476
 3556TIP3   OH210600   3.213   4.189   3.487  0.2209 -0.3992  0.8413
 3556TIP3    H110601   3.188   4.241   3.564 -1.0443  2.4658 -1.4125
 3556TIP3    H210602   3.291   4.232   3.454  2.1881 -3.0776  1.8280
 3557TIP3   OH210603   4.207   3.924   2.603 -0.2717  0.4671 -0.6326
 3557TIP3    H110604   4.195   3.964   2.517  2.6767  1.0590 -0.8108
 3557TIP3    H210605   4.296   3.948   2.629 -1.1155  0.3560  2.6154
 3558TIP3   OH210606   1.115   6.357   4.278  0.2677  0.1021 -0.0885
 3558TIP3    H110607   1.193   6.413   4.276  0.1382  0.2700 -0.7766
 3558TIP3    H210608   1.148   6.269   4.259  0.1142  0.4036 -1.8410
 3559TIP3   OH210609   0.450   2.341   4.619 -0.0317 -0.1509 -0.1274
 3559TIP3    H110610   0.447   2.262   4.673  1.9389  1.6170  2.7065
 3559TIP3    H210611   0.543   2.354   4.600 -0.1811  2.1387  0.5086
 3560TIP3   OH210612   3.655   3.024   2.255  0.2492  0.1973  0.1079
 3560TIP3    H110613   3.572   3.036   2.208 -1.0606  0.7910  2.4853
 3560TIP3    H210614   3.692   3.112   2.261  0.7115  0.0353 -0.3236
 3561TIP3   OH210615   2.664   2.525   3.810  0.8627  0.4156  0.7661
 3561TIP3    H110616   2.659   2.569   3.894  0.0771  0.0878  0.8951
 3561TIP3    H210617   2.636   2.591   3.746 -3.3763 -0.7735  1.2675
 3562TIP3   OH210618   1.982   3.956   3.263 -0.5526  0.3152  0.6125
 3562TIP3    H110619   1.999   3.925   3.174 -1.0878  0.6876  0.3810
 3562TIP3    H210620   1.991   3.878   3.318 -0.3957  0.0528  0.2113
 3563TIP3   OH210621   1.930   3.527   4.199  0.2830 -0.1536 -0.5747
 3563TIP3    H110622   1.895   3.546   4.286 -1.8294  0.0750 -1.4482
 3563TIP3    H210623   1.980   3.606   4.176 -0.1102  0.2533 -0.0451
 3564TIP3   OH210624   0.180   4.829   4.061  0.6047  0.4143  0.2871
 3564TIP3    H110625   0.237   4.880   4.004 -0.1117  1.9087  0.8947
 3564TIP3    H210626   0.110   4.797   4.004  0.8142  0.4678  0.0010
 3565TIP3   OH210627   1.018   2.432   5.243  0.0809 -0.1879 -0.3377
 3565TIP3    H110628   0.945   2.413   5.302  0.2486  0.8382  0.2116
 3565TIP3    H210629   1.096   2.410   5.292  0.2676  1.6686  0.2347
 3566TIP3   OH210630   4.358   5.297   2.747 -0.5276  0.5819 -0.3612
 3566TIP3    H110631   4.387   5.228   2.806 -0.8121 -0.0035 -0.8879
 3566TIP3    H210632   4.294   5.347   2.797  0.8197  1.4130  0.5425
 3567TIP3   OH210633   2.406   5.208   3.945  0.3436 -0.3812 -1.1232
 3567TIP3    H110634   2.464   5.283   3.929 -1.6587  1.3809 -0.3724
 3567TIP3    H210635   2.391   5.171   3.858  0.1735  1.0144 -1.7068
 3568TIP3   OH210636   3.889   2.424   3.730  0.3319  0.0104  0.3161
 3568TIP3    H110637   3.825   2.495   3.723  1.6384  1.1160 -0.7490
 3568TIP3    H210638   3.852   2.352   3.680  0.1151  0.7814 -0.6396
 3569TIP3   OH210639   1.910   4.032   2.259 -0.6365  0.6543  0.1812
 3569TIP3    H110640   1.851   3.962   2.286 -0.1733 -0.2071 -0.9997
 3569TIP3    H210641   1.911   4.092   2.333 -2.2892  0.2298  0.5716
 3570TIP3   OH210642   2.494   4.112   3.881 -0.0924 -0.5657 -0.1508
 3570TIP3    H110643   2.425   4.047   3.866  0.4683 -1.5484  1.3674
 3570TIP3    H210644   2.492   4.167   3.803 -2.1614 -0.9717 -0.4362
 3571TIP3   OH210645   1.772   4.520   5.750  0.2296 -0.1803  1.0442
 3571TIP3    H110646   1.703   4.478   5.802  1.1861 -1.4403  1.3317
 3571TIP3    H210647   1.754   4.493   5.660  0.3049 -0.4808  1.1161
 3572TIP3   OH210648   2.892   5.826   3.897  0.4580 -0.6364  0.3973
 3572TIP3    H110649   2.901   5.834   3.992 -0.2535 -0.1221  0.4281
 3572TIP3    H210650   2.929   5.907   3.863 -2.2369  0.6648  0.4287
 3573TIP3   OH210651   1.432   3.253   3.239 -0.1338 -0.4161  0.0360
 3573TIP3    H110652   1.417   3.265   3.145  0.1322 -0.4804 -0.0138
 3573TIP3    H210653   1.521   3.284   3.253 -0.2212 -0.2800  0.2924
 3574TIP3   OH210654   1.219   2.974   4.760  0.4020  0.1042  0.1141
 3574TIP3    H110655   1.178   3.007   4.840  3.4382  0.7926  1.4933
 3574TIP3    H210656   1.275   2.902   4.790  2.2431  0.9291 -1.2299
 3575TIP3   OH210657   1.431   5.149   3.511  0.1511 -0.0091 -0.2201
 3575TIP3    H110658   1.353   5.184   3.553  0.6493 -0.4163  1.0848
 3575TIP3    H210659   1.447   5.207   3.437 -2.0914 -0.6620 -1.2502
 3576TIP3   OH210660   8.029   3.270   3.548  0.0633  0.1895 -0.1534
 3576TIP3    H110661   8.110   3.281   3.599 -0.2016 -0.4572  0.4216
 3576TIP3    H210662   8.006   3.178   3.560 -0.7719  0.3747 -0.2972
 3577TIP3   OH210663   0.966   3.800   1.936  0.0581  0.1527  0.2471
 3577TIP3    H110664   0.980   3.891   1.961  1.3158  0.2981 -0.9097
 3577TIP3    H210665   0.895   3.770   1.993  1.6192  0.9755  2.6660
 3578TIP3   OH210666   1.613   4.136   5.265 -0.3574  0.0289 -0.3236
 3578TIP3    H110667   1.622   4.042   5.279 -0.0849 -0.0904 -1.3113
 3578TIP3    H210668   1.562   4.144   5.184  0.4438  0.7342 -0.7591
 3579TIP3   OH210669   1.718   3.436   1.307  0.2258  0.3216  0.0120
 3579TIP3    H110670   1.803   3.428   1.264  0.6608  1.3063  0.6683
 3579TIP3    H210671   1.655   3.421   1.237  0.9257 -1.9206 -0.1732
 3580TIP3   OH210672   2.602   1.678   2.592  0.2641 -0.3457  0.4128
 3580TIP3    H110673   2.665   1.750   2.596  0.9780 -0.9328 -0.2428
 3580TIP3    H210674   2.523   1.713   2.634  1.3890  0.0100  2.2509
 3581TIP3   OH210675   2.350   3.219   1.789  0.0347  0.2981  0.6273
 3581TIP3    H110676   2.440   3.236   1.761 -0.0616  2.1294  1.3350
 3581TIP3    H210677   2.330   3.292   1.849 -2.7996  1.4056 -1.5541
 3582TIP3   OH210678   2.105   3.760   4.198 -0.2134  0.3615  0.8416
 3582TIP3    H110679   2.192   3.775   4.160 -0.2802  1.7311  1.1937
 3582TIP3    H210680   2.121   3.710   4.277  0.2467  0.4772  0.8221
 3583TIP3   OH210681   4.479   3.126   3.344  0.8768 -0.5482 -0.0108
 3583TIP3    H110682   4.566   3.163   3.326  0.6783  0.2090  0.5555
 3583TIP3    H210683   4.461   3.151   3.435 -0.2483 -0.0662 -0.3595
 3584TIP3   OH210684   1.219   3.891   2.821 -0.0923  0.5309  0.1054
 3584TIP3    H110685   1.152   3.896   2.889  0.5663  0.8859  0.7365
 3584TIP3    H210686   1.286   3.834   2.858  0.6318  1.3567  0.0661
 3585TIP3   OH210687   0.374   3.256   2.156  0.0201  0.8069  0.2543
 3585TIP3    H110688   0.337   3.339   2.186 -0.6226  0.3625  0.7116
 3585TIP3    H210689   0.353   3.194   2.227  0.2076  0.1864 -0.2306
 3586TIP3   OH210690   2.031   4.177   3.653 -0.3596  0.0141  0.3089
 3586TIP3    H110691   2.059   4.100   3.703 -0.9067 -0.1310  0.3961
 3586TIP3    H210692   1.968   4.221   3.710 -0.4774  0.2137  0.0256
 3587TIP3   OH210693   2.876   4.469   3.695 -0.0618 -0.6876 -0.1126
 3587TIP3    H110694   2.866   4.385   3.651 -3.0347 -1.1687  1.3875
 3587TIP3    H210695   2.858   4.534   3.627  0.9308 -1.2590 -0.9467
 3588TIP3   OH210696   0.773   4.985   1.872 -0.2050  0.1129  0.4541
 3588TIP3    H110697   0.776   4.956   1.963 -3.1601  2.2788  1.3305
 3588TIP3    H210698   0.683   5.018   1.860 -0.0012 -0.4474 -3.3584
 3589TIP3   OH210699   0.298   3.410   1.684  0.5112 -0.1208 -0.4601
 3589TIP3    H110700   0.288   3.366   1.769 -0.7869  1.0092 -0.0244
 3589TIP3    H210701   0.229   3.373   1.629 -0.8621  1.6441  0.0361
 3590TIP3   OH210702   8.197   1.798   3.897  0.3024 -0.0985  0.4723
 3590TIP3    H110703   8.268   1.844   3.851  0.2604 -0.5099 -0.0111
 3590TIP3    H210704   8.142   1.868   3.932  0.3596  0.2245 -0.0699
 3591TIP3   OH210705   2.165   2.619   5.771 -0.1426  0.1893  0.2062
 3591TIP3    H110706   2.235   2.571   5.726 -1.7320 -0.5264 -1.5871
 3591TIP3    H210707   2.179   2.710   5.747  0.1724  0.0445 -0.1686
 3592TIP3   OH210708   0.846   3.637   3.572  0.5480  0.0534  0.7855
 3592TIP3    H110709   0.848   3.576   3.646 -0.7132  1.3774  1.9279
 3592TIP3    H210710   0.937   3.640   3.542  0.8551 -1.4304  1.4948
 3593TIP3   OH210711   0.074   2.874   4.173  0.1294  0.3373 -0.3516
 3593TIP3    H110712   0.020   2.889   4.251  0.0779  1.8804 -0.6829
 3593TIP3    H210713   0.164   2.885   4.203  0.1081  0.9663 -0.5122
 3594TIP3   OH210714   3.322   3.798   1.294  0.6103  0.1449  0.6659
 3594TIP3    H110715   3.376   3.744   1.236  0.6953 -0.2210  1.0853
 3594TIP3    H210716   3.243   3.746   1.308 -0.3737  1.1781 -0.8862
 3595TIP3   OH210717   3.829   5.655   1.887  0.1835 -0.4471 -0.2698
 3595TIP3    H110718   3.752   5.644   1.832  0.3685 -1.3885 -0.3597
 3595TIP3    H210719   3.899   5.609   1.839  0.5907 -0.3674  0.2411
 3596TIP3   OH210720   4.306   3.693   2.767  0.3579 -0.0191  0.5556
 3596TIP3    H110721   4.263   3.721   2.687 -1.7728  0.0826  1.6935
 3596TIP3    H210722   4.257   3.615   2.794  1.7779 -0.7211  1.1518
 3597TIP3   OH210723   2.222   4.175   4.247 -0.0261  0.2943 -0.1721
 3597TIP3    H110724   2.238   4.269   4.245  0.6765  0.1721 -0.6671
 3597TIP3    H210725   2.309   4.136   4.241 -0.2281 -0.3836  1.0544
 3598TIP3   OH210726   3.163   4.285   1.296  0.6514  0.9388 -0.1502
 3598TIP3    H110727   3.215   4.359   1.328 -0.0087  0.3469  2.4010
 3598TIP3    H210728   3.182   4.214   1.357 -1.7655  0.1882 -0.2127
 3599TIP3   OH210729   1.780   3.242   4.357  0.3813 -0.2023  0.4114
 3599TIP3    H110730   1.867   3.206   4.341  0.0996 -0.7276  0.0639
 3599TIP3    H210731   1.771   3.311   4.291  1.1481  0.9159  1.4453
 3600TIP3   OH210732   1.800   4.031   4.625 -0.0723  0.5879 -0.1951
 3600TIP3    H110733   1.782   4.058   4.535 -1.3378  0.8852  0.1431
 3600TIP3    H210734   1.740   3.959   4.642 -0.3303  0.9898  0.6480
 3601TIP3   OH210735   1.581   3.454   2.199  0.6083 -0.0226 -0.1634
 3601TIP3    H110736   1.608   3.541   2.231 -0.2068 -0.5970  2.2052
 3601TIP3    H210737   1.664   3.409   2.182  1.0742  0.4376  0.8195
 3602TIP3   OH210738   4.347   4.323   3.132  0.0852 -0.0273 -0.4227
 3602TIP3    H110739   4.354   4.364   3.046  0.5470 -0.1344 -0.4388
 3602TIP3    H210740   4.414   4.255   3.132  0.6067  0.4752  0.2962
 3603TIP3   OH210741   4.569   6.589   1.084  0.3198 -0.1029  0.5024
 3603TIP3    H110742   4.596   6.629   1.167  0.3341 -0.9225  0.8916
 3603TIP3    H210743   4.644   6.603   1.026 -0.1552  1.5482  0.2412
 3604TIP3   OH210744   5.563   3.495   1.548 -0.2279 -0.0596 -0.3272
 3604TIP3    H110745   5.497   3.533   1.605 -0.1280  1.2143 -1.0544
 3604TIP3    H210746   5.643   3.545   1.567 -0.4020  0.9480 -2.1815
 3605TIP3   OH210747   7.297   2.916   1.840 -0.3549  0.1329  0.3239
 3605TIP3    H110748   7.383   2.909   1.799 -1.0991 -0.3648 -1.2147
 3605TIP3    H210749   7.268   2.825   1.851 -0.5056  0.2875  1.2221
 3606TIP3   OH210750   4.763   5.072   1.283  0.4811 -0.2921 -0.0583
 3606TIP3    H110751   4.798   5.064   1.372 -0.8643 -1.0842  0.4226
 3606TIP3    H210752   4.677   5.029   1.287 -0.1352  0.7508 -1.4353
 3607TIP3   OH210753   5.845   3.888   3.516 -0.0726  0.1187  0.2308
 3607TIP3    H110754   5.933   3.896   3.554 -0.7546  0.5654  1.7671
 3607TIP3    H210755   5.843   3.953   3.446  0.4143  0.9972  1.0107
 3608TIP3   OH210756   4.658   4.532   2.614 -0.3659  0.1827 -0.0088
 3608TIP3    H110757   4.573   4.494   2.591 -0.7909 -0.1187  2.0058
 3608TIP3    H210758   4.722   4.474   2.572 -1.1226 -0.4741 -0.2650
 3609TIP3   OH210759   3.414   4.292   1.423  0.5269  0.2669  0.0303
 3609TIP3    H110760   3.509   4.283   1.433  0.3413  0.2803  2.1122
 3609TIP3    H210761   3.380   4.203   1.435  0.2668  0.2748 -0.6394
 3610TIP3   OH210762   5.578   1.768   0.597  0.1192 -0.0747 -0.5921
 3610TIP3    H110763   5.662   1.722   0.590 -0.8282 -1.9835  0.4507
 3610TIP3    H210764   5.527   1.717   0.660 -1.1926  2.0605  0.1253
 3611TIP3   OH210765   2.448   2.033   1.830 -0.3530  0.0679  0.5566
 3611TIP3    H110766   2.368   2.080   1.854 -1.2818 -0.3114 -1.6957
 3611TIP3    H210767   2.418   1.944   1.810  0.7344 -0.2446  0.3062
 3612TIP3   OH210768   5.284   4.214   3.034  0.1942 -0.0181 -0.4534
 3612TIP3    H110769   5.228   4.285   3.067  0.2459  0.0104 -0.4267
 3612TIP3    H210770   5.246   4.135   3.072  0.9270  0.1162  0.5994
 3613TIP3   OH210771   2.642   3.088   2.015  1.0802 -0.5650  0.3092
 3613TIP3    H110772   2.662   3.122   1.928  0.1029  0.1068  0.3449
 3613TIP3    H210773   2.575   3.021   2.000 -1.4466  1.7738  0.8472
 3614TIP3   OH210774   6.495   1.890   0.878 -0.6434 -0.0567  0.3920
 3614TIP3    H110775   6.563   1.952   0.904  1.3675 -1.8507 -0.4292
 3614TIP3    H210776   6.499   1.888   0.783 -1.5835 -0.4648  0.3512
 3615TIP3   OH210777   5.871   3.725   2.369  0.2643  0.0290 -0.3502
 3615TIP3    H110778   5.836   3.671   2.440  0.8227 -0.3092 -0.3300
 3615TIP3    H210779   5.898   3.662   2.302  0.9721  0.2731 -0.2985
 3616TIP3   OH210780   4.015   5.965   4.115  0.3529 -0.3736  0.1783
 3616TIP3    H110781   4.016   5.897   4.182  0.7937 -0.3131  0.2322
 3616TIP3    H210782   4.080   6.029   4.144 -0.3526  0.2843  0.3513
 3617TIP3   OH210783   3.328   4.813   4.096 -0.4430 -0.2768  0.0093
 3617TIP3    H110784   3.408   4.857   4.124 -0.2847 -0.0934 -0.7119
 3617TIP3    H210785   3.308   4.751   4.167 -0.8721  1.2092  1.2041
 3618TIP3   OH210786   6.001   2.151   1.653  0.0213 -0.5240  0.8578
 3618TIP3    H110787   6.011   2.245   1.661 -1.5563 -0.4309  1.8598
 3618TIP3    H210788   6.076   2.114   1.699  0.7949  0.2274  0.2198
 3619TIP3   OH210789   1.624   1.214   3.269  0.9095  0.3261 -0.1510
 3619TIP3    H110790   1.577   1.271   3.329  0.6310 -0.4028  0.3284
 3619TIP3    H210791   1.588   1.234   3.183 -1.4780 -1.3978  0.3917
 3620TIP3   OH210792   4.763   2.153   3.504  0.5824  0.1327  0.3380
 3620TIP3    H110793   4.727   2.110   3.582  0.6070  0.5257  0.5680
 3620TIP3    H210794   4.858   2.145   3.513  0.6559  1.8680  1.3273
 3621TIP3   OH210795   3.412   7.012   3.434  0.2137 -0.2697 -0.1592
 3621TIP3    H110796   3.428   6.998   3.527 -0.1931 -0.6029 -0.1381
 3621TIP3    H210797   3.383   6.927   3.401 -2.3314  0.5176 -0.0146
 3622TIP3   OH210798   6.080   7.183   1.033  0.1040 -0.1182 -0.5680
 3622TIP3    H110799   6.107   7.204   0.944  0.5393 -0.7810 -0.5995
 3622TIP3    H210800   6.004   7.239   1.050 -0.3257 -0.4104 -1.5559
 3623TIP3   OH210801   3.123   5.756   0.813  0.3574  0.2447  0.4962
 3623TIP3    H110802   3.120   5.719   0.902 -2.6619  0.0894  0.3945
 3623TIP3    H210803   3.093   5.846   0.823 -0.8000 -0.0119 -0.4305
 3624TIP3   OH210804   1.813   3.368   1.728 -0.3081  0.8433 -0.1370
 3624TIP3    H110805   1.749   3.333   1.667  0.9555 -1.2740 -0.2686
 3624TIP3    H210806   1.763   3.431   1.781 -2.0059  0.7456 -1.5759
 3625TIP3   OH210807   3.184   4.036   0.370 -0.4005  0.1680 -0.0953
 3625TIP3    H110808   3.270   3.998   0.356 -0.6976 -1.4733  2.4068
 3625TIP3    H210809   3.194   4.127   0.342  2.4195  0.2746  1.0892
 3626TIP3   OH210810   5.823   2.807   2.449  0.0602 -0.2810  0.4689
 3626TIP3    H110811   5.784   2.754   2.379 -0.1135 -0.1533  0.4714
 3626TIP3    H210812   5.903   2.759   2.472  1.9051  1.3759 -2.1229
 3627TIP3   OH210813   7.700   0.382   6.613 -0.1427  0.4055 -0.2649
 3627TIP3    H110814   7.605   0.375   6.609  0.0496 -1.8338 -2.1127
 3627TIP3    H210815   7.731   0.291   6.605  2.1172  0.9695  1.6688
 3628TIP3   OH210816   3.995   3.582   2.490 -0.1301 -0.2487 -0.4863
 3628TIP3    H110817   3.975   3.636   2.566 -0.7680 -0.1689 -0.7114
 3628TIP3    H210818   3.961   3.495   2.512  2.4043 -1.0262  0.5924
 3629TIP3   OH210819   2.579   4.476   1.920  0.2183 -0.2996  0.7746
 3629TIP3    H110820   2.546   4.548   1.975 -1.3604 -1.1107  0.9164
 3629TIP3    H210821   2.595   4.405   1.982  1.0909 -0.3185  0.5356
 3630TIP3   OH210822   4.115   5.596   1.837  0.3856  0.3402 -0.1027
 3630TIP3    H110823   4.201   5.581   1.877  1.1307 -1.7103 -2.3685
 3630TIP3    H210824   4.122   5.559   1.749 -2.1284  2.1299 -1.1419
 3631TIP3   OH210825   3.203   4.689   3.894  0.3339 -0.0211 -0.1959
 3631TIP3    H110826   3.247   4.746   3.958 -0.3968  1.4601 -0.9739
 3631TIP3    H210827   3.234   4.601   3.914  0.5262  0.4948  1.8577
 3632TIP3   OH210828   4.671   3.778   2.979  0.6332 -0.3536  0.3885
 3632TIP3    H110829   4.703   3.853   3.029  0.2563  0.3646 -0.4343
 3632TIP3    H210830   4.606   3.815   2.920  3.0150 -0.6856 -2.5813
 3633TIP3   OH210831   3.027   3.460   1.576  0.2187 -0.0594 -1.2109
 3633TIP3    H110832   3.052   3.531   1.517  1.5740 -0.3450 -0.9940
 3633TIP3    H210833   3.081   3.473   1.654 -1.2681  0.0755 -0.1913
 3634TIP3   OH210834   4.809   5.810   2.283 -0.2751  0.3110 -0.6648
 3634TIP3    H110835   4.745   5.821   2.214  0.1450 -1.8432 -1.4312
 3634TIP3    H210836   4.757   5.797   2.363 -0.7792  0.4125 -0.9763
 3635TIP3   OH210837   5.474   3.336   1.343  0.3484  0.2754  0.2717
 3635TIP3    H110838   5.415   3.365   1.274  0.3201 -0.8114 -0.1726
 3635TIP3    H210839   5.463   3.401   1.413 -0.8864  0.4382 -0.0595
 3636TIP3   OH210840   1.602   3.880   2.520  0.1947  0.0259  0.7423
 3636TIP3    H110841   1.595   3.947   2.452  1.0878 -2.0214 -1.4291
 3636TIP3    H210842   1.517   3.835   2.520 -0.2176  0.7711  1.8287
 3637TIP3   OH210843   3.175   4.708   3.576 -0.0945  0.5407 -0.4649
 3637TIP3    H110844   3.127   4.776   3.529 -1.6790 -0.2879 -0.0535
 3637TIP3    H210845   3.157   4.726   3.668  0.4333  0.2428 -0.3003
 3638TIP3   OH210846   5.170   3.166   0.934  0.5426 -0.2706 -0.2182
 3638TIP3    H110847   5.097   3.210   0.979 -0.6186 -2.1143 -0.2340
 3638TIP3    H210848   5.130   3.126   0.857  2.1853  1.2979 -1.9534
 3639TIP3   OH210849   2.343   2.706   1.745  0.7163 -0.4253  0.1893
 3639TIP3    H110850   2.253   2.718   1.716  0.7134  0.1068  0.4013
 3639TIP3    H210851   2.393   2.690   1.665  0.0232 -3.5029  0.2920
 3640TIP3   OH210852   2.990   2.659   1.069 -0.4022 -0.5315  0.1269
 3640TIP3    H110853   2.935   2.655   0.990  0.4280 -0.1942 -0.4777
 3640TIP3    H210854   2.948   2.726   1.123 -0.0798  0.3881 -0.7413
 3641TIP3   OH210855   0.716   4.667   2.402 -0.2599 -0.1003 -0.0539
 3641TIP3    H110856   0.716   4.571   2.400  0.6527 -0.1211  0.4856
 3641TIP3    H210857   0.685   4.693   2.316  1.2436 -0.8872 -0.8668
 3642TIP3   OH210858   2.805   4.694   1.469 -0.5862 -0.0960 -0.6262
 3642TIP3    H110859   2.876   4.650   1.421 -1.4760 -0.4712 -1.6133
 3642TIP3    H210860   2.754   4.622   1.507 -1.2841  0.1153 -1.1533
 3643TIP3   OH210861   5.861   4.607   3.081 -0.0956  0.0115  0.1272
 3643TIP3    H110862   5.908   4.690   3.071  0.0038 -0.1452 -0.7075
 3643TIP3    H210863   5.907   4.562   3.152  0.5934  0.1497 -0.2330
 3644TIP3   OH210864   3.991   2.794   3.517  0.2515 -0.8039 -0.7686
 3644TIP3    H110865   3.980   2.874   3.466 -0.3574 -0.8110 -0.6524
 3644TIP3    H210866   4.085   2.788   3.532  0.4037 -0.6325 -1.6192
 3645TIP3   OH210867   4.362   3.646   1.373 -0.2887 -0.2652  0.3333
 3645TIP3    H110868   4.315   3.617   1.295 -0.7281 -0.8052  0.7959
 3645TIP3    H210869   4.372   3.567   1.427 -1.1873  0.3607  1.4427
 3646TIP3   OH210870   0.812   4.038   4.706  0.0244  0.0274  0.3797
 3646TIP3    H110871   0.717   4.051   4.700  0.1086  0.6688  0.4837
 3646TIP3    H210872   0.822   3.966   4.769 -0.5115 -1.6978 -1.4323
 3647TIP3   OH210873   2.583   2.240   1.212  0.3448 -0.6843  0.1034
 3647TIP3    H110874   2.662   2.221   1.262 -0.0503 -2.5749  0.0489
 3647TIP3    H210875   2.513   2.241   1.277  0.3677  0.7897  0.1234
 3648TIP3   OH210876   5.491   5.065   2.190 -0.1465 -0.1611 -0.2072
 3648TIP3    H110877   5.560   5.119   2.227 -1.1330  0.1160  1.2530
 3648TIP3    H210878   5.418   5.073   2.251 -1.5984 -0.1738 -1.8850
 3649TIP3   OH210879   4.540   4.765   2.975  0.5233 -0.4240  0.2821
 3649TIP3    H110880   4.537   4.852   2.934  1.0810 -1.0386 -1.1223
 3649TIP3    H210881   4.626   4.731   2.950  0.0764 -1.5987  0.3445
 3650TIP3   OH210882   0.710   4.461   4.223  0.2618  0.2403 -1.0779
 3650TIP3    H110883   0.626   4.432   4.258 -0.7653  2.3472 -1.7053
 3650TIP3    H210884   0.751   4.508   4.296  0.3858  0.2340 -1.1428
 3651TIP3   OH210885   1.464   2.986   3.469 -0.7151 -0.7634  0.0521
 3651TIP3    H110886   1.418   3.012   3.549 -2.1342  0.7733 -1.2422
 3651TIP3    H210887   1.542   2.941   3.501 -0.5974  0.9410  2.3273
 3652TIP3   OH210888   4.143   3.744   3.792 -0.0124  0.0001  0.3977
 3652TIP3    H110889   4.126   3.811   3.859 -0.6093  0.8771 -0.6148
 3652TIP3    H210890   4.153   3.663   3.841  2.2337  1.0743  1.7826
 3653TIP3   OH210891   2.455   3.298   4.413 -0.1775 -0.7328  0.1291
 3653TIP3    H110892   2.533   3.352   4.417 -0.3791 -0.3747 -0.6295
 3653TIP3    H210893   2.488   3.208   4.411  0.2130 -0.5828 -0.1524
 3654TIP3   OH210894   4.564   4.560   1.950  0.8550  0.1805  0.1883
 3654TIP3    H110895   4.549   4.643   1.995  1.0372 -0.0044  0.5967
 3654TIP3    H210896   4.642   4.575   1.897 -0.3454  0.9348 -1.4201
 3655TIP3   OH210897   4.331   2.616   1.612 -0.1411  0.3677  0.2276
 3655TIP3    H110898   4.372   2.671   1.679  0.7714 -0.4571  0.3575
 3655TIP3    H210899   4.257   2.575   1.658  1.0126 -0.8890  0.9999
 3656TIP3   OH210900   4.046   5.083   3.929 -0.0367 -0.1301 -0.1986
 3656TIP3    H110901   4.083   5.150   3.871  0.2973 -0.2631 -0.1436
 3656TIP3    H210902   4.122   5.034   3.959 -0.2113 -0.0575  0.3582
 3657TIP3   OH210903   2.205   2.620   3.280  0.2375 -0.0289  0.2437
 3657TIP3    H110904   2.277   2.681   3.262  1.0456 -1.2462 -0.7253
 3657TIP3    H210905   2.221   2.546   3.222 -1.6447 -0.4570  0.2307
 3658TIP3   OH210906   4.218   4.616   3.774  0.1622 -0.0343  0.5277
 3658TIP3    H110907   4.246   4.530   3.803 -0.3591 -0.2151  0.5130
 3658TIP3    H210908   4.221   4.611   3.678  1.6723  0.4889  0.5509
 3659TIP3   OH210909   4.867   3.869   2.370  0.0148  0.2950  0.1197
 3659TIP3    H110910   4.880   3.777   2.349 -1.4328 -0.3866  2.1029
 3659TIP3    H210911   4.839   3.909   2.288  0.3409 -1.0959 -0.6772
 3660TIP3   OH210912   4.977   3.502   1.493  0.4335 -0.1132  0.2647
 3660TIP3    H110913   4.999   3.589   1.461  0.8612 -0.5642 -0.6545
 3660TIP3    H210914   5.003   3.442   1.424 -1.6533 -0.8388  0.0536
 3661TIP3   OH210915   5.490   5.658   2.465 -0.1181 -0.0658  0.4329
 3661TIP3    H110916   5.490   5.719   2.392  1.9428 -0.2320  0.2666
 3661TIP3    H210917   5.400   5.661   2.499 -1.1309 -0.0601 -2.1220
 3662TIP3   OH210918   4.611   2.550   1.720 -0.3873 -0.1357 -0.2351
 3662TIP3    H110919   4.704   2.571   1.730 -0.7751  0.6576  1.9790
 3662TIP3    H210920   4.597   2.550   1.625  2.0928 -1.3530 -0.6449
 3663TIP3   OH210921   1.987   3.826   2.988 -0.1256 -0.9014  0.2549
 3663TIP3    H110922   2.068   3.776   2.981  0.3018 -0.5340  2.3747
 3663TIP3    H210923   1.943   3.811   2.904  1.9585 -1.3728 -0.7958
 3664TIP3   OH210924   3.312   4.741   1.359 -0.1961  0.0185  0.2201
 3664TIP3    H110925   3.295   4.829   1.393 -0.4589 -0.0257  0.2060
 3664TIP3    H210926   3.364   4.698   1.427 -0.1780  0.1418  0.2837
 3665TIP3   OH210927   4.078   3.271   2.777 -0.4884  0.3285 -0.5977
 3665TIP3    H110928   4.147   3.240   2.718  0.2187 -0.0082  0.3884
 3665TIP3    H210929   4.010   3.303   2.719  0.0868 -0.2347 -1.6047
 3666TIP3   OH210930   3.725   1.688   3.082 -0.3158 -0.1462 -0.5470
 3666TIP3    H110931   3.631   1.705   3.090 -0.0821  0.3717  1.4138
 3666TIP3    H210932   3.767   1.769   3.109  0.7151  0.5475 -3.9681
 3667TIP3   OH210933   1.718   4.614   3.523 -0.2462 -0.5829  0.3176
 3667TIP3    H110934   1.710   4.524   3.554 -0.3636 -0.8791 -0.5508
 3667TIP3    H210935   1.631   4.636   3.489  0.1946 -0.6992 -0.9143
 3668TIP3   OH210936   5.007   4.422   1.512 -0.8357  0.3860  0.4938
 3668TIP3    H110937   5.087   4.474   1.508  0.5548 -1.7370 -0.1537
 3668TIP3    H210938   4.950   4.461   1.445  0.4135  0.7038 -0.4049
 3669TIP3   OH210939   4.771   4.188   1.465  0.1486  0.3690 -0.4195
 3669TIP3    H110940   4.802   4.278   1.460  0.7805  0.0864 -1.7948
 3669TIP3    H210941   4.738   4.179   1.554  0.7119  1.7571 -0.0591
 3670TIP3   OH210942   6.781   4.596   1.634  0.6133 -0.3275 -0.1370
 3670TIP3    H110943   6.804   4.602   1.541  0.3868 -0.5545 -0.2053
 3670TIP3    H210944   6.865   4.581   1.678  0.9127  1.1689 -0.1733
 3671TIP3   OH210945   5.010   5.081   3.546  0.3481 -0.3264 -0.1549
 3671TIP3    H110946   5.086   5.138   3.554  0.6123 -0.6818 -0.0863
 3671TIP3    H210947   4.965   5.111   3.467  1.5822 -1.3088 -1.2485
 3672TIP3   OH210948   3.880   5.366   4.398 -0.2437  0.1258 -0.4897
 3672TIP3    H110949   3.786   5.365   4.420 -0.3827  2.5177 -0.8322
 3672TIP3    H210950   3.883   5.345   4.305 -0.4214 -0.2076 -0.4205
 3673TIP3   OH210951   4.798   3.819   2.103 -0.1301 -0.6962  0.3545
 3673TIP3    H110952   4.714   3.847   2.068  0.5682  0.3237 -0.5286
 3673TIP3    H210953   4.850   3.796   2.026  1.3000  1.2266  0.7173
 3674TIP3   OH210954   3.339   3.112   3.485 -0.5169  0.2060 -0.7610
 3674TIP3    H110955   3.254   3.145   3.514 -0.2298 -1.0843  1.6268
 3674TIP3    H210956   3.403   3.167   3.529 -0.0840  1.0310 -2.3817
 3675TIP3   OH210957   5.097   3.772   5.078  0.1511 -0.3252 -0.0770
 3675TIP3    H110958   5.065   3.713   5.146 -0.8027  1.7422  1.3433
 3675TIP3    H210959   5.032   3.769   5.009 -0.4620 -0.1123  0.4869
 3676TIP3   OH210960   3.476   4.604   4.947 -0.3052  0.4526  1.0853
 3676TIP3    H110961   3.395   4.647   4.922 -0.6650  0.0403  1.5365
 3676TIP3    H210962   3.541   4.675   4.952 -0.3741  0.6417 -0.3344
 3677TIP3   OH210963   2.772   3.324   3.420 -0.1671  0.3975  0.4098
 3677TIP3    H110964   2.837   3.380   3.377  0.1973 -0.4483 -0.1480
 3677TIP3    H210965   2.704   3.385   3.449 -0.2929  1.0098 -1.1262
 3678TIP3   OH210966   3.976   4.816   0.299 -0.5732  0.8628  0.4925
 3678TIP3    H110967   4.023   4.804   0.217 -0.6371  1.2710  0.3965
 3678TIP3    H210968   3.890   4.776   0.283  0.4302 -1.7342  1.3427
 3679TIP3   OH210969   4.200   4.119   3.485 -0.2517 -0.0757 -0.0718
 3679TIP3    H110970   4.253   4.054   3.439  0.9194  0.4792  0.4447
 3679TIP3    H210971   4.211   4.096   3.578 -0.7489  0.1708  0.0463
 3680TIP3   OH210972   5.557   3.932   1.630  0.2600 -0.6338 -0.2812
 3680TIP3    H110973   5.470   3.959   1.660  0.1191 -0.3703 -0.9312
 3680TIP3    H210974   5.548   3.839   1.609  0.2935 -0.7570  0.2360
 3681TIP3   OH210975   2.234   3.563   3.221  0.3787  0.2320 -0.6138
 3681TIP3    H110976   2.306   3.626   3.215 -0.0341  0.7767  0.0002
 3681TIP3    H210977   2.221   3.533   3.132 -0.6381  2.4124 -1.2312
 3682TIP3   OH210978   4.780   4.786   1.389 -0.3408  0.0197  0.4970
 3682TIP3    H110979   4.800   4.877   1.409  0.1467 -0.0190  0.1779
 3682TIP3    H210980   4.862   4.749   1.357 -0.0629 -1.0210  2.3329
 3683TIP3   OH210981   3.191   3.414   2.310  0.2353  0.0194  0.1680
 3683TIP3    H110982   3.256   3.361   2.356 -0.7541 -1.0161  0.4046
 3683TIP3    H210983   3.112   3.359   2.309 -0.3356  0.8521 -0.9930
 3684TIP3   OH210984   4.574   4.179   2.208 -0.2914  0.4726 -0.0268
 3684TIP3    H110985   4.617   4.137   2.282 -0.1782 -0.3222 -0.5368
 3684TIP3    H210986   4.582   4.273   2.226 -1.6964  0.2749  1.7727
 3685TIP3   OH210987   4.023   5.003   1.513  0.2757  0.0566  0.3853
 3685TIP3    H110988   4.116   5.000   1.537  0.4993  0.8830 -0.3705
 3685TIP3    H210989   4.001   4.912   1.491  0.9026 -0.1352  0.5308
 3686TIP3   OH210990   5.378   5.180   3.057  0.2842  0.7192  0.2049
 3686TIP3    H110991   5.449   5.142   3.110 -0.0875  1.0078  0.9217
 3686TIP3    H210992   5.316   5.214   3.122  0.9595  3.2414 -0.4260
 3687TIP3   OH210993   4.129   5.870   1.699  0.2403  0.0513  0.4749
 3687TIP3    H110994   4.111   5.786   1.740 -0.1255  0.1364  0.4979
 3687TIP3    H210995   4.223   5.871   1.683  0.0822 -0.8260 -0.5470
 3688TIP3   OH210996   4.930   5.807   0.369 -0.0421 -0.2499  0.1078
 3688TIP3    H110997   4.969   5.749   0.304 -0.8026  1.9485 -2.4336
 3688TIP3    H210998   5.003   5.855   0.407  0.2337 -0.0955 -0.6172
 3689TIP3   OH210999   4.711   4.199   2.887 -0.5192 -0.0700  0.0587
 3689TIP3    H111000   4.736   4.245   2.967 -2.4536  2.4263 -0.7004
 3689TIP3    H211001   4.744   4.254   2.816 -2.3265 -0.1237 -0.8661
 3690TIP3   OH211002   2.319   5.338   1.286 -0.7286  0.7648  0.0632
 3690TIP3    H111003   2.266   5.283   1.228  1.1013 -0.6135 -0.3472
 3690TIP3    H211004   2.314   5.294   1.371  0.2047  0.3114 -0.1116
 3691TIP3   OH211005   3.457   4.865   2.041  0.3420 -0.7149  0.1153
 3691TIP3    H111006   3.512   4.905   2.109  0.1969  0.7395 -0.6111
 3691TIP3    H211007   3.491   4.776   2.033 -0.3227 -1.2495  2.8275
 3692TIP3   OH211008   2.131   3.782   2.563 -0.1982  0.2286 -0.4632
 3692TIP3    H111009   2.181   3.849   2.516  0.6124 -0.7212 -0.9874
 3692TIP3    H211010   2.196   3.717   2.588 -0.7567  0.3333  1.3031
 3693TIP3   OH211011   4.363   3.604   4.002  0.3410  0.5011  0.2985
 3693TIP3    H111012   4.383   3.510   3.997  0.6419  0.5751  0.1225
 3693TIP3    H211013   4.269   3.607   4.024 -0.3557  0.1692 -2.4332
 3694TIP3   OH211014   2.581   4.115   2.421  0.5463 -0.2533  0.6771
 3694TIP3    H111015   2.647   4.096   2.355 -2.4426 -1.3391 -2.1227
 3694TIP3    H211016   2.572   4.211   2.419 -0.0511 -0.3267 -1.0726
 3695TIP3   OH211017   2.279   4.186   1.726  0.3341  0.1859  0.3794
 3695TIP3    H111018   2.291   4.172   1.819  0.1835  1.8391  0.6734
 3695TIP3    H211019   2.323   4.269   1.708 -0.4323  0.3570 -0.8248
 3696TIP3   OH211020   6.513   5.203   1.845 -0.1494  0.9298  0.2546
 3696TIP3    H111021   6.511   5.272   1.911 -1.1753  1.4507 -0.3012
 3696TIP3    H211022   6.489   5.247   1.764  0.6173  0.2002 -0.3793
 3697TIP3   OH211023   5.435   5.164   4.257  0.1983  0.6928  0.3785
 3697TIP3    H111024   5.430   5.170   4.352 -1.1699 -0.1212  0.3701
 3697TIP3    H211025   5.349   5.192   4.226  0.8294  1.5503 -0.6640
 3698TIP3   OH211026   5.450   3.777   2.174  0.0293 -0.1589  0.4125
 3698TIP3    H111027   5.389   3.725   2.226 -0.3857 -1.5404 -1.3891
 3698TIP3    H211028   5.428   3.868   2.194 -0.1726 -0.6670  2.5426
 3699TIP3   OH211029   3.282   3.205   3.793 -0.5000 -0.0491  0.2711
 3699TIP3    H111030   3.271   3.110   3.796  0.8307 -0.1631  1.5661
 3699TIP3    H211031   3.227   3.232   3.719 -0.2046 -1.9098 -0.6614
 3700TIP3   OH211032   3.381   4.292   0.674  0.6801 -0.0850  0.0796
 3700TIP3    H111033   3.301   4.240   0.671  1.8807 -1.9656 -0.2388
 3700TIP3    H211034   3.419   4.272   0.760  1.3125  0.0057 -0.1789
 3701TIP3   OH211035   1.775   3.235   1.998  0.2756  0.6579 -0.2751
 3701TIP3    H111036   1.868   3.250   2.018  0.9016 -3.4465  0.4013
 3701TIP3    H211037   1.764   3.268   1.909  2.6717  0.1854 -0.7841
 3702TIP3   OH211038   4.778   5.220   0.123  0.2094 -0.0374  0.0777
 3702TIP3    H111039   4.698   5.224   0.175  1.9546  0.8501  2.7889
 3702TIP3    H211040   4.798   5.127   0.118 -1.2906 -0.3160 -1.1393
 3703TIP3   OH211041   3.259   4.786   1.115  0.3443 -0.1020 -0.0182
 3703TIP3    H111042   3.292   4.787   1.205 -0.2452  0.5141  0.1995
 3703TIP3    H211043   3.264   4.694   1.088  1.4450 -0.1385  0.2925
 3704TIP3   OH211044   6.497   4.459   1.450 -0.0716  0.6377 -0.3794
 3704TIP3    H111045   6.500   4.465   1.546 -0.7731  2.5893 -0.4540
 3704TIP3    H211046   6.561   4.524   1.420 -0.1523  0.3309 -1.2333
 3705TIP3   OH211047   2.500   4.029   1.937 -0.4192  0.6398  0.3800
 3705TIP3    H111048   2.457   4.112   1.958  0.7618  1.1420  0.8715
 3705TIP3    H211049   2.526   4.038   1.845 -1.0544  0.4539  0.1725
 3706TIP3   OH211050   3.930   4.409   0.401  0.3900 -0.0094  0.0362
 3706TIP3    H111051   3.885   4.445   0.477  0.5373  1.0844 -0.3781
 3706TIP3    H211052   4.016   4.450   0.402  0.6976 -0.6388 -0.2406
 3707TIP3   OH211053   3.027   3.488   3.341 -0.3911 -0.4127 -0.2304
 3707TIP3    H111054   3.081   3.564   3.366 -1.2365  0.4768 -1.0592
 3707TIP3    H211055   3.083   3.437   3.282  0.5245 -0.9414  1.0848
 3708TIP3   OH211056   2.874   4.467   2.051  0.1003 -0.2556 -0.3411
 3708TIP3    H111057   2.921   4.546   2.024  2.4179 -1.2859  0.4614
 3708TIP3    H211058   2.900   4.401   1.987 -2.6899 -0.1278 -1.6517
 3709TIP3   OH211059   5.330   4.778   3.576  0.5598 -0.3586 -0.3995
 3709TIP3    H111060   5.376   4.859   3.557 -0.5291  0.1251 -1.0408
 3709TIP3    H211061   5.251   4.782   3.521 -0.2519 -1.1528  0.6768
 3710TIP3   OH211062   2.808   5.418   2.996 -0.0332 -0.3097 -0.0509
 3710TIP3    H111063   2.899   5.417   3.025 -0.7262  0.0641  2.2363
 3710TIP3    H211064   2.766   5.347   3.044 -1.4380  0.9261  0.5883
 3711TIP3   OH211065   1.890   1.914   3.500 -0.2973 -0.4617  0.7245
 3711TIP3    H111066   1.944   1.985   3.534 -1.7833  0.8918  0.2899
 3711TIP3    H211067   1.837   1.954   3.432 -0.6245 -2.1616 -0.0548
 3712TIP3   OH211068   3.355   2.793   3.078  0.5377 -0.1723  0.1676
 3712TIP3    H111069   3.338   2.877   3.121  0.4355 -0.0742 -0.0610
 3712TIP3    H211070   3.271   2.769   3.038  0.4646 -0.5731  0.5584
 3713TIP3   OH211071   3.511   3.920   3.620  0.0206 -0.8876  0.4435
 3713TIP3    H111072   3.490   3.841   3.669  0.5425  0.2525  2.5941
 3713TIP3    H211073   3.607   3.924   3.621  0.0792 -1.2222 -1.3415
 3714TIP3   OH211074   3.807   1.959   3.161 -0.4764 -0.0789  0.0851
 3714TIP3    H111075   3.888   2.006   3.180 -0.4674 -0.6052  1.3253
 3714TIP3    H211076   3.769   2.008   3.088  0.9591  0.1569 -0.5249
 3715TIP3   OH211077   2.200   5.350   2.351  0.3208 -0.2298 -0.6733
 3715TIP3    H111078   2.292   5.329   2.331  0.0384 -0.4822 -1.7211
 3715TIP3    H211079   2.150   5.282   2.307 -0.2379 -2.2456  2.9643
 3716TIP3   OH211080   3.402   5.754   0.838 -0.3715  0.0211  0.5814
 3716TIP3    H111081   3.309   5.735   0.831 -0.4202  0.7553 -1.1041
 3716TIP3    H211082   3.442   5.706   0.766  0.2419  1.4836 -0.0867
 3717TIP3   OH211083   6.220   0.074   2.463  0.0324 -0.0897 -0.4553
 3717TIP3    H111084   6.156   0.009   2.435 -0.7640  0.6533 -0.3730
 3717TIP3    H211085   6.174   0.127   2.529  0.4052  1.0542 -1.0885
 3718TIP3   OH211086   2.723   4.013   3.412  0.6154  0.2096  0.4642
 3718TIP3    H111087   2.720   4.026   3.317  0.1725  0.1796  0.4723
 3718TIP3    H211088   2.748   3.921   3.423  2.3450  0.6626  0.3932
 3719TIP3   OH211089   1.907   5.487   1.573 -0.4301 -0.6871 -0.2335
 3719TIP3    H111090   1.825   5.489   1.524 -0.3932  1.2444 -0.2436
 3719TIP3    H211091   1.891   5.542   1.649  0.5395 -1.1227  0.2961
 3720TIP3   OH211092   2.320   4.756   3.136 -0.7973 -0.5089  0.2506
 3720TIP3    H111093   2.330   4.667   3.103 -1.2580 -0.8175  0.9269
 3720TIP3    H211094   2.388   4.806   3.092 -1.1224 -1.0023 -0.8373
 3721TIP3   OH211095   3.174   3.734   4.194  0.1633  0.0062  0.0329
 3721TIP3    H111096   3.111   3.680   4.242  0.6959  0.0420  0.7896
 3721TIP3    H211097   3.260   3.706   4.227  0.5447 -0.1021 -1.0463
 3722TIP3   OH211098   3.145   3.829   0.761  0.2958  0.1919 -0.5904
 3722TIP3    H111099   3.158   3.833   0.666 -1.9283 -0.1350 -0.9308
 3722TIP3    H211100   3.227   3.793   0.795  1.3968  1.0012 -2.3027
 3723TIP3   OH211101   4.375   5.549   1.940 -0.4102 -0.2752  0.2354
 3723TIP3    H111102   4.424   5.513   2.014  1.6255  1.4186 -0.2394
 3723TIP3    H211103   4.384   5.483   1.871  2.0907  0.4512 -0.1706
 3724TIP3   OH211104   5.588   3.704   2.632  0.0739  0.0842  0.5038
 3724TIP3    H111105   5.609   3.768   2.564  0.1964 -0.6359 -0.1497
 3724TIP3    H211106   5.499   3.725   2.659 -0.0405  0.2694 -0.0102
 3725TIP3   OH211107   3.565   3.156   3.868 -0.5657  0.3010  0.2347
 3725TIP3    H111108   3.473   3.153   3.840 -0.6207  1.8641  0.1624
 3725TIP3    H211109   3.615   3.136   3.788 -0.8578 -2.1300  0.6326
 3726TIP3   OH211110   3.998   8.003   0.454 -0.3695 -0.4925 -0.3561
 3726TIP3    H111111   3.982   8.064   0.526 -0.1534 -0.8449 -0.0086
 3726TIP3    H211112   4.069   7.947   0.485 -1.4195 -1.7403 -0.1766
 3727TIP3   OH211113   2.587   3.025   3.464  0.0281 -0.7409 -0.1567
 3727TIP3    H111114   2.640   2.971   3.522  1.4681  1.5020  0.6783
 3727TIP3    H211115   2.647   3.054   3.395 -0.7501 -0.3470 -0.6911
 3728TIP3   OH211116   2.868   3.173   3.655 -0.5567 -0.3956 -0.1936
 3728TIP3    H111117   2.852   3.240   3.588 -0.1350  0.3042  0.4039
 3728TIP3    H211118   2.804   3.191   3.723 -0.3366 -0.5007  0.0415
 3729TIP3   OH211119   4.344   4.347   3.806 -0.0800 -0.1151  0.0049
 3729TIP3    H111120   4.387   4.343   3.891 -0.3668 -0.5355  0.1348
 3729TIP3    H211121   4.297   4.263   3.799 -0.5525  0.1700 -0.2961
 3730TIP3   OH211122   1.369   4.066   4.161  0.1239  0.0827 -0.2817
 3730TIP3    H111123   1.424   4.102   4.229  2.0775 -0.2268 -1.6642
 3730TIP3    H211124   1.297   4.128   4.152 -0.0362  0.2222  1.8832
 3731TIP3   OH211125   1.502   3.247   1.987  0.0960 -0.0670 -0.2210
 3731TIP3    H111126   1.597   3.254   2.001  0.1930 -0.7642 -0.5099
 3731TIP3    H211127   1.489   3.157   1.955 -0.3635  0.8089 -2.6071
 3732TIP3   OH211128   2.323   4.589   2.468 -0.0878 -0.2511  0.5694
 3732TIP3    H111129   2.303   4.589   2.374  0.3133 -2.2281  0.4521
 3732TIP3    H211130   2.276   4.665   2.502  0.5790  1.0957 -1.3895
 3733TIP3   OH211131   3.665   4.411   1.896  0.1932 -0.2065  0.5281
 3733TIP3    H111132   3.668   4.499   1.932  1.4719  0.2379 -0.6314
 3733TIP3    H211133   3.742   4.405   1.841 -0.2972 -1.7947 -0.0105
 3734TIP3   OH211134   5.506   3.758   1.911  0.5606 -0.5020 -0.6287
 3734TIP3    H111135   5.509   3.750   2.006  0.4273  0.6246 -0.5216
 3734TIP3    H211136   5.570   3.827   1.891  0.0686 -0.2327 -1.2871
 3735TIP3   OH211137   4.641   4.384   0.628  0.0483 -0.0904 -0.4447
 3735TIP3    H111138   4.566   4.431   0.665 -0.1845 -0.3920 -0.5242
 3735TIP3    H211139   4.679   4.445   0.565 -0.1332  0.0650 -0.4054
 3736TIP3   OH211140   4.677   4.721   2.246  0.0919  0.4599 -0.2029
 3736TIP3    H111141   4.670   4.805   2.292 -0.2779  0.5083 -0.3468
 3736TIP3    H211142   4.727   4.741   2.167  1.4811  0.2016  0.6046
 3737TIP3   OH211143   4.057   1.592   4.081 -0.3659  0.0983 -0.7049
 3737TIP3    H111144   3.999   1.641   4.139  0.8571  0.9337 -0.1521
 3737TIP3    H211145   4.134   1.572   4.135  1.2021  1.6935 -2.2899
 3738TIP3   OH211146   5.306   3.143   4.313  0.4795  0.6009  0.3535
 3738TIP3    H111147   5.301   3.224   4.364  2.4569  1.0013 -0.0316
 3738TIP3    H211148   5.256   3.079   4.364 -0.2796  1.8164  1.1505
 3739TIP3   OH211149   4.931   3.517   2.026 -0.4287  0.2742  0.0780
 3739TIP3    H111150   5.018   3.490   2.055 -0.7613 -1.4496 -0.4768
 3739TIP3    H211151   4.947   3.596   1.974  0.5066  1.5073  2.1504
 3740TIP3   OH211152   3.772   3.163   4.071 -0.0067  0.1988  0.0264
 3740TIP3    H111153   3.708   3.208   4.016  0.4106  0.2063 -0.4661
 3740TIP3    H211154   3.724   3.091   4.110 -0.6639  1.0211  0.7589
 3741TIP3   OH211155   5.042   4.879   2.415  0.1546 -0.1922  0.0911
 3741TIP3    H111156   4.977   4.817   2.447  1.3652 -0.9470  1.1402
 3741TIP3    H211157   4.992   4.944   2.366 -1.2091 -1.5920 -0.3951
 3742TIP3   OH211158   4.721   2.648   6.288 -0.5374  0.4583 -0.1275
 3742TIP3    H111159   4.709   2.710   6.216  0.1883  0.7948  0.0302
 3742TIP3    H211160   4.712   2.701   6.367 -1.1387  0.1291  0.0227
 3743TIP3   OH211161   4.819   2.373   2.474  0.7438 -0.0120  0.2512
 3743TIP3    H111162   4.783   2.285   2.477  1.3218 -0.3033 -1.1372
 3743TIP3    H211163   4.899   2.365   2.423  0.3597  1.4645 -0.6247
 3744TIP3   OH211164   4.668   4.704   0.696  0.3042 -0.5001  0.2836
 3744TIP3    H111165   4.720   4.690   0.775  1.0774  1.6077  0.1918
 3744TIP3    H211166   4.604   4.771   0.721  0.5373  0.1602 -0.8598
 3745TIP3   OH211167   5.331   2.481   3.517  0.2976 -0.4436  0.5173
 3745TIP3    H111168   5.345   2.458   3.425 -0.1556  2.2080 -0.2332
 3745TIP3    H211169   5.419   2.488   3.554  0.5562  0.7991 -0.3068
 3746TIP3   OH211170   3.420   3.629   2.312 -0.4374 -0.4838 -0.2583
 3746TIP3    H111171   3.335   3.669   2.332 -0.2047 -0.3960  0.5539
 3746TIP3    H211172   3.406   3.587   2.227 -1.4196 -0.8193  0.0534
 3747TIP3   OH211173   3.389   2.729   3.850  0.1110  1.0071  0.4111
 3747TIP3    H111174   3.392   2.651   3.794 -0.6722 -1.0870  3.1676
 3747TIP3    H211175   3.478   2.764   3.848  0.6866 -0.4483 -0.2118
 3748TIP3   OH211176   2.358   3.002   4.224  0.4095 -0.7587 -0.3304
 3748TIP3    H111177   2.378   3.049   4.305  1.4932 -0.5468 -0.7066
 3748TIP3    H211178   2.354   3.071   4.157  4.4823 -1.3740 -1.3451
 3749TIP3   OH211179   3.733   3.886   3.021 -0.0869 -0.0230 -0.8214
 3749TIP3    H111180   3.759   3.887   3.114  0.7424 -1.6151 -1.0103
 3749TIP3    H211181   3.816   3.886   2.973 -0.4981 -0.1548 -1.5342
 3750TIP3   OH211182   1.938   4.659   2.900  0.0106  0.1735  0.4699
 3750TIP3    H111183   1.871   4.602   2.864  0.3858 -0.5990  0.9663
 3750TIP3    H211184   1.894   4.743   2.913 -0.7714 -0.2317  0.4877
 3751TIP3   OH211185   1.052   5.855   2.062 -0.4108  0.0298 -0.2881
 3751TIP3    H111186   1.009   5.941   2.064  1.1358  0.8371 -1.2019
 3751TIP3    H211187   1.121   5.864   1.996  1.1377 -1.2678  1.1165
 3752TIP3   OH211188   2.778   5.287   1.831 -0.2882  0.9546  0.1935
 3752TIP3    H111189   2.829   5.368   1.830  1.7251 -0.2857  0.2921
 3752TIP3    H211190   2.748   5.278   1.740  0.1856  1.3810 -0.0121
 3753TIP3   OH211191   2.890   5.785   1.435 -0.7760 -0.4632  0.1141
 3753TIP3    H111192   2.834   5.715   1.399  0.5529 -0.9171 -1.1262
 3753TIP3    H211193   2.922   5.831   1.357  1.1160 -0.6339  0.7769
 3754TIP3   OH211194   4.419   6.863   2.306  0.1214 -0.1678 -0.3159
 3754TIP3    H111195   4.367   6.940   2.285 -0.0981 -0.1657  0.2045
 3754TIP3    H211196   4.417   6.810   2.227  0.7340  0.6135 -0.8542
 3755TIP3   OH211197   5.398   4.022   4.041  0.3465 -0.2443 -0.2855
 3755TIP3    H111198   5.307   4.049   4.048  0.8213  1.3006  0.1981
 3755TIP3    H211199   5.396   3.926   4.047 -1.2367 -0.2249 -0.3735
 3756TIP3   OH211200   4.508   3.839   2.086 -0.4276 -0.0169  0.4075
 3756TIP3    H111201   4.419   3.863   2.111 -1.0803 -2.2130  0.2953
 3756TIP3    H211202   4.517   3.748   2.112  0.6882 -0.7979 -2.4614
 3757TIP3   OH211203   6.844   1.751   1.406  0.1396 -0.0906  0.3980
 3757TIP3    H111204   6.867   1.709   1.489 -0.5491 -0.4271  0.4225
 3757TIP3    H211205   6.754   1.723   1.389  1.1026 -2.0266 -1.7005
 3758TIP3   OH211206   3.265   5.115   2.974  0.1962 -0.0704  0.4268
 3758TIP3    H111207   3.228   5.053   3.036  0.2408 -0.5226 -0.0006
 3758TIP3    H211208   3.342   5.071   2.938 -0.8003 -0.4967 -1.2241
 3759TIP3   OH211209   5.041   3.884   3.420 -0.3718  0.0780 -0.0323
 3759TIP3    H111210   4.955   3.843   3.432  0.3465 -1.2918  0.6540
 3759TIP3    H211211   5.101   3.810   3.411  0.7343  1.0215 -0.5173
 3760TIP3   OH211212   3.137   2.940   3.166 -0.0978 -0.3170  0.0703
 3760TIP3    H111213   3.070   2.938   3.097 -1.2390  0.1642  1.1577
 3760TIP3    H211214   3.108   2.876   3.231  0.7536 -0.4553  0.3223
 3761TIP3   OH211215   5.584   0.519   1.771 -0.1261 -0.1714 -0.2077
 3761TIP3    H111216   5.522   0.539   1.840  0.7672  2.1406 -0.0478
 3761TIP3    H211217   5.670   0.541   1.807  0.4210  0.3620 -1.7697
 3762TIP3   OH211218   5.823   5.928   1.771 -0.5504 -0.0999 -0.7491
 3762TIP3    H111219   5.831   6.019   1.799 -2.5754 -0.3138  0.6402
 3762TIP3    H211220   5.784   5.933   1.684 -2.1037  0.3315 -0.0392
 3763TIP3   OH211221   4.425   4.990   2.376 -0.3209 -0.8312 -0.1051
 3763TIP3    H111222   4.337   4.994   2.338  0.2381  0.0360 -1.3153
 3763TIP3    H211223   4.415   4.931   2.452 -2.0990 -0.1784  0.2035
 3764TIP3   OH211224   4.684   3.591   5.304 -0.0598 -0.4151 -0.2417
 3764TIP3    H111225   4.612   3.604   5.365  0.0139 -1.3034  0.0345
 3764TIP3    H211226   4.761   3.579   5.360  0.3266  0.6297 -0.5331
 3765TIP3   OH211227   3.605   4.462   0.828  0.0973 -0.0530  0.1790
 3765TIP3    H111228   3.645   4.403   0.892 -0.9692 -0.4955  0.4566
 3765TIP3    H211229   3.514   4.433   0.823 -0.0237  0.5074 -0.9361
 3766TIP3   OH211230   6.069   3.801   1.338 -0.1376 -0.4242  0.1190
 3766TIP3    H111231   6.067   3.887   1.379  0.4507 -0.5289  0.3706
 3766TIP3    H211232   6.096   3.741   1.408 -1.5055 -0.9699  0.2091
 3767TIP3   OH211233   5.357   4.235   3.793 -0.5920 -0.2439  0.3155
 3767TIP3    H111234   5.357   4.292   3.870 -1.0528  1.1706 -0.6964
 3767TIP3    H211235   5.449   4.216   3.777 -0.3063  1.5325 -0.2548
 3768TIP3   OH211236   5.151   4.680   1.849 -0.0017 -0.4091  0.0974
 3768TIP3    H111237   5.134   4.711   1.938 -1.1675  0.1928 -0.3201
 3768TIP3    H211238   5.155   4.759   1.796 -0.0857 -0.8081 -0.5095
 3769TIP3   OH211239   6.659   4.504   3.403  0.9173 -0.5155  0.3342
 3769TIP3    H111240   6.690   4.539   3.320 -2.5151  2.3559  0.1278
 3769TIP3    H211241   6.676   4.574   3.466 -0.5996 -0.8488  1.1379
 3770TIP3   OH211242   2.909   2.752   2.175  0.3669  0.2892  0.5294
 3770TIP3    H111243   2.873   2.839   2.190  1.4922  0.4641  2.4558
 3770TIP3    H211244   2.971   2.763   2.102 -1.3429  0.5492 -0.9077
 3771TIP3   OH211245   6.178   3.122   4.213  0.1716 -0.0323 -0.8207
 3771TIP3    H111246   6.102   3.181   4.214  0.0183 -0.1936 -1.7600
 3771TIP3    H211247   6.184   3.089   4.302 -1.2574 -0.4882 -0.8750
 3772TIP3   OH211248   2.678   2.814   2.661 -0.1859 -0.2771  0.2607
 3772TIP3    H111249   2.733   2.785   2.589 -1.2835 -2.0085  0.0935
 3772TIP3    H211250   2.689   2.910   2.662  2.4335 -0.5365 -0.0273
 3773TIP3   OH211251   4.358   4.732   1.787 -0.0674 -0.3199  0.5621
 3773TIP3    H111252   4.410   4.773   1.719  0.8557 -1.0963  0.7926
 3773TIP3    H211253   4.415   4.664   1.823 -0.5756  0.0338  2.0515
 3774TIP3   OH211254   1.453   5.512   3.810 -0.8588 -0.5467  0.1365
 3774TIP3    H111255   1.446   5.517   3.715  0.6499 -0.1600  0.0307
 3774TIP3    H211256   1.376   5.559   3.842 -0.1604  1.3502 -0.8919
 3775TIP3   OH211257   7.894   1.499   0.377 -0.1368 -0.4152  0.1151
 3775TIP3    H111258   7.956   1.426   0.378 -0.1534 -0.4144  0.9824
 3775TIP3    H211259   7.841   1.484   0.299  0.6324 -0.6842 -0.3583
 3776TIP3   OH211260   3.068   3.689   1.312 -0.4685  0.4592  0.6596
 3776TIP3    H111261   3.032   3.759   1.366 -1.5978 -0.8573  1.6285
 3776TIP3    H211262   3.047   3.716   1.222 -2.2219  0.6436  1.1022
 3777TIP3   OH211263   4.485   3.702   0.816 -0.0728  0.0606  0.4798
 3777TIP3    H111264   4.431   3.653   0.753 -0.9051  2.2461 -0.5648
 3777TIP3    H211265   4.570   3.710   0.773 -0.6016  1.4405 -0.3553
 3778TIP3   OH211266   5.648   5.415   0.988 -0.2863 -0.4089 -0.2375
 3778TIP3    H111267   5.677   5.324   0.990 -0.1239 -0.3180  2.6972
 3778TIP3    H211268   5.567   5.416   1.039 -0.6175  0.9926 -0.7639
 3779TIP3   OH211269   3.991   1.597   3.672  0.1044  0.3945 -0.3739
 3779TIP3    H111270   3.976   1.631   3.584  1.4583  1.4195 -0.2309
 3779TIP3    H211271   3.915   1.627   3.722 -0.0857  0.8378 -0.9188
 3780TIP3   OH211272   1.415   3.852   3.386 -0.7575  0.1996  0.4563
 3780TIP3    H111273   1.504   3.841   3.354 -1.0134  0.6655 -0.4565
 3780TIP3    H211274   1.362   3.795   3.329 -0.9196 -0.9009  1.6728
 3781TIP3   OH211275   8.095   6.568   0.824  0.4764 -0.1015  0.3526
 3781TIP3    H111276   8.116   6.583   0.732  0.0156  0.0254  0.2630
 3781TIP3    H211277   8.093   6.473   0.833  0.6414 -0.1134  0.2587
 3782TIP3   OH211278   3.256   4.398   3.938 -0.1489 -0.3794  0.1124
 3782TIP3    H111279   3.324   4.343   3.899 -0.1780 -2.2506  2.5786
 3782TIP3    H211280   3.179   4.341   3.942 -0.8197  0.5654  0.6433
 3783TIP3   OH211281   4.330   6.384   0.772 -0.3066 -0.1664 -0.6438
 3783TIP3    H111282   4.248   6.348   0.806 -0.2736 -0.0807 -0.4707
 3783TIP3    H211283   4.306   6.470   0.738 -0.4242 -0.4318 -1.2358
 3784TIP3   OH211284   2.639   4.836   4.013 -0.7126  0.1917 -0.3781
 3784TIP3    H111285   2.647   4.895   4.088 -1.2487  0.4166 -0.4914
 3784TIP3    H211286   2.565   4.872   3.963  0.4215  0.7719 -1.6714
 3785TIP3   OH211287   2.671   3.200   4.219 -0.3065  0.1408 -0.2611
 3785TIP3    H111288   2.691   3.119   4.172 -1.9513  1.4013 -3.3092
 3785TIP3    H211289   2.600   3.240   4.168 -1.3201  2.2257  2.6580
 3786TIP3   OH211290   5.287   5.342   1.266 -0.7308  0.2170  0.5246
 3786TIP3    H111291   5.359   5.323   1.326 -0.5249 -0.6376  0.0215
 3786TIP3    H211292   5.306   5.290   1.188 -1.2753  0.9031 -0.0775
 3787TIP3   OH211293   5.018   5.547   3.768  0.2039 -0.2851 -0.0554
 3787TIP3    H111294   4.995   5.631   3.727  0.4066 -0.0952  0.2109
 3787TIP3    H211295   5.042   5.490   3.695 -0.9127 -0.4251 -0.3155
 3788TIP3   OH211296   3.387   4.447   2.868  0.3090  0.4429 -0.1277
 3788TIP3    H111297   3.397   4.367   2.816  0.3235  1.5403 -1.8501
 3788TIP3    H211298   3.301   4.438   2.910  0.0586 -0.2256 -0.7704
 3789TIP3   OH211299   4.033   4.556   2.644  0.0735 -0.0222  0.1398
 3789TIP3    H111300   4.037   4.647   2.671  1.0983  0.0879 -0.3792
 3789TIP3    H211301   4.007   4.508   2.724 -2.0219  0.8773  0.0357
 3790TIP3   OH211302   3.743   6.020   1.834  0.7311 -0.0993 -0.9260
 3790TIP3    H111303   3.783   6.106   1.844 -0.2545  0.3075 -0.4863
 3790TIP3    H211304   3.678   6.015   1.903  0.4475 -1.0066 -1.2518
 3791TIP3   OH211305   4.039   5.903   3.228 -0.6885  0.3042 -0.6788
 3791TIP3    H111306   4.001   5.818   3.247 -1.3278  0.7453  0.0102
 3791TIP3    H211307   4.084   5.928   3.308  1.1115 -0.2295 -1.4904
 3792TIP3   OH211308   4.019   4.586   3.142  0.0762  0.4023 -0.0488
 3792TIP3    H111309   4.102   4.549   3.113 -0.9530 -0.8407 -1.4926
 3792TIP3    H211310   3.982   4.519   3.200 -1.5536 -0.6436 -2.2551
 3793TIP3   OH211311   6.634   5.400   6.588  0.3780  0.1925  0.1522
 3793TIP3    H111312   6.630   5.496   6.582  0.5068  0.3861  2.5945
 3793TIP3    H211313   6.725   5.382   6.612  0.4468 -0.5807 -0.6853
 3794TIP3   OH211314   6.529   2.387   0.187  0.3206  0.1214  0.4084
 3794TIP3    H111315   6.569   2.313   0.139 -0.5702 -1.0083  1.3951
 3794TIP3    H211316   6.604   2.438   0.217  1.0081 -1.1924  0.9876
 3795TIP3   OH211317   3.956   4.161   1.874 -0.2918  0.0414  0.0067
 3795TIP3    H111318   3.925   4.251   1.864 -1.4761 -0.4985 -1.2425
 3795TIP3    H211319   3.967   4.128   1.785  1.5828 -0.5836  0.4331
 3796TIP3   OH211320   3.969   2.646   2.759  0.3630  0.3439  0.0405
 3796TIP3    H111321   4.029   2.668   2.830 -0.4610 -1.9143  1.4874
 3796TIP3    H211322   3.979   2.551   2.747 -4.3863 -0.5256  1.7982
 3797TIP3   OH211323   2.653   3.290   3.780  0.1544  0.1778 -0.1242
 3797TIP3    H111324   2.624   3.338   3.703 -1.0405 -0.0454  0.1643
 3797TIP3    H211325   2.573   3.277   3.831  0.7948 -0.3864  0.7542
 3798TIP3   OH211326   4.348   1.476   1.818 -0.2394 -0.1377 -0.3693
 3798TIP3    H111327   4.377   1.565   1.797 -0.7492  0.0707 -0.2079
 3798TIP3    H211328   4.427   1.422   1.811 -0.1270  0.1574 -1.4508
 3799TIP3   OH211329   2.531   2.630   1.562  0.2062  0.2413 -0.8134
 3799TIP3    H111330   2.496   2.717   1.547 -0.6539 -0.0737 -0.6834
 3799TIP3    H211331   2.622   2.635   1.534 -0.2201  0.8018 -2.1392
 3800TIP3   OH211332   0.623   4.332   0.184  0.3053  0.0526 -0.3767
 3800TIP3    H111333   0.537   4.366   0.210  1.4715  2.7479  0.2223
 3800TIP3    H211334   0.612   4.303   0.094 -0.8891  1.7198 -0.7880
 3801TIP3   OH211335   1.736   2.406   3.232 -0.1470 -0.1128 -0.3422
 3801TIP3    H111336   1.690   2.471   3.179  0.8407 -0.6836 -1.9538
 3801TIP3    H211337   1.702   2.322   3.202 -1.1291 -0.3800  1.4577
 3802TIP3   OH211338   2.298   4.203   2.009 -0.5266  0.6433  0.0687
 3802TIP3    H111339   2.292   4.284   2.060 -2.0153  1.7112 -1.7433
 3802TIP3    H211340   2.220   4.153   2.034  0.1089 -0.0170  0.7744
 3803TIP3   OH211341   1.316   1.626   6.312  0.1239 -0.4359 -0.3127
 3803TIP3    H111342   1.271   1.572   6.246  0.6191 -2.3153  0.8464
 3803TIP3    H211343   1.253   1.633   6.384 -0.1435  1.0208 -0.6761
 3804TIP3   OH211344   3.352   5.076   3.395 -0.6547 -0.6772 -0.3417
 3804TIP3    H111345   3.332   5.036   3.480  0.1071 -0.3691 -0.0142
 3804TIP3    H211346   3.445   5.060   3.383 -0.6821 -0.3800 -0.9446
 3805TIP3   OH211347   3.633   4.181   3.148  0.3962 -0.2496 -0.6280
 3805TIP3    H111348   3.589   4.129   3.215 -0.5697  0.5855 -0.6025
 3805TIP3    H211349   3.588   4.266   3.150  1.5175  0.3654 -1.1193
 3806TIP3   OH211350   4.339   2.816   5.145  0.5363 -0.3314 -0.2875
 3806TIP3    H111351   4.415   2.758   5.137  0.3525 -0.6622  0.3852
 3806TIP3    H211352   4.375   2.899   5.176  0.6207 -0.4937  0.0482
 3807TIP3   OH211353   3.359   4.818   2.537 -0.6954 -0.2054 -0.6722
 3807TIP3    H111354   3.352   4.724   2.523 -0.7385 -0.6259  1.9861
 3807TIP3    H211355   3.422   4.827   2.608 -0.1211  1.8269 -1.3946
 3808TIP3   OH211356   3.794   3.578   3.577 -0.1730  0.0600  0.1775
 3808TIP3    H111357   3.772   3.532   3.659 -0.9908  1.3350  0.6852
 3808TIP3    H211358   3.867   3.635   3.601 -0.9968  1.1026  0.2611
 3809TIP3   OH211359   2.458   3.946   2.201 -0.0873 -0.3207 -0.0501
 3809TIP3    H111360   2.457   3.954   2.106 -1.3196  0.7873  0.0451
 3809TIP3    H211361   2.495   4.028   2.233  2.2794 -1.5171  0.3688
 3810TIP3   OH211362   6.059   5.112   2.889  0.1175  0.8001 -0.1258
 3810TIP3    H111363   6.142   5.157   2.875  0.1555  0.9579  0.5990
 3810TIP3    H211364   6.030   5.139   2.976  0.8100 -1.5788  0.9029
 3811TIP3   OH211365   6.317   3.722   1.803  0.3258 -0.0733  0.1560
 3811TIP3    H111366   6.393   3.735   1.747 -1.4252  1.3131 -2.0081
 3811TIP3    H211367   6.323   3.791   1.868  0.5523  0.4843 -0.4494
 3812TIP3   OH211368   5.737   3.789   0.740 -0.1588  0.2349  0.1284
 3812TIP3    H111369   5.701   3.708   0.706  1.8058 -1.2960  1.5954
 3812TIP3    H211370   5.710   3.856   0.677  0.3002 -1.9500 -2.4710
 3813TIP3   OH211371   2.479   2.127   6.632  0.2887  0.3656  0.3232
 3813TIP3    H111372   2.562   2.086   6.608  1.4292  0.5739  3.6011
 3813TIP3    H211373   2.447   2.074   6.705 -1.6345  1.2711  0.1565
 3814TIP3   OH211374   3.083   3.785   3.753  0.2553 -0.4507  0.1349
 3814TIP3    H111375   3.133   3.840   3.693  0.7819 -1.0778 -0.0146
 3814TIP3    H211376   3.021   3.844   3.794  0.9557  0.2903  0.1402
 3815TIP3   OH211377   3.939   4.735   1.914 -0.2007 -0.1848  0.3560
 3815TIP3    H111378   4.015   4.684   1.885  0.1092  0.0556  0.7419
 3815TIP3    H211379   3.969   4.826   1.911 -0.5381 -0.0748  0.3154
 3816TIP3   OH211380   6.530   4.554   1.707 -0.1814 -0.1012 -0.2397
 3816TIP3    H111381   6.537   4.516   1.795 -1.3612  0.3159  0.0617
 3816TIP3    H211382   6.619   4.581   1.685 -0.0599  0.9173  1.3694
 3817TIP3   OH211383   5.213   5.056   1.217  0.0727 -0.2347  0.5609
 3817TIP3    H111384   5.179   5.028   1.302  1.2212  2.4287  1.9630
 3817TIP3    H211385   5.134   5.072   1.164 -0.7587  1.0511  2.1357
 3818TIP3   OH211386   6.142   3.084   0.281 -0.0685 -0.0101  0.3235
 3818TIP3    H111387   6.167   2.993   0.290 -1.2611 -0.2955  0.9451
 3818TIP3    H211388   6.052   3.087   0.313 -0.7358  1.0081 -1.5300
 3819TIP3   OH211389   6.758   2.955   1.589  0.3961 -0.2171 -0.1431
 3819TIP3    H111390   6.846   2.920   1.574 -0.3719 -1.6871 -1.3815
 3819TIP3    H211391   6.708   2.880   1.620 -0.4423  0.6035  0.4906
 3820TIP3   OH211392   4.681   3.142   1.843  0.2161  0.0902  0.2758
 3820TIP3    H111393   4.768   3.131   1.806  0.2993 -4.5889  1.5290
 3820TIP3    H211394   4.688   3.219   1.900  2.8917  1.0528 -1.2729
 3821TIP3   OH211395   7.609   2.543   1.499 -0.7979 -0.5798  0.2956
 3821TIP3    H111396   7.689   2.542   1.551  0.1687  0.4745 -1.1346
 3821TIP3    H211397   7.618   2.469   1.439  0.2807  1.0143 -1.5574
 3822TIP3   OH211398   7.197   2.917   2.368 -1.0196  0.2516 -0.6633
 3822TIP3    H111399   7.278   2.868   2.384 -0.9482  1.1133  1.7800
 3822TIP3    H211400   7.138   2.888   2.437 -2.1514  1.0850 -1.2678
 3823TIP3   OH211401   5.129   5.356   1.939  0.4828  0.0759 -0.0719
 3823TIP3    H111402   5.058   5.329   1.881  0.2517  0.1124  0.1915
 3823TIP3    H211403   5.183   5.278   1.949  1.1847  0.3949 -1.2832
 3824TIP3   OH211404   4.817   6.340   0.934  0.2319 -0.4695 -0.2376
 3824TIP3    H111405   4.836   6.296   1.016 -2.5859 -1.9357 -0.3127
 3824TIP3    H211406   4.728   6.313   0.912  0.6913  0.4045 -3.4453
 3825TIP3   OH211407   4.646   1.906   4.180 -0.4195 -0.2346 -0.1831
 3825TIP3    H111408   4.711   1.904   4.250 -0.3697  1.3655 -0.1491
 3825TIP3    H211409   4.696   1.886   4.101  0.0088  0.3407 -0.0675
 3826TIP3   OH211410   5.821   5.055   1.201  0.1985  0.2852 -0.1382
 3826TIP3    H111411   5.859   4.972   1.171 -1.7873 -1.0121  0.8357
 3826TIP3    H211412   5.895   5.115   1.205  2.0364 -1.9821  1.0743
 3827TIP3   OH211413   5.179   4.747   2.800 -0.0480 -0.1665 -0.6016
 3827TIP3    H111414   5.242   4.685   2.764  2.1093  2.0552 -0.8134
 3827TIP3    H211415   5.232   4.803   2.857 -2.0462  1.0888  0.0516
 3828TIP3   OH211416   4.527   5.298   3.147 -0.2827  0.1747 -0.1334
 3828TIP3    H111417   4.493   5.209   3.136  1.8738 -0.6018 -0.8242
 3828TIP3    H211418   4.496   5.345   3.070 -0.1410 -0.4033 -0.5517
 3829TIP3   OH211419   5.284   4.157   2.523  0.3473  0.3343 -0.3566
 3829TIP3    H111420   5.197   4.120   2.541  0.0072  0.7500 -1.1494
 3829TIP3    H211421   5.318   4.180   2.609  0.0149 -0.6052  0.0323
 3830TIP3   OH211422   2.344   2.865   3.395 -0.0103  0.1334  0.3000
 3830TIP3    H111423   2.349   2.830   3.484 -1.7487  1.4071  0.9301
 3830TIP3    H211424   2.421   2.921   3.387  1.0405 -1.2692  0.4150
 3831TIP3   OH211425   5.273   5.651   0.902 -0.3314  0.3148 -0.2557
 3831TIP3    H111426   5.178   5.664   0.894 -0.5825 -2.1757 -1.8241
 3831TIP3    H211427   5.293   5.581   0.839  2.3256 -0.1748  1.0730
 3832TIP3   OH211428   7.475   4.512   1.183  0.4464 -0.1139  0.1701
 3832TIP3    H111429   7.459   4.590   1.130 -1.2191 -0.2020  0.5302
 3832TIP3    H211430   7.393   4.463   1.180  1.5104 -1.9002 -0.1164
 3833TIP3   OH211431   4.773   3.335   2.523 -0.1866 -0.1373  0.2101
 3833TIP3    H111432   4.750   3.427   2.512  0.5043 -0.0564 -0.6066
 3833TIP3    H211433   4.816   3.332   2.609 -0.6346  0.2134  0.4517
 3834TIP3   OH211434   5.594   4.301   0.821  0.4028 -0.0214 -0.2824
 3834TIP3    H111435   5.605   4.392   0.850 -2.5753  0.4849 -0.5134
 3834TIP3    H211436   5.637   4.298   0.736 -0.4213  1.5074 -0.7813
 3835TIP3   OH211437   6.425   4.714   3.214  0.3193  0.1796 -0.2066
 3835TIP3    H111438   6.411   4.785   3.152  1.4662 -0.9885 -1.8459
 3835TIP3    H211439   6.513   4.683   3.195  0.7280 -0.1535  2.0847
 3836TIP3   OH211440   4.114   4.467   1.091  0.6401 -0.3601 -0.4203
 3836TIP3    H111441   4.166   4.548   1.089  0.3984 -0.1951 -0.0611
 3836TIP3    H211442   4.176   4.400   1.121  0.8818 -0.3376 -0.8695
 3837TIP3   OH211443   7.112   5.832   2.266 -0.1886 -0.0518  0.0250
 3837TIP3    H111444   7.027   5.845   2.224 -0.6479 -1.9164  0.3145
 3837TIP3    H211445   7.119   5.737   2.276  2.6780 -0.0852 -1.5665
 3838TIP3   OH211446   6.506   4.756   1.255 -0.1176 -0.0696 -0.2074
 3838TIP3    H111447   6.527   4.845   1.283  1.1324 -0.7839  1.2418
 3838TIP3    H211448   6.582   4.704   1.282  0.0200 -1.2604 -2.7483
 3839TIP3   OH211449   5.889   5.533   0.377  0.2091  0.1367 -0.4933
 3839TIP3    H111450   5.961   5.471   0.365 -0.6052 -0.9005 -0.0732
 3839TIP3    H211451   5.869   5.564   0.289 -0.6439 -1.6588 -0.9568
 3840TIP3   OH211452   6.390   2.687   1.898 -0.3361 -0.0308  0.0355
 3840TIP3    H111453   6.406   2.595   1.875 -0.0470  0.0910 -0.2542
 3840TIP3    H211454   6.339   2.683   1.979  0.7856 -0.4243  0.7285
 3841TIP3   OH211455   7.402   5.507   1.358  0.0384  0.3425 -0.2368
 3841TIP3    H111456   7.413   5.517   1.264 -0.0137 -0.1443 -0.2957
 3841TIP3    H211457   7.367   5.592   1.387  0.9576  0.8145 -0.5052
 3842TIP3   OH211458   6.786   2.942   3.515  0.0802  0.3555  0.4744
 3842TIP3    H111459   6.724   3.014   3.506  0.4828  0.5652 -0.7458
 3842TIP3    H211460   6.865   2.982   3.550 -0.1428  0.2630  1.0880
 3843TIP3   OH211461   5.798   3.265   1.998  0.0796  0.7028  0.2307
 3843TIP3    H111462   5.813   3.347   1.952  0.8138 -0.4867 -1.7311
 3843TIP3    H211463   5.704   3.262   2.012 -0.3384  0.5640 -2.3135
 3844TIP3   OH211464   5.581   4.153   4.409 -0.1929 -0.2610 -0.3781
 3844TIP3    H111465   5.498   4.201   4.406 -0.6253 -0.9825 -0.1422
 3844TIP3    H211466   5.602   4.135   4.318 -0.9689 -1.2033 -0.3842
 3845TIP3   OH211467   2.334   2.360   6.627 -0.4512  0.2471 -0.1616
 3845TIP3    H111468   2.382   2.281   6.652  1.1638  1.3112  0.2223
 3845TIP3    H211469   2.243   2.341   6.646  0.1951 -0.6576  2.1728
 3846TIP3   OH211470   0.053   5.017   2.042  0.6983  0.0634  0.3317
 3846TIP3    H111471  -0.010   4.970   1.987  0.2947  1.1113 -0.1016
 3846TIP3    H211472   0.129   4.959   2.046  0.6046 -0.1666 -1.0680
 3847TIP3   OH211473   6.757   5.562   3.058  0.2523  0.0066  0.1307
 3847TIP3    H111474   6.731   5.500   2.989  2.0157 -1.0578  0.3901
 3847TIP3    H211475   6.801   5.633   3.011 -0.2142  0.2024 -0.0107
 3848TIP3   OH211476   5.132   1.894   1.086 -0.8280 -0.3974  0.4712
 3848TIP3    H111477   5.192   1.849   1.027 -1.8598 -0.5489 -0.4772
 3848TIP3    H211478   5.167   1.877   1.174  0.3282 -0.7412 -0.0511
 3849TIP3   OH211479   5.497   4.701   2.247  0.0574 -0.0325 -0.4349
 3849TIP3    H111480   5.413   4.660   2.227  0.2427  0.1147 -1.5422
 3849TIP3    H211481   5.546   4.695   2.166  1.3825 -0.7416  0.4109
 3850TIP3   OH211482   5.958   4.795   0.519 -0.3424 -0.5672 -0.0240
 3850TIP3    H111483   5.974   4.850   0.443 -0.7440  1.3049  1.2192
 3850TIP3    H211484   5.875   4.826   0.555  0.3990 -0.6420  1.8407
 3851TIP3   OH211485   4.787   4.807   3.343  0.1541 -0.2020 -0.0584
 3851TIP3    H111486   4.767   4.716   3.321  0.8174  0.0721 -1.9577
 3851TIP3    H211487   4.731   4.827   3.418 -1.4915 -1.5640 -0.8820
 3852TIP3   OH211488   5.937   4.329   1.092  0.1632 -0.2450 -0.1602
 3852TIP3    H111489   5.925   4.319   1.187  0.6969 -1.1634 -0.1797
 3852TIP3    H211490   5.862   4.380   1.063  0.3691  0.6721  0.8733
 3853TIP3   OH211491   4.472   1.452   5.983  0.6019  0.0410  0.3528
 3853TIP3    H111492   4.552   1.469   5.932  0.8875  1.6069  1.2798
 3853TIP3    H211493   4.401   1.477   5.925  0.9366  2.1464  0.7855
 3854TIP3   OH211494   4.507   5.487   2.184 -0.1868 -0.3485  0.0158
 3854TIP3    H111495   4.594   5.449   2.196 -0.2873 -0.8136 -0.7605
 3854TIP3    H211496   4.447   5.412   2.187 -0.6676  0.0783  1.6487
 3855TIP3   OH211497   5.128   6.375   3.640 -0.5325 -0.0799  0.2589
 3855TIP3    H111498   5.191   6.366   3.711  0.8928 -0.9412 -1.0689
 3855TIP3    H211499   5.088   6.461   3.653  1.6308  0.8914  0.5544
 3856TIP3   OH211500   6.171   6.564   3.124  0.4944  0.6414 -0.4834
 3856TIP3    H111501   6.112   6.498   3.086  2.1127 -0.2720 -1.4865
 3856TIP3    H211502   6.143   6.646   3.083 -0.2030  0.2595 -0.8006
 3857TIP3   OH211503   5.106   5.464   3.493 -0.2902 -0.6225 -0.1980
 3857TIP3    H111504   5.116   5.556   3.470 -0.7505  0.0548  2.2039
 3857TIP3    H211505   5.196   5.430   3.498 -0.1556 -0.6313 -2.2171
 3858TIP3   OH211506   0.541   1.935   6.799  0.1894  0.5661  0.1727
 3858TIP3    H111507   0.527   1.840   6.790  0.5149  0.1339  3.6357
 3858TIP3    H211508   0.459   1.974   6.769 -0.5827 -0.8752  0.3373
 3859TIP3   OH211509   4.794   5.423   1.892 -0.5542  0.0021  0.4568
 3859TIP3    H111510   4.839   5.446   1.811  0.4716  0.0249  1.0291
 3859TIP3    H211511   4.763   5.334   1.878 -1.3842  0.4152 -0.3921
 3860TIP3   OH211512   5.820   4.717   1.598 -0.0667 -0.4839  0.0846
 3860TIP3    H111513   5.814   4.634   1.645  0.4787 -0.5704 -0.0008
 3860TIP3    H211514   5.864   4.696   1.516 -0.1063 -0.1451 -0.0265
 3861TIP3   OH211515   3.660   4.132   1.964 -0.3847 -0.7741  0.0528
 3861TIP3    H111516   3.591   4.099   1.906  0.2063 -0.8387 -0.6199
 3861TIP3    H211517   3.667   4.225   1.941 -0.4307 -0.7056  0.3134
 3862TIP3   OH211518   6.476   4.141   3.697  0.0894 -0.8788  0.2432
 3862TIP3    H111519   6.480   4.219   3.641 -1.0313 -1.6497 -0.9405
 3862TIP3    H211520   6.424   4.168   3.773 -0.0125 -0.3768 -0.0067
 3863TIP3   OH211521   4.744   3.496   3.901  0.1873 -0.3869  0.3930
 3863TIP3    H111522   4.814   3.435   3.881  1.6900  0.4655  2.8081
 3863TIP3    H211523   4.672   3.441   3.933 -0.1889 -1.2338 -1.8285
 3864TIP3   OH211524   6.004   6.140   1.700 -0.1734 -0.1990  0.0230
 3864TIP3    H111525   5.918   6.167   1.667 -0.5459  0.6416  1.6296
 3864TIP3    H211526   6.017   6.193   1.779  1.2416 -1.2725  0.5268
 3865TIP3   OH211527   8.488   5.892   2.973  0.2516  0.2629 -0.1229
 3865TIP3    H111528   8.528   5.974   2.942 -1.3233  0.5886 -1.3888
 3865TIP3    H211529   8.403   5.918   3.007  0.2957 -0.6841  0.7346
 3866TIP3   OH211530   6.029   2.322   2.082  0.0746 -0.1737  0.0607
 3866TIP3    H111531   6.085   2.261   2.033  0.1429 -0.7601  0.8621
 3866TIP3    H211532   6.058   2.408   2.053 -0.0575 -0.5122 -1.1307
 3867TIP3   OH211533   4.579   2.339   0.544 -0.6522  0.0616  0.4117
 3867TIP3    H111534   4.589   2.275   0.474  1.2611  0.6492  0.1415
 3867TIP3    H211535   4.502   2.390   0.518  0.3573  0.6351 -1.5642
 3868TIP3   OH211536   7.565   4.260   2.266 -0.1606 -0.2401 -0.3823
 3868TIP3    H111537   7.498   4.274   2.333 -0.4367  1.0344 -0.9165
 3868TIP3    H211538   7.594   4.170   2.280  0.4004  0.2955  1.9965
 3869TIP3   OH211539   5.287   2.898   3.282 -0.5331 -0.0604  0.0892
 3869TIP3    H111540   5.289   2.905   3.378 -0.8804  0.5159  0.0589
 3869TIP3    H211541   5.358   2.838   3.261  0.6877  1.1895  0.5901
 3870TIP3   OH211542   3.639   4.826   1.470 -0.0197 -0.5005 -0.0034
 3870TIP3    H111543   3.575   4.894   1.490 -0.7059 -0.1669 -3.1134
 3870TIP3    H211544   3.719   4.874   1.448 -0.0565 -0.7362 -0.6728
 3871TIP3   OH211545   3.921   5.324   3.215  0.0180  0.0404 -0.2296
 3871TIP3    H111546   3.918   5.294   3.125 -2.0627 -1.8366  0.4159
 3871TIP3    H211547   3.894   5.248   3.267  0.4636  1.2897  1.9173
 3872TIP3   OH211548   5.599   3.575   2.313  0.4237  0.2627  0.2095
 3872TIP3    H111549   5.635   3.516   2.246  0.3260  0.2696  0.1514
 3872TIP3    H211550   5.578   3.655   2.266 -2.6823 -0.8418 -0.4126
 3873TIP3   OH211551   4.836   4.726   1.976 -0.1016 -0.1583  0.1931
 3873TIP3    H111552   4.857   4.646   2.024 -2.4434 -0.3480  0.9655
 3873TIP3    H211553   4.897   4.791   2.010  0.7507 -1.2103  0.7230
 3874TIP3   OH211554   7.665   3.949   0.341  0.1757 -0.5135  0.0202
 3874TIP3    H111555   7.746   3.899   0.351  0.5736  0.1504  0.1384
 3874TIP3    H211556   7.673   4.022   0.402 -0.7906 -0.7916  0.4953
 3875TIP3   OH211557   5.114   4.783   1.034 -0.0336  0.2073  0.3841
 3875TIP3    H111558   5.082   4.829   0.957 -1.4257  0.4711  1.1190
 3875TIP3    H211559   5.190   4.734   1.002 -1.0388 -0.2753 -1.3311
 3876TIP3   OH211560   5.787   3.021   1.834 -0.9024 -0.2549 -0.1979
 3876TIP3    H111561   5.816   3.097   1.885 -3.4377  0.6591 -0.0209
 3876TIP3    H211562   5.701   2.999   1.871 -1.1214 -1.9096 -1.6288
 3877TIP3   OH211563   3.835   1.347   2.221 -0.1837  0.2554  0.4094
 3877TIP3    H111564   3.740   1.354   2.218 -0.5153 -3.0222  1.0316
 3877TIP3    H211565   3.853   1.304   2.305  1.9576  2.0366  0.9038
 3878TIP3   OH211566   7.040   5.090   1.512 -0.1618  0.2345  0.5467
 3878TIP3    H111567   7.042   4.996   1.531 -2.3102 -0.3167 -1.7568
 3878TIP3    H211568   7.101   5.101   1.439 -2.5340  0.0219 -1.5192
 3879TIP3   OH211569   5.709   4.196   1.686 -0.2851 -0.1188  0.0190
 3879TIP3    H111570   5.706   4.104   1.714 -1.3007  0.1785  0.9051
 3879TIP3    H211571   5.793   4.204   1.641  1.3995 -0.6114  2.9952
 3880TIP3   OH211572   4.692   3.306   1.051 -0.0184 -0.3033 -0.7215
 3880TIP3    H111573   4.628   3.236   1.065 -0.2205 -0.3801 -1.9224
 3880TIP3    H211574   4.640   3.387   1.059  0.0939 -0.3026  0.0547
 3881TIP3   OH211575   5.882   2.962   0.706 -0.2530 -0.1911  0.3179
 3881TIP3    H111576   5.834   2.880   0.694 -0.6033 -0.0534  0.7887
 3881TIP3    H211577   5.925   2.954   0.791  1.3859 -0.7280 -0.5380
 3882TIP3   OH211578   7.189   3.431   2.780 -0.0335  0.1575  0.3157
 3882TIP3    H111579   7.198   3.456   2.688 -0.0072  1.6295  0.7159
 3882TIP3    H211580   7.097   3.445   2.800  0.0370  0.1871  0.6210
 3883TIP3   OH211581   6.471   2.426   1.935 -0.3139  0.0972 -0.4610
 3883TIP3    H111582   6.517   2.441   2.018 -0.8256  0.9284 -0.3233
 3883TIP3    H211583   6.539   2.431   1.868 -0.1682  1.1631 -0.2464
 3884TIP3   OH211584   6.199   4.664   1.919 -0.6652 -0.1697 -0.1434
 3884TIP3    H111585   6.204   4.754   1.887 -0.4503 -0.1860 -0.1575
 3884TIP3    H211586   6.192   4.610   1.840  0.5606 -0.2588 -0.2004
 3885TIP3   OH211587   4.982   2.792   3.183  0.6832 -0.0468  0.3022
 3885TIP3    H111588   4.922   2.731   3.228 -1.0102 -0.1882 -2.0988
 3885TIP3    H211589   5.066   2.778   3.227  0.0956 -3.3936  0.5248
 3886TIP3   OH211590   5.955   5.138   1.867  0.2432  0.2445 -0.4152
 3886TIP3    H111591   5.925   5.112   1.954  2.0111 -0.6262 -0.0333
 3886TIP3    H211592   5.877   5.174   1.824 -0.3536  1.9587  2.0031
 3887TIP3   OH211593   6.515   3.701   0.803 -0.0442  0.2352  0.4373
 3887TIP3    H111594   6.545   3.619   0.764 -0.0232  0.8893 -0.9624
 3887TIP3    H211595   6.442   3.675   0.860  0.3950 -0.8358  0.5234
 3888TIP3   OH211596   4.636   5.038   3.176 -0.5531  0.3486  0.1397
 3888TIP3    H111597   4.640   4.954   3.223  0.1494 -0.4356 -1.2725
 3888TIP3    H211598   4.703   5.029   3.107  1.2404  2.9883  1.4596
 3889TIP3   OH211599   7.460   0.368   3.216  0.0565  0.4108 -0.1409
 3889TIP3    H111600   7.397   0.441   3.219 -1.6786 -0.9849 -1.4131
 3889TIP3    H211601   7.431   0.309   3.285  0.4539  0.1189 -0.2241
 3890TIP3   OH211602   5.547   4.273   3.075 -0.2197 -0.1000 -0.1635
 3890TIP3    H111603   5.455   4.250   3.081 -0.0105 -0.8834  0.1488
 3890TIP3    H211604   5.592   4.189   3.062  0.2651  0.4738 -2.4938
 3891TIP3   OH211605   7.427   5.065   0.974  0.0944  0.4287  0.0787
 3891TIP3    H111606   7.408   5.139   0.915 -1.7021 -0.5667 -0.6135
 3891TIP3    H211607   7.456   5.107   1.056 -1.4204  1.9143 -0.1237
 3892TIP3   OH211608   7.292   5.537   1.793 -0.0849 -0.0476  0.3969
 3892TIP3    H111609   7.295   5.496   1.707  2.9082  2.5277 -0.7940
 3892TIP3    H211610   7.379   5.523   1.830 -1.0934 -0.4574  2.7141
 3893TIP3   OH211611   6.835   4.127   0.671 -0.0571 -0.4944 -0.3180
 3893TIP3    H111612   6.798   4.158   0.587  1.0652  1.9205  0.0501
 3893TIP3    H211613   6.758   4.098   0.720 -0.8226 -1.2218 -1.8904
 3894TIP3   OH211614   4.983   4.484   4.450  0.3318 -0.5067  0.3015
 3894TIP3    H111615   4.986   4.523   4.363 -1.2174 -0.7131  0.1429
 3894TIP3    H211616   4.928   4.544   4.501  0.7639 -0.6881  0.9923
 3895TIP3   OH211617   7.123   4.580   0.513  0.4330  0.2045 -0.1771
 3895TIP3    H111618   7.175   4.643   0.562  1.8483  0.8151 -2.3901
 3895TIP3    H211619   7.116   4.617   0.425 -1.4309 -1.2059 -0.6720
 3896TIP3   OH211620   4.978   4.630   2.637  0.0739  0.2483  0.0856
 3896TIP3    H111621   4.912   4.679   2.588  1.8366  0.6167 -1.9925
 3896TIP3    H211622   5.027   4.696   2.685 -0.2540  0.0989  0.6269
 3897TIP3   OH211623   2.817   3.628   3.724 -0.3579  0.2767 -0.0454
 3897TIP3    H111624   2.790   3.706   3.675  0.0465  0.4924  0.0748
 3897TIP3    H211625   2.906   3.647   3.753 -0.9920  0.6258  1.7573
 3898TIP3   OH211626   3.946   5.619   1.321 -0.7042  0.0052 -0.3618
 3898TIP3    H111627   3.917   5.595   1.234 -1.7969  1.1813 -0.3301
 3898TIP3    H211628   3.888   5.689   1.348  1.0179  1.1779  0.4321
 3899TIP3   OH211629   7.112   4.574   1.408  0.2776 -0.4614  0.1503
 3899TIP3    H111630   7.026   4.543   1.378  0.6170 -0.0381 -1.2868
 3899TIP3    H211631   7.174   4.537   1.346  0.9855  0.5251  0.2570
 3900TIP3   OH211632   6.180   5.731   3.492  0.5485 -0.5054 -0.1905
 3900TIP3    H111633   6.230   5.806   3.458  0.7758  0.8545  3.0059
 3900TIP3    H211634   6.092   5.743   3.456  1.0891  0.1927 -1.3128
 3901TIP3   OH211635   6.200   4.701   0.316 -0.1521 -0.5219 -0.5779
 3901TIP3    H111636   6.257   4.777   0.321 -0.8327 -0.1037  1.0166
 3901TIP3    H211637   6.203   4.662   0.403 -1.4426 -1.1144 -0.7791
 3902TIP3   OH211638   5.720   4.091   2.324 -0.0287  0.2473 -0.1015
 3902TIP3    H111639   5.676   4.128   2.247 -1.3443  0.9455  0.9803
 3902TIP3    H211640   5.650   4.051   2.375  0.6099  1.1597  1.5271
 3903TIP3   OH211641   2.926   5.904   1.170  0.4887 -0.3489  0.6185
 3903TIP3    H111642   2.961   5.929   1.084  2.3112 -1.3215  1.0693
 3903TIP3    H211643   2.848   5.852   1.149  0.1223  0.5984 -0.4134
 3904TIP3   OH211644   1.827   1.763   4.511 -0.0477  0.3729  0.0115
 3904TIP3    H111645   1.922   1.774   4.507 -0.0480  1.2438  1.7351
 3904TIP3    H211646   1.792   1.852   4.506 -0.7279  0.1253  0.3182
 3905TIP3   OH211647   5.615   4.800   1.336  0.7641 -0.4339 -0.0387
 3905TIP3    H111648   5.577   4.712   1.332  2.5270 -1.2793  1.1880
 3905TIP3    H211649   5.683   4.800   1.269  1.8820 -0.5672  1.0861
 3906TIP3   OH211650   4.290   4.684   2.857 -0.2194 -0.4713 -0.4994
 3906TIP3    H111651   4.381   4.703   2.878 -0.2914 -0.9816  0.2605
 3906TIP3    H211652   4.290   4.594   2.825 -0.8508 -1.4432  2.1130
 3907TIP3   OH211653   5.378   5.371   2.478  0.3032  0.1448  0.0734
 3907TIP3    H111654   5.470   5.381   2.453 -0.5066  0.8150 -2.8368
 3907TIP3    H211655   5.344   5.460   2.481  0.1054  0.0101  2.7041
 3908TIP3   OH211656   4.495   5.031   2.924  0.3937 -0.1613 -0.1349
 3908TIP3    H111657   4.522   5.039   3.015 -1.1655  1.3184  0.2164
 3908TIP3    H211658   4.399   5.039   2.926  0.1800 -1.8261 -1.7177
 3909TIP3   OH211659   5.541   3.335   2.023 -0.1004 -0.0199 -0.1266
 3909TIP3    H111660   5.491   3.299   1.950 -0.5066  1.3892 -0.5627
 3909TIP3    H211661   5.551   3.428   2.001  3.3064 -0.3670 -0.4070
 3910TIP3   OH211662   4.702   4.669   3.591  0.0927 -0.0599  0.5557
 3910TIP3    H111663   4.717   4.621   3.510  2.1960  0.2106  0.7650
 3910TIP3    H211664   4.665   4.604   3.651  0.8514 -0.8846  0.1446
 3911TIP3   OH211665   8.108   4.728   3.384  0.9655  0.1729 -0.4433
 3911TIP3    H111666   8.130   4.819   3.402 -0.8834  0.5812 -0.0739
 3911TIP3    H211667   8.090   4.726   3.290 -0.5690  0.5647 -0.1746
 3912TIP3   OH211668   5.219   4.552   2.186 -0.7754  0.4618 -0.0427
 3912TIP3    H111669   5.253   4.495   2.255 -1.6031  0.9486  0.7686
 3912TIP3    H211670   5.270   4.528   2.108  0.6057  0.3479  0.8740
 3913TIP3   OH211671   8.118   4.705   1.816 -0.1126 -0.0107  0.8324
 3913TIP3    H111672   8.102   4.697   1.722  0.7412  1.3363  0.5681
 3913TIP3    H211673   8.044   4.756   1.849  0.9454  1.7617  0.4629
 3914TIP3   OH211674   3.767   4.290   1.444 -0.2686  0.1729 -0.1621
 3914TIP3    H111675   3.739   4.381   1.436  0.1989  0.4045  0.7404
 3914TIP3    H211676   3.852   4.287   1.401  0.1903  0.3985  0.7263
 3915TIP3   OH211677   5.926   3.518   2.199 -0.3016  0.1858 -0.2129
 3915TIP3    H111678   6.004   3.543   2.148  0.3862  0.5686  0.9996
 3915TIP3    H211679   5.944   3.429   2.227 -1.4458 -0.6463 -2.0641
 3916TIP3   OH211680   6.215   5.152   4.063  0.2928  0.0583  0.1844
 3916TIP3    H111681   6.164   5.125   4.139  1.2933 -1.7080  0.2557
 3916TIP3    H211682   6.194   5.245   4.052 -2.1712 -0.3981  0.7763
 3917TIP3   OH211683   5.431   6.162   2.534  0.3791 -0.2114 -0.3993
 3917TIP3    H111684   5.525   6.183   2.534  0.1703  0.8191 -1.5699
 3917TIP3    H211685   5.413   6.136   2.624  1.1903  2.4539  0.6141
 3918TIP3   OH211686   0.985   2.653   1.553  0.4557  0.1983  0.5728
 3918TIP3    H111687   1.003   2.594   1.479  0.2592 -0.3445  0.9564
 3918TIP3    H211688   0.933   2.724   1.515 -1.4665 -1.1666  0.6186
 3919TIP3   OH211689   4.093   2.274   6.903 -0.4520  0.1160 -0.0970
 3919TIP3    H111690   4.065   2.281   6.811 -0.3538 -0.5983 -0.1871
 3919TIP3    H211691   4.083   2.181   6.923 -1.5020  0.4425  0.9548
 3920TIP3   OH211692   5.828   4.483   1.731 -0.0518  0.1041  0.2345
 3920TIP3    H111693   5.785   4.426   1.668 -1.2088  1.9384 -0.6980
 3920TIP3    H211694   5.856   4.425   1.802  0.1492 -1.8058 -1.3673
 3921TIP3   OH211695   7.970   3.690   2.551 -0.3877  0.1208 -0.7073
 3921TIP3    H111696   8.017   3.672   2.469  1.6723  1.4088  0.1712
 3921TIP3    H211697   7.968   3.606   2.596 -0.7052 -0.3839 -1.6414
 3922TIP3   OH211698   6.953   2.956   2.050  0.5636  0.0088  0.1336
 3922TIP3    H111699   6.979   3.020   2.117 -0.4520  1.0337 -0.4230
 3922TIP3    H211700   6.984   2.994   1.968  0.6728 -0.6150 -0.1137
 3923TIP3   OH211701   5.171   5.603   1.247  0.4654  0.5850 -0.2384
 3923TIP3    H111702   5.114   5.586   1.172 -1.3547  0.0088  1.2379
 3923TIP3    H211703   5.228   5.527   1.251  0.0534  0.2502 -0.5790
 3924TIP3   OH211704   6.204   3.337   1.591 -0.0731  0.5790  0.4183
 3924TIP3    H111705   6.178   3.306   1.505  1.8503  0.6273 -0.1933
 3924TIP3    H211706   6.241   3.423   1.576  0.5016  0.4906  1.2553
 3925TIP3   OH211707   0.647   4.718   3.472  0.0972  0.2157 -0.0249
 3925TIP3    H111708   0.582   4.761   3.527  0.2235  0.3449  0.0240
 3925TIP3    H211709   0.724   4.708   3.529  0.0743 -0.0549 -0.0420
 3926TIP3   OH211710   6.823   5.432   1.253  0.5230  0.0887 -0.2506
 3926TIP3    H111711   6.862   5.449   1.167 -0.7668 -0.5652 -0.9673
 3926TIP3    H211712   6.882   5.369   1.294  0.6512 -0.3014 -1.0249
 3927TIP3   OH211713   6.569   4.092   0.809  0.0613 -0.1068 -0.7567
 3927TIP3    H111714   6.473   4.097   0.807 -0.0687 -1.6346  0.2512
 3927TIP3    H211715   6.587   4.002   0.837  1.8084 -0.2073 -2.1405
 3928TIP3   OH211716   3.263   5.015   0.330  0.0106  0.2382 -0.1617
 3928TIP3    H111717   3.230   5.105   0.338 -1.5468 -0.3182 -0.0811
 3928TIP3    H211718   3.234   4.987   0.243 -0.9700 -0.7524  0.4746
 3929TIP3   OH211719   5.314   6.048   3.074 -0.0607 -0.0530 -0.0772
 3929TIP3    H111720   5.302   6.129   3.023 -0.7046  0.6668  1.1835
 3929TIP3    H211721   5.330   5.981   3.008 -0.6336  0.8995 -1.2185
 3930TIP3   OH211722   7.187   3.408   1.723  0.2679 -0.4280 -0.1423
 3930TIP3    H111723   7.198   3.416   1.818 -1.8222 -1.8179  0.2603
 3930TIP3    H211724   7.156   3.494   1.696  0.9200 -0.0043  0.4248
 3931TIP3   OH211725   4.551   6.465   1.952  0.0743  0.1121 -0.0857
 3931TIP3    H111726   4.479   6.419   1.909  0.2423 -0.0116 -0.2387
 3931TIP3    H211727   4.629   6.432   1.908  0.2441  0.0350  0.2703
 3932TIP3   OH211728   4.806   4.192   0.551 -0.4912  0.1702  0.1741
 3932TIP3    H111729   4.887   4.216   0.596 -0.6263 -1.7421  1.4893
 3932TIP3    H211730   4.746   4.264   0.569  0.7380  1.3520 -0.3795
 3933TIP3   OH211731   6.924   4.339   0.822 -0.4394 -0.0685  0.1217
 3933TIP3    H111732   6.852   4.386   0.782 -0.1567  0.5172  0.3013
 3933TIP3    H211733   6.919   4.251   0.784 -0.4409  0.3518 -0.8452
 3934TIP3   OH211734   8.132   4.541   1.078  0.6169 -0.1217  0.3024
 3934TIP3    H111735   8.188   4.602   1.030  0.1432 -0.1969 -0.3533
 3934TIP3    H211736   8.150   4.559   1.170 -0.3849  1.8252  0.1317
 3935TIP3   OH211737   7.360   5.298   0.817 -1.1720  0.1097  0.4047
 3935TIP3    H111738   7.433   5.359   0.829 -0.4257 -0.6852 -0.0082
 3935TIP3    H211739   7.313   5.332   0.742 -0.2740 -0.2698 -0.3472
 3936TIP3   OH211740   6.318   4.892   3.026 -0.4814 -0.1277  0.7111
 3936TIP3    H111741   6.324   4.883   2.931 -0.5990  0.1616  0.6763
 3936TIP3    H211742   6.372   4.968   3.046  0.2902 -0.7336  0.9754
 3937TIP3   OH211743   5.903   3.967   2.805  0.0501  0.3089 -0.1760
 3937TIP3    H111744   5.948   4.022   2.868  0.7750  0.4480 -0.8068
 3937TIP3    H211745   5.846   4.027   2.757 -0.7535  0.1476  0.5604
 3938TIP3   OH211746   5.410   4.462   2.021  0.1718 -0.3442 -0.4251
 3938TIP3    H111747   5.433   4.404   1.948  1.3156 -0.6872  0.2025
 3938TIP3    H211748   5.491   4.507   2.042  0.1725 -1.2025  1.4900
 3939TIP3   OH211749   6.456   3.950   1.905 -0.0841  0.3803  0.0419
 3939TIP3    H111750   6.439   4.012   1.834  0.2166  2.2673  1.5793
 3939TIP3    H211751   6.455   4.003   1.985 -0.7791 -1.7570  1.5071
 3940TIP3   OH211752   6.256   3.320   2.397 -0.3110 -0.4068 -0.0038
 3940TIP3    H111753   6.267   3.352   2.308 -0.2258  0.0156  0.1569
 3940TIP3    H211754   6.163   3.332   2.416 -0.4802 -1.1945 -0.2987
 3941TIP3   OH211755   3.480   5.286   2.864 -0.1413 -0.1086 -0.2500
 3941TIP3    H111756   3.391   5.261   2.891 -0.4902  0.2929 -1.0164
 3941TIP3    H211757   3.530   5.204   2.871 -0.3744 -0.1735  0.9260
 3942TIP3   OH211758   4.865   3.619   2.587 -0.2533  0.0030  0.0475
 3942TIP3    H111759   4.878   3.673   2.509 -0.6611  0.0812  0.0345
 3942TIP3    H211760   4.775   3.635   2.612 -0.1249 -0.0312  0.5304
 3943TIP3   OH211761   6.874   5.587   3.662  0.1902 -0.0777 -0.1142
 3943TIP3    H111762   6.920   5.659   3.704  0.6737 -0.8510  0.7132
 3943TIP3    H211763   6.936   5.514   3.665  0.2602 -0.1341 -2.2535
 3944TIP3   OH211764   3.244   5.706   1.492 -0.2038 -0.0577 -0.2498
 3944TIP3    H111765   3.321   5.757   1.517 -0.2712 -0.2864  0.4283
 3944TIP3    H211766   3.213   5.748   1.412 -0.6243  1.3568  0.6387
 3945TIP3   OH211767   7.016   4.405   4.611  0.2816  0.6012 -0.0575
 3945TIP3    H111768   6.971   4.341   4.666 -1.6600  0.4312 -1.7716
 3945TIP3    H211769   7.060   4.352   4.544 -0.0549  0.9794 -0.5772
 3946TIP3   OH211770   5.597   2.919   1.998 -1.0432  0.0457  0.0359
 3946TIP3    H111771   5.593   2.945   2.090 -0.9092  0.9288 -0.1934
 3946TIP3    H211772   5.511   2.883   1.979 -1.0763 -0.1246  0.5040
 3947TIP3   OH211773   4.242   7.170   1.613  0.3978 -0.1863 -0.2040
 3947TIP3    H111774   4.192   7.243   1.576 -0.8197  0.1725  2.0723
 3947TIP3    H211775   4.181   7.097   1.617  0.5381 -0.2510  0.9741
 3948TIP3   OH211776   5.898   3.873   4.044 -0.5251  0.9003  0.0088
 3948TIP3    H111777   5.973   3.911   3.999 -0.0294 -0.6968 -0.5546
 3948TIP3    H211778   5.824   3.888   3.985 -0.1286  0.0557 -0.7225
 3949TIP3   OH211779   7.043   5.191   1.186 -0.4333 -0.1677  0.7008
 3949TIP3    H111780   7.109   5.154   1.245  1.6521  1.0719 -0.8151
 3949TIP3    H211781   7.044   5.134   1.109 -0.0083  0.7655  0.0132
 3950TIP3   OH211782   5.491   5.627   1.412  0.9070 -0.5326 -0.1370
 3950TIP3    H111783   5.481   5.633   1.317  0.5466 -1.0521 -0.1383
 3950TIP3    H211784   5.506   5.533   1.428  0.6536 -0.4956  0.3396
 3951TIP3   OH211785   5.279   4.032   3.448 -0.3594  0.4354 -0.2989
 3951TIP3    H111786   5.213   3.974   3.409  2.1551 -2.9157  0.2298
 3951TIP3    H211787   5.264   4.025   3.542  1.0041 -0.7232 -0.1507
 3952TIP3   OH211788   6.119   4.340   0.394  0.4158 -0.1788 -0.8106
 3952TIP3    H111789   6.195   4.304   0.441 -0.3489 -1.7850 -0.7629
 3952TIP3    H211790   6.049   4.277   0.410 -1.1353  1.6254 -0.3106
 3953TIP3   OH211791   5.661   5.784   3.712  0.1874  0.0578 -0.5099
 3953TIP3    H111792   5.659   5.871   3.672  0.5175 -0.4958 -1.7517
 3953TIP3    H211793   5.699   5.799   3.799 -0.9016  1.3243 -0.2319
 3954TIP3   OH211794   6.624   4.378   3.806 -0.2490  0.5711  0.6915
 3954TIP3    H111795   6.596   4.363   3.715 -0.7211  0.3532  0.8698
 3954TIP3    H211796   6.714   4.410   3.798 -0.3183  0.6426  0.1410
 3955TIP3   OH211797   5.369   3.664   1.692 -0.1593  0.0327  0.0642
 3955TIP3    H111798   5.291   3.628   1.734 -0.3646 -0.2093 -0.5113
 3955TIP3    H211799   5.431   3.677   1.763 -1.2707  1.6704  0.7713
 3956TIP3   OH211800   4.993   2.606   0.617  0.2813 -0.6090  0.4260
 3956TIP3    H111801   5.018   2.666   0.688  0.9262 -2.3916  1.7560
 3956TIP3    H211802   4.899   2.591   0.631  0.0130  0.4510 -0.2016
 3957TIP3   OH211803   5.561   3.338   3.027 -0.4109 -0.5346  0.2755
 3957TIP3    H111804   5.634   3.391   2.995 -0.3649 -1.8375 -1.9149
 3957TIP3    H211805   5.505   3.326   2.950 -1.3256 -2.1250  1.1693
 3958TIP3   OH211806   5.541   5.004   1.894  0.3381  0.7952  0.4229
 3958TIP3    H111807   5.526   4.996   1.988  1.3162 -0.4050  0.4838
 3958TIP3    H211808   5.603   4.935   1.873  0.5526  1.3993 -1.0184
 3959TIP3   OH211809   5.026   4.670   1.253 -0.0123  0.1821 -0.8865
 3959TIP3    H111810   5.053   4.578   1.249  1.8198  0.6646  0.3972
 3959TIP3    H211811   5.075   4.712   1.182 -0.0735  0.3729 -0.8144
 3960TIP3   OH211812   3.853   4.859   2.596  0.5502 -0.4960 -0.1319
 3960TIP3    H111813   3.876   4.937   2.546 -1.9867  0.9765  0.8491
 3960TIP3    H211814   3.931   4.839   2.648  1.1688  1.5308 -0.2488
 3961TIP3   OH211815   7.422   5.237   2.093 -0.8128  0.0167  0.1174
 3961TIP3    H111816   7.333   5.266   2.108  0.0312  1.8179  1.8703
 3961TIP3    H211817   7.456   5.214   2.179  0.7019  0.2164 -0.4021
 3962TIP3   OH211818   3.759   0.882   5.751  0.3732  0.2338 -0.3845
 3962TIP3    H111819   3.787   0.964   5.791 -0.2305  0.3348 -0.1651
 3962TIP3    H211820   3.840   0.843   5.718  0.8571  0.2142  0.8041
 3963TIP3   OH211821   7.887   5.560   0.844 -0.4192  0.0432 -0.1478
 3963TIP3    H111822   7.938   5.636   0.871 -1.7077  0.7123  0.4648
 3963TIP3    H211823   7.950   5.503   0.800  0.2954  2.0455 -1.7746
 3964TIP3   OH211824   8.394   5.546   1.924  0.0445 -0.5921 -0.7108
 3964TIP3    H111825   8.331   5.614   1.899  1.2411 -0.0334 -2.3091
 3964TIP3    H211826   8.352   5.500   1.997 -1.2941  1.1073 -0.3760
 3965TIP3   OH211827   7.448   4.575   1.877  0.2073  0.8162 -0.2018
 3965TIP3    H111828   7.419   4.489   1.851  0.6156  0.9955 -1.2524
 3965TIP3    H211829   7.433   4.578   1.972  0.0040 -0.3209 -0.1987
 3966TIP3   OH211830   7.185   4.264   0.758 -0.0374  0.6285  0.7373
 3966TIP3    H111831   7.095   4.285   0.784 -0.7032  0.7962 -1.5720
 3966TIP3    H211832   7.186   4.168   0.750 -0.4957  0.7508 -0.8813
 3967TIP3   OH211833   7.943   4.733   0.905  0.3233  0.3834 -0.1652
 3967TIP3    H111834   7.977   4.805   0.958  1.4157  0.7409 -1.3575
 3967TIP3    H211835   7.940   4.768   0.816 -0.1290 -0.7084 -0.5808
 3968TIP3   OH211836   0.160   3.998   1.621 -0.1855  0.8121 -0.0997
 3968TIP3    H111837   0.120   3.913   1.600  0.8905 -0.1294  1.5518
 3968TIP3    H211838   0.085   4.054   1.641 -0.9265  0.3533 -1.5083
 3969TIP3   OH211839   5.248   1.062   4.757  0.2599  0.6615  0.1262
 3969TIP3    H111840   5.328   1.030   4.715  0.6570  0.0270  1.3401
 3969TIP3    H211841   5.219   1.135   4.701  2.1283  1.4185  0.1005
 3970TIP3   OH211842   5.987   4.738   2.315  0.3952 -0.0074  0.6220
 3970TIP3    H111843   5.996   4.713   2.223 -2.6444  4.0806 -0.9301
 3970TIP3    H211844   6.069   4.782   2.337  0.8183 -0.3055 -0.3603
 3971TIP3   OH211845   6.881   3.631   1.006  0.1909 -0.2901 -0.5384
 3971TIP3    H111846   6.945   3.560   0.996  0.5704 -0.2066  1.1659
 3971TIP3    H211847   6.816   3.596   1.067 -0.6663  0.1341 -1.2012
 3972TIP3   OH211848   4.889   5.236   2.815 -0.2660  0.6189 -0.5634
 3972TIP3    H111849   4.970   5.255   2.864 -0.1678  1.1441 -0.9279
 3972TIP3    H211850   4.918   5.181   2.742 -0.3889 -0.0331 -0.1301
 3973TIP3   OH211851   7.967   4.380   3.158  0.3040 -0.1467 -0.6587
 3973TIP3    H111852   8.053   4.339   3.154 -0.1706 -1.1393 -0.8493
 3973TIP3    H211853   7.969   4.447   3.089  0.8426 -0.3238 -0.8133
 3974TIP3   OH211854   8.173   4.284   2.910 -0.1488 -0.3940  0.5891
 3974TIP3    H111855   8.121   4.329   2.844 -0.1357  0.0645  0.8872
 3974TIP3    H211856   8.112   4.222   2.950 -0.8432  1.0761  1.8537
 3975TIP3   OH211857   5.499   2.447   1.988  0.2254 -0.0045 -0.6823
 3975TIP3    H111858   5.548   2.499   1.923  1.0342  1.0720  0.7628
 3975TIP3    H211859   5.568   2.407   2.042 -0.4218 -1.6727 -1.0524
 3976TIP3   OH211860   8.338   3.534   0.187  0.1503 -0.2658 -0.6153
 3976TIP3    H111861   8.410   3.472   0.184 -0.4403 -0.9916 -0.0184
 3976TIP3    H211862   8.355   3.587   0.264  0.8958  0.6187 -1.3806
 3977TIP3   OH211863   5.480   4.623   2.780 -0.5642 -0.3754  0.5148
 3977TIP3    H111864   5.553   4.621   2.842 -1.3301 -1.1770  1.4034
 3977TIP3    H211865   5.504   4.692   2.718  0.4504  0.0954  1.4022
 3978TIP3   OH211866   4.509   7.839   0.544  0.4514  0.3675 -0.4813
 3978TIP3    H111867   4.571   7.866   0.476  0.2830  1.3335 -0.2582
 3978TIP3    H211868   4.515   7.743   0.544  0.8479  0.3769 -1.4834
 3979TIP3   OH211869   5.354   2.478   2.261  0.3592 -0.1576  0.5540
 3979TIP3    H111870   5.405   2.526   2.196  0.3699  1.5315  1.7865
 3979TIP3    H211871   5.267   2.518   2.259 -0.7188 -2.4863 -0.9603
 3980TIP3   OH211872   1.032   6.844   2.769 -0.0690  0.3238 -0.3128
 3980TIP3    H111873   1.013   6.829   2.861  2.1168  1.2405  0.3142
 3980TIP3    H211874   1.042   6.756   2.732  0.4671 -0.0362  0.6556
 3981TIP3   OH211875   6.154   1.674   1.084  0.1489 -0.0618  0.5126
 3981TIP3    H111876   6.143   1.628   1.168 -0.3075  0.0295  0.5058
 3981TIP3    H211877   6.081   1.735   1.081  0.0366 -0.2215 -0.0541
 3982TIP3   OH211878   6.350   4.455   2.767  0.2869 -0.1597  0.1274
 3982TIP3    H111879   6.307   4.508   2.834  1.1960  0.6131  0.1202
 3982TIP3    H211880   6.283   4.442   2.700 -0.2237  0.2068  0.5635
 3983TIP3   OH211881   6.207   4.399   3.415  0.3218 -0.3830  0.1762
 3983TIP3    H111882   6.157   4.350   3.481  0.4777 -0.1725  0.4529
 3983TIP3    H211883   6.261   4.332   3.372  0.8583 -0.3913  0.8534
 3984TIP3   OH211884   7.579   4.682   4.607 -0.0153 -0.2538 -0.5535
 3984TIP3    H111885   7.532   4.661   4.687  0.4926  1.8887  0.3477
 3984TIP3    H211886   7.656   4.730   4.636  0.6961 -0.3044 -2.2643
 3985TIP3   OH211887   8.321   4.433   2.170 -0.0897 -0.2804 -0.2102
 3985TIP3    H111888   8.323   4.457   2.262 -0.1098 -0.5954 -0.1241
 3985TIP3    H211889   8.258   4.492   2.130  0.4637  0.3421 -0.1627
 3986TIP3   OH211890   4.202   4.947   2.244 -0.4685  0.2261 -0.2514
 3986TIP3    H111891   4.195   4.884   2.171 -0.0753  1.6904 -1.5775
 3986TIP3    H211892   4.130   5.008   2.230  0.8102  1.7064 -0.6057
 3987TIP3   OH211893   6.319   4.398   2.287  0.0053  0.7595 -0.0218
 3987TIP3    H111894   6.330   4.422   2.379 -0.2751 -1.2258  0.5761
 3987TIP3    H211895   6.407   4.377   2.257 -0.1286 -0.3998  0.3558
 3988TIP3   OH211896   6.003   3.369   2.513 -0.3990  0.2499 -0.1424
 3988TIP3    H111897   5.994   3.284   2.557  0.6077  0.7531  1.0530
 3988TIP3    H211898   5.924   3.417   2.536 -1.0058 -0.3762 -0.8772
 3989TIP3   OH211899   4.245   5.750   1.440 -0.3767  0.1734 -0.4359
 3989TIP3    H111900   4.188   5.745   1.363 -0.4100  0.1445 -0.4093
 3989TIP3    H211901   4.235   5.840   1.472  0.6655  0.5949 -1.2607
 3990TIP3   OH211902   5.471   5.159   3.958 -0.6098  0.1885 -0.1272
 3990TIP3    H111903   5.396   5.167   4.018 -1.7370 -1.3355 -1.3040
 3990TIP3    H211904   5.432   5.143   3.872  1.0038  2.0859 -1.2558
 3991TIP3   OH211905   5.120   4.454   3.046 -0.2359  0.6482 -0.8947
 3991TIP3    H111906   5.139   4.538   3.088  0.9664  0.2951 -0.7083
 3991TIP3    H211907   5.162   4.461   2.960  1.9648 -0.6539  0.0341
 3992TIP3   OH211908   7.242   4.084   2.750  0.1089  0.4909  0.0752
 3992TIP3    H111909   7.330   4.103   2.783  0.4541  0.0899 -0.5982
 3992TIP3    H211910   7.256   4.022   2.678 -0.6427  1.1279 -0.6386
 3993TIP3   OH211911   3.418   5.946   1.017  0.0121  0.3970  0.1983
 3993TIP3    H111912   3.509   5.920   1.033 -0.6275 -0.6953  2.3554
 3993TIP3    H211913   3.387   5.887   0.948 -0.0545 -1.5550  1.8626
 3994TIP3   OH211914   4.465   7.214   1.768 -0.2314 -0.2973 -0.4501
 3994TIP3    H111915   4.435   7.268   1.841  1.7640 -0.7705  0.7647
 3994TIP3    H211916   4.393   7.216   1.705 -1.3404  1.4203  0.8326
 3995TIP3   OH211917   6.338   5.858   0.379 -0.1475 -0.0062  0.2924
 3995TIP3    H111918   6.298   5.869   0.465 -1.1210 -0.4880 -0.1011
 3995TIP3    H211919   6.426   5.824   0.398 -0.8647 -1.4488  1.0322
 3996TIP3   OH211920   5.708   4.920   2.257 -0.1463 -0.4483 -0.4675
 3996TIP3    H111921   5.676   4.843   2.303  0.1775 -0.7503 -0.7434
 3996TIP3    H211922   5.632   4.953   2.209 -0.3268 -0.4932 -0.2147
 3997TIP3   OH211923   5.195   6.246   3.408  0.1593 -0.1410  0.0691
 3997TIP3    H111924   5.180   6.292   3.490  1.0922 -1.1609  0.8180
 3997TIP3    H211925   5.115   6.195   3.394 -0.7523  1.4371 -0.6088
 3998TIP3   OH211926   5.661   5.685   3.408  0.1983 -0.3300  0.2739
 3998TIP3    H111927   5.613   5.704   3.489 -0.1123  0.0045  0.0120
 3998TIP3    H211928   5.658   5.767   3.359 -0.6097 -0.8671 -0.5857
 3999TIP3   OH211929   3.979   3.878   2.905  0.0382  0.1423  0.1562
 3999TIP3    H111930   4.012   3.967   2.914  1.2785 -0.1223 -1.5000
 3999TIP3    H211931   4.047   3.822   2.942  0.6280 -0.2865 -1.5309
 4000TIP3   OH211932   4.043   4.797   2.795 -0.8263 -0.4352  0.3642
 4000TIP3    H111933   4.129   4.771   2.830 -0.0259 -0.6271 -1.7075
 4000TIP3    H211934   4.021   4.876   2.844  2.5794  2.1478 -2.0265
 4001TIP3   OH211935   8.447   6.092   2.560 -0.1793 -0.2948 -0.1430
 4001TIP3    H111936   8.443   6.166   2.499  0.2266 -1.4761 -1.6361
 4001TIP3    H211937   8.405   6.020   2.513 -0.7323 -0.9785  1.3652
 4002TIP3   OH211938   7.948   2.589   1.457  0.2567  0.2120 -0.6224
 4002TIP3    H111939   8.018   2.537   1.496  0.1534  0.3775 -0.2117
 4002TIP3    H211940   7.911   2.638   1.530  2.1406  2.9658 -1.4264
 4003TIP3   OH211941   7.761   6.117   1.214 -0.7155 -0.0614  0.0282
 4003TIP3    H111942   7.768   6.211   1.228 -0.9085  0.0571 -0.6735
 4003TIP3    H211943   7.849   6.089   1.192 -0.7391  0.0149 -0.1589
 4004TIP3   OH211944   4.913   2.824   1.295 -0.3925 -0.1447  0.3590
 4004TIP3    H111945   4.858   2.756   1.333 -0.9147  0.5857  0.9213
 4004TIP3    H211946   4.870   2.847   1.213 -0.5285 -0.0969  0.4428
 4005TIP3   OH211947   2.834   4.272   3.490 -0.2215 -0.4630  0.2616
 4005TIP3    H111948   2.909   4.248   3.436 -0.6483 -0.5942 -0.2742
 4005TIP3    H211949   2.788   4.189   3.507 -0.1479 -0.4113  0.7449
 4006TIP3   OH211950   3.333   0.397   6.805 -0.1241 -0.2071 -0.4773
 4006TIP3    H111951   3.382   0.379   6.884  0.0812  1.3168 -0.2385
 4006TIP3    H211952   3.357   0.327   6.744  2.0364  0.3039 -0.2285
 4007TIP3   OH211953   5.237   3.607   2.589 -0.4500  0.0616 -0.5099
 4007TIP3    H111954   5.252   3.690   2.635 -1.2136  0.4320 -0.9338
 4007TIP3    H211955   5.159   3.570   2.631 -0.1097 -0.4498 -0.3210
 4008TIP3   OH211956   8.314   2.606   3.796 -0.2072  0.8717  0.2324
 4008TIP3    H111957   8.398   2.560   3.796 -0.8240 -0.2537 -0.0450
 4008TIP3    H211958   8.318   2.662   3.874  0.4467  0.1804  0.7027
 4009TIP3   OH211959   3.060   2.286   3.364 -0.2601  0.0258  0.4068
 4009TIP3    H111960   2.991   2.320   3.308  1.5465 -1.5672 -3.0053
 4009TIP3    H211961   3.098   2.363   3.407 -0.5329  1.5379 -2.0091
 4010TIP3   OH211962   4.452   4.134   2.640  0.0064  0.0698  0.4015
 4010TIP3    H111963   4.537   4.107   2.607  0.4678  0.2272  1.4275
 4010TIP3    H211964   4.414   4.187   2.570 -0.0529 -1.5520 -0.8129
 4011TIP3   OH211965   3.922   4.595   0.913  0.2964  0.1850 -0.0204
 4011TIP3    H111966   3.845   4.587   0.969  1.5854  1.4619  1.9753
 4011TIP3    H211967   3.990   4.545   0.957  0.9530  0.0922 -1.1278
 4012TIP3   OH211968   5.998   5.769   1.050  0.5817 -0.0320 -0.4545
 4012TIP3    H111969   6.056   5.746   0.978  0.8567 -0.7605 -0.0049
 4012TIP3    H211970   5.936   5.697   1.056 -0.6777  0.9703 -1.2428
 4013TIP3   OH211971   6.508   1.979   4.209 -0.0395 -0.0431 -0.4399
 4013TIP3    H111972   6.576   2.031   4.167 -0.5619  1.6165  0.6946
 4013TIP3    H211973   6.433   1.985   4.150 -0.1565  0.6862 -0.2326
 4014TIP3   OH211974   8.156   5.334   1.939  0.1773 -0.1084  0.4346
 4014TIP3    H111975   8.143   5.377   2.023 -0.3383 -0.4495  0.5259
 4014TIP3    H211976   8.119   5.396   1.875 -0.5553 -0.4105  0.5656
 4015TIP3   OH211977   0.738   5.684   2.307 -0.0628 -0.2740 -0.7702
 4015TIP3    H111978   0.647   5.685   2.337  0.2478  0.6500  0.1658
 4015TIP3    H211979   0.789   5.693   2.387  0.8187  0.6953 -1.4292
 4016TIP3   OH211980   5.849   3.140   5.806 -0.6259 -0.0567  0.7100
 4016TIP3    H111981   5.851   3.171   5.896 -0.3342  0.9044  0.3831
 4016TIP3    H211982   5.836   3.220   5.754  0.9628 -0.3896 -0.2092
 4017TIP3   OH211983   4.874   5.333   3.637  0.4900  0.1292 -0.0133
 4017TIP3    H111984   4.929   5.366   3.567  0.0010  0.7825 -0.0914
 4017TIP3    H211985   4.930   5.272   3.685  1.3756  1.0164  0.0946
 4018TIP3   OH211986   7.912   4.337   3.646  0.0232  0.3532 -0.5131
 4018TIP3    H111987   7.977   4.405   3.624 -0.0729  0.3693 -0.7545
 4018TIP3    H211988   7.832   4.366   3.604  0.0651 -0.0795 -0.9014
 4019TIP3   OH211989   6.590   3.120   1.108  0.0749  0.6551  0.2035
 4019TIP3    H111990   6.571   3.094   1.198 -0.8445  1.0817  0.1345
 4019TIP3    H211991   6.682   3.098   1.096 -0.5601 -2.2307  0.2636
 4020TIP3   OH211992   7.039   2.854   2.582 -0.5753 -0.8312  0.4500
 4020TIP3    H111993   6.969   2.792   2.560  0.4870 -2.4198  1.4050
 4020TIP3    H211994   6.996   2.923   2.631 -1.3711 -2.1673  1.6748
 4021TIP3   OH211995   7.915   5.505   1.225 -0.0419  0.6670  0.0669
 4021TIP3    H111996   7.853   5.573   1.202 -0.9485 -0.3369 -0.5356
 4021TIP3    H211997   7.863   5.424   1.223  1.2747 -0.1787 -0.4446
 4022TIP3   OH211998   0.596   4.403   3.099  0.7108 -0.1562  0.6791
 4022TIP3    H111999   0.594   4.400   3.004 -1.3241  0.7968  0.6608
 4022TIP3    H212000   0.680   4.445   3.120  1.9316 -1.8961 -0.6190
 4023TIP3   OH212001   7.872   1.591   2.190  0.3943 -0.0329  0.1447
 4023TIP3    H112002   7.831   1.668   2.150  0.8228 -0.6700 -1.5383
 4023TIP3    H212003   7.964   1.596   2.164  0.5362 -0.8303  0.4754
 4024TIP3   OH212004   0.985   7.341   6.143  0.1743 -0.2688 -0.4497
 4024TIP3    H112005   0.920   7.411   6.152 -1.6362 -1.5742 -2.5987
 4024TIP3    H212006   1.067   7.386   6.125 -0.1910  1.4123  1.8388
 4025TIP3   OH212007   0.017   2.575   1.755 -0.0239 -0.3293 -0.1810
 4025TIP3    H112008  -0.064   2.553   1.802  0.2837 -0.4956  0.2843
 4025TIP3    H212009   0.085   2.526   1.802  0.7445  1.8833  1.1222
 4026TIP3   OH212010   0.266   3.221   2.653  0.0763  0.1381  0.0464
 4026TIP3    H112011   0.326   3.296   2.660 -1.3525  1.3380 -0.2960
 4026TIP3    H212012   0.235   3.207   2.743  0.1870  0.0764  0.0758
 4027TIP3   OH212013   8.216   3.791   1.812 -0.3683 -0.0429  0.3345
 4027TIP3    H112014   8.125   3.791   1.782 -0.8904  1.4504  1.8945
 4027TIP3    H212015   8.212   3.756   1.901  0.2786  2.2467  1.2758
 4028TIP3   OH212016   1.703   7.576   6.897  0.0907  0.5558 -0.1461
 4028TIP3    H112017   1.775   7.525   6.935  0.3525 -0.2951 -1.7697
 4028TIP3    H212018   1.656   7.514   6.841 -0.4723  1.7337 -0.9892
 4029TIP3   OH212019   7.741   3.653   0.583  0.3314 -0.3107  0.1962
 4029TIP3    H112020   7.671   3.693   0.635 -0.2050  0.6424 -1.2018
 4029TIP3    H212021   7.696   3.586   0.531  0.7290 -0.7562  0.4261
 4030TIP3   OH212022   1.085   4.817   1.351 -0.0135 -0.5517 -0.0089
 4030TIP3    H112023   1.033   4.741   1.324  0.9852 -1.3246  0.2257
 4030TIP3    H212024   1.072   4.823   1.445 -0.2381 -0.3170 -0.0540
 4031TIP3   OH212025   0.741   1.839   2.395  0.1884  0.3013  0.6340
 4031TIP3    H112026   0.697   1.777   2.453  0.3869  0.6239  1.1366
 4031TIP3    H212027   0.670   1.891   2.358  0.1431  0.8412  1.4679
 4032TIP3   OH212028   0.109   4.462   2.285 -0.4715  0.0568  0.2826
 4032TIP3    H112029   0.170   4.508   2.227 -0.6785 -0.0832 -0.0460
 4032TIP3    H212030   0.109   4.372   2.253 -0.8497  0.0576  0.2859
 4033TIP3   OH212031   6.949   2.548   0.518  0.9499  0.4459  0.0731
 4033TIP3    H112032   7.008   2.622   0.501 -0.2645  1.6394  0.9609
 4033TIP3    H212033   6.984   2.509   0.598  0.3310  1.3873  0.8165
 4034TIP3   OH212034   6.101   5.325   0.390 -0.1917 -0.2435  0.0574
 4034TIP3    H112035   6.171   5.390   0.380  0.2239 -0.5235  1.0676
 4034TIP3    H212036   6.134   5.247   0.345 -0.0752 -0.2102  0.0841
 4035TIP3   OH212037   7.506   1.261   3.198  0.0187 -0.6315 -0.4880
 4035TIP3    H112038   7.586   1.296   3.158  1.0758 -0.9668  1.2891
 4035TIP3    H212039   7.450   1.338   3.210  1.1679  0.0403  0.7164
 4036TIP3   OH212040   0.367   4.578   1.570 -0.4766 -0.3170 -0.0032
 4036TIP3    H112041   0.456   4.542   1.576  0.3253  1.4518 -0.9259
 4036TIP3    H212042   0.310   4.502   1.579  1.1721 -1.9808 -3.0176
 4037TIP3   OH212043   5.385   5.484   0.711 -0.3144  0.5139  0.4043
 4037TIP3    H112044   5.460   5.542   0.698 -0.1328  0.3140  0.5550
 4037TIP3    H212045   5.379   5.434   0.629  0.1250  0.0661  0.6407
 4038TIP3   OH212046   0.229   4.345   1.646 -0.0952 -0.4262  0.0369
 4038TIP3    H112047   0.178   4.367   1.725  1.6027 -1.0409  1.3260
 4038TIP3    H212048   0.259   4.255   1.661  0.4403 -0.4660 -1.2272
 4039TIP3   OH212049   1.861   4.750   0.742  0.4957 -0.0022 -0.4662
 4039TIP3    H112050   1.843   4.676   0.799  2.0040  0.2060  0.2932
 4039TIP3    H212051   1.872   4.711   0.655  0.8105 -0.6257 -0.1513
 4040TIP3   OH212052   6.890   3.744   0.289  0.4139 -0.1733 -0.0360
 4040TIP3    H112053   6.878   3.802   0.365 -1.7123  1.4814 -1.5760
 4040TIP3    H212054   6.930   3.800   0.223 -0.2078 -0.8777 -1.0170
 4041TIP3   OH212055   2.165   5.453   0.760 -0.5727  0.3407  0.3995
 4041TIP3    H112056   2.081   5.436   0.718 -1.4543  2.4107  1.2621
 4041TIP3    H212057   2.199   5.366   0.782 -1.3491 -0.6474 -2.0914
 4042TIP3   OH212058   7.042   0.126   6.746  0.5071 -0.4231  0.2328
 4042TIP3    H112059   7.032   0.094   6.836  1.3563  1.8283  1.1585
 4042TIP3    H212060   7.024   0.220   6.752  0.9330 -0.1811 -1.9000
 4043TIP3   OH212061   0.244   2.112   2.654  0.0391  0.1315  0.6709
 4043TIP3    H112062   0.170   2.059   2.681  0.2576 -0.5114  0.0315
 4043TIP3    H212063   0.321   2.060   2.677  0.2748  0.4486  0.6146
 4044TIP3   OH212064   8.108   3.659   0.184  0.0440  0.0672  0.7830
 4044TIP3    H112065   8.126   3.713   0.261 -0.0609  0.3499  0.6106
 4044TIP3    H212066   8.165   3.584   0.193  1.6645  1.1719  0.0054
 4045TIP3   OH212067   7.379   4.484   0.794 -0.3009  0.0252  0.3864
 4045TIP3    H112068   7.310   4.417   0.799 -1.0269  0.7442  0.0188
 4045TIP3    H212069   7.392   4.512   0.884 -1.1843  0.5988  0.3327
 4046TIP3   OH212070   0.037   2.433   3.448 -0.1457 -0.3145  0.2958
 4046TIP3    H112071  -0.011   2.489   3.387  0.9589 -0.0806 -0.3687
 4046TIP3    H212072   0.036   2.481   3.531 -0.7599 -0.1554  0.2001
 4047TIP3   OH212073   8.308   3.987   1.024 -0.0821 -1.3425  0.2941
 4047TIP3    H112074   8.283   4.079   1.036  2.4639 -0.5596 -0.1648
 4047TIP3    H212075   8.242   3.953   0.963 -0.7157  0.3373  0.0042
 4048TIP3   OH212076   7.645   5.923   2.319 -0.4263  0.4913  0.2065
 4048TIP3    H112077   7.613   5.941   2.231 -0.8578  2.3241  0.7095
 4048TIP3    H212078   7.572   5.945   2.376 -0.2927 -1.0810  1.0122
 4049TIP3   OH212079   7.274   5.771   1.909  0.2341  0.4003 -0.6310
 4049TIP3    H112080   7.189   5.812   1.892  0.7346  2.0531  0.6719
 4049TIP3    H212081   7.270   5.686   1.865 -1.9272  0.6400 -0.9211
 4050TIP3   OH212082   8.010   5.189   1.659 -0.6330 -0.2838 -0.1745
 4050TIP3    H112083   8.047   5.157   1.741  0.7008  1.7556  0.0704
 4050TIP3    H212084   7.921   5.216   1.681 -1.2263 -2.2647 -0.0428
 4051TIP3   OH212085   2.643   7.474   6.603 -0.1447  0.0233 -0.6087
 4051TIP3    H112086   2.622   7.527   6.681  1.8433 -0.5102  0.3365
 4051TIP3    H212087   2.571   7.412   6.596 -1.2876  1.2781 -0.2945
 4052TIP3   OH212088   7.882   4.070   1.015  0.0110 -0.2047  0.0820
 4052TIP3    H112089   7.949   4.005   0.993  2.0386  1.7108  0.3813
 4052TIP3    H212090   7.866   4.116   0.933 -0.6108 -0.3488  0.1188
 4053TIP3   OH212091   7.507   2.902   2.810 -0.3797 -0.2375  0.0848
 4053TIP3    H112092   7.479   2.979   2.761 -0.2760  0.1620  0.6524
 4053TIP3    H212093   7.497   2.927   2.902 -0.9076 -1.0990  0.2689
 4054TIP3   OH212094   6.873   3.584   1.876  0.2576  0.3213 -0.4700
 4054TIP3    H112095   6.867   3.522   1.949 -1.1721 -0.9217 -1.6129
 4054TIP3    H212096   6.807   3.651   1.896 -1.4556 -1.0142 -1.5180
 4055TIP3   OH212097   7.311   5.354   1.569  0.1523 -0.4038  0.7879
 4055TIP3    H112098   7.392   5.304   1.581  1.3541  1.6398  1.4667
 4055TIP3    H212099   7.334   5.423   1.508 -1.3316 -0.2923  0.3277
 4056TIP3   OH212100   7.131   1.537   1.026  0.4713  0.0064 -0.1865
 4056TIP3    H112101   7.118   1.598   0.954 -0.7977 -1.5213 -1.2980
 4056TIP3    H212102   7.201   1.479   0.997  0.6352  0.0020  0.2178
 4057TIP3   OH212103   0.133   4.927   2.615  0.0590 -0.2424 -0.2249
 4057TIP3    H112104   0.162   4.906   2.704  2.2042 -0.7599 -1.0162
 4057TIP3    H212105   0.149   4.847   2.565 -2.3120 -0.3723 -0.8297
 4058TIP3   OH212106   3.818   1.860   6.559  0.0528 -0.0734 -0.2078
 4058TIP3    H112107   3.846   1.828   6.645  0.8021 -0.1701 -0.4890
 4058TIP3    H212108   3.773   1.785   6.519 -0.7825  0.1390  0.3135
 4059TIP3   OH212109   1.751   5.275   6.742  0.0242 -0.7046 -0.0726
 4059TIP3    H112110   1.701   5.295   6.821 -0.6231 -0.2738 -0.5865
 4059TIP3    H212111   1.716   5.334   6.676  1.9343  0.3241 -0.1828
 4060TIP3   OH212112   8.358   5.458   2.196 -0.6712  0.1499 -0.0395
 4060TIP3    H112113   8.379   5.369   2.225 -0.4654  0.3972  0.5907
 4060TIP3    H212114   8.286   5.486   2.253 -1.2123  0.1335 -0.7027
 4061TIP3   OH212115   7.206   4.326   1.255 -0.4008 -0.1589 -0.3400
 4061TIP3    H112116   7.285   4.276   1.237  0.0628  0.5021 -0.1670
 4061TIP3    H212117   7.134   4.265   1.237  0.1378 -0.6767 -0.7561
 4062TIP3   OH212118   3.037   7.398   6.546  0.2726  0.0044 -0.0431
 4062TIP3    H112119   2.964   7.433   6.495  0.6022  0.1520 -0.4115
 4062TIP3    H212120   3.095   7.359   6.481  0.2064 -0.6864  0.3067
 4063TIP3   OH212121   7.359   4.966   2.047 -0.0202  0.1415  0.2588
 4063TIP3    H112122   7.454   4.963   2.037  0.1858  1.3584  1.6677
 4063TIP3    H212123   7.338   5.059   2.049 -0.8051 -0.0451  3.5387
 4064TIP3   OH212124   8.481   3.743   1.637  0.3314 -0.1107  0.1772
 4064TIP3    H112125   8.400   3.732   1.687  1.6502 -0.7044  2.2141
 4064TIP3    H212126   8.488   3.661   1.586 -0.6656  0.2184 -0.5097
 4065TIP3   OH212127   7.849   2.039   2.919 -0.2653 -0.4841 -0.0070
 4065TIP3    H112128   7.920   1.977   2.937 -0.8037 -0.1481  3.5555
 4065TIP3    H212129   7.853   2.102   2.991 -1.2913  2.2311 -2.2310
 4066TIP3   OH212130   3.339   3.889   3.226 -0.3305 -0.2493  0.7020
 4066TIP3    H112131   3.355   3.962   3.286 -2.7190  0.3493  0.6938
 4066TIP3    H212132   3.425   3.851   3.210  0.7901  1.7385  1.7744
 4067TIP3   OH212133   7.276   1.807   1.279  0.5379 -0.0669  0.0973
 4067TIP3    H112134   7.242   1.781   1.364 -2.4355 -0.4114 -1.1517
 4067TIP3    H212135   7.311   1.727   1.240 -0.8576 -0.5100 -0.2443
 4068TIP3   OH212136   7.735   4.561   1.005 -0.2510 -0.1718  0.8162
 4068TIP3    H112137   7.801   4.624   0.976 -1.8557  1.2986  0.2824
 4068TIP3    H212138   7.653   4.611   1.006 -1.5823 -2.2810  0.2300
 4069TIP3   OH212139   7.770   2.378   1.006  0.4515  0.4157  0.0836
 4069TIP3    H112140   7.731   2.292   1.023  1.0971  0.0945 -0.0348
 4069TIP3    H212141   7.771   2.421   1.092 -1.9518  1.1961 -0.2463
 4070TIP3   OH212142   1.680   7.590   5.313 -0.2665  0.0189 -1.1151
 4070TIP3    H112143   1.612   7.537   5.271 -0.7957  1.1239 -1.6743
 4070TIP3    H212144   1.720   7.532   5.377 -0.4048 -1.2527 -2.1682
 4071TIP3   OH212145   6.750   4.066   2.473 -0.0053 -0.0007 -0.9252
 4071TIP3    H112146   6.754   3.980   2.514 -0.2010  0.8931  1.0208
 4071TIP3    H212147   6.656   4.081   2.460  0.1169 -1.0286 -3.4185
 4072TIP3   OH212148   8.470   4.693   2.204 -0.4745 -0.7829  0.6868
 4072TIP3    H112149   8.496   4.602   2.218  1.1376 -0.6451 -1.1083
 4072TIP3    H212150   8.415   4.690   2.126  1.0661 -0.0483 -0.4715
 4073TIP3   OH212151   7.060   4.608   3.201 -0.4933 -0.6650  0.0262
 4073TIP3    H112152   7.050   4.633   3.293 -0.6815 -0.8728  0.0629
 4073TIP3    H212153   7.052   4.691   3.153  0.1186 -0.4830  0.2314
 4074TIP3   OH212154   0.004   4.464   0.223 -0.4697 -0.5336 -0.2561
 4074TIP3    H112155   0.038   4.483   0.310 -0.8248  0.6423 -0.3618
 4074TIP3    H212156   0.022   4.543   0.172 -4.3272  0.6005 -0.0092
 4075TIP3   OH212157   8.301   3.276   2.432 -0.0834  0.5881 -0.5845
 4075TIP3    H112158   8.226   3.271   2.373 -0.1852  1.1841 -0.5036
 4075TIP3    H212159   8.363   3.211   2.397 -1.3677 -1.2042  0.4043
 4076TIP3   OH212160   5.871   3.608   3.480 -0.6510  0.8698  0.5021
 4076TIP3    H112161   5.781   3.580   3.466 -0.0978  0.6431 -3.1919
 4076TIP3    H212162   5.865   3.703   3.490 -1.3567  0.8116  0.6739
 4077TIP3   OH212163   7.541   4.417   0.514  0.3800  0.3796 -0.6470
 4077TIP3    H112164   7.448   4.407   0.536  0.7009 -1.1566  0.1149
 4077TIP3    H212165   7.587   4.377   0.588  1.6726  1.9900 -0.5644
 4078TIP3   OH212166   7.232   1.347   0.385  0.0633  0.5997  0.7139
 4078TIP3    H112167   7.227   1.337   0.480  0.3686 -1.6639  0.5181
 4078TIP3    H212168   7.189   1.269   0.350  1.2505  0.6827 -0.9978
 4079TIP3   OH212169   7.568   4.742   0.127  0.0620 -0.1444 -0.4619
 4079TIP3    H112170   7.520   4.704   0.053  2.4253  0.9852 -2.6491
 4079TIP3    H212171   7.655   4.701   0.122  1.4895  2.7879 -0.6846
 4080TIP3   OH212172   0.035   3.706   2.012  0.3826  0.0661 -0.9075
 4080TIP3    H112173  -0.049   3.750   2.026  1.6428  2.1141  0.3302
 4080TIP3    H212174   0.051   3.657   2.092  0.1264 -0.7494 -1.3499
 4081TIP3   OH212175   7.134   3.297   0.749  0.1870 -0.0688  0.1433
 4081TIP3    H112176   7.127   3.356   0.825 -1.9043 -0.1852  0.0514
 4081TIP3    H212177   7.223   3.312   0.716  1.0057  0.2507  2.3907
 4082TIP3   OH212178   7.901   4.102   0.745 -0.1993  0.4770 -0.1314
 4082TIP3    H112179   7.947   4.040   0.687 -0.3598  1.3227 -1.1618
 4082TIP3    H212180   7.834   4.142   0.690 -0.9015  0.6826  0.8641
 4083TIP3   OH212181   7.428   4.919   3.394 -0.1238  0.0353  0.0391
 4083TIP3    H112182   7.361   4.978   3.430 -1.4194  0.3821 -2.7504
 4083TIP3    H212183   7.474   4.972   3.329  0.3716 -1.2924 -0.7084
 4084TIP3   OH212184   7.793   6.396   1.249  0.4313  0.1110 -0.3978
 4084TIP3    H112185   7.835   6.387   1.163  1.1715 -0.4076  0.0092
 4084TIP3    H212186   7.768   6.488   1.254 -0.5753 -0.0846 -1.6073
 4085TIP3   OH212187   0.741   2.674   2.189 -0.5426  0.3043  0.2160
 4085TIP3    H112188   0.717   2.705   2.277 -1.6267 -2.8911  1.1348
 4085TIP3    H212189   0.667   2.620   2.162  0.9594 -0.9441 -1.5469
 4086TIP3   OH212190   7.022   3.200   1.476 -0.0365  0.2870  0.3268
 4086TIP3    H112191   7.079   3.262   1.522 -0.2303 -0.2399  1.2948
 4086TIP3    H212192   7.073   3.171   1.401  1.7745 -1.6774  2.2586
 4087TIP3   OH212193   5.352   4.477   1.065 -0.2553 -0.1849  0.0413
 4087TIP3    H112194   5.429   4.506   1.015 -0.0302  0.9917  1.0338
 4087TIP3    H212195   5.380   4.477   1.156 -0.1671 -3.9673  0.0814
 4088TIP3   OH212196   0.029   3.079   1.527 -0.4071 -0.3696  0.1118
 4088TIP3    H112197   0.100   3.024   1.493  1.7046  0.9254  2.2398
 4088TIP3    H212198  -0.050   3.046   1.484  1.4552 -1.9366 -2.2409
 4089TIP3   OH212199   7.942   4.395   0.914  0.1488  0.1533 -0.0670
 4089TIP3    H112200   7.862   4.414   0.963  0.5440 -0.6299  0.9075
 4089TIP3    H212201   7.996   4.473   0.925 -0.3485  0.5456 -0.4350
 4090TIP3   OH212202   8.415   5.184   2.211  0.1525  0.1963 -0.4139
 4090TIP3    H112203   8.329   5.147   2.193 -0.3654  0.4044  1.5447
 4090TIP3    H212204   8.473   5.140   2.149 -0.5115 -3.6833  1.6008
 4091TIP3   OH212205   6.713   4.252   1.471 -0.3041  0.0421  0.3508
 4091TIP3    H112206   6.682   4.222   1.557  2.9756  1.1803  2.0283
 4091TIP3    H212207   6.655   4.324   1.448 -4.1413 -3.1964 -0.6423
 4092TIP3   OH212208   6.986   0.310   6.374  0.4097  0.3970 -0.6453
 4092TIP3    H112209   6.916   0.250   6.348 -0.3378 -0.0160  2.1374
 4092TIP3    H212210   7.054   0.253   6.412  0.3652  1.1426  0.6038
 4093TIP3   OH212211   7.341   6.360   0.888  0.0450 -0.2344  0.1090
 4093TIP3    H112212   7.316   6.424   0.955 -0.7126  0.4118 -0.7741
 4093TIP3    H212213   7.278   6.289   0.899 -1.1866  0.6500 -1.0293
 4094TIP3   OH212214   7.363   2.465   1.568 -0.6131 -0.6500  0.6394
 4094TIP3    H112215   7.446   2.514   1.568 -1.4760  0.8365  1.8221
 4094TIP3    H212216   7.301   2.524   1.525 -1.6333 -0.7849  1.9269
 4095TIP3   OH212217   7.469   3.381   3.609  0.4590  0.3441 -0.2028
 4095TIP3    H112218   7.523   3.313   3.648 -0.2948 -0.5990 -0.7707
 4095TIP3    H212219   7.522   3.415   3.536  1.1939  0.9819  0.6207
 4096TIP3   OH212220   8.044   2.845   2.058  0.2531  0.3627 -0.4705
 4096TIP3    H112221   8.126   2.879   2.022 -0.2314  3.2002  0.9412
 4096TIP3    H212222   8.061   2.836   2.152 -0.2989 -1.4172 -0.5244
 4097TIP3   OH212223   0.317   6.824   4.055  0.2053 -0.2219  0.0113
 4097TIP3    H112224   0.403   6.815   4.097  0.1287 -0.8462  0.0423
 4097TIP3    H212225   0.278   6.737   4.063 -1.0899  0.4641  1.4181
 4098TIP3   OH212226   8.128   3.913   0.844  0.4376 -0.0260  0.6445
 4098TIP3    H112227   8.144   3.905   0.750  1.0543 -0.9824  0.8231
 4098TIP3    H212228   8.058   3.851   0.862 -0.6507  1.1756  0.5824
 4099TIP3   OH212229   7.540   6.783   2.143  0.1068 -0.9259 -0.0565
 4099TIP3    H112230   7.626   6.817   2.118  0.6007 -2.0838  0.0581
 4099TIP3    H212231   7.481   6.857   2.131  1.3699  0.3414  1.3399
 4100TIP3   OH212232   7.726   4.609   1.905 -0.1970 -0.5496 -0.1177
 4100TIP3    H112233   7.676   4.591   1.985 -0.0976  0.6704  0.2229
 4100TIP3    H212234   7.659   4.623   1.838 -0.3042 -0.0277  0.0958
 4101TIP3   OH212235   4.378   7.312   5.888  0.1439 -0.2889 -0.8592
 4101TIP3    H112236   4.311   7.275   5.945 -0.8213  0.8558 -1.2124
 4101TIP3    H212237   4.380   7.254   5.812 -0.0180 -0.6772 -0.5673
 4102TIP3   OH212238   7.755   4.166   0.482  0.0758 -0.4247 -0.2819
 4102TIP3    H112239   7.666   4.192   0.460  0.1818  0.1224 -0.0665
 4102TIP3    H212240   7.795   4.245   0.519  0.9332 -0.4059 -1.2275
 4103TIP3   OH212241   7.520   5.456   0.392 -0.1412  0.2435 -0.0139
 4103TIP3    H112242   7.503   5.523   0.327 -1.1993  1.0246  1.0358
 4103TIP3    H212243   7.536   5.504   0.473 -0.2583 -0.7493  0.6137
 4104TIP3   OH212244   0.571   3.797   3.325  0.8569 -0.0109 -0.0984
 4104TIP3    H112245   0.561   3.835   3.413  0.0985  1.1924 -0.6861
 4104TIP3    H212246   0.531   3.711   3.331 -0.9853  0.8380  0.2426
 4105TIP3   OH212247   8.135   6.057   2.045  0.3222  0.1024 -1.0321
 4105TIP3    H112248   8.041   6.064   2.032  0.0125  1.8595  1.6868
 4105TIP3    H212249   8.171   6.136   2.004  0.4722  0.1214 -0.8610
 4106TIP3   OH212250   8.397   4.812   2.850 -0.3875  0.4676  0.1121
 4106TIP3    H112251   8.385   4.750   2.922 -1.3892 -1.4731 -1.6735
 4106TIP3    H212252   8.485   4.793   2.817 -1.2336 -1.0738 -1.3600
 4107TIP3   OH212253   4.543   0.670   6.857 -0.2019  0.3460  0.6829
 4107TIP3    H112254   4.473   0.685   6.921 -1.2105 -1.6011  0.0820
 4107TIP3    H212255   4.496   0.650   6.776  1.0517 -0.7921  0.2225
 4108TIP3   OH212256   5.477   6.786   1.114 -0.3826 -0.1927  0.0946
 4108TIP3    H112257   5.412   6.854   1.133  2.8883  3.4175 -1.1825
 4108TIP3    H212258   5.528   6.777   1.194  0.0860 -0.1484 -0.1961
 4109TIP3   OH212259   8.386   2.834   1.417 -0.3416 -0.2167 -0.2508
 4109TIP3    H112260   8.343   2.751   1.399  1.1962 -0.8899 -0.9394
 4109TIP3    H212261   8.355   2.893   1.349  1.6128 -1.3619 -2.1873
 4110TIP3   OH212262   6.431   5.052   2.488 -0.0688 -0.0661 -0.1518
 4110TIP3    H112263   6.398   5.133   2.527 -0.5541 -1.3059  2.0606
 4110TIP3    H212264   6.405   5.058   2.396 -4.0924  0.3019  0.9013
 4111TIP3   OH212265   6.916   4.386   1.315  0.1167 -0.2356  0.9869
 4111TIP3    H112266   6.910   4.414   1.223  1.7319 -2.7968  0.0292
 4111TIP3    H212267   6.878   4.298   1.315 -0.2231 -0.1044  2.8789
 4112TIP3   OH212268   1.729   4.264   2.648  0.2770 -0.0017  0.7183
 4112TIP3    H112269   1.758   4.181   2.686 -0.8492 -0.5679  0.3708
 4112TIP3    H212270   1.645   4.243   2.607 -0.1477  1.3720  0.8634
 4113TIP3   OH212271   8.417   2.785   2.304 -0.0881  0.2660 -0.1841
 4113TIP3    H112272   8.347   2.850   2.306  0.4814  0.8818  0.1013
 4113TIP3    H212273   8.452   2.790   2.215 -0.1138  0.2805 -0.1930
 4114TIP3   OH212274   4.989   2.599   6.238  0.0418 -0.5143 -0.1743
 4114TIP3    H112275   5.019   2.669   6.297 -0.3936  0.3899 -1.0134
 4114TIP3    H212276   4.898   2.585   6.262  0.1560 -0.8739  0.0581
 4115TIP3   OH212277   5.670   4.949   1.568 -0.2252 -0.7898  0.3559
 4115TIP3    H112278   5.725   4.880   1.605 -1.7812 -2.1066  0.2773
 4115TIP3    H212279   5.653   4.921   1.478 -1.1288 -0.4883  0.4247
 4116TIP3   OH212280   8.233   2.582   1.278 -0.1571  0.1851  0.1557
 4116TIP3    H112281   8.180   2.508   1.307  0.2164  0.4194  1.4560
 4116TIP3    H212282   8.172   2.655   1.274 -0.5680 -0.2018 -1.3110
 4117TIP3   OH212283   5.586   1.002   6.689 -0.1622 -0.1967 -0.3611
 4117TIP3    H112284   5.651   1.064   6.655 -0.2712 -0.3573 -0.8619
 4117TIP3    H212285   5.502   1.044   6.670 -0.2222 -0.2734 -0.2638
 4118TIP3   OH212286   4.494   0.059   5.137 -0.4338  0.1680 -0.3577
 4118TIP3    H112287   4.456   0.146   5.123  2.0061  1.7518  2.1857
 4118TIP3    H212288   4.502   0.022   5.050 -1.5494  2.5001 -1.5052
 4119TIP3   OH212289   3.486   0.923   6.449  0.1921  0.1210 -0.8335
 4119TIP3    H112290   3.400   0.914   6.409  0.3061 -0.6632 -0.9118
 4119TIP3    H212291   3.543   0.866   6.397  0.2241 -1.3285  0.7331
 4120TIP3   OH212292   4.608   1.593   5.085 -0.2844  0.1627 -0.6014
 4120TIP3    H112293   4.624   1.499   5.083  0.9379  0.3229  0.8271
 4120TIP3    H212294   4.548   1.606   5.159 -0.0569  0.5469 -0.4801
 4121TIP3   OH212295   4.479   4.901   0.384 -0.0753  0.0594  0.3358
 4121TIP3    H112296   4.510   4.967   0.445 -0.2586 -0.5097  1.0604
 4121TIP3    H212297   4.385   4.918   0.376 -0.1022 -0.0348  0.4360
 4122TIP3   OH212298   7.540   2.489   0.078 -0.8325 -0.3007  0.5651
 4122TIP3    H112299   7.494   2.453   0.154  0.4357 -1.1237  0.9491
 4122TIP3    H212300   7.611   2.428   0.062  0.1224  0.9625 -0.0511
 4123TIP3   OH212301   7.678   6.044   3.564  0.2002  0.0860  0.2856
 4123TIP3    H112302   7.721   5.963   3.592 -0.7756  0.1977  2.1515
 4123TIP3    H212303   7.605   6.056   3.625  0.3123  2.3566  0.0369
 4124TIP3   OH212304   7.643   1.551   1.095 -0.2177 -0.0794 -0.3473
 4124TIP3    H112305   7.704   1.477   1.099  0.2031  0.2980  0.5609
 4124TIP3    H212306   7.616   1.556   1.004 -0.1900 -1.3080 -0.4239
 4125TIP3   OH212307   7.354   4.026   3.909  0.0865 -0.0858  0.3220
 4125TIP3    H112308   7.377   4.117   3.894 -1.0203  0.0297 -0.7705
 4125TIP3    H212309   7.426   3.975   3.872  0.3405  0.3335  0.2470
 4126TIP3   OH212310   6.249   5.022   1.458 -0.4180  0.7097  0.5021
 4126TIP3    H112311   6.257   5.117   1.449  0.8096  0.6459  0.8810
 4126TIP3    H212312   6.303   4.986   1.388 -0.0708  0.2872  0.9863
 4127TIP3   OH212313   7.665   5.451   1.462  0.4113 -0.2740  0.2467
 4127TIP3    H112314   7.653   5.365   1.502 -0.4688  0.2553  1.1649
 4127TIP3    H212315   7.594   5.458   1.398  0.2338 -0.0761  0.4629
 4128TIP3   OH212316   7.599   4.538   4.363  0.0720  0.1107 -0.1856
 4128TIP3    H112317   7.585   4.583   4.446 -0.3069  2.5369 -1.5343
 4128TIP3    H212318   7.680   4.488   4.376  0.0780  0.5388  1.5788
 4129TIP3   OH212319   6.861   3.034   1.095  0.2212 -0.0875 -0.1678
 4129TIP3    H112320   6.857   3.008   1.187  0.6848 -0.7179 -0.3257
 4129TIP3    H212321   6.952   3.060   1.081 -0.5014  2.8820  0.3196
 4130TIP3   OH212322   7.776   5.105   0.818  0.2323 -0.3831  0.3449
 4130TIP3    H112323   7.704   5.100   0.756  0.3076 -2.7777  0.4068
 4130TIP3    H212324   7.855   5.094   0.765  0.4241  0.0855  0.5366
 4131TIP3   OH212325   0.094   6.060   1.699  0.3678  0.1962  0.4024
 4131TIP3    H112326   0.025   6.046   1.764  0.3356 -0.8409  0.1499
 4131TIP3    H212327   0.142   6.136   1.732  0.6033 -0.5662  1.8821
 4132TIP3   OH212328   7.216   3.020   0.315 -0.0873 -0.4348  0.0497
 4132TIP3    H112329   7.250   2.999   0.228 -0.4614 -1.7277  0.1934
 4132TIP3    H212330   7.196   3.113   0.312  1.8214 -0.0206 -0.5929
 4133TIP3   OH212331   7.058   6.099   2.092  0.3343 -0.1957 -0.0450
 4133TIP3    H112332   7.043   6.007   2.115  2.2032 -0.1357  1.5251
 4133TIP3    H212333   6.970   6.136   2.085 -0.4211 -1.6108  1.4236
 4134TIP3   OH212334   7.267   5.182   4.091  0.5360 -0.3033 -0.6195
 4134TIP3    H112335   7.333   5.173   4.160 -2.5524  1.6226  2.7448
 4134TIP3    H212336   7.297   5.257   4.039  2.6680 -1.5082 -1.2025
 4135TIP3   OH212337   0.893   8.042   6.139  0.0327  0.1586 -0.7007
 4135TIP3    H112338   0.966   7.982   6.141  0.0026  0.1332  1.2947
 4135TIP3    H212339   0.819   7.990   6.107  0.7952  0.0850 -2.3433
 4136TIP3   OH212340   7.999   3.898   2.739 -0.7130  0.0954 -0.3843
 4136TIP3    H112341   8.016   3.836   2.668 -1.9774 -0.3779 -0.2815
 4136TIP3    H212342   8.018   3.849   2.819  1.0557  0.7379 -0.3832
 4137TIP3   OH212343   7.347   3.973   1.380 -0.6078 -0.4696  0.2257
 4137TIP3    H112344   7.390   4.051   1.346  1.0523 -2.0555 -1.4420
 4137TIP3    H212345   7.296   3.939   1.307  0.3532 -2.0719  0.2612
 4138TIP3   OH212346   0.094   2.886   2.098  0.0247 -0.0602  0.4233
 4138TIP3    H112347   0.115   2.892   2.005  0.5590  1.2523  0.6098
 4138TIP3    H212348   0.179   2.874   2.141 -0.2265 -0.7348  0.7394
 4139TIP3   OH212349   0.179   4.084   1.907  0.2035 -0.1298  0.4476
 4139TIP3    H112350   0.253   4.077   1.967  0.5752  1.2952  0.1826
 4139TIP3    H212351   0.112   4.132   1.956 -0.2758 -0.7935  0.4439
 4140TIP3   OH212352   7.985   4.104   2.151  0.5930  0.0023  0.7708
 4140TIP3    H112353   8.050   4.137   2.213  0.6125  0.1719  0.6602
 4140TIP3    H212354   7.901   4.138   2.183  0.8524  1.9703 -0.5536
 4141TIP3   OH212355   7.824   3.845   3.065 -0.0030  0.4929 -0.5291
 4141TIP3    H112356   7.798   3.916   3.124 -1.8789 -0.1527 -0.5592
 4141TIP3    H212357   7.786   3.868   2.981  0.2700 -0.0217 -0.7933
 4142TIP3   OH212358   0.463   3.365   3.738 -0.2268 -0.1394  0.7062
 4142TIP3    H112359   0.488   3.453   3.710  0.5999 -0.3353  0.8332
 4142TIP3    H212360   0.408   3.332   3.666  0.1689  0.1536  0.2699
 4143TIP3   OH212361   5.489   5.320   2.853  0.1335 -0.3339 -0.2488
 4143TIP3    H112362   5.553   5.253   2.828  1.2696 -0.3378  2.5456
 4143TIP3    H212363   5.441   5.282   2.925 -1.4184  0.6365 -0.7524
 4144TIP3   OH212364   7.048   4.742   3.457  0.2871 -0.3252 -0.5775
 4144TIP3    H112365   6.965   4.750   3.505  1.1759  0.4914  0.8791
 4144TIP3    H212366   7.078   4.653   3.474  0.8094  0.0942  0.7820
 4145TIP3   OH212367   7.866   1.680   2.463  0.1544 -0.0806 -0.1042
 4145TIP3    H112368   7.776   1.701   2.489  0.4271 -0.4695  1.1984
 4145TIP3    H212369   7.856   1.630   2.382 -0.7335  0.9075 -0.6331
 4146TIP3   OH212370   7.687   2.450   3.341  0.3183  0.1167 -0.3237
 4146TIP3    H112371   7.770   2.494   3.321  0.1970  1.4702  1.8916
 4146TIP3    H212372   7.705   2.402   3.422 -0.9409  0.0791 -0.0583
 4147TIP3   OH212373   0.580   4.144   3.216  0.1881  0.3683  0.7347
 4147TIP3    H112374   0.488   4.117   3.217  0.1867  0.3693  0.6171
 4147TIP3    H212375   0.593   4.183   3.130  0.7803 -1.2775  0.0746
 4148TIP3   OH212376   6.127   2.299   0.619  0.1767  0.1593  0.1853
 4148TIP3    H112377   6.215   2.319   0.651 -0.3301  0.8361  1.1926
 4148TIP3    H212378   6.097   2.380   0.578  0.7528 -0.6563 -1.8868
 4149TIP3   OH212379   6.917   3.609   2.311  0.0340 -0.6081 -0.3117
 4149TIP3    H112380   6.897   3.558   2.233  0.8283  1.2580 -1.7611
 4149TIP3    H212381   6.833   3.617   2.357 -0.3718 -1.9823 -0.7855
 4150TIP3   OH212382   6.848   3.710   5.458 -0.6641  0.3863 -0.4092
 4150TIP3    H112383   6.896   3.780   5.413 -0.6873 -0.0578 -1.1161
 4150TIP3    H212384   6.916   3.656   5.498 -0.5948  0.0377 -0.9992
 4151TIP3   OH212385   5.713   3.548   2.879  0.1114  0.0268 -0.0643
 4151TIP3    H112386   5.645   3.603   2.838  0.8166  1.4113  0.5771
 4151TIP3    H212387   5.772   3.611   2.921  1.2782 -1.2146  0.1787
 4152TIP3   OH212388   1.542   5.061   0.130 -1.1201  0.3410  0.1628
 4152TIP3    H112389   1.544   5.114   0.210  1.9884 -0.5941  0.7365
 4152TIP3    H212390   1.550   5.125   0.059  1.2035  0.7966  0.8004
 4153TIP3   OH212391   0.071   3.505   0.417 -0.0649 -0.0433 -0.2680
 4153TIP3    H112392   0.039   3.417   0.401  0.5963 -0.3265 -0.0415
 4153TIP3    H212393   0.160   3.506   0.382  0.3368  0.1956  0.7421
 4154TIP3   OH212394   7.280   4.068   1.635  0.4995 -0.4210 -0.0793
 4154TIP3    H112395   7.300   4.035   1.547  1.1462 -1.4883  0.4617
 4154TIP3    H212396   7.344   4.026   1.692  2.1899  2.7158  0.4884
 4155TIP3   OH212397   0.956   3.437   2.669  0.1297 -0.8844 -0.0270
 4155TIP3    H112398   0.955   3.532   2.670 -1.7729 -0.8910  1.3519
 4155TIP3    H212399   1.020   3.414   2.602  0.7966  1.3518 -0.1828
 4156TIP3   OH212400   0.087   3.821   2.770  0.3772 -0.2750  0.2617
 4156TIP3    H112401   0.069   3.747   2.713  0.6121 -0.0310 -0.1270
 4156TIP3    H212402   0.043   3.895   2.728 -0.5930 -0.3565  1.0951
 4157TIP3   OH212403   7.602   3.110   1.914 -0.0059  0.5355 -0.1050
 4157TIP3    H112404   7.595   3.039   1.978 -2.2415  0.1928 -0.7054
 4157TIP3    H212405   7.585   3.068   1.830  1.0419  1.3477 -0.7319
 4158TIP3   OH212406   5.858   6.731   1.650  0.5508 -1.1136  0.1288
 4158TIP3    H112407   5.928   6.796   1.640  0.1703 -1.0219 -2.2572
 4158TIP3    H212408   5.777   6.781   1.639  0.2097 -1.7129 -0.1231
 4159TIP3   OH212409   7.729   3.295   5.505  0.0623  0.2811 -0.3531
 4159TIP3    H112410   7.673   3.238   5.558 -0.5624 -0.0155 -1.3041
 4159TIP3    H212411   7.673   3.324   5.433  0.6254  1.4236 -0.3440
 4160TIP3   OH212412   7.226   3.125   1.310  0.5257 -0.1174  0.1666
 4160TIP3    H112413   7.210   3.037   1.344  2.2358 -0.6108 -0.2499
 4160TIP3    H212414   7.307   3.152   1.353  0.3699  0.9907 -0.2264
 4161TIP3   OH212415   7.433   4.755   2.984 -0.4132 -0.1285 -0.6943
 4161TIP3    H112416   7.369   4.816   3.020 -1.7578 -2.3616  0.7675
 4161TIP3    H212417   7.384   4.704   2.919 -0.4422 -2.5738  1.1904
 4162TIP3   OH212418   1.397   5.277   6.481  0.1634  0.1393  0.4804
 4162TIP3    H112419   1.309   5.309   6.500  0.0442  0.4626 -0.5585
 4162TIP3    H212420   1.456   5.337   6.527 -0.0773  1.5693 -1.0145
 4163TIP3   OH212421   8.374   4.497   1.682  0.2211  0.4620 -0.1394
 4163TIP3    H112422   8.452   4.481   1.736  0.5624 -0.1542 -0.8002
 4163TIP3    H212423   8.312   4.430   1.709  0.8791 -0.6896 -1.4315
 4164TIP3   OH212424   8.038   3.845   2.064  0.1263  0.1457  0.1626
 4164TIP3    H112425   8.034   3.932   2.102  0.1858 -0.2158  1.0148
 4164TIP3    H212426   8.015   3.786   2.136 -0.8510 -0.4841 -0.6382
 4165TIP3   OH212427   6.427   7.463   0.647 -0.1606 -0.0452 -0.1771
 4165TIP3    H112428   6.426   7.381   0.598 -0.0014 -0.3665  0.3505
 4165TIP3    H212429   6.335   7.478   0.672 -0.3370  0.4291 -1.0687
 4166TIP3   OH212430   6.664   3.484   0.709  0.4651  0.6781 -0.1015
 4166TIP3    H112431   6.640   3.447   0.794  0.2869  0.0413 -0.4300
 4166TIP3    H212432   6.727   3.421   0.673 -0.5723  0.1990 -1.0853
 4167TIP3   OH212433   6.256   6.330   1.057 -0.5295 -0.4292 -0.4667
 4167TIP3    H112434   6.283   6.281   1.134  0.9393  0.1917 -0.5808
 4167TIP3    H212435   6.309   6.294   0.986  0.0631  0.8411 -0.6813
 4168TIP3   OH212436   7.266   3.706   1.458 -0.9986  0.2560 -0.6246
 4168TIP3    H112437   7.294   3.695   1.549  0.9654 -0.0962 -1.2635
 4168TIP3    H212438   7.289   3.797   1.437 -0.9411  0.1676 -0.9434
 4169TIP3   OH212439   4.903   7.378   1.196 -0.4981 -0.2820  0.5815
 4169TIP3    H112440   4.881   7.438   1.124  1.2112  0.4514  0.6528
 4169TIP3    H212441   4.843   7.403   1.267 -0.0488  1.1105  0.4862
 4170TIP3   OH212442   0.451   3.580   2.413 -0.5026 -0.2416 -0.4897
 4170TIP3    H112443   0.464   3.674   2.403  1.4625 -0.4351 -0.0331
 4170TIP3    H212444   0.525   3.551   2.467 -0.9839 -2.0718 -0.7677
 4171TIP3   OH212445   8.198   5.006   1.243  0.0873 -0.7341  0.1130
 4171TIP3    H112446   8.266   5.021   1.308  1.1260  0.1096 -1.1602
 4171TIP3    H212447   8.125   5.061   1.272  0.7820  0.1520  0.1883
 4172TIP3   OH212448   6.556   3.295   2.234 -0.2293 -0.3137  0.4627
 4172TIP3    H112449   6.499   3.220   2.220 -0.1342 -0.6099  1.6048
 4172TIP3    H212450   6.530   3.330   2.320  1.8041 -0.9287  1.3729
 4173TIP3   OH212451   7.945   4.058   3.669 -0.2229  0.0514 -0.8090
 4173TIP3    H112452   7.925   4.149   3.689  0.4788  0.1564 -0.5843
 4173TIP3    H212453   8.013   4.061   3.603 -1.9262 -0.3078 -2.6363
 4174TIP3   OH212454   5.496   5.357   1.435  0.0719 -0.1720  0.1702
 4174TIP3    H112455   5.502   5.323   1.524  2.1496 -1.1277 -0.3150
 4174TIP3    H212456   5.530   5.287   1.380 -1.1248  0.4351 -1.3818
 4175TIP3   OH212457   0.107   2.506   2.323 -0.0034  0.0742  0.3843
 4175TIP3    H112458   0.073   2.418   2.336  1.2452 -0.4507  0.0719
 4175TIP3    H212459   0.100   2.522   2.229  2.0899 -0.6477  0.0852
 4176TIP3   OH212460   1.884   3.744   1.218 -0.0377  0.4423  0.2064
 4176TIP3    H112461   1.919   3.718   1.132 -0.7969  0.7428 -0.1964
 4176TIP3    H212462   1.957   3.791   1.260  0.8186 -0.9485  0.3106
 4177TIP3   OH212463   0.966   2.910   0.693  0.2031  0.3615 -0.2776
 4177TIP3    H112464   0.914   2.978   0.734  0.1749  0.1545  0.0357
 4177TIP3    H212465   0.923   2.828   0.718 -1.6254  0.3492 -3.2564
 4178TIP3   OH212466   6.741   4.048   0.128 -0.2401  0.0672 -0.2801
 4178TIP3    H112467   6.676   3.978   0.136 -4.0445  3.1746 -2.0594
 4178TIP3    H212468   6.810   4.011   0.074 -1.4020 -2.8270  0.1699
 4179TIP3   OH212469   3.234   7.461   6.938  0.0357 -0.0981  0.5511
 4179TIP3    H112470   3.258   7.552   6.926  2.0472 -0.4732  1.4826
 4179TIP3    H212471   3.169   7.444   6.871  0.5433  1.6923 -0.4157
 4180TIP3   OH212472   6.554   3.589   0.466 -0.0558  0.3398  0.1282
 4180TIP3    H112473   6.568   3.525   0.535 -2.8521  1.0871  1.4589
 4180TIP3    H212474   6.507   3.541   0.398 -0.4900  0.4977  0.3148
 4181TIP3   OH212475   7.056   3.582   1.332  0.0076 -0.0820 -0.6312
 4181TIP3    H112476   7.092   3.494   1.335 -2.7115 -1.2147  0.4338
 4181TIP3    H212477   7.124   3.638   1.370  1.0476 -1.9637  0.3130
 4182TIP3   OH212478   7.601   4.197   2.900  0.0666  0.5775  0.3413
 4182TIP3    H112479   7.574   4.245   2.822 -1.2015  1.2826  1.1908
 4182TIP3    H212480   7.599   4.262   2.970 -1.4883 -0.6335  1.4622
 4183TIP3   OH212481   7.995   4.168   1.478  0.2894 -0.0001  0.0806
 4183TIP3    H112482   7.916   4.200   1.522  0.5006  0.5046  0.0987
 4183TIP3    H212483   7.989   4.204   1.390  0.6920  0.3625  0.1987
 4184TIP3   OH212484   7.978   4.780   1.249 -0.0685 -0.3392 -0.5550
 4184TIP3    H112485   8.025   4.854   1.210 -2.3074  1.2245 -0.4066
 4184TIP3    H212486   7.965   4.719   1.176  1.5496 -0.4722 -0.7468
 4185TIP3   OH212487   6.645   2.167   1.956  0.2204 -0.8923  0.0693
 4185TIP3    H112488   6.613   2.237   2.013 -0.1923 -0.7870 -0.2850
 4185TIP3    H212489   6.733   2.147   1.989 -0.2194 -1.2090  1.0810
 4186TIP3   OH212490   7.430   2.995   2.548  0.3284  0.3334  0.2460
 4186TIP3    H112491   7.522   3.016   2.529  0.2629  1.3588  1.0338
 4186TIP3    H212492   7.420   2.904   2.520  1.1461  0.7346 -1.3887
 4187TIP3   OH212493   1.224   7.749   6.395  0.3902 -0.2305  0.0961
 4187TIP3    H112494   1.206   7.770   6.303  0.6242 -2.1710 -0.4228
 4187TIP3    H212495   1.164   7.678   6.415  0.3935  0.1384  1.4459
 4188TIP3   OH212496   7.931   2.712   3.018 -0.2215  0.5123 -0.5084
 4188TIP3    H112497   7.873   2.717   2.942 -0.2515 -0.6118 -0.5802
 4188TIP3    H212498   7.948   2.618   3.028  1.5746  0.8292 -0.4911
 4189TIP3   OH212499   7.656   3.242   2.371 -0.1304  0.6450 -0.2735
 4189TIP3    H112500   7.619   3.173   2.317  1.5125 -0.6488  0.2151
 4189TIP3    H212501   7.618   3.228   2.458  1.9386 -1.0970  0.3946
 4190TIP3   OH212502   7.565   6.009   3.282  0.1243  0.0066  0.6197
 4190TIP3    H112503   7.538   5.924   3.246 -0.7735  0.2417  0.7233
 4190TIP3    H212504   7.613   6.051   3.211 -0.8678  0.0933 -0.0137
 4191TIP3   OH212505   7.944   6.519   5.153  0.1032  0.1817  0.4019
 4191TIP3    H112506   7.929   6.586   5.220  1.2251 -0.3652  1.2093
 4191TIP3    H212507   7.856   6.491   5.128 -0.3333 -0.4638  2.5294
 4192TIP3   OH212508   7.693   3.671   2.416 -0.3217  0.3531 -0.1749
 4192TIP3    H112509   7.780   3.646   2.446 -1.2259 -0.9560  1.4187
 4192TIP3    H212510   7.697   3.766   2.405  1.7905  0.1088 -1.7798
 4193TIP3   OH212511   8.059   6.043   3.092 -0.6700 -0.3827  0.2929
 4193TIP3    H112512   8.118   5.978   3.054  1.2665  1.0915  0.7214
 4193TIP3    H212513   8.047   6.014   3.183 -0.5886 -0.6583  0.2174
 4194TIP3   OH212514   8.392   4.600   4.058  0.3510  0.2115  0.3179
 4194TIP3    H112515   8.377   4.521   4.007 -0.6354 -0.5016  1.6805
 4194TIP3    H212516   8.486   4.618   4.048  0.3864 -0.5847 -0.7680
 4195TIP3   OH212517   0.204   5.254   2.013 -0.7034 -0.4295 -0.2744
 4195TIP3    H112518   0.192   5.312   1.937  1.7465  1.4990  0.7577
 4195TIP3    H212519   0.138   5.186   2.001 -3.8659  2.6641 -1.4467
 4196TIP3   OH212520   1.208   6.623   1.867  0.1472  0.1778  0.7477
 4196TIP3    H112521   1.113   6.631   1.878  0.0339  1.7069 -1.0217
 4196TIP3    H212522   1.238   6.713   1.852  2.0838 -0.1017  2.7197
 4197TIP3   OH212523   1.840   5.094   1.305  0.5231 -0.2543 -0.3897
 4197TIP3    H112524   1.825   5.061   1.217 -2.5032  0.5724 -0.2158
 4197TIP3    H212525   1.785   5.039   1.361  2.2970 -0.6787  1.0024
 4198TIP3   OH212526   8.330   6.414   2.690  0.4136  0.1947 -0.2454
 4198TIP3    H112527   8.372   6.444   2.771 -0.3284  0.7251 -0.0508
 4198TIP3    H212528   8.237   6.414   2.711  0.3668 -2.1205 -0.2824
 4199TIP3   OH212529   8.058   5.606   4.283  0.3347  0.2761  0.0080
 4199TIP3    H112530   7.964   5.607   4.264  0.6226  0.5128 -1.4808
 4199TIP3    H212531   8.092   5.681   4.234  1.7466 -1.5498 -1.8801
 4200TIP3   OH212532   0.034   4.775   3.755 -0.5295  0.0651  0.8451
 4200TIP3    H112533   0.088   4.854   3.754 -0.4336 -0.0118 -0.1703
 4200TIP3    H212534  -0.055   4.806   3.771 -0.5621  0.4278 -0.0289
 4201TIP3   OH212535   1.594   4.343   1.429 -0.2855  0.4283 -0.8547
 4201TIP3    H112536   1.550   4.322   1.346 -1.6263  0.9961 -0.3026
 4201TIP3    H212537   1.524   4.376   1.485  0.0837 -2.4696  1.4205
 4202TIP3   OH212538   8.069   3.769   2.999  0.0407 -0.4415 -0.7498
 4202TIP3    H112539   8.085   3.675   2.994  1.1153 -0.2401 -1.0439
 4202TIP3    H212540   7.986   3.776   3.047  1.0962 -1.4348  1.2551
 4203TIP3   OH212541   8.099   5.812   2.836 -0.4350 -0.0083 -0.3791
 4203TIP3    H112542   8.008   5.842   2.839 -0.5613 -0.4976  1.5637
 4203TIP3    H212543   8.150   5.891   2.816 -0.9897  1.0388  2.1582
 4204TIP3   OH212544   5.423   5.050   1.631  0.0392  0.2058  0.4006
 4204TIP3    H112545   5.459   5.018   1.714  1.1814 -1.8740 -0.8633
 4204TIP3    H212546   5.492   5.034   1.567 -1.6485 -0.2025 -1.3525
 4205TIP3   OH212547   1.703   5.422   1.423 -0.4288 -0.5695 -0.2537
 4205TIP3    H112548   1.667   5.477   1.353  2.0841 -1.6746 -2.5132
 4205TIP3    H212549   1.666   5.336   1.407  0.1488 -0.8262 -0.2198
 4206TIP3   OH212550   1.002   6.606   2.651  0.0359 -0.5091  0.5650
 4206TIP3    H112551   1.076   6.556   2.618 -0.1384 -0.3273 -0.1158
 4206TIP3    H212552   0.930   6.584   2.591 -0.3638 -0.4057  1.0041
 4207TIP3   OH212553   7.042   3.671   2.699  0.2362 -0.6989  0.6404
 4207TIP3    H112554   6.980   3.602   2.679 -0.3194 -0.0361  0.0623
 4207TIP3    H212555   7.001   3.720   2.771  0.4727 -0.7675  0.8228
 4208TIP3   OH212556   0.370   5.588   3.285  0.3596  0.6375 -0.1578
 4208TIP3    H112557   0.366   5.510   3.341 -1.5569  1.1444  0.4331
 4208TIP3    H212558   0.423   5.650   3.334  1.6808 -0.1859 -0.5129
 4209TIP3   OH212559   0.298   5.287   1.141  0.2415  0.0434  0.2555
 4209TIP3    H112560   0.313   5.374   1.179 -0.8939  0.9882 -1.3694
 4209TIP3    H212561   0.364   5.279   1.073 -0.7223  0.3898 -0.7530
 4210TIP3   OH212562   6.397   5.526   6.000  0.2436  0.0401 -0.2137
 4210TIP3    H112563   6.329   5.567   6.054 -1.4537  0.4301 -2.5389
 4210TIP3    H212564   6.444   5.600   5.961  0.5493 -0.2374 -0.3715
 4211TIP3   OH212565   7.172   6.475   3.736  0.3110  0.2736  0.2901
 4211TIP3    H112566   7.127   6.537   3.679  1.7023  2.7827  1.8333
 4211TIP3    H212567   7.103   6.419   3.770 -0.8619  0.3999 -1.8189
 4212TIP3   OH212568   0.513   5.940   0.156  0.3388 -0.3575  0.1562
 4212TIP3    H112569   0.427   5.899   0.167  0.1235  0.4223  1.3573
 4212TIP3    H212570   0.505   5.992   0.077  0.1106 -1.3097 -0.4638
 4213TIP3   OH212571   0.069   3.182   5.250  0.8272 -0.2834  0.0462
 4213TIP3    H112572   0.117   3.259   5.217 -0.3470  0.8571  0.9725
 4213TIP3    H212573   0.055   3.200   5.343 -1.3620 -0.6047 -0.1952
 4214TIP3   OH212574   8.246   6.886   1.401 -0.0159  0.1671  0.2865
 4214TIP3    H112575   8.155   6.881   1.433 -0.0699  0.7889  0.2394
 4214TIP3    H212576   8.238   6.884   1.306 -0.1013  1.9037  0.2437
 4215TIP3   OH212577   7.640   7.024   1.722 -0.0317 -0.1318 -0.0635
 4215TIP3    H112578   7.669   7.070   1.643 -2.9275  0.3924 -0.8642
 4215TIP3    H212579   7.662   7.084   1.794  1.7787 -0.2167 -0.5121
 4216TIP3   OH212580   0.910   6.100   2.096  0.3578  0.4167  0.2566
 4216TIP3    H112581   0.820   6.099   2.128  0.5707  0.3494  0.8615
 4216TIP3    H212582   0.927   6.193   2.077  0.7119  0.6656  1.7381
 4217TIP3   OH212583   0.600   6.501   2.635 -0.6252 -0.3018 -0.3742
 4217TIP3    H112584   0.529   6.518   2.573 -1.8873 -2.8394  0.2938
 4217TIP3    H212585   0.559   6.450   2.705  2.1214 -3.2641 -0.7707
 4218TIP3   OH212586   3.118   6.102   3.631 -0.2666  0.2725  0.1579
 4218TIP3    H112587   3.106   6.007   3.639 -0.4043  0.2831  0.0751
 4218TIP3    H212588   3.210   6.113   3.605  0.0792  0.2137  1.3188
 4219TIP3   OH212589   0.656   3.394   4.687  0.0305  0.2970  0.0129
 4219TIP3    H112590   0.628   3.339   4.614  1.2510  1.1395 -1.1117
 4219TIP3    H212591   0.690   3.332   4.752 -1.3602 -0.4825  0.0181
 4220TIP3   OH212592   8.457   5.462   5.927 -0.2457 -0.0573 -0.3545
 4220TIP3    H112593   8.406   5.476   6.007 -0.2152  0.3675 -0.4084
 4220TIP3    H212594   8.440   5.541   5.874 -0.1643 -0.2766 -0.7086
 4221TIP3   OH212595   1.827   4.935   2.369 -0.2343  0.0728 -0.5864
 4221TIP3    H112596   1.768   4.903   2.438 -0.8211 -1.0068 -1.5686
 4221TIP3    H212597   1.821   5.030   2.375 -0.3011 -0.0089  0.8333
 4222TIP3   OH212598   6.217   4.215   1.067  0.3163 -0.1092  0.2768
 4222TIP3    H112599   6.132   4.257   1.080 -0.6659 -2.1820  0.6753
 4222TIP3    H212600   6.277   4.267   1.120 -1.2981 -0.5348  2.6390
 4223TIP3   OH212601   1.317   6.859   4.699  0.0839 -0.3162  0.0076
 4223TIP3    H112602   1.326   6.776   4.652  1.3206 -0.1409 -0.0801
 4223TIP3    H212603   1.274   6.917   4.636  0.6568 -0.4301 -0.4935
 4224TIP3   OH212604   0.985   4.624   4.321 -0.0033 -0.4571  0.0775
 4224TIP3    H112605   0.999   4.612   4.415  1.4524 -0.0479 -0.0723
 4224TIP3    H212606   0.950   4.713   4.312  1.0229 -0.0469  0.1294
 4225TIP3   OH212607   5.978   6.235   3.564  0.3876  0.0626 -0.0504
 4225TIP3    H112608   6.010   6.276   3.484 -0.3233  1.4168  0.3494
 4225TIP3    H212609   6.037   6.266   3.633  0.0573  0.1439  0.1982
 4226TIP3   OH212610   8.308   4.966   4.439  0.1715 -0.3982 -0.0005
 4226TIP3    H112611   8.233   4.949   4.496 -1.5060  0.9654 -1.7022
 4226TIP3    H212612   8.300   4.899   4.370  0.1436  0.1248 -0.5105
 4227TIP3   OH212613   0.939   5.074   2.960  0.6523  0.0255  0.0048
 4227TIP3    H112614   0.911   5.099   2.871  0.8495  2.6581  0.6389
 4227TIP3    H212615   1.035   5.071   2.954  0.6322 -0.6241 -0.0579
 4228TIP3   OH212616   1.099   5.661   3.084 -0.1914  0.0759 -0.3805
 4228TIP3    H112617   1.141   5.614   3.157 -1.4479 -1.5049 -0.6380
 4228TIP3    H212618   1.169   5.675   3.021  0.5483 -0.0667  0.4013
 4229TIP3   OH212619   2.433   0.733   3.909  0.4215  0.0236 -0.1543
 4229TIP3    H112620   2.504   0.680   3.944 -2.2901 -2.1328  2.2556
 4229TIP3    H212621   2.471   0.821   3.901  3.4531 -1.1548  0.6315
 4230TIP3   OH212622   7.511   5.971   2.715  0.2491  0.1900  0.2540
 4230TIP3    H112623   7.507   6.062   2.688  2.8327  0.4325  0.6093
 4230TIP3    H212624   7.488   5.921   2.636 -0.6659  1.1167 -0.0723
 4231TIP3   OH212625   7.846   5.609   3.512 -0.3833  0.4888 -0.4941
 4231TIP3    H112626   7.816   5.697   3.488 -0.4765  0.6388  0.1537
 4231TIP3    H212627   7.835   5.605   3.607  0.5245  0.1232 -0.3939
 4232TIP3   OH212628   0.934   5.335   1.907  0.9641 -0.5749  0.0679
 4232TIP3    H112629   0.966   5.408   1.961 -1.6636  1.4818 -1.0441
 4232TIP3    H212630   0.856   5.304   1.953  0.5672 -0.9395 -0.8430
 4233TIP3   OH212631   0.367   2.717   3.234  0.3547  0.5147 -0.1001
 4233TIP3    H112632   0.459   2.690   3.227  0.6154  1.6310 -1.1117
 4233TIP3    H212633   0.321   2.661   3.171 -0.0850 -1.8304  2.2324
 4234TIP3   OH212634   8.437   4.991   5.276  0.1953 -0.2643  0.1037
 4234TIP3    H112635   8.408   5.037   5.197 -0.0264 -1.3616 -0.4639
 4234TIP3    H212636   8.488   4.918   5.243  0.9592 -0.1488  1.0196
 4235TIP3   OH212637   8.002   6.949   2.857  0.0213 -0.0654 -0.4687
 4235TIP3    H112638   8.034   7.019   2.800  0.0612  0.4949  0.2388
 4235TIP3    H212639   7.989   6.874   2.798  1.7020 -0.0112 -0.9458
 4236TIP3   OH212640   2.205   0.598   3.970  0.5292 -0.4111  0.0390
 4236TIP3    H112641   2.253   0.656   3.912 -1.4715 -0.2555 -1.5051
 4236TIP3    H212642   2.178   0.654   4.043  0.8644 -0.0183 -0.1381
 4237TIP3   OH212643   1.020   6.251   3.712  0.0251  0.0258 -0.8212
 4237TIP3    H112644   1.002   6.176   3.768 -2.3377 -0.2624 -1.9145
 4237TIP3    H212645   1.068   6.312   3.768 -0.2921 -1.2062  0.8224
 4238TIP3   OH212646   0.283   6.939   3.177  0.1459  0.2591 -0.2641
 4238TIP3    H112647   0.299   6.857   3.130  1.3538  0.9630 -1.1245
 4238TIP3    H212648   0.277   7.005   3.108 -1.9580  0.7366  0.3569
 4239TIP3   OH212649   1.572   3.629   1.126  0.4227 -0.3593 -0.3833
 4239TIP3    H112650   1.588   3.659   1.216 -1.2090  0.4380 -0.3311
 4239TIP3    H212651   1.514   3.554   1.136  0.3613 -0.3594 -0.7592
 4240TIP3   OH212652   7.488   6.818   4.425 -0.1117 -0.0190  0.1039
 4240TIP3    H112653   7.439   6.801   4.506 -0.1170 -0.1022  0.0829
 4240TIP3    H212654   7.485   6.736   4.377 -3.3385  1.0613 -1.7138
 4241TIP3   OH212655   8.148   5.301   1.227 -0.0882 -0.9699 -0.4242
 4241TIP3    H112656   8.234   5.340   1.208 -0.8978  0.7785 -0.5867
 4241TIP3    H212657   8.085   5.362   1.188 -1.4901 -1.2045  1.4219
 4242TIP3   OH212658   1.284   3.562   1.022 -0.3018  0.2487  0.5618
 4242TIP3    H112659   1.354   3.621   0.995 -2.7872  2.7051 -0.8174
 4242TIP3    H212660   1.212   3.581   0.961 -1.9130 -2.7381  1.4206
 4243TIP3   OH212661   0.600   6.942   3.309 -1.1237 -0.0028  0.8080
 4243TIP3    H112662   0.571   6.918   3.221 -0.0207 -0.6170  0.6025
 4243TIP3    H212663   0.606   7.038   3.306 -0.6263 -0.0467  0.0625
 4244TIP3   OH212664   1.134   3.857   4.242 -0.3559 -0.1429 -0.3267
 4244TIP3    H112665   1.185   3.932   4.272  0.0052 -0.1819 -0.8329
 4244TIP3    H212666   1.099   3.883   4.158 -1.5191  0.0323  0.2016
 4245TIP3   OH212667   0.444   7.284   5.249  0.2784  0.3079 -0.4776
 4245TIP3    H112668   0.390   7.311   5.323  1.2661  0.3180  0.2619
 4245TIP3    H212669   0.534   7.285   5.284  0.5400 -1.8698 -1.0330
 4246TIP3   OH212670   0.839   4.718   2.107  0.0620 -0.3897  0.1651
 4246TIP3    H112671   0.789   4.636   2.102 -0.4574 -0.0100 -0.8204
 4246TIP3    H212672   0.929   4.691   2.090 -0.6341 -0.2067 -4.2383
 4247TIP3   OH212673   1.163   6.621   0.634 -0.2436 -0.3281 -0.3356
 4247TIP3    H112674   1.134   6.650   0.547 -1.0922 -1.5457 -0.4807
 4247TIP3    H212675   1.259   6.619   0.628 -0.3056 -0.6487 -1.3312
 4248TIP3   OH212676   7.777   3.428   3.678 -0.2642  0.0547  0.1770
 4248TIP3    H112677   7.736   3.477   3.606 -2.0997  0.3317  1.3927
 4248TIP3    H212678   7.774   3.337   3.649  0.0804  0.2858 -0.6063
 4249TIP3   OH212679   7.269   4.137   5.135 -0.1406 -0.1371  0.3074
 4249TIP3    H112680   7.339   4.104   5.078  0.3691  1.3340  0.0560
 4249TIP3    H212681   7.222   4.200   5.081 -0.8093 -0.1092  0.9223
 4250TIP3   OH212682   7.714   3.416   2.795 -0.0749 -0.4648  0.0987
 4250TIP3    H112683   7.654   3.487   2.773  3.8945  2.7897 -0.8353
 4250TIP3    H212684   7.722   3.420   2.891 -1.5424 -1.1435  0.2619
 4251TIP3   OH212685   0.703   5.756   2.947 -0.0371  0.0390 -0.1768
 4251TIP3    H112686   0.687   5.774   2.854 -0.0699  0.2119 -0.1385
 4251TIP3    H212687   0.751   5.674   2.948  1.5884  0.9766 -0.4401
 4252TIP3   OH212688   8.420   4.341   3.025  0.1275  0.4041 -0.4755
 4252TIP3    H112689   8.490   4.364   2.965  0.0175  0.7670 -0.4657
 4252TIP3    H212690   8.340   4.359   2.976 -0.0238  3.9241  0.9364
 4253TIP3   OH212691   0.563   5.944   3.089  0.1602  0.7544  0.2929
 4253TIP3    H112692   0.575   6.014   3.025  0.9512 -0.2657 -0.7159
 4253TIP3    H212693   0.590   5.865   3.042 -2.7166 -0.5190  0.7230
 4254TIP3   OH212694   1.870   2.967   2.895 -0.3272  0.1542 -0.6897
 4254TIP3    H112695   1.882   2.876   2.869 -1.0787  0.1332 -0.9690
 4254TIP3    H212696   1.907   2.971   2.984 -1.9319 -0.8666  0.0595
 4255TIP3   OH212697   8.482   6.159   1.935  0.4011  0.2155 -0.0184
 4255TIP3    H112698   8.494   6.210   2.015 -0.3012 -0.5827  0.5919
 4255TIP3    H212699   8.404   6.196   1.894 -1.2352 -1.6168  1.3941
 4256TIP3   OH212700   0.663   6.677   2.847  0.3758 -0.0620  0.0587
 4256TIP3    H112701   0.600   6.643   2.910  1.3001 -2.1403 -0.0997
 4256TIP3    H212702   0.639   6.636   2.764  2.3191 -1.4181  0.1324
 4257TIP3   OH212703   0.900   4.397   2.726 -0.6266  0.6055  0.2408
 4257TIP3    H112704   0.943   4.390   2.811 -0.6007 -0.2086  0.1569
 4257TIP3    H212705   0.806   4.401   2.747 -0.6952 -0.8756  0.2364
 4258TIP3   OH212706   8.343   4.098   2.800 -0.0079 -0.0800 -0.2905
 4258TIP3    H112707   8.322   4.020   2.851 -1.5400  0.3083 -0.3210
 4258TIP3    H212708   8.303   4.170   2.848  0.9727  0.6419 -0.5324
 4259TIP3   OH212709   0.619   6.789   4.264  0.3112 -0.5411 -0.3133
 4259TIP3    H112710   0.714   6.774   4.261  0.1678 -1.7079  0.5699
 4259TIP3    H212711   0.609   6.859   4.329  0.7566  1.5128 -2.3715
 4260TIP3   OH212712   0.570   5.318   3.466 -0.0365 -0.1772 -0.1096
 4260TIP3    H112713   0.615   5.239   3.496  1.2048  1.2915  2.0520
 4260TIP3    H212714   0.478   5.302   3.487  0.3652 -0.6136  1.4030
 4261TIP3   OH212715   1.232   4.932   4.183 -0.3806  0.0992 -0.9095
 4261TIP3    H112716   1.299   4.890   4.237 -1.0759 -0.1833 -0.2473
 4261TIP3    H212717   1.280   4.972   4.111  0.9647  3.3749  1.6953
 4262TIP3   OH212718   0.581   3.326   4.031  0.0058 -0.1854  0.3989
 4262TIP3    H112719   0.629   3.402   3.997 -3.0293  1.1647 -1.0597
 4262TIP3    H212720   0.574   3.267   3.956 -0.9143 -0.2062  0.4990
 4263TIP3   OH212721   7.855   2.937   3.870  0.4692 -0.2821  0.0395
 4263TIP3    H112722   7.875   2.859   3.818  1.9861 -0.5275  0.9775
 4263TIP3    H212723   7.804   2.904   3.945 -1.8079  0.0842 -1.2823
 4264TIP3   OH212724   7.166   5.942   2.587 -0.2033 -0.8194  0.2121
 4264TIP3    H112725   7.230   5.957   2.517 -0.9606 -0.4039 -0.3979
 4264TIP3    H212726   7.189   6.006   2.654 -1.0996  0.5695 -0.7828
 4265TIP3   OH212727   7.646   3.019   5.647 -0.4535 -0.8660  0.0434
 4265TIP3    H112728   7.590   3.034   5.722 -0.4732 -0.3068 -0.0862
 4265TIP3    H212729   7.710   2.955   5.678 -0.6043 -0.8163  0.4616
 4266TIP3   OH212730   2.435   6.684   2.752 -0.0257 -0.0397  0.2783
 4266TIP3    H112731   2.348   6.696   2.792 -0.9385 -0.4968 -1.5162
 4266TIP3    H212732   2.451   6.590   2.759  0.1417 -0.0126  0.2430
 4267TIP3   OH212733   7.621   2.625   2.969  0.1655 -0.0063 -0.4545
 4267TIP3    H112734   7.540   2.666   2.999 -1.1337 -1.2876 -2.0800
 4267TIP3    H212735   7.625   2.645   2.875  0.1438 -2.4425 -1.0129
 4268TIP3   OH212736   8.435   3.511   2.496  0.1653 -0.1191  0.7666
 4268TIP3    H112737   8.361   3.501   2.556 -0.7402  0.4040 -0.2511
 4268TIP3    H212738   8.439   3.428   2.449 -0.0578  0.0117  0.5133
 4269TIP3   OH212739   7.223   5.066   3.559  0.1972 -0.1204  0.1896
 4269TIP3    H112740   7.141   5.114   3.575  0.7790  1.8592 -2.3773
 4269TIP3    H212741   7.278   5.087   3.635  0.1294  2.6709 -0.4836
 4270TIP3   OH212742   0.557   5.067   4.937 -0.0201 -0.0426  0.7779
 4270TIP3    H112743   0.495   5.112   4.879  0.6265  2.0560  1.6774
 4270TIP3    H212744   0.643   5.099   4.909  0.3872  0.0000  2.0608
 4271TIP3   OH212745   1.699   2.966   4.950  0.3881 -0.2861  0.4228
 4271TIP3    H112746   1.758   2.965   5.025  2.4300 -0.0119 -1.1304
 4271TIP3    H212747   1.683   3.059   4.933 -0.8423 -0.3645  1.0813
 4272TIP3   OH212748   8.392   1.742   4.072 -0.0192  0.2807 -0.6443
 4272TIP3    H112749   8.344   1.699   4.143 -0.1976 -1.7006 -1.9483
 4272TIP3    H212750   8.324   1.785   4.020 -0.2073 -0.8790 -1.3716
 4273TIP3   OH212751   1.135   7.038   0.483 -0.1443 -0.0216  0.2193
 4273TIP3    H112752   1.089   6.979   0.424  1.6537 -1.2953  0.0541
 4273TIP3    H212753   1.087   7.032   0.565 -0.1211 -1.5414  0.1345
 4274TIP3   OH212754   2.261   3.741   1.646  0.3244  0.6730  0.3126
 4274TIP3    H112755   2.199   3.720   1.716  1.9577  0.1484  1.6333
 4274TIP3    H212756   2.218   3.811   1.596 -1.2719  0.3948  1.2665
 4275TIP3   OH212757   8.206   6.659   4.015 -0.0180  0.0594 -0.0340
 4275TIP3    H112758   8.188   6.583   4.071 -0.1019 -0.4576 -0.7577
 4275TIP3    H212759   8.261   6.716   4.069 -2.6207  0.9938  1.6957
 4276TIP3   OH212760   2.567   3.463   2.400  0.0841 -0.1934  0.2586
 4276TIP3    H112761   2.613   3.494   2.478  1.4743 -0.6105 -0.3678
 4276TIP3    H212762   2.511   3.392   2.431  0.1437  0.0722  0.9830
 4277TIP3   OH212763   0.578   4.493   0.820 -0.1606 -0.0274 -0.1180
 4277TIP3    H112764   0.559   4.444   0.740  0.1698  1.2606 -1.0006
 4277TIP3    H212765   0.637   4.562   0.792  0.0089  0.3916  1.2614
 4278TIP3   OH212766   1.325   4.165   2.403  0.2774  0.2865 -0.2353
 4278TIP3    H112767   1.299   4.107   2.475  0.4440  1.4798  0.8079
 4278TIP3    H212768   1.272   4.243   2.416  0.4368  0.5735 -1.3248
 4279TIP3   OH212769   0.256   3.806   3.190  0.0728  0.0351  0.2365
 4279TIP3    H112770   0.254   3.902   3.197  1.0748  0.0148  0.9165
 4279TIP3    H212771   0.312   3.778   3.263 -1.4470 -1.1645  0.9866
 4280TIP3   OH212772   0.727   4.689   0.388 -0.1981 -0.5142  0.5640
 4280TIP3    H112773   0.732   4.764   0.448 -0.6363 -0.0350  0.0088
 4280TIP3    H212774   0.816   4.656   0.384  0.7097  2.0331 -1.7743
 4281TIP3   OH212775   0.843   4.507   1.267 -0.0564 -0.3130 -0.2995
 4281TIP3    H112776   0.802   4.543   1.189  0.7368  0.4039 -0.3980
 4281TIP3    H212777   0.799   4.423   1.281 -1.1918  0.2079 -0.6777
 4282TIP3   OH212778   0.527   5.742   4.573 -0.8576 -0.5335  0.0241
 4282TIP3    H112779   0.575   5.786   4.644 -1.2745  0.2100 -0.1467
 4282TIP3    H212780   0.496   5.661   4.612 -2.0477  0.3953  1.0379
 4283TIP3   OH212781   7.211   5.823   5.367  0.0757 -0.1917  0.1079
 4283TIP3    H112782   7.293   5.785   5.335 -1.1426 -0.9389 -2.2644
 4283TIP3    H212783   7.181   5.877   5.294 -0.8763  1.1462  1.4739
 4284TIP3   OH212784   1.434   5.521   3.538 -0.0379 -0.2773  0.2560
 4284TIP3    H112785   1.397   5.458   3.478 -1.6591 -0.0294  0.9800
 4284TIP3    H212786   1.378   5.598   3.530  1.7025  0.9763 -0.3664
 4285TIP3   OH212787   0.331   4.835   2.015  0.2991 -0.3795 -0.4076
 4285TIP3    H112788   0.400   4.895   1.987  0.2292 -0.4472 -0.7219
 4285TIP3    H212789   0.283   4.814   1.935  0.5003 -1.0820 -0.3507
 4286TIP3   OH212790   0.250   4.555   2.077 -0.5813 -0.4721  0.1388
 4286TIP3    H112791   0.263   4.645   2.046 -2.9241 -1.0592 -2.7779
 4286TIP3    H212792   0.314   4.504   2.027 -0.6026 -0.6905  0.3363
 4287TIP3   OH212793   0.085   4.503   2.820  0.1648  0.1376  0.3125
 4287TIP3    H112794   0.051   4.486   2.733  0.5876  0.3768  0.0986
 4287TIP3    H212795   0.179   4.484   2.813  0.3529  0.9954  0.4890
 4288TIP3   OH212796   0.057   5.513   4.129  0.2933  0.4492  0.2559
 4288TIP3    H112797   0.076   5.564   4.208  1.3097  1.4063 -0.5904
 4288TIP3    H212798  -0.003   5.567   4.078  0.3397  0.2301 -0.0378
 4289TIP3   OH212799   1.761   4.577   4.949 -0.0401 -0.1157  0.1601
 4289TIP3    H112800   1.839   4.632   4.950  0.6316 -1.0638  1.3787
 4289TIP3    H212801   1.716   4.600   4.868  0.8293  1.3792  0.0908
 4290TIP3   OH212802   7.145   2.428   4.730 -0.1005 -0.3016  0.1118
 4290TIP3    H112803   7.159   2.519   4.756  2.7264 -0.4324 -0.7333
 4290TIP3    H212804   7.091   2.434   4.651  0.2548  0.6801 -0.0754
 4291TIP3   OH212805   7.649   1.780   2.110  0.2775 -0.2735 -0.0492
 4291TIP3    H112806   7.594   1.798   2.187 -0.3447 -1.0873 -0.2974
 4291TIP3    H212807   7.682   1.866   2.084 -1.5743  0.3436 -0.4163
 4292TIP3   OH212808   8.340   4.892   3.937  0.2840 -0.3080 -0.7729
 4292TIP3    H112809   8.253   4.871   3.972  1.0487 -2.8212 -0.2702
 4292TIP3    H212810   8.357   4.981   3.969 -1.8075 -0.0356 -0.3106
 4293TIP3   OH212811   7.215   4.292   4.437 -0.2608  0.3744  0.3437
 4293TIP3    H112812   7.293   4.330   4.397  0.3853 -0.2569  0.9808
 4293TIP3    H212813   7.240   4.202   4.457 -1.4966 -0.1570 -0.4109
 4294TIP3   OH212814   1.375   6.874   2.263  0.2345 -0.3549  0.0362
 4294TIP3    H112815   1.384   6.968   2.279 -0.2543 -0.5751  1.7173
 4294TIP3    H212816   1.304   6.867   2.199 -0.2879  0.3666  0.5373
 4295TIP3   OH212817   6.825   3.672   4.199  0.1419 -0.7610 -0.0483
 4295TIP3    H112818   6.779   3.615   4.137  0.4822 -0.8930 -0.1850
 4295TIP3    H212819   6.757   3.708   4.255 -0.4858  1.1254 -1.9130
 4296TIP3   OH212820   1.191   6.150   4.797  0.3477  0.0733 -0.3814
 4296TIP3    H112821   1.238   6.197   4.728 -0.3047  0.4198 -0.5884
 4296TIP3    H212822   1.260   6.101   4.843  0.7150 -0.6626 -1.6744
 4297TIP3   OH212823   1.248   7.442   0.548  0.3732  0.2752  0.3404
 4297TIP3    H112824   1.277   7.532   0.532  0.9691 -0.2171 -1.3983
 4297TIP3    H212825   1.312   7.408   0.611  0.4132  0.9054  0.6501
 4298TIP3   OH212826   1.330   2.871   3.751 -0.2529 -0.0442 -0.2145
 4298TIP3    H112827   1.254   2.821   3.723 -1.8788  2.7305 -0.9645
 4298TIP3    H212828   1.400   2.843   3.692 -1.5163 -0.3590 -1.5929
 4299TIP3   OH212829   1.044   4.390   4.177 -0.1466 -0.1580  0.0226
 4299TIP3    H112830   1.132   4.381   4.213 -0.1478 -1.2016 -0.2031
 4299TIP3    H212831   1.011   4.472   4.213  0.9451  0.2708  0.0543
 4300TIP3   OH212832   2.122   4.690   2.677 -0.1647 -0.3804  0.3709
 4300TIP3    H112833   2.212   4.683   2.710  0.0633  0.2957 -0.0873
 4300TIP3    H212834   2.069   4.705   2.755  0.3272  0.8485  0.4880
 4301TIP3   OH212835   0.024   2.069   4.222  0.0038  0.2216  0.3527
 4301TIP3    H112836  -0.068   2.095   4.215 -0.4415 -0.5537  2.7925
 4301TIP3    H212837   0.071   2.131   4.166 -2.1883 -0.6778 -2.6594
 4302TIP3   OH212838   0.225   5.008   4.976  0.2259  0.2382 -0.4886
 4302TIP3    H112839   0.143   4.960   4.986  0.2212  0.2072 -0.6757
 4302TIP3    H212840   0.208   5.094   5.015  0.0413  0.3031 -0.7182
 4303TIP3   OH212841   7.969   5.022   2.888  0.0365  0.1569 -0.4716
 4303TIP3    H112842   7.999   5.089   2.826  1.4263 -0.1612 -0.1461
 4303TIP3    H212843   7.873   5.029   2.886  0.0569  0.0926 -2.7293
 4304TIP3   OH212844   1.648   6.836   3.196  0.2323  0.3321  0.4898
 4304TIP3    H112845   1.598   6.910   3.162  2.5830  1.2138 -1.1185
 4304TIP3    H212846   1.651   6.774   3.124  0.1646 -0.3782  1.0911
 4305TIP3   OH212847   8.243   4.495   2.577 -0.0943  0.1746  0.5141
 4305TIP3    H112848   8.336   4.476   2.589 -0.4214 -1.0819  1.1664
 4305TIP3    H212849   8.241   4.587   2.549  1.3509  0.1398  0.2220
 4306TIP3   OH212850   0.495   4.537   3.903  0.3017 -0.3862  0.6776
 4306TIP3    H112851   0.411   4.504   3.873  1.0430 -1.9477  0.2872
 4306TIP3    H212852   0.482   4.555   3.996 -0.9392  1.0107  0.2604
 4307TIP3   OH212853   0.561   6.012   2.344  0.0921  0.4463 -0.1083
 4307TIP3    H112854   0.632   6.044   2.289  0.3902 -1.4754 -0.8793
 4307TIP3    H212855   0.483   6.017   2.289 -0.3247  2.2034  0.6146
 4308TIP3   OH212856   1.346   6.519   3.281  0.3193  0.4579 -0.9694
 4308TIP3    H112857   1.370   6.611   3.286 -0.5290  0.7434 -1.9765
 4308TIP3    H212858   1.256   6.516   3.312  0.2919 -0.0069 -1.0890
 4309TIP3   OH212859   7.995   7.434   2.111  0.3778  0.0607  0.2970
 4309TIP3    H112860   8.053   7.510   2.105 -1.6363  1.6182 -0.2807
 4309TIP3    H212861   7.964   7.435   2.202  1.1428 -0.6862  0.5687
 4310TIP3   OH212862   1.114   6.718   2.379 -0.6786  0.6058 -0.3333
 4310TIP3    H112863   1.127   6.629   2.412 -1.8506  0.4729 -0.2200
 4310TIP3    H212864   1.100   6.706   2.285 -0.7424  0.6742 -0.3328
 4311TIP3   OH212865   1.990   6.161   0.088  0.1416 -0.1126 -0.1797
 4311TIP3    H112866   1.937   6.183   0.165  1.5068  0.6278  0.5670
 4311TIP3    H212867   2.054   6.098   0.120  0.2847 -0.3229 -0.8725
 4312TIP3   OH212868   0.769   5.092   0.732 -0.5479  0.6811 -0.1167
 4312TIP3    H112869   0.813   5.137   0.804 -0.5655  0.4946  0.0108
 4312TIP3    H212870   0.686   5.063   0.769 -0.0151 -0.5121  0.1435
 4313TIP3   OH212871   8.125   4.092   3.878  0.0279 -0.5485  0.1244
 4313TIP3    H112872   8.081   4.060   3.799  0.6555 -2.6551  0.5781
 4313TIP3    H212873   8.215   4.061   3.868  1.5151  3.7734 -0.8428
 4314TIP3   OH212874   2.445   5.527   1.916 -0.2660  0.2123 -0.3699
 4314TIP3    H112875   2.367   5.501   1.965 -1.8928  1.6414 -2.0726
 4314TIP3    H212876   2.446   5.469   1.840  0.6190 -0.1504 -0.0732
 4315TIP3   OH212877   1.193   5.245   0.158 -0.8476  0.4343 -0.2637
 4315TIP3    H112878   1.198   5.338   0.139 -0.5954  0.6610  0.8758
 4315TIP3    H212879   1.182   5.203   0.073  1.1730  1.3487 -1.0100
 4316TIP3   OH212880   2.227   4.174   3.016 -0.2799 -0.1596 -0.0425
 4316TIP3    H112881   2.133   4.171   2.998 -0.4119 -2.1092  0.9433
 4316TIP3    H212882   2.235   4.230   3.093 -0.4307  1.5487 -1.2225
 4317TIP3   OH212883   2.147   6.403   3.784  0.2867 -0.4862  0.0782
 4317TIP3    H112884   2.111   6.417   3.697  1.4964  0.1056 -0.3374
 4317TIP3    H212885   2.084   6.445   3.843 -0.8845 -1.4812 -0.4388
 4318TIP3   OH212886   1.272   3.754   3.181  0.0809  0.4827  0.3842
 4318TIP3    H112887   1.183   3.774   3.151  0.5195  0.7027 -0.8251
 4318TIP3    H212888   1.328   3.792   3.113  1.0632 -0.5203  0.6266
 4319TIP3   OH212889   4.315   6.079   0.279 -0.0435 -0.1136 -0.2745
 4319TIP3    H112890   4.303   6.171   0.302 -3.6279 -0.7359  0.6522
 4319TIP3    H212891   4.306   6.031   0.361  3.6349 -1.2477 -0.4222
 4320TIP3   OH212892   2.356   5.440   3.723  0.5019 -0.7190 -0.0741
 4320TIP3    H112893   2.400   5.466   3.643  1.0005 -1.2624  0.0191
 4320TIP3    H212894   2.427   5.417   3.783  0.1103 -1.3900  0.1439
 4321TIP3   OH212895   8.523   5.916   4.015 -0.2104 -0.3594  0.4714
 4321TIP3    H112896   8.475   5.834   4.005  1.3126 -1.1060 -0.9788
 4321TIP3    H212897   8.492   5.971   3.943 -0.7842  0.1226  1.0810
 4322TIP3   OH212898   2.861   6.704   1.861  0.3071  0.2257 -0.6488
 4322TIP3    H112899   2.776   6.697   1.905  0.0799  0.9915 -0.9546
 4322TIP3    H212900   2.854   6.645   1.786  0.9996 -1.7509  0.7870
 4323TIP3   OH212901   1.585   5.782   3.295 -0.0676  0.0038 -0.5404
 4323TIP3    H112902   1.572   5.812   3.385 -2.8480  1.4038 -1.3610
 4323TIP3    H212903   1.668   5.821   3.269  0.0313  0.8102  0.9214
 4324TIP3   OH212904   0.488   7.098   3.595 -0.2504  0.3723 -0.4409
 4324TIP3    H112905   0.505   7.009   3.627 -0.3188  1.2972  2.2612
 4324TIP3    H212906   0.572   7.129   3.563  0.1477 -0.0532  0.1880
 4325TIP3   OH212907   2.857   6.861   2.702 -0.3587  0.2652 -0.3767
 4325TIP3    H112908   2.842   6.843   2.794 -0.2749  1.2463 -0.1636
 4325TIP3    H212909   2.834   6.779   2.657 -1.7697  0.2312  0.3737
 4326TIP3   OH212910   8.396   7.396   4.022 -0.2869 -0.1866  0.3102
 4326TIP3    H112911   8.432   7.361   4.104 -0.7574 -0.1851  0.5228
 4326TIP3    H212912   8.465   7.381   3.957  0.1596 -0.0202  0.7457
 4327TIP3   OH212913   1.389   4.124   3.129 -0.1264  0.1247  0.1648
 4327TIP3    H112914   1.424   4.183   3.196  0.3240  0.1215 -0.0649
 4327TIP3    H212915   1.355   4.049   3.178  0.1519  0.1472  0.3960
 4328TIP3   OH212916   8.184   4.101   4.191 -0.3792 -0.3375  0.3389
 4328TIP3    H112917   8.152   4.109   4.101  0.2303  0.1431  0.1616
 4328TIP3    H212918   8.132   4.030   4.228 -1.4582  0.2584 -0.0177
 4329TIP3   OH212919   0.320   6.389   1.083 -0.3402  0.0950  0.4065
 4329TIP3    H112920   0.300   6.303   1.120  2.2829 -1.1593 -0.9172
 4329TIP3    H212921   0.405   6.412   1.122 -0.0455  1.1211 -0.8132
 4330TIP3   OH212922   6.370   6.253   3.934  0.1718 -0.0402  0.4643
 4330TIP3    H112923   6.440   6.269   3.871  0.4007  0.6375  0.8761
 4330TIP3    H212924   6.409   6.276   4.019 -0.7083  0.8713  0.6362
 4331TIP3   OH212925   2.613   7.397   3.651  0.2809  0.0512  0.0222
 4331TIP3    H112926   2.577   7.478   3.615 -1.1575 -1.2704 -1.6421
 4331TIP3    H212927   2.617   7.412   3.745  0.6722  2.2845 -0.3248
 4332TIP3   OH212928   1.980   2.836   3.130  0.7378 -0.0799  1.0080
 4332TIP3    H112929   2.018   2.898   3.192  2.2273 -1.7951  1.8499
 4332TIP3    H212930   2.055   2.794   3.089 -0.2369  0.0568 -1.0050
 4333TIP3   OH212931   2.389   6.494   4.211  0.4515 -0.1882  0.0439
 4333TIP3    H112932   2.351   6.432   4.273  1.0854 -0.5898  0.0435
 4333TIP3    H212933   2.474   6.456   4.188  0.8195  0.6452 -0.0165
 4334TIP3   OH212934   2.916   7.374   2.258  0.2207  0.0806  0.0801
 4334TIP3    H112935   2.938   7.324   2.337 -1.0725 -0.8323 -0.1178
 4334TIP3    H212936   2.979   7.343   2.193  0.7331  0.2008  0.5089
 4335TIP3   OH212937   2.309   4.593   1.182  0.1910  0.3318 -0.3573
 4335TIP3    H112938   2.316   4.684   1.153 -0.5272  0.5939  0.2751
 4335TIP3    H212939   2.215   4.577   1.187  0.3157 -0.7168 -1.2778
 4336TIP3   OH212940   1.680   5.961   4.609  0.2038 -0.4341  1.1524
 4336TIP3    H112941   1.618   5.930   4.543 -0.2343  0.0185  1.3566
 4336TIP3    H212942   1.627   6.011   4.671  1.0692  1.6848  0.2342
 4337TIP3   OH212943   0.215   6.456   0.356 -0.1043  0.2409 -0.4013
 4337TIP3    H112944   0.176   6.411   0.432  0.0674 -0.0408 -0.4785
 4337TIP3    H212945   0.180   6.545   0.361 -0.6546  0.0290 -0.3942
 4338TIP3   OH212946   1.817   6.392   3.751  0.3835 -0.7736  0.7281
 4338TIP3    H112947   1.796   6.317   3.807  0.6569 -0.4910  1.2092
 4338TIP3    H212948   1.829   6.465   3.811  1.0450 -0.5497  0.3297
 4339TIP3   OH212949   2.675   4.408   3.306  0.0490  0.2989  0.1457
 4339TIP3    H112950   2.592   4.432   3.348 -0.6727 -1.0491 -0.4493
 4339TIP3    H212951   2.734   4.391   3.379 -0.8683 -0.9029  0.6455
 4340TIP3   OH212952   1.028   5.037   2.443 -0.1004  0.2151 -0.2961
 4340TIP3    H112953   0.933   5.038   2.429 -0.0235 -1.1576 -0.9728
 4340TIP3    H212954   1.048   5.125   2.475 -1.6579  0.3929  0.2531
 4341TIP3   OH212955   3.140   6.053   4.693 -0.0696  0.2772 -0.4676
 4341TIP3    H112956   3.193   6.126   4.724 -0.6593  0.6112 -0.2398
 4341TIP3    H212957   3.064   6.050   4.752  0.1695 -0.8039 -0.1962
 4342TIP3   OH212958   3.419   7.292   2.406 -0.0304 -0.3738 -0.6658
 4342TIP3    H112959   3.355   7.223   2.386 -1.4395  0.4534  0.8157
 4342TIP3    H212960   3.397   7.319   2.495  2.0210  0.3724 -0.3650
 4343TIP3   OH212961   8.129   7.791   3.508  0.5888  0.8755 -0.0507
 4343TIP3    H112962   8.222   7.812   3.504  0.7945  0.3067  1.3235
 4343TIP3    H212963   8.125   7.696   3.496  0.4118  0.5558  2.2766
 4344TIP3   OH212964   1.075   5.148   2.721 -0.2098 -0.0708  0.2907
 4344TIP3    H112965   1.133   5.091   2.773 -2.3381 -0.4181  2.3676
 4344TIP3    H212966   1.015   5.088   2.677  0.6203  0.3202 -1.3904
 4345TIP3   OH212967   2.853   5.854   2.779  0.3066 -0.0002 -0.2161
 4345TIP3    H112968   2.777   5.893   2.737  0.5609  1.3492  0.5395
 4345TIP3    H212969   2.847   5.761   2.759 -1.4406  0.1264 -0.3210
 4346TIP3   OH212970   0.991   5.003   4.597 -0.7402 -0.4342 -0.3530
 4346TIP3    H112971   0.968   4.944   4.525  0.1594 -1.1749 -0.0455
 4346TIP3    H212972   1.014   5.085   4.553  1.7413 -1.4710 -1.1032
 4347TIP3   OH212973   2.354   4.731   2.804 -0.4454 -0.4809  0.5763
 4347TIP3    H112974   2.313   4.803   2.852 -0.8001  1.0502 -1.8965
 4347TIP3    H212975   2.437   4.716   2.850 -0.0442  2.0122  0.7654
 4348TIP3   OH212976   1.147   4.295   3.167  0.1890  0.8517 -0.0755
 4348TIP3    H112977   1.117   4.299   3.258  0.5978 -2.0320  0.2184
 4348TIP3    H212978   1.202   4.217   3.163  1.9098  2.1031 -2.3167
 4349TIP3   OH212979   1.864   5.789   3.203  0.1397  0.5849  0.3534
 4349TIP3    H112980   1.862   5.705   3.158 -1.0759  1.2306 -0.8732
 4349TIP3    H212981   1.927   5.778   3.273  0.1855 -1.2657  0.0459
 4350TIP3   OH212982   0.165   5.670   2.953  0.3342  0.1177 -0.7588
 4350TIP3    H112983   0.085   5.722   2.967 -0.3736 -0.8257 -1.2685
 4350TIP3    H212984   0.141   5.582   2.980  1.4288 -0.0236 -0.2483
 4351TIP3   OH212985   1.610   4.682   5.576 -0.0585  0.2929  0.2568
 4351TIP3    H112986   1.700   4.701   5.546 -0.4973  0.5309 -0.9557
 4351TIP3    H212987   1.602   4.730   5.658 -0.1067  2.8961 -1.2099
 4352TIP3   OH212988   0.738   5.809   2.065 -0.3738  0.1429  0.7388
 4352TIP3    H112989   0.806   5.876   2.065  2.4243 -2.5310 -1.5174
 4352TIP3    H212990   0.748   5.763   2.148  2.8267 -2.2694 -0.8786
 4353TIP3   OH212991   3.103   7.578   0.279  0.0211  0.4509 -1.0088
 4353TIP3    H112992   3.107   7.662   0.232  0.9476 -0.6409 -2.9563
 4353TIP3    H212993   3.031   7.588   0.341 -0.7854  2.2021 -2.2006
 4354TIP3   OH212994   1.638   4.901   2.574 -0.0822  0.1947  0.3418
 4354TIP3    H112995   1.615   4.973   2.633  0.3368  0.1386  0.5741
 4354TIP3    H212996   1.596   4.824   2.612 -0.9462  0.4017 -0.1762
 4355TIP3   OH212997   2.050   5.745   3.426  0.2995  0.7046  0.0181
 4355TIP3    H112998   2.100   5.745   3.344 -0.4970  0.5647 -0.4789
 4355TIP3    H212999   2.079   5.666   3.472  3.0524  2.4012  1.3238
 4356TIP3   OH213000   2.433   5.568   1.413  0.3921  0.3336  0.5418
 4356TIP3    H113001   2.397   5.656   1.422 -0.2552  0.1791 -0.4972
 4356TIP3    H213002   2.363   5.518   1.370  0.6230 -0.7696  1.4328
 4357TIP3   OH213003   1.473   5.854   3.923  0.0615  0.0054 -0.1764
 4357TIP3    H113004   1.475   5.941   3.964 -0.3652 -1.0492  2.1394
 4357TIP3    H213005   1.464   5.793   3.996  0.4195 -2.0109 -1.7738
 4358TIP3   OH213006   3.587   0.040   5.457  0.9120  0.2301 -0.3621
 4358TIP3    H113007   3.548  -0.048   5.451 -2.0264  1.3836  0.7730
 4358TIP3    H213008   3.557   0.085   5.378  0.6004  0.8630  0.1086
 4359TIP3   OH213009   5.036   0.320   1.959  0.5832  0.3410 -0.3753
 4359TIP3    H113010   4.985   0.240   1.971  0.8407  0.1429 -0.5853
 4359TIP3    H213011   4.972   0.387   1.937  0.1943  0.5252  1.2627
 4360TIP3   OH213012   2.293   7.239   1.051  0.8292 -0.0057  0.4572
 4360TIP3    H113013   2.323   7.148   1.057  0.0837 -0.4041 -1.5230
 4360TIP3    H213014   2.345   7.285   1.117  2.2835 -1.5840  0.4667
 4361TIP3   OH213015   1.197   6.195   1.377  0.2586 -0.1326 -0.0850
 4361TIP3    H113016   1.237   6.272   1.416  0.1301  0.2187 -0.6435
 4361TIP3    H213017   1.262   6.163   1.314  0.7555 -1.1009  0.8991
 4362TIP3   OH213018   3.307   5.600   3.551  0.1253  0.8733 -0.2313
 4362TIP3    H113019   3.350   5.570   3.631 -0.8255  1.6568  0.5828
 4362TIP3    H213020   3.296   5.521   3.499  1.0718  0.4104  0.2552
 4363TIP3   OH213021   8.484   4.277   3.445 -0.7532 -0.3863  0.1453
 4363TIP3    H113022   8.500   4.363   3.405  2.3979 -0.5441  0.9421
 4363TIP3    H213023   8.410   4.241   3.396 -0.5659  1.7643 -1.8043
 4364TIP3   OH213024   1.045   5.760   3.399 -0.1712 -0.4045  0.3605
 4364TIP3    H113025   1.045   5.853   3.380 -0.4698 -0.3575  0.5860
 4364TIP3    H213026   0.952   5.737   3.405 -0.1013 -0.7347  0.2045
 4365TIP3   OH213027   1.814   5.188   3.285  0.1288  0.5548  0.3564
 4365TIP3    H113028   1.761   5.125   3.333 -0.1253  0.2588 -0.3084
 4365TIP3    H213029   1.898   5.144   3.271 -0.2045  0.1811 -0.5079
 4366TIP3   OH213030   1.390   5.456   3.011  0.1974  0.1992  0.0611
 4366TIP3    H113031   1.327   5.489   2.948  1.2872 -1.5266 -1.9912
 4366TIP3    H213032   1.423   5.535   3.056 -1.7882  1.2866 -0.3261
 4367TIP3   OH213033   2.645   5.469   2.128  0.5913  0.3271  0.2233
 4367TIP3    H113034   2.736   5.445   2.113 -0.0565 -2.8171  0.9603
 4367TIP3    H213035   2.608   5.479   2.040  1.5002  1.0952 -0.0827
 4368TIP3   OH213036   1.302   4.320   2.694 -0.0309 -0.2766  0.2248
 4368TIP3    H113037   1.353   4.261   2.751  0.3091 -0.6388 -0.4501
 4368TIP3    H213038   1.314   4.407   2.732  0.0034 -0.5517  0.8479
 4369TIP3   OH213039   0.501   5.431   2.581  0.1375  0.1022 -0.0321
 4369TIP3    H113040   0.410   5.447   2.554  0.1410 -0.8710 -0.6276
 4369TIP3    H213041   0.507   5.469   2.669 -0.8829  0.0354  0.0684
 4370TIP3   OH213042   0.498   3.869   0.013 -0.0606  0.0683  0.4055
 4370TIP3    H113043   0.418   3.828   0.044 -0.0135  0.4659  1.0704
 4370TIP3    H213044   0.553   3.877   0.091 -0.1854  1.6609  0.3553
 4371TIP3   OH213045   2.709   4.173   3.145  0.0661  0.3670  0.5459
 4371TIP3    H113046   2.727   4.222   3.065  2.2514 -0.0817  0.7286
 4371TIP3    H213047   2.685   4.239   3.209  1.1058  1.0121  0.2746
 4372TIP3   OH213048   2.847   4.807   3.749 -0.0205  0.5034  0.2744
 4372TIP3    H113049   2.762   4.828   3.787  1.0790  2.5492  1.6662
 4372TIP3    H213050   2.827   4.748   3.677 -2.4912 -0.2473  1.5260
 4373TIP3   OH213051   1.773   8.004   2.468 -0.0617 -0.3885 -0.9033
 4373TIP3    H113052   1.757   7.911   2.483 -0.6380 -0.5849 -2.6618
 4373TIP3    H213053   1.847   8.006   2.407  0.1458  0.3080 -0.6356
 4374TIP3   OH213054   6.790   6.814   1.962 -0.5250 -0.1312 -0.2594
 4374TIP3    H113055   6.787   6.899   2.006  2.1891  0.3317 -0.8407
 4374TIP3    H213056   6.813   6.752   2.032 -0.6873 -0.0823 -0.1642
 4375TIP3   OH213057   0.057   4.423   1.436  0.1709 -0.0190  0.0950
 4375TIP3    H113058  -0.006   4.490   1.465 -2.4211 -2.2991 -0.0335
 4375TIP3    H213059   0.094   4.388   1.517  0.8990  0.9649  0.1937
 4376TIP3   OH213060   0.788   2.512   5.887 -0.5416 -0.1655  0.3174
 4376TIP3    H113061   0.769   2.428   5.848 -1.9944 -0.1152  0.8887
 4376TIP3    H213062   0.723   2.572   5.850 -0.0323  0.5266  0.5220
 4377TIP3   OH213063   0.842   3.964   2.546  0.4893  0.2125 -0.0270
 4377TIP3    H113064   0.872   3.989   2.633 -0.0328  1.1494 -0.1091
 4377TIP3    H213065   0.751   3.938   2.558  0.8835 -1.1628 -0.0312
 4378TIP3   OH213066   0.739   6.334   1.580 -0.4425  0.6194  0.1516
 4378TIP3    H113067   0.735   6.398   1.509 -0.2517  0.3598 -0.0930
 4378TIP3    H213068   0.726   6.250   1.538  0.8693  0.3541  0.2563
 4379TIP3   OH213069   1.406   4.113   2.836 -0.1538  0.7362 -0.1294
 4379TIP3    H113070   1.341   4.053   2.800 -0.6887  1.4048 -0.3019
 4379TIP3    H213071   1.382   4.122   2.929  1.3082 -1.0971  0.4542
 4380TIP3   OH213072   7.501   5.368   4.144 -0.2582  0.2390 -0.6104
 4380TIP3    H113073   7.532   5.458   4.136 -2.9311  1.2961  0.2471
 4380TIP3    H213074   7.505   5.350   4.238  0.6569 -0.6908 -0.8249
 4381TIP3   OH213075   4.234   6.618   1.870 -0.3733 -0.9409 -0.5600
 4381TIP3    H113076   4.143   6.646   1.878 -0.4423 -2.1348  3.4678
 4381TIP3    H213077   4.229   6.524   1.851  0.0247 -0.5641 -2.6335
 4382TIP3   OH213078   3.045   4.122   2.872 -0.0538  0.3894 -0.1458
 4382TIP3    H113079   3.096   4.053   2.913  1.2210 -1.0387 -3.8992
 4382TIP3    H213080   2.969   4.077   2.835  0.2859  1.1302 -1.7762
 4383TIP3   OH213081   0.806   7.060   2.562  0.1436 -0.6327 -0.0654
 4383TIP3    H113082   0.761   7.052   2.646  0.2864  1.5488  0.2690
 4383TIP3    H213083   0.899   7.052   2.584  0.2276  0.6471  0.1318
 4384TIP3   OH213084   2.291   6.501   3.056  0.6089  0.6959  0.6176
 4384TIP3    H113085   2.229   6.434   3.085  0.9823 -0.2049 -0.6342
 4384TIP3    H213086   2.299   6.560   3.131 -1.7729  0.8505  0.7932
 4385TIP3   OH213087   1.201   5.147   1.548  1.0222 -0.2443  0.0471
 4385TIP3    H113088   1.147   5.074   1.576  1.2652 -0.1964  0.6552
 4385TIP3    H213089   1.255   5.167   1.625 -0.0453  1.4907  0.3749
 4386TIP3   OH213090   0.086   6.928   1.824 -0.1181 -0.5001  0.3863
 4386TIP3    H113091   0.122   6.842   1.804  1.5693  0.4293 -0.6383
 4386TIP3    H213092   0.044   6.956   1.742  2.4041  1.1399 -0.3910
 4387TIP3   OH213093   0.923   6.752   3.013  0.0257  0.2731 -0.4716
 4387TIP3    H113094   0.888   6.838   3.036  1.1690  0.6027  0.0587
 4387TIP3    H213095   0.850   6.707   2.970 -0.7804  1.2600 -0.1454
 4388TIP3   OH213096   0.386   6.404   3.290 -0.4940 -0.4911  0.6548
 4388TIP3    H113097   0.343   6.371   3.369 -0.1501 -3.8496 -0.4975
 4388TIP3    H213098   0.479   6.391   3.306 -0.1670  1.8451  0.9494
 4389TIP3   OH213099   0.504   4.145   1.450  0.2831 -0.1194 -0.3903
 4389TIP3    H113100   0.515   4.051   1.436 -0.6296 -0.0825 -1.4071
 4389TIP3    H213101   0.527   4.158   1.542  0.6247 -1.3056 -0.2976
 4390TIP3   OH213102   1.775   5.260   2.642 -0.1009 -0.2069  0.4014
 4390TIP3    H113103   1.865   5.229   2.650  0.5252  1.8180  1.5095
 4390TIP3    H213104   1.730   5.223   2.718  0.4164  0.7819  1.2050
 4391TIP3   OH213105   0.810   3.640   2.288  0.1896  0.2941 -0.2172
 4391TIP3    H113106   0.775   3.646   2.376  0.0433 -0.8907 -0.1849
 4391TIP3    H213107   0.788   3.724   2.247  1.0623  1.1966  1.1483
 4392TIP3   OH213108   1.953   5.099   1.709  0.0576  0.1588 -0.1376
 4392TIP3    H113109   1.998   5.175   1.747  0.1494 -0.3057  0.6894
 4392TIP3    H213110   1.998   5.084   1.626  0.1200  0.9376 -0.2500
 4393TIP3   OH213111   3.414   6.116   1.695  0.4841  0.6731 -0.3828
 4393TIP3    H113112   3.329   6.116   1.739  1.4674 -1.5089  1.6592
 4393TIP3    H213113   3.416   6.199   1.647 -2.8210  0.7117 -0.5780
 4394TIP3   OH213114   2.262   4.485   3.736  0.1518  0.2100 -0.1141
 4394TIP3    H113115   2.354   4.510   3.740 -0.0380  1.7416 -3.8694
 4394TIP3    H213116   2.214   4.568   3.735 -1.2102 -0.5520  0.1017
 4395TIP3   OH213117   3.387   6.600   2.276  0.5940  1.0222  0.3336
 4395TIP3    H113118   3.432   6.684   2.278  0.2956  1.2047 -0.3295
 4395TIP3    H213119   3.377   6.581   2.182 -1.4343  1.3879  0.4582
 4396TIP3   OH213120   8.395   6.890   2.237 -0.0553  0.0712 -0.5119
 4396TIP3    H113121   8.346   6.965   2.204 -0.9177 -0.3988 -0.3340
 4396TIP3    H213122   8.334   6.847   2.297  0.6921 -0.3522 -0.0507
 4397TIP3   OH213123   0.285   5.503   1.771 -0.0801 -0.2114 -0.0775
 4397TIP3    H113124   0.348   5.435   1.798  0.7752 -0.0419 -1.6290
 4397TIP3    H213125   0.309   5.524   1.681 -1.0174  1.4108  0.0376
 4398TIP3   OH213126   1.570   7.950   2.683 -0.5241 -0.0533  0.4197
 4398TIP3    H113127   1.545   8.030   2.730 -0.2675  0.2008  0.1289
 4398TIP3    H213128   1.640   7.979   2.624  0.4038 -0.7318  1.1700
 4399TIP3   OH213129   8.411   5.554   3.233  0.3168 -0.0430 -0.0313
 4399TIP3    H113130   8.341   5.557   3.169 -0.9224 -0.1085  1.3052
 4399TIP3    H213131   8.422   5.461   3.254  1.5271 -0.1364 -1.0028
 4400TIP3   OH213132   2.735   3.635   3.151  0.2226 -0.1452  0.1843
 4400TIP3    H113133   2.753   3.541   3.139  1.2989  0.3946 -2.9531
 4400TIP3    H213134   2.778   3.657   3.234  0.7676 -2.2163  0.4943
 4401TIP3   OH213135   1.691   5.282   1.762  0.4801  0.8050  0.2775
 4401TIP3    H113136   1.727   5.206   1.716  0.2552  1.6400 -1.3191
 4401TIP3    H213137   1.662   5.247   1.846  0.6012 -0.8312 -0.3308
 4402TIP3   OH213138   2.081   4.984   2.666 -0.4344 -0.1124  0.1869
 4402TIP3    H113139   2.126   4.931   2.731  0.7083 -0.7548 -1.1061
 4402TIP3    H213140   2.141   4.988   2.592 -0.1297  3.6997  0.5458
 4403TIP3   OH213141   1.292   5.796   0.551 -0.8791  0.1583  0.3031
 4403TIP3    H113142   1.230   5.779   0.480 -2.2511  1.6130  1.1296
 4403TIP3    H213143   1.355   5.858   0.513  0.5438 -1.8789 -0.7644
 4404TIP3   OH213144   2.160   5.924   0.237  0.3795  0.1818 -0.5176
 4404TIP3    H113145   2.239   5.944   0.185  0.5178  1.7822  0.2670
 4404TIP3    H213146   2.172   5.975   0.318 -0.6355 -0.9569  0.3579
 4405TIP3   OH213147   2.463   6.055   3.340  0.4783  0.2201  0.3962
 4405TIP3    H113148   2.541   6.045   3.394  0.8482  1.3602  0.0982
 4405TIP3    H213149   2.390   6.050   3.402  0.8363  0.0899  0.8073
 4406TIP3   OH213150   0.971   6.741   3.710 -0.1160 -0.5777 -0.5170
 4406TIP3    H113151   1.062   6.712   3.716  0.2632  0.6255 -0.4369
 4406TIP3    H213152   0.964   6.782   3.623 -0.5042 -0.4098 -0.4089
 4407TIP3   OH213153   8.297   3.853   2.903 -0.3346  0.2417 -0.1570
 4407TIP3    H113154   8.325   3.830   2.814 -0.7322  2.2959 -0.8309
 4407TIP3    H213155   8.204   3.833   2.905 -0.4868  0.9180 -0.4488
 4408TIP3   OH213156   8.484   6.396   3.604 -0.2152  0.5006  0.1835
 4408TIP3    H113157   8.435   6.316   3.585 -0.5553  0.7316  0.0801
 4408TIP3    H213158   8.441   6.432   3.682  0.4058  0.1904  0.6804
 4409TIP3   OH213159   1.647   6.403   1.705  0.5082  0.1007 -0.1682
 4409TIP3    H113160   1.553   6.408   1.688  0.2460 -1.9236  0.5565
 4409TIP3    H213161   1.685   6.470   1.649 -1.2344 -0.0701 -1.6022
 4410TIP3   OH213162   0.460   7.403   3.528  0.5577 -0.1988  0.8742
 4410TIP3    H113163   0.499   7.329   3.576 -0.1222 -0.6329  0.7652
 4410TIP3    H213164   0.440   7.368   3.441 -0.1839 -0.0200  0.9675
 4411TIP3   OH213165   3.154   5.206   0.860 -0.6027 -0.0189 -0.5342
 4411TIP3    H113166   3.142   5.112   0.843  1.4156 -0.3593 -0.1297
 4411TIP3    H213167   3.125   5.248   0.779  0.4945 -1.1237 -1.5132
 4412TIP3   OH213168   0.672   6.363   4.788  0.1506 -0.8042 -0.5765
 4412TIP3    H113169   0.656   6.310   4.710  1.2584 -1.6448 -0.2431
 4412TIP3    H213170   0.753   6.329   4.824  1.3437  1.6872 -0.8061
 4413TIP3   OH213171   2.035   3.756   0.714  0.2363 -0.2585 -0.2331
 4413TIP3    H113172   2.000   3.667   0.726  0.1687 -0.3626 -1.1590
 4413TIP3    H213173   1.989   3.808   0.779 -0.0598 -0.8201  0.0128
 4414TIP3   OH213174   1.292   6.259   3.613  0.2358 -0.0871  0.8796
 4414TIP3    H113175   1.306   6.165   3.628 -0.4800 -0.2042  0.8594
 4414TIP3    H213176   1.197   6.267   3.603  0.4439  0.4047 -0.8028
 4415TIP3   OH213177   2.050   4.781   3.175  0.4175 -0.3752  0.1123
 4415TIP3    H113178   2.022   4.872   3.162 -0.0501 -0.7892 -1.9351
 4415TIP3    H213179   2.134   4.775   3.129  0.0119 -1.2110 -0.5340
 4416TIP3   OH213180   1.407   4.880   1.558 -0.0875  0.0728 -0.3083
 4416TIP3    H113181   1.367   4.806   1.513 -0.2217 -0.5429  0.8013
 4416TIP3    H213182   1.340   4.948   1.556 -0.2410 -0.0875 -0.6883
 4417TIP3   OH213183   2.598   4.710   2.913 -0.1076 -0.1692 -0.0782
 4417TIP3    H113184   2.627   4.789   2.960 -0.4054  1.1107 -2.0034
 4417TIP3    H213185   2.639   4.638   2.960  0.2033  1.1303  1.7065
 4418TIP3   OH213186   1.249   4.933   3.406  0.6341 -0.3598 -0.2535
 4418TIP3    H113187   1.163   4.909   3.371  1.3554  0.5167 -2.7062
 4418TIP3    H213188   1.230   4.999   3.472 -0.5945 -0.2307 -0.7234
 4419TIP3   OH213189   3.707   4.764   4.222 -0.0486  0.1196 -0.1811
 4419TIP3    H113190   3.722   4.856   4.198 -1.4203  0.1843 -0.8439
 4419TIP3    H213191   3.748   4.714   4.151 -2.8951  0.2937 -2.0200
 4420TIP3   OH213192   3.115   7.050   1.300 -0.2263  0.1282  0.5816
 4420TIP3    H113193   3.153   7.061   1.213 -1.0551 -1.7661 -0.0599
 4420TIP3    H213194   3.060   7.127   1.313 -0.4219  0.2225 -0.7643
 4421TIP3   OH213195   0.864   2.442   1.733 -0.2679  0.3979  0.6390
 4421TIP3    H113196   0.848   2.417   1.642  0.4785  2.4060 -0.0597
 4421TIP3    H213197   0.957   2.424   1.748 -0.0613  1.3727  0.5667
 4422TIP3   OH213198   1.558   3.886   4.593  0.3918  0.2640  0.5416
 4422TIP3    H113199   1.520   3.864   4.508 -0.6308  2.2501  0.4597
 4422TIP3    H213200   1.512   3.830   4.655  0.5895 -0.6336 -0.1166
 4423TIP3   OH213201   2.018   5.390   2.869  0.4684 -0.4363  0.3055
 4423TIP3    H113202   2.031   5.346   2.785  1.4810  0.0544  0.1918
 4423TIP3    H213203   2.061   5.333   2.933 -1.7510 -1.6648  0.7514
 4424TIP3   OH213204   2.882   6.211   2.397  0.1483  0.6052  0.2363
 4424TIP3    H113205   2.911   6.236   2.310  0.1234  1.0647  0.3554
 4424TIP3    H213206   2.803   6.160   2.382  0.3743  0.3330 -0.0302
 4425TIP3   OH213207   1.591   4.523   1.937 -1.0456 -0.8145  0.3950
 4425TIP3    H113208   1.679   4.492   1.959 -0.8752 -0.2884  0.4522
 4425TIP3    H213209   1.541   4.443   1.919 -0.3380 -1.0818 -0.4305
 4426TIP3   OH213210   2.819   4.405   2.491 -0.2784  0.8346 -0.2744
 4426TIP3    H113211   2.877   4.341   2.450 -0.0903  0.5947  0.3644
 4426TIP3    H213212   2.855   4.417   2.578 -0.9708  0.9752 -0.0080
 4427TIP3   OH213213   0.876   7.407   4.057 -0.5900 -0.3969 -0.4598
 4427TIP3    H113214   0.957   7.402   4.006 -0.5234  1.8249 -0.5963
 4427TIP3    H213215   0.807   7.415   3.991 -0.8838 -1.7010 -0.3215
 4428TIP3   OH213216   8.092   3.131   2.023  0.7439 -0.3430 -0.0906
 4428TIP3    H113217   8.161   3.082   1.978 -0.4048 -1.3565 -0.7753
 4428TIP3    H213218   8.020   3.135   1.960  0.6103  1.7573  0.1736
 4429TIP3   OH213219   7.933   4.934   2.571 -0.0210  0.0404 -0.6752
 4429TIP3    H113220   7.962   4.960   2.658 -1.5879 -0.0657 -0.1032
 4429TIP3    H213221   8.013   4.908   2.526  0.4931 -2.8944  1.7382
 4430TIP3   OH213222   2.272   6.104   0.805 -0.0979 -0.2180  0.1153
 4430TIP3    H113223   2.252   6.010   0.795 -0.8939  0.1462 -2.0187
 4430TIP3    H213224   2.356   6.115   0.761  0.7327 -0.1798  1.6747
 4431TIP3   OH213225   0.863   5.520   2.989 -0.0582 -0.4379  0.0043
 4431TIP3    H113226   0.820   5.508   3.074 -2.5215  0.5332 -1.0773
 4431TIP3    H213227   0.951   5.552   3.012 -0.2133 -1.4552  2.2099
 4432TIP3   OH213228   1.333   4.019   0.053 -0.2369  0.1834 -0.4317
 4432TIP3    H113229   1.393   4.064   0.113  0.3925  0.2235 -1.0839
 4432TIP3    H213230   1.353   3.926   0.066 -2.1733  0.0002  1.5887
 4433TIP3   OH213231   7.896   7.385   2.806 -0.1926  0.2251  0.0916
 4433TIP3    H113232   7.945   7.388   2.888  2.5668 -0.1993 -1.4843
 4433TIP3    H213233   7.875   7.293   2.793 -1.5431  0.4203  0.8224
 4434TIP3   OH213234   7.837   7.680   4.672 -0.3863 -0.5419  0.5216
 4434TIP3    H113235   7.928   7.651   4.678 -0.8279 -2.4540 -1.5112
 4434TIP3    H213236   7.791   7.609   4.628 -3.3630 -0.6308  3.5039
 4435TIP3   OH213237   2.236   2.191   1.979 -0.6630  0.3263 -0.3098
 4435TIP3    H113238   2.141   2.183   1.982 -0.6519  0.6559  2.9994
 4435TIP3    H213239   2.253   2.285   1.984 -0.1697  0.1527  1.9681
 4436TIP3   OH213240   2.235   5.802   2.769 -0.7201  0.3811 -0.6934
 4436TIP3    H113241   2.329   5.813   2.754 -0.4563 -1.2000 -0.3671
 4436TIP3    H213242   2.200   5.772   2.685 -0.3310 -2.2891  0.0472
 4437TIP3   OH213243   3.181   6.188   2.271  0.7098 -0.3312 -0.3701
 4437TIP3    H113244   3.102   6.212   2.222 -0.0348 -1.2923  0.3508
 4437TIP3    H213245   3.223   6.121   2.218  0.8567 -0.0673 -0.5864
 4438TIP3   OH213246   0.358   6.525   2.482  0.0755 -0.4206 -0.2071
 4438TIP3    H113247   0.296   6.574   2.536 -0.3158 -0.0652 -0.9779
 4438TIP3    H213248   0.306   6.457   2.440 -0.6671  2.3982 -4.0845
 4439TIP3   OH213249   3.137   5.951   1.788  0.5341 -0.2601 -0.2843
 4439TIP3    H113250   3.089   5.870   1.807  1.1498 -0.5912 -0.1093
 4439TIP3    H213251   3.115   5.970   1.697  0.1841 -0.4909 -0.2495
 4440TIP3   OH213252   1.545   6.770   2.429  0.3116  0.3005 -0.0531
 4440TIP3    H113253   1.500   6.811   2.355 -1.1053 -1.0605  0.0180
 4440TIP3    H213254   1.498   6.801   2.507 -0.0733 -0.5753  0.0717
 4441TIP3   OH213255   1.638   4.324   0.943  0.5038  0.4021 -0.0234
 4441TIP3    H113256   1.544   4.322   0.927  0.2224  1.3572  1.3502
 4441TIP3    H213257   1.653   4.257   1.010  0.8770 -0.1278 -0.6405
 4442TIP3   OH213258   1.730   6.455   3.123 -0.0816  0.1093 -0.2067
 4442TIP3    H113259   1.660   6.393   3.105  2.2834 -2.1595 -1.8974
 4442TIP3    H213260   1.729   6.515   3.048 -0.7111  0.6016  0.1833
 4443TIP3   OH213261   1.985   6.580   3.950 -0.0876 -0.1898 -0.4289
 4443TIP3    H113262   2.073   6.576   3.988  0.1474 -0.9101 -1.0310
 4443TIP3    H213263   1.928   6.600   4.024  0.5737  0.1894 -0.0190
 4444TIP3   OH213264   0.198   1.116   6.275 -0.0142  0.0236 -0.1661
 4444TIP3    H113265   0.247   1.071   6.344 -0.5246  0.1774  0.2991
 4444TIP3    H213266   0.256   1.114   6.199  1.2683  1.3703  0.7483
 4445TIP3   OH213267   0.130   6.043   3.278  0.7068  0.1208  0.6079
 4445TIP3    H113268   0.164   5.990   3.206 -0.6448  0.0297  0.0311
 4445TIP3    H213269   0.196   6.033   3.348  0.7686 -1.8192  0.2989
 4446TIP3   OH213270   1.554   4.037   2.297 -0.2266  0.4106  1.2654
 4446TIP3    H113271   1.468   4.066   2.328 -1.0148 -0.3737 -0.1127
 4446TIP3    H213272   1.577   4.100   2.229 -0.2259 -0.0252  0.8606
 4447TIP3   OH213273   0.235   0.893   3.465  0.4278  0.0189  0.0767
 4447TIP3    H113274   0.272   0.826   3.522  2.2357  0.1738 -0.8770
 4447TIP3    H213275   0.221   0.968   3.522  1.4289 -0.1066  0.4977
 4448TIP3   OH213276   3.387   4.717   3.016 -0.1180 -0.8247  0.1382
 4448TIP3    H113277   3.313   4.772   2.992 -0.7757 -2.2610 -1.2029
 4448TIP3    H213278   3.378   4.639   2.961  3.1484 -0.4301 -1.0605
 4449TIP3   OH213279   1.800   5.250   2.371  0.5954 -0.3085  0.1944
 4449TIP3    H113280   1.774   5.250   2.463  1.8835 -0.8810  0.5731
 4449TIP3    H213281   1.818   5.342   2.351  1.5707 -0.3328  0.8952
 4450TIP3   OH213282   0.814   5.044   3.683  0.3188 -0.1237 -0.0589
 4450TIP3    H113283   0.750   5.095   3.733  1.5749  2.2747 -0.7853
 4450TIP3    H213284   0.824   4.963   3.732 -2.0437  0.1468  0.9434
 4451TIP3   OH213285   0.565   2.516   0.450 -0.5890 -0.1378  0.6084
 4451TIP3    H113286   0.484   2.567   0.444  0.2540  1.1314 -0.3196
 4451TIP3    H213287   0.608   2.548   0.529  0.3597  1.2672 -0.4427
 4452TIP3   OH213288   1.281   5.003   4.791 -0.0017 -0.3574  0.1029
 4452TIP3    H113289   1.197   5.046   4.804  0.1339 -0.4173  1.2548
 4452TIP3    H213290   1.287   4.940   4.863  1.1719 -0.1169  0.2279
 4453TIP3   OH213291   1.717   6.117   2.608 -0.4405 -0.1355 -0.2172
 4453TIP3    H113292   1.783   6.047   2.613  0.8601  0.9414 -1.7272
 4453TIP3    H213293   1.714   6.153   2.697  0.9345 -0.2899 -0.0974
 4454TIP3   OH213294   1.191   6.098   4.176  0.2943  0.4389 -0.2182
 4454TIP3    H113295   1.220   6.015   4.214  0.6933  0.7057  0.0676
 4454TIP3    H213296   1.108   6.077   4.133  0.0688  0.0318  0.4021
 4455TIP3   OH213297   2.189   4.111   4.567  0.2464  0.2211 -0.0524
 4455TIP3    H113298   2.133   4.037   4.544 -0.5566  0.2882  1.6113
 4455TIP3    H213299   2.277   4.075   4.566 -0.1591 -0.8502  1.0372
 4456TIP3   OH213300   1.560   5.336   3.997  0.4117  0.5805 -0.1202
 4456TIP3    H113301   1.567   5.247   3.964 -0.9333  0.4023  0.0644
 4456TIP3    H213302   1.534   5.388   3.921  0.3189  0.6707 -0.0267
 4457TIP3   OH213303   2.681   5.001   4.875  0.4510  0.1128 -0.0778
 4457TIP3    H113304   2.636   5.081   4.903  1.3627  1.1536 -1.5047
 4457TIP3    H213305   2.621   4.930   4.898 -1.1485  1.3363 -0.4035
 4458TIP3   OH213306   1.435   5.108   4.084  0.0743 -0.2526 -0.0980
 4458TIP3    H113307   1.521   5.068   4.078 -0.6596 -2.3703  2.5066
 4458TIP3    H213308   1.445   5.178   4.149  0.0550  0.1142 -0.4914
 4459TIP3   OH213309   1.210   4.060   3.365  0.1849 -0.5467  0.8584
 4459TIP3    H113310   1.287   4.004   3.362 -1.1304 -2.4318  1.0294
 4459TIP3    H213311   1.149   4.015   3.424 -1.1818  0.7235  0.4704
 4460TIP3   OH213312   1.803   3.571   4.446  0.2995 -0.4946  0.2749
 4460TIP3    H113313   1.710   3.591   4.454  0.6840  1.2466  0.5519
 4460TIP3    H213314   1.827   3.531   4.529 -0.3165 -1.4933 -0.0153
 4461TIP3   OH213315   2.479   4.796   3.559  0.4553 -0.1546 -0.2108
 4461TIP3    H113316   2.539   4.813   3.487  0.7262  2.2414  0.5341
 4461TIP3    H213317   2.393   4.789   3.517  0.7654  0.0316 -0.8857
 4462TIP3   OH213318   2.121   5.249   0.162  0.1668  0.2480  0.3858
 4462TIP3    H113319   2.187   5.239   0.093 -1.5394 -0.3209 -1.1995
 4462TIP3    H213320   2.171   5.279   0.238  2.3631 -0.8066 -0.5748
 4463TIP3   OH213321   0.807   5.044   2.705 -0.3364 -0.7195 -0.0953
 4463TIP3    H113322   0.717   5.012   2.717 -0.4961 -0.5651 -0.8608
 4463TIP3    H213323   0.797   5.123   2.653  0.3862 -1.6056 -1.5977
 4464TIP3   OH213324   0.978   5.662   1.719 -0.0692  0.1256 -0.3686
 4464TIP3    H113325   0.995   5.625   1.806  1.7969  0.4163 -0.5998
 4464TIP3    H213326   0.963   5.586   1.663  0.4429 -0.1382 -0.1497
 4465TIP3   OH213327   3.094   6.720   0.811 -0.8727  0.5444 -0.5581
 4465TIP3    H113328   3.028   6.780   0.776 -1.3644  0.9721  1.0567
 4465TIP3    H213329   3.085   6.641   0.758 -1.9816  0.9699 -1.0207
 4466TIP3   OH213330   1.672   7.521   2.939  0.4705 -0.4572  0.0144
 4466TIP3    H113331   1.647   7.521   2.847  2.2120  0.5763 -0.4653
 4466TIP3    H213332   1.757   7.477   2.941  0.6342 -0.1043  1.0664
 4467TIP3   OH213333   1.666   6.963   2.741  0.4108 -0.3953 -0.2057
 4467TIP3    H113334   1.612   6.976   2.664  1.5123  1.6005 -0.6553
 4467TIP3    H213335   1.755   6.958   2.708  0.7913 -0.7382  0.8309
 4468TIP3   OH213336   2.636   7.847   3.761  0.1096  0.2770 -0.2193
 4468TIP3    H113337   2.616   7.771   3.706  0.1769 -1.1365  1.6498
 4468TIP3    H213338   2.590   7.919   3.720 -0.1847 -0.8301 -1.8856
 4469TIP3   OH213339   1.970   6.118   1.151  0.3899 -0.5293  0.5186
 4469TIP3    H113340   2.021   6.174   1.093 -0.7104 -0.2295 -0.1728
 4469TIP3    H213341   2.027   6.103   1.226  1.4012 -0.0053 -0.1310
 4470TIP3   OH213342   1.976   4.713   3.438 -0.1817  0.0488  0.0715
 4470TIP3    H113343   1.894   4.666   3.456  0.4551 -1.2807 -0.3918
 4470TIP3    H213344   1.971   4.734   3.344  0.4911 -1.0248 -0.2141
 4471TIP3   OH213345   1.015   6.042   3.391  0.1785  0.2266 -0.3862
 4471TIP3    H113346   1.081   6.016   3.456 -0.4114 -1.7941 -0.5659
 4471TIP3    H213347   1.012   6.137   3.397  0.9509  0.1413  1.7699
 4472TIP3   OH213348   0.769   5.059   1.341  0.1403 -0.2703  0.4977
 4472TIP3    H113349   0.772   5.049   1.436 -1.8735  0.3336  0.6406
 4472TIP3    H213350   0.694   5.005   1.314 -0.0634  0.5576 -0.6069
 4473TIP3   OH213351   1.767   7.479   1.107 -0.2668 -0.5098  0.3729
 4473TIP3    H113352   1.728   7.475   1.019 -1.7858 -1.2031  1.0490
 4473TIP3    H213353   1.847   7.427   1.100 -0.0088  0.0309 -0.7876
 4474TIP3   OH213354   7.444   0.100   6.252  1.0975  0.2949  0.4851
 4474TIP3    H113355   7.434   0.009   6.277  2.1581  0.9835  3.7251
 4474TIP3    H213356   7.539   0.114   6.252  0.9364  1.4179  0.2431
 4475TIP3   OH213357   0.069   4.337   3.711 -0.4524  0.1707 -0.3711
 4475TIP3    H113358   0.037   4.280   3.641  1.2740 -2.7832  1.1596
 4475TIP3    H213359   0.006   4.325   3.782 -0.2445  0.3959 -0.1471
 4476TIP3   OH213360   1.024   6.318   3.321  0.0105 -0.0187  0.1005
 4476TIP3    H113361   1.037   6.410   3.299 -0.3774 -0.2598 -1.1958
 4476TIP3    H213362   1.015   6.274   3.236  1.4049 -1.4296  0.6640
 4477TIP3   OH213363   2.064   5.239   4.525  0.1384  0.0926  0.3412
 4477TIP3    H113364   1.990   5.180   4.535  0.1863  0.0588  0.4956
 4477TIP3    H213365   2.083   5.239   4.431  0.3141 -0.3482  0.3769
 4478TIP3   OH213366   2.541   5.134   3.430 -0.8210 -0.0414 -0.0811
 4478TIP3    H113367   2.555   5.164   3.340 -2.1948 -0.8749 -0.5758
 4478TIP3    H213368   2.619   5.165   3.477  0.6432 -0.8761 -1.8676
 4479TIP3   OH213369   0.782   6.954   1.947  0.3599  0.1286 -0.3381
 4479TIP3    H113370   0.807   6.922   2.034  1.2369  0.3558 -0.4997
 4479TIP3    H213371   0.790   6.878   1.890 -2.3767 -0.5846  0.1632
 4480TIP3   OH213372   6.327   0.633   6.171 -0.0512  0.1678  0.1445
 4480TIP3    H113373   6.255   0.570   6.164  0.2075 -0.2816  1.4092
 4480TIP3    H213374   6.404   0.580   6.192  0.2998  0.8304  0.5660
 4481TIP3   OH213375   1.723   5.661   4.355 -0.0309  0.0956  0.0398
 4481TIP3    H113376   1.726   5.633   4.263  0.6860  0.1928  0.0348
 4481TIP3    H213377   1.798   5.619   4.396 -2.0959 -2.4628  1.3243
 4482TIP3   OH213378   3.376   7.102   3.101  0.1494 -0.2891  0.0740
 4482TIP3    H113379   3.449   7.104   3.039  0.3742 -0.0814  0.3469
 4482TIP3    H213380   3.349   7.194   3.110 -0.1753 -0.3693 -0.0588
 4483TIP3   OH213381   6.909   3.726   2.917  0.4667 -1.1026 -0.4279
 4483TIP3    H113382   6.894   3.797   2.980 -0.4705  1.0603 -2.9962
 4483TIP3    H213383   6.898   3.646   2.968 -0.7898  0.5866  2.0368
 4484TIP3   OH213384   2.391   3.713   2.674 -0.0910  0.8424  0.7148
 4484TIP3    H113385   2.404   3.770   2.750 -0.3073  0.6244  0.9150
 4484TIP3    H213386   2.427   3.763   2.600  1.9218  0.2407  1.2569
 4485TIP3   OH213387   8.313   2.878   1.675  0.5204  0.0909  0.8483
 4485TIP3    H113388   8.269   2.956   1.642 -1.0290  0.1239  2.9111
 4485TIP3    H213389   8.362   2.845   1.600 -2.5214  0.4378 -1.4013
 4486TIP3   OH213390   8.107   7.685   2.696  0.1250  0.0824 -0.0678
 4486TIP3    H113391   8.111   7.699   2.791 -0.5747 -0.2661  0.0173
 4486TIP3    H213392   8.102   7.590   2.687 -0.8398  0.1539 -0.4081
 4487TIP3   OH213393   1.250   5.064   3.892  0.1837  0.3275 -0.1234
 4487TIP3    H113394   1.224   4.974   3.874 -0.9046  0.4179  0.9516
 4487TIP3    H213395   1.344   5.059   3.910  0.1460 -0.5749 -0.1513
 4488TIP3   OH213396   1.656   3.138   5.457  0.0321  0.5019 -0.1976
 4488TIP3    H113397   1.672   3.219   5.507  0.7267  0.2274  0.0269
 4488TIP3    H213398   1.714   3.073   5.497 -0.8171 -0.2185 -0.1205
 4489TIP3   OH213399   3.061   5.155   1.793 -0.5772  0.1498  0.2102
 4489TIP3    H113400   3.036   5.131   1.882 -1.0127  0.0776  0.0713
 4489TIP3    H213401   3.013   5.236   1.777  0.5338  0.8868  0.5199
 4490TIP3   OH213402   1.409   3.773   3.722 -0.4454  0.2856  0.0809
 4490TIP3    H113403   1.391   3.858   3.763 -0.4944  0.5776 -0.5316
 4490TIP3    H213404   1.427   3.795   3.630  1.3773 -0.1610  0.3172
 4491TIP3   OH213405   2.903   6.872   1.637  0.3253  0.0185  0.2249
 4491TIP3    H113406   2.878   6.842   1.725  0.7063 -0.0571  0.3068
 4491TIP3    H213407   2.829   6.847   1.582 -0.1761  0.5825  0.6295
 4492TIP3   OH213408   1.765   2.377   3.863 -0.5290  0.0449  0.2127
 4492TIP3    H113409   1.791   2.359   3.953  0.3980  0.9589  0.1382
 4492TIP3    H213410   1.846   2.401   3.819 -0.7749 -1.6615 -1.1918
 4493TIP3   OH213411   1.211   7.843   2.076 -0.4519  0.4010  0.1464
 4493TIP3    H113412   1.188   7.786   2.150 -0.2425  0.1331  0.0081
 4493TIP3    H213413   1.145   7.824   2.010 -1.7119  1.9600  0.9305
 4494TIP3   OH213414   0.167   6.867   3.408  0.0911  0.3522  0.5910
 4494TIP3    H113415   0.237   6.808   3.435 -1.9123 -2.0964  0.5723
 4494TIP3    H213416   0.181   6.878   3.314 -0.0773 -0.8565  0.4162
 4495TIP3   OH213417   8.244   5.003   1.583  0.0625  0.4343  0.2116
 4495TIP3    H113418   8.312   5.006   1.517  1.4351 -0.4931  1.5537
 4495TIP3    H213419   8.212   5.093   1.589  1.1762  0.8748 -0.4193
 4496TIP3   OH213420   3.442   7.690   2.484 -0.6948 -0.4325 -0.0697
 4496TIP3    H113421   3.349   7.705   2.469 -0.6546  2.5368  2.1674
 4496TIP3    H213422   3.455   7.715   2.576  2.4284 -0.1279 -0.5574
 4497TIP3   OH213423   2.725   5.939   2.552  0.1095 -0.0727 -0.2006
 4497TIP3    H113424   2.680   5.854   2.552 -2.3405  1.1875 -0.2190
 4497TIP3    H213425   2.704   5.977   2.467 -0.1462  1.2631  0.4598
 4498TIP3   OH213426   1.100   4.994   1.150 -0.1753  0.0747  0.3389
 4498TIP3    H113427   1.089   4.940   1.229 -0.6648 -1.0012 -0.4561
 4498TIP3    H213428   1.153   5.068   1.179  1.1478 -1.2146  1.2812
 4499TIP3   OH213429   0.505   6.870   2.503  0.0056 -0.2273  0.2241
 4499TIP3    H113430   0.488   6.963   2.488  0.4988 -0.0871  0.5146
 4499TIP3    H213431   0.453   6.825   2.437 -0.4707  0.2435  0.2751
 4500TIP3   OH213432   1.968   5.866   1.046 -0.0732 -0.1664 -0.3947
 4500TIP3    H113433   1.929   5.926   1.110  0.1622 -1.4266  0.9553
 4500TIP3    H213434   2.035   5.819   1.094 -0.3336 -1.6144 -1.3928
 4501TIP3   OH213435   0.702   6.389   2.981  0.4382  0.3735 -0.0211
 4501TIP3    H113436   0.719   6.362   3.071  1.0636  1.3189  0.1481
 4501TIP3    H213437   0.611   6.416   2.980  0.0297 -0.9765 -0.0045
 4502TIP3   OH213438   1.476   7.339   3.030 -0.2414 -0.2729 -0.1024
 4502TIP3    H113439   1.544   7.400   3.002 -0.3597  0.3773  1.0370
 4502TIP3    H213440   1.423   7.325   2.952 -0.1145  0.9370 -0.4047
 4503TIP3   OH213441   2.017   4.703   1.971  0.0229  0.0537  0.9193
 4503TIP3    H113442   1.953   4.747   2.027 -0.5098 -0.4027  0.6731
 4503TIP3    H213443   1.966   4.638   1.923  0.4734  0.4206 -0.0757
 4504TIP3   OH213444   6.981   4.872   2.714  0.1013  0.1079  0.3846
 4504TIP3    H113445   6.999   4.808   2.645  1.3482  0.4436  0.3944
 4504TIP3    H213446   6.899   4.914   2.686 -0.1942 -0.7976 -0.1236
 4505TIP3   OH213447   8.411   5.811   0.343 -0.4463  0.5623  0.3880
 4505TIP3    H113448   8.325   5.771   0.346 -0.4838  0.6363  0.2857
 4505TIP3    H213449   8.402   5.885   0.283 -0.1212  0.1227 -0.2116
 4506TIP3   OH213450   1.279   5.443   4.191 -0.1348  0.2148 -0.9094
 4506TIP3    H113451   1.319   5.405   4.269  2.3213 -1.1574 -2.7312
 4506TIP3    H213452   1.251   5.367   4.140 -2.7079  1.1151 -0.9056
 4507TIP3   OH213453   1.424   5.391   4.676  0.0917  0.6992 -0.3821
 4507TIP3    H113454   1.334   5.411   4.704 -1.2209 -3.5628 -1.1911
 4507TIP3    H213455   1.474   5.384   4.757 -1.1177 -0.2566  0.3037
 4508TIP3   OH213456   1.903   5.396   0.051  0.0180  0.1110 -0.0788
 4508TIP3    H113457   1.899   5.322  -0.009 -1.0234  0.0387  0.0840
 4508TIP3    H213458   1.957   5.365   0.124  0.7422 -0.0143 -0.6597
 4509TIP3   OH213459   2.149   4.799   1.389  0.2311  0.1017  0.0133
 4509TIP3    H113460   2.097   4.807   1.469  0.4838 -0.4768  0.2350
 4509TIP3    H213461   2.120   4.717   1.349  3.2018 -1.9277  1.7688
 4510TIP3   OH213462   2.599   5.644   3.738 -0.3950 -0.1632  0.0983
 4510TIP3    H113463   2.663   5.655   3.668 -0.1954 -0.1926  0.2773
 4510TIP3    H213464   2.594   5.550   3.752 -0.8453 -0.1951 -0.2577
 4511TIP3   OH213465   2.430   4.843   3.840  0.0542 -1.2287 -0.3045
 4511TIP3    H113466   2.344   4.885   3.844  0.9311  0.6146 -0.3199
 4511TIP3    H213467   2.445   4.827   3.746  0.8480  0.8935 -0.5730
 4512TIP3   OH213468   1.427   4.485   3.002 -0.0941 -0.1697 -0.1462
 4512TIP3    H113469   1.502   4.427   3.006 -0.4528 -0.5214  2.2763
 4512TIP3    H213470   1.386   4.478   3.088 -2.6965  0.2986 -1.2772
 4513TIP3   OH213471   1.650   3.251   4.695 -0.6494 -0.4242  0.0705
 4513TIP3    H113472   1.654   3.274   4.788 -0.9085  1.3071 -0.3187
 4513TIP3    H213473   1.657   3.335   4.650  0.0658 -1.3060 -1.4965
 4514TIP3   OH213474   1.959   2.773   2.062  0.0181 -0.2213  0.3698
 4514TIP3    H113475   1.971   2.688   2.105  0.2375  0.2204  1.1892
 4514TIP3    H213476   1.903   2.822   2.122 -0.4721  0.0520 -0.3188
 4515TIP3   OH213477   6.658   1.262   6.578  0.0928 -0.0901  0.1245
 4515TIP3    H113478   6.696   1.233   6.495 -0.4200 -1.1736  0.2505
 4515TIP3    H213479   6.599   1.333   6.555 -1.1820 -1.3620 -0.6495
 4516TIP3   OH213480   2.100   6.008   2.538 -0.3684  0.4666  0.1494
 4516TIP3    H113481   2.118   6.023   2.630 -1.9529  0.5884  0.4599
 4516TIP3    H213482   2.153   5.931   2.515 -0.2334  0.2321  1.2464
 4517TIP3   OH213483   1.179   3.069   5.099  0.6486  0.6302  0.1123
 4517TIP3    H113484   1.252   3.128   5.081 -0.6945  2.1393 -0.5253
 4517TIP3    H213485   1.158   3.084   5.191  0.8515  0.5298  0.1744
 4518TIP3   OH213486   7.976   7.019   2.464 -0.0103 -0.3775 -0.3614
 4518TIP3    H113487   7.976   7.075   2.387  0.0084  0.5735  0.3300
 4518TIP3    H213488   8.006   7.075   2.535 -0.7616 -1.0479  0.4924
 4519TIP3   OH213489   0.709   7.242   1.107  0.2074  0.9341  0.8690
 4519TIP3    H113490   0.650   7.235   1.182  0.3482  1.5765  1.0469
 4519TIP3    H213491   0.705   7.335   1.082  0.2808  0.7515  0.1820
 4520TIP3   OH213492   1.725   5.544   2.693 -0.1231  0.6430  0.9369
 4520TIP3    H113493   1.652   5.577   2.640  0.9714 -0.5223 -1.4026
 4520TIP3    H213494   1.713   5.449   2.693  1.8617  0.3568 -0.2602
 4521TIP3   OH213495   2.840   6.668   4.671  0.2348 -0.1478  1.0596
 4521TIP3    H113496   2.753   6.638   4.698  0.1404 -1.2861 -0.4691
 4521TIP3    H213497   2.892   6.588   4.666  1.3940  0.5259  1.9473
 4522TIP3   OH213498   3.033   4.335   3.299  0.3496 -0.6014  0.4284
 4522TIP3    H113499   3.068   4.346   3.211 -0.9866 -0.1995 -0.0795
 4522TIP3    H213500   3.107   4.308   3.352  1.4273  0.3200 -0.5822
 4523TIP3   OH213501   2.445   4.544   1.396 -0.3400 -0.6402 -0.1807
 4523TIP3    H113502   2.420   4.622   1.445 -1.7961 -0.6291 -0.9328
 4523TIP3    H213503   2.407   4.555   1.310  0.5473 -1.5833 -0.7139
 4524TIP3   OH213504   1.415   4.274   1.865  0.5926  0.2039 -0.3270
 4524TIP3    H113505   1.372   4.330   1.800 -1.4736  0.1406  0.9639
 4524TIP3    H213506   1.402   4.185   1.832 -0.3945  0.1755  0.1466
 4525TIP3   OH213507   5.042   7.041   0.991  0.1706 -0.1551  0.5224
 4525TIP3    H113508   5.116   6.997   0.948 -0.3709 -0.0089 -0.5834
 4525TIP3    H213509   5.010   7.102   0.925  1.8318  3.0093  2.5659
 4526TIP3   OH213510   3.912   6.357   0.620 -0.0153  0.1067  0.5317
 4526TIP3    H113511   3.919   6.418   0.694  0.4503 -1.4205  1.7824
 4526TIP3    H213512   3.826   6.376   0.582 -0.4119  0.6921  1.6836
 4527TIP3   OH213513   1.431   5.846   2.635  0.2063 -0.4192 -0.0747
 4527TIP3    H113514   1.340   5.815   2.637  0.2675 -0.5782  2.0914
 4527TIP3    H213515   1.483   5.767   2.626  0.1511 -0.4151 -0.4134
 4528TIP3   OH213516   3.601   6.293   3.971 -0.1175  0.3504  0.0987
 4528TIP3    H113517   3.544   6.314   4.045 -1.8690 -0.2078 -1.0603
 4528TIP3    H213518   3.668   6.235   4.007  0.9045  2.5979  1.9163
 4529TIP3   OH213519   1.853   5.993   2.349 -0.7154 -0.1724  0.4373
 4529TIP3    H113520   1.925   5.977   2.410  0.3597 -0.9360 -0.9999
 4529TIP3    H213521   1.829   6.084   2.363  2.1685  0.8249 -0.7764
 4530TIP3   OH213522   3.073   6.866   2.393 -0.6286  0.2906 -0.1637
 4530TIP3    H113523   2.985   6.888   2.425 -0.5005 -0.3456  0.6339
 4530TIP3    H213524   3.060   6.789   2.338 -0.3505 -0.7813  1.2576
 4531TIP3   OH213525   2.851   5.934   4.149 -0.0646  0.2403 -0.4650
 4531TIP3    H113526   2.922   5.986   4.188 -1.1119  1.1158  0.3073
 4531TIP3    H213527   2.800   5.997   4.099 -0.6764 -0.2688 -0.4826
 4532TIP3   OH213528   3.729   4.483   2.258  0.9772 -0.4968 -0.6645
 4532TIP3    H113529   3.748   4.389   2.265  0.6091 -0.6166 -1.2900
 4532TIP3    H213530   3.710   4.510   2.348 -0.9523 -1.4501 -0.7819
 4533TIP3   OH213531   4.450   5.612   0.762 -0.4941  0.9210 -0.0082
 4533TIP3    H113532   4.515   5.609   0.692 -0.5375 -0.0004 -0.0107
 4533TIP3    H213533   4.467   5.533   0.814 -1.2486  0.9673  0.3152
 4534TIP3   OH213534   1.768   3.628   4.851  0.9102  0.3928 -0.3354
 4534TIP3    H113535   1.697   3.592   4.905  0.3336  1.3912 -0.4055
 4534TIP3    H213536   1.812   3.690   4.909  1.2461  0.3445 -0.5389
 4535TIP3   OH213537   3.259   6.385   1.639 -0.0402 -0.0360  0.0639
 4535TIP3    H113538   3.203   6.460   1.618 -1.7016 -1.4400 -0.5994
 4535TIP3    H213539   3.296   6.407   1.725  0.4437  2.0760 -0.6426
 4536TIP3   OH213540   3.441   4.061   2.351 -0.3274  0.3049  0.0266
 4536TIP3    H113541   3.402   4.045   2.437  2.2552  1.3160  1.4378
 4536TIP3    H213542   3.497   3.984   2.335  0.2237  0.7283 -0.1227
 4537TIP3   OH213543   4.279   3.812   2.241  0.1314  0.3853  0.2206
 4537TIP3    H113544   4.190   3.811   2.278  1.0146  1.7388  2.4793
 4537TIP3    H213545   4.336   3.813   2.317  2.0890 -0.0106 -1.2250
 4538TIP3   OH213546   3.984   6.241   2.304 -0.1068  0.2143  0.2494
 4538TIP3    H113547   4.041   6.304   2.260  0.9749 -1.2874 -0.5162
 4538TIP3    H213548   3.991   6.264   2.397  0.0425  1.4088 -0.0477
 4539TIP3   OH213549   4.187   7.797   3.488  0.5724  0.4204 -0.2945
 4539TIP3    H113550   4.164   7.718   3.439  0.2679  0.8308 -0.8196
 4539TIP3    H213551   4.244   7.846   3.430 -1.9011  2.1813 -1.3508
 4540TIP3   OH213552   3.242   4.279   2.464 -0.3232 -0.6905 -0.3307
 4540TIP3    H113553   3.218   4.372   2.460 -3.2557 -1.4615 -2.1387
 4540TIP3    H213554   3.312   4.270   2.399  1.8215  0.6855  1.6739
 4541TIP3   OH213555   2.277   4.116   1.069  0.0698 -0.4912 -0.2507
 4541TIP3    H113556   2.211   4.115   0.999  0.4699 -0.7319 -0.6247
 4541TIP3    H213557   2.313   4.205   1.065  0.4235 -0.6546 -0.6581
 4542TIP3   OH213558   3.812   5.236   2.340  0.2737 -0.0489 -0.7001
 4542TIP3    H113559   3.718   5.225   2.328  0.1510 -0.1608  0.3033
 4542TIP3    H213560   3.827   5.330   2.333  0.0665 -0.0187 -0.7296
 4543TIP3   OH213561   3.723   6.949   2.737  0.0479  0.4991  0.7038
 4543TIP3    H113562   3.640   6.963   2.691 -0.9057  0.0843  2.2642
 4543TIP3    H213563   3.788   6.996   2.684 -0.9493 -0.2827 -1.2507
 4544TIP3   OH213564   2.209   6.245   2.907 -0.0940 -0.0451  0.5858
 4544TIP3    H113565   2.160   6.164   2.889 -0.3501  0.2124  0.1385
 4544TIP3    H213566   2.299   6.215   2.924 -0.2014 -0.4290  0.4811
 4545TIP3   OH213567   2.417   6.369   1.710  0.1779  0.4147 -0.0052
 4545TIP3    H113568   2.383   6.293   1.661  1.7522 -0.1287 -0.2809
 4545TIP3    H213569   2.386   6.355   1.799  0.3052 -0.4697 -0.0939
 4546TIP3   OH213570   4.793   4.773   2.494  0.4919  0.4470  0.1470
 4546TIP3    H113571   4.741   4.839   2.540 -0.2296  0.9213 -1.3340
 4546TIP3    H213572   4.752   4.690   2.516  0.3348  0.6389  0.5926
 4547TIP3   OH213573   3.594   7.585   2.837  0.1092 -0.3562  0.1661
 4547TIP3    H113574   3.578   7.519   2.770  1.2425 -2.1297  1.5842
 4547TIP3    H213575   3.675   7.628   2.808  0.5663 -1.0768  0.3422
 4548TIP3   OH213576   2.317   5.568   0.342  0.3243  0.2696 -0.1071
 4548TIP3    H113577   2.247   5.510   0.371  0.0024  0.1093 -1.1627
 4548TIP3    H213578   2.293   5.591   0.252  0.5885  1.8214  0.2063
 4549TIP3   OH213579   2.334   5.157   1.540  0.3958 -0.4544 -0.1632
 4549TIP3    H113580   2.246   5.120   1.552 -0.1209  1.4179  2.3536
 4549TIP3    H213581   2.392   5.082   1.540 -0.9056 -1.4912  1.6630
 4550TIP3   OH213582   3.002   7.267   2.512 -0.3749 -0.7850 -0.0378
 4550TIP3    H113583   3.032   7.346   2.557  2.3350 -1.5587 -0.3967
 4550TIP3    H213584   2.983   7.205   2.583  0.4359 -0.8160  0.1555
 4551TIP3   OH213585   3.544   7.545   4.274 -0.1055  0.2225  0.2300
 4551TIP3    H113586   3.558   7.534   4.368  0.6570  0.3203  0.1355
 4551TIP3    H213587   3.608   7.486   4.233 -0.0626  0.5798 -0.2238
 4552TIP3   OH213588   4.979   7.084   2.626 -0.8294 -0.0069  0.4084
 4552TIP3    H113589   4.981   6.991   2.646 -1.0389  0.3838  2.4159
 4552TIP3    H213590   4.914   7.093   2.557 -0.6010 -1.3773  0.0069
 4553TIP3   OH213591   2.093   5.320   3.800 -0.2873 -0.4315 -0.3871
 4553TIP3    H113592   2.071   5.295   3.710 -0.5067  1.1091 -0.7726
 4553TIP3    H213593   2.183   5.352   3.795 -0.4855  0.1641 -0.1612
 4554TIP3   OH213594   2.791   6.740   2.346  0.3402 -0.1407 -0.0032
 4554TIP3    H113595   2.775   6.686   2.423  1.6863  0.7349  0.9228
 4554TIP3    H213596   2.846   6.686   2.289  0.2270 -0.3884  0.1219
 4555TIP3   OH213597   4.881   5.171   4.355 -0.0558  0.0729  0.3704
 4555TIP3    H113598   4.838   5.182   4.270  0.6430 -0.0208  0.0012
 4555TIP3    H213599   4.838   5.095   4.393 -0.6453  0.3515  0.2713
 4556TIP3   OH213600   3.012   5.543   4.479  0.0535  0.0325 -0.0814
 4556TIP3    H113601   2.988   5.456   4.446  1.0208  0.0378 -0.8531
 4556TIP3    H213602   3.039   5.591   4.400 -2.2198  1.6440  0.0743
 4557TIP3   OH213603   3.221   6.016   2.063 -0.2812  0.4452 -0.7024
 4557TIP3    H113604   3.171   6.010   1.982 -0.4776 -1.6019 -0.4421
 4557TIP3    H213605   3.264   5.931   2.072 -0.8307  0.3764  1.6947
 4558TIP3   OH213606   4.414   6.646   3.377  0.1033 -0.1669 -0.0373
 4558TIP3    H113607   4.391   6.621   3.466  0.2728  0.2727  0.1295
 4558TIP3    H213608   4.426   6.563   3.331 -2.0380 -0.4354 -0.1795
 4559TIP3   OH213609   2.018   6.659   3.110 -0.4287 -0.1256 -0.1071
 4559TIP3    H113610   1.974   6.598   3.169  1.6529 -0.1161  1.5031
 4559TIP3    H213611   2.028   6.739   3.162 -0.9198  0.7707 -1.3675
 4560TIP3   OH213612   3.975   6.762   1.831  0.3279 -0.9315 -0.5331
 4560TIP3    H113613   3.919   6.816   1.887  0.4260  0.6364 -1.9180
 4560TIP3    H213614   3.939   6.772   1.743  3.2137  0.7348 -1.5946
 4561TIP3   OH213615   4.228   6.362   2.447  0.6375  0.0381  0.0501
 4561TIP3    H113616   4.150   6.380   2.500  0.3453 -1.8671  0.3146
 4561TIP3    H213617   4.224   6.426   2.376  0.4798  1.9459  1.7531
 4562TIP3   OH213618   2.672   5.671   1.317 -0.0800  0.3868 -0.3720
 4562TIP3    H113619   2.712   5.604   1.261  0.8110  0.3477  0.2979
 4562TIP3    H213620   2.603   5.625   1.365  0.6001 -0.0790  0.1631
 4563TIP3   OH213621   1.902   2.897   5.155  0.4793 -0.1758 -0.2625
 4563TIP3    H113622   1.871   2.823   5.207  0.5272 -0.7543 -1.0560
 4563TIP3    H213623   1.983   2.866   5.114  0.3242  0.2002 -0.8609
 4564TIP3   OH213624   1.654   5.506   3.231  0.0398 -0.1039  0.0287
 4564TIP3    H113625   1.629   5.596   3.251  2.3994  0.5455  0.2449
 4564TIP3    H213626   1.703   5.513   3.149 -1.4992 -1.4859 -1.0388
 4565TIP3   OH213627   1.554   3.523   3.837 -0.2761 -0.5150  0.1975
 4565TIP3    H113628   1.573   3.532   3.930 -2.9093  0.0071  0.7386
 4565TIP3    H213629   1.469   3.565   3.826 -0.8947 -2.2406 -2.0896
 4566TIP3   OH213630   1.153   4.600   3.308 -0.2630  0.2743  0.1973
 4566TIP3    H113631   1.119   4.530   3.364  1.2506 -0.4926  0.1751
 4566TIP3    H213632   1.097   4.675   3.327 -1.7113 -0.8492  0.4463
 4567TIP3   OH213633   3.581   6.258   2.626 -0.0950 -0.1201 -0.4560
 4567TIP3    H113634   3.666   6.300   2.644  0.8170 -2.2360  0.4055
 4567TIP3    H213635   3.532   6.324   2.577  2.2033  1.0077 -1.3631
 4568TIP3   OH213636   3.709   7.337   4.167  0.0177  0.4762  0.1031
 4568TIP3    H113637   3.755   7.283   4.102 -0.1302 -0.1859  0.5349
 4568TIP3    H213638   3.732   7.297   4.251 -1.5180 -0.0030  0.3165
 4569TIP3   OH213639   2.257   7.170   2.947  0.2535 -0.0720  0.0865
 4569TIP3    H113640   2.271   7.210   3.033 -1.0751 -0.5127  0.5293
 4569TIP3    H213641   2.193   7.227   2.904 -0.9783 -1.1859  0.3843
 4570TIP3   OH213642   6.045   0.299   1.420  0.1240  0.5065 -0.1722
 4570TIP3    H113643   6.101   0.227   1.447 -1.4722 -0.7782 -0.2390
 4570TIP3    H213644   6.010   0.335   1.501 -0.9669 -0.3461 -0.2526
 4571TIP3   OH213645   4.752   5.607   1.406  0.0183 -0.2779  0.5965
 4571TIP3    H113646   4.673   5.638   1.360 -0.2342 -2.2709 -0.3316
 4571TIP3    H213647   4.823   5.656   1.366 -0.4854 -0.1785 -0.1953
 4572TIP3   OH213648   4.806   6.016   2.983  0.1820 -0.4877 -0.1579
 4572TIP3    H113649   4.733   6.052   3.034  1.0646  1.1941 -0.0295
 4572TIP3    H213650   4.765   5.962   2.916 -1.2660  1.2603 -0.7227
 4573TIP3   OH213651   3.466   6.026   2.565  0.0331  0.0378 -0.1239
 4573TIP3    H113652   3.532   6.094   2.581 -0.1648 -0.0693  1.1649
 4573TIP3    H213653   3.511   5.962   2.509  0.7060  0.4731 -0.0825
 4574TIP3   OH213654   4.061   5.416   3.636  0.3744  0.2869  0.3287
 4574TIP3    H113655   4.043   5.487   3.575  0.2936 -0.3828 -0.4289
 4574TIP3    H213656   4.137   5.371   3.600  0.8897  0.4485  1.2119
 4575TIP3   OH213657   5.110   5.296   4.434 -0.1534  0.1347 -0.0730
 4575TIP3    H113658   5.023   5.263   4.414 -0.1422 -0.7348  1.2615
 4575TIP3    H213659   5.170   5.226   4.409  0.1852  0.7605 -1.0620
 4576TIP3   OH213660   4.556   4.786   1.584  0.7365  0.1346  0.8609
 4576TIP3    H113661   4.611   4.813   1.511  1.0940  0.2085  1.1589
 4576TIP3    H213662   4.561   4.690   1.584  0.4612  0.1193  0.5757
 4577TIP3   OH213663   3.838   4.752   3.781  0.3550 -0.2013 -0.2508
 4577TIP3    H113664   3.883   4.731   3.863 -0.0294  0.9017  0.2514
 4577TIP3    H213665   3.908   4.778   3.721  0.5756 -0.3786 -0.0703
 4578TIP3   OH213666   2.206   4.589   1.666 -0.1987 -0.4645  0.0984
 4578TIP3    H113667   2.168   4.663   1.619 -0.1312 -1.2035 -1.1508
 4578TIP3    H213668   2.135   4.525   1.672  0.1260 -0.8421 -0.0362
 4579TIP3   OH213669   3.372   5.582   3.854 -0.2903  0.4714  0.0508
 4579TIP3    H113670   3.281   5.554   3.863 -0.2529  1.1839  3.2418
 4579TIP3    H213671   3.413   5.558   3.937  2.0468  1.5601 -0.7400
 4580TIP3   OH213672   3.805   4.196   3.544  0.4048 -0.4261 -0.2449
 4580TIP3    H113673   3.855   4.250   3.605  0.0708 -0.8907  0.4517
 4580TIP3    H213674   3.821   4.106   3.573 -1.0737 -0.5582  0.1665
 4581TIP3   OH213675   4.590   7.574   0.534 -0.2016 -0.4597  0.1933
 4581TIP3    H113676   4.674   7.588   0.577 -0.0591  0.6236 -0.4124
 4581TIP3    H213677   4.611   7.572   0.440 -0.9493  0.7877 -0.0251
 4582TIP3   OH213678   2.218   2.788   2.946  0.1158  0.3094  0.1298
 4582TIP3    H113679   2.297   2.760   2.993 -0.4048 -0.3697  0.6079
 4582TIP3    H213680   2.249   2.852   2.883  0.6962  2.0245  2.1012
 4583TIP3   OH213681   3.870   2.211   4.310 -0.5916 -0.3506 -0.3837
 4583TIP3    H113682   3.787   2.244   4.275 -0.3189 -0.0726 -0.7752
 4583TIP3    H213683   3.853   2.197   4.403 -0.4775  1.7360 -0.0268
 4584TIP3   OH213684   1.301   6.734   2.633 -0.4727  0.3496 -0.0917
 4584TIP3    H113685   1.280   6.732   2.539  1.8658  0.4904 -0.6458
 4584TIP3    H213686   1.310   6.642   2.658  0.6161  0.3695 -0.4101
 4585TIP3   OH213687   3.047   3.172   2.668  0.1615 -0.5699  0.2639
 4585TIP3    H113688   3.122   3.119   2.642  0.3692  0.2331 -0.7967
 4585TIP3    H213689   2.987   3.167   2.594 -0.5963 -0.7401  0.8716
 4586TIP3   OH213690   2.532   4.535   3.738  0.3172  0.0539  0.1476
 4586TIP3    H113691   2.600   4.469   3.750  0.0793 -0.5001 -1.4327
 4586TIP3    H213692   2.573   4.602   3.683 -0.3238 -0.1663 -0.6097
 4587TIP3   OH213693   3.145   6.515   3.480  0.4542  0.0442  0.4046
 4587TIP3    H113694   3.231   6.517   3.520  0.4103  0.2701  0.4915
 4587TIP3    H213695   3.151   6.449   3.411  0.2348 -1.0503  1.4284
 4588TIP3   OH213696   3.708   6.957   3.886  0.2028 -0.2094  0.5437
 4588TIP3    H113697   3.754   7.032   3.923  1.3670 -1.2305  1.2302
 4588TIP3    H213698   3.760   6.881   3.914  0.2608 -1.1258 -1.9454
 4589TIP3   OH213699   4.113   4.461   2.164  0.1398 -0.4057  0.1420
 4589TIP3    H113700   4.072   4.375   2.167 -2.6856  0.8958  0.8539
 4589TIP3    H213701   4.156   4.471   2.249  1.7692 -1.6787 -0.5081
 4590TIP3   OH213702   1.257   5.638   1.547 -0.6338 -0.1311  0.5198
 4590TIP3    H113703   1.285   5.719   1.506 -1.3945 -0.6570 -1.0778
 4590TIP3    H213704   1.164   5.651   1.566 -0.8340 -0.7229 -0.0134
 4591TIP3   OH213705   3.163   4.298   3.057  0.4870  0.3168 -0.0915
 4591TIP3    H113706   3.137   4.221   3.006 -0.9872 -0.6346  2.0128
 4591TIP3    H213707   3.124   4.372   3.010 -0.9414 -0.5407 -0.2784
 4592TIP3   OH213708   3.805   5.852   3.080  0.8442 -0.6195 -0.1843
 4592TIP3    H113709   3.737   5.918   3.085  2.1079  0.6297  0.7687
 4592TIP3    H213710   3.880   5.891   3.125  1.7485 -2.5169 -0.0082
 4593TIP3   OH213711   6.182   0.404   1.816 -0.6198 -0.0253  0.2078
 4593TIP3    H113712   6.212   0.480   1.767  0.1777 -0.8525 -0.5880
 4593TIP3    H213713   6.115   0.440   1.875 -1.3848  1.0364 -1.2497
 4594TIP3   OH213714   1.510   7.445   4.259 -0.1001 -0.4678  0.1872
 4594TIP3    H113715   1.426   7.490   4.261 -0.0831 -0.4319  0.0378
 4594TIP3    H213716   1.575   7.515   4.264 -0.0100 -0.2721 -2.7890
 4595TIP3   OH213717   3.025   5.988   4.425  0.1717 -0.3907 -0.2789
 4595TIP3    H113718   3.094   6.041   4.385 -0.8369  0.9078 -0.3246
 4595TIP3    H213719   3.031   6.007   4.518  1.2447 -1.9290  0.0019
 4596TIP3   OH213720   3.689   6.167   1.575 -0.0624  0.4694 -0.0816
 4596TIP3    H113721   3.645   6.190   1.657  0.8607  0.8967  0.3000
 4596TIP3    H213722   3.626   6.110   1.530  0.3331 -1.6384  1.9307
 4597TIP3   OH213723   2.788   4.073   2.688  0.5846 -0.3896  0.3817
 4597TIP3    H113724   2.704   4.040   2.719  0.5089  1.0153  1.7016
 4597TIP3    H213725   2.784   4.063   2.593 -0.3769 -1.9334  0.5644
 4598TIP3   OH213726   2.392   6.095   1.708  0.1641 -0.1571 -0.2128
 4598TIP3    H113727   2.484   6.076   1.692  0.2026 -1.3985  1.3349
 4598TIP3    H213728   2.381   6.080   1.802 -1.7491 -0.5728 -0.4884
 4599TIP3   OH213729   3.572   6.762   1.511  0.2567  0.5064  0.6508
 4599TIP3    H113730   3.508   6.691   1.509 -0.4039  1.0802  1.1341
 4599TIP3    H213731   3.537   6.828   1.452  1.3252  0.0554 -0.5129
 4600TIP3   OH213732   3.666   6.640   2.147 -0.0003  0.5658 -0.0936
 4600TIP3    H113733   3.694   6.549   2.145  1.3008  0.9536  0.3866
 4600TIP3    H213734   3.653   6.663   2.055 -0.4949 -0.1409 -0.2053
 4601TIP3   OH213735   3.054   3.628   2.995 -0.3968  0.0821  0.4441
 4601TIP3    H113736   3.039   3.564   2.926 -0.5088  1.6286 -1.0122
 4601TIP3    H213737   2.973   3.627   3.046 -0.6323 -0.5109  0.0623
 4602TIP3   OH213738   1.427   7.006   2.600  0.1938  0.0690  0.0823
 4602TIP3    H113739   1.333   6.999   2.614  0.1002  0.2167 -0.4708
 4602TIP3    H213740   1.442   7.099   2.584  0.1478 -0.2419 -1.8674
 4603TIP3   OH213741   4.911   6.134   1.114  0.0265 -0.0985 -0.6845
 4603TIP3    H113742   4.899   6.039   1.107  0.3995 -0.0243 -2.4692
 4603TIP3    H213743   4.976   6.144   1.184  2.3222 -1.3534 -2.5556
 4604TIP3   OH213744   4.476   7.209   1.424 -0.3989 -0.8881 -0.0344
 4604TIP3    H113745   4.420   7.171   1.491 -1.1358 -2.1822 -1.3486
 4604TIP3    H213746   4.416   7.250   1.362  0.3288  1.1932  0.6030
 4605TIP3   OH213747   0.472   7.621   3.104  0.5450  0.5696  0.0465
 4605TIP3    H113748   0.487   7.558   3.033  0.5460 -0.1884  0.7122
 4605TIP3    H213749   0.390   7.592   3.144  2.1078 -0.8891  2.3216
 4606TIP3   OH213750   4.194   5.397   4.117  0.4764  0.0638 -0.5359
 4606TIP3    H113751   4.256   5.359   4.180 -0.6246  0.0921  0.5700
 4606TIP3    H213752   4.226   5.367   4.032  2.1815  0.2956 -0.0079
 4607TIP3   OH213753   1.222   5.233   3.656  0.0395  0.1384  0.6273
 4607TIP3    H113754   1.217   5.187   3.740  0.0222  1.7498  1.5242
 4607TIP3    H213755   1.199   5.324   3.676  2.8029  1.1882 -0.5773
 4608TIP3   OH213756   3.326   7.325   4.170 -0.4681  0.2994  0.2792
 4608TIP3    H113757   3.404   7.378   4.190 -0.2878  0.0477  0.2537
 4608TIP3    H213758   3.350   7.277   4.091 -1.0146  0.9492 -0.2825
 4609TIP3   OH213759   2.909   5.513   2.076  0.1315  0.1996  0.4676
 4609TIP3    H113760   2.972   5.486   2.010 -0.8460 -2.5482  0.6192
 4609TIP3    H213761   2.954   5.497   2.160 -0.5990 -1.3874  0.5671
 4610TIP3   OH213762   5.048   6.227   0.839  0.0035 -0.0140 -0.0077
 4610TIP3    H113763   4.961   6.264   0.849  0.5759  2.0001 -2.0035
 4610TIP3    H213764   5.108   6.297   0.865  1.0487 -0.9452  0.1569
 4611TIP3   OH213765   5.276   0.283   1.319  0.0487 -0.0011  0.1778
 4611TIP3    H113766   5.300   0.313   1.231 -1.2269  0.5245  0.0017
 4611TIP3    H213767   5.213   0.213   1.304  1.0513 -1.0269  0.6560
 4612TIP3   OH213768   4.188   7.118   1.931 -0.0412 -0.4230  0.6730
 4612TIP3    H113769   4.125   7.075   1.989 -0.0529 -0.6297  0.5076
 4612TIP3    H213770   4.196   7.058   1.856 -0.5991  0.1997  0.1083
 4613TIP3   OH213771   2.415   5.769   2.050 -0.0278  0.6156  0.2891
 4613TIP3    H113772   2.326   5.758   2.082  0.3595 -1.2017  0.7943
 4613TIP3    H213773   2.426   5.699   1.985  1.5490 -0.1912  1.3941
 4614TIP3   OH213774   2.718   5.917   1.677  0.2191  0.4439  0.0652
 4614TIP3    H113775   2.672   5.836   1.698  1.1917 -0.1948 -0.2241
 4614TIP3    H213776   2.715   5.922   1.581  2.0655 -0.4058 -0.0565
 4615TIP3   OH213777   2.466   7.518   1.648  0.0839 -0.3057 -0.1165
 4615TIP3    H113778   2.378   7.518   1.685 -0.5611  2.2225 -1.5445
 4615TIP3    H213779   2.466   7.444   1.587  0.3101 -2.8270  2.7837
 4616TIP3   OH213780   3.542   6.047   2.845 -0.5257 -0.0822 -0.2354
 4616TIP3    H113781   3.571   6.118   2.902  0.8960 -0.5595 -0.3394
 4616TIP3    H213782   3.502   6.091   2.770  1.0770  0.6316 -0.6842
 4617TIP3   OH213783   2.466   5.444   3.064 -0.0720 -0.1193  0.2158
 4617TIP3    H113784   2.548   5.394   3.060  0.6939  1.1834 -0.5776
 4617TIP3    H213785   2.450   5.456   3.158  2.1414  1.9983  0.3650
 4618TIP3   OH213786   2.044   5.062   3.228  0.3576  0.0622 -0.1197
 4618TIP3    H113787   2.082   5.106   3.152  2.1053 -0.0211  0.6814
 4618TIP3    H213788   2.106   5.079   3.299 -0.3233 -1.4015  0.8415
 4619TIP3   OH213789   3.185   7.109   2.370 -0.3378  0.1415  0.0742
 4619TIP3    H113790   3.144   7.023   2.376 -0.2893  0.1180  0.0728
 4619TIP3    H213791   3.133   7.165   2.428 -0.8151  0.2898 -0.5030
 4620TIP3   OH213792   1.982   7.202   3.864 -0.3552 -0.2238 -0.1218
 4620TIP3    H113793   1.906   7.213   3.920 -0.9721 -1.5517 -0.6764
 4620TIP3    H213794   1.946   7.198   3.775  0.3759 -0.5878 -0.4118
 4621TIP3   OH213795   5.101   6.536   0.463 -0.1060  0.0937 -0.1554
 4621TIP3    H113796   5.098   6.590   0.542  0.1645  0.9245 -0.7010
 4621TIP3    H213797   5.136   6.452   0.492  1.5018  0.9114  0.3297
 4622TIP3   OH213798   2.038   4.801   1.649 -0.4205 -0.0098 -0.4103
 4622TIP3    H113799   2.108   4.817   1.711 -0.4809  0.2638 -0.4132
 4622TIP3    H213800   1.958   4.803   1.702 -0.6887  2.6719 -0.8850
 4623TIP3   OH213801   4.013   5.996   1.221 -0.2322  0.1326 -0.1149
 4623TIP3    H113802   4.070   6.029   1.290  0.0947 -1.5515  0.4381
 4623TIP3    H213803   3.933   5.968   1.266 -0.2779 -0.3500 -0.4821
 4624TIP3   OH213804   1.483   5.316   3.312  0.0314  1.1879 -0.1013
 4624TIP3    H113805   1.544   5.383   3.281  0.7803 -0.7005 -2.9309
 4624TIP3    H213806   1.410   5.319   3.249  0.5738 -1.3074 -0.9086
 4625TIP3   OH213807   2.096   7.249   2.154 -0.0909 -0.3072  0.0937
 4625TIP3    H113808   2.117   7.299   2.234 -1.1217 -1.5951  1.1978
 4625TIP3    H213809   2.123   7.160   2.174 -0.5927 -0.6889 -0.9167
 4626TIP3   OH213810   2.381   5.153   0.385 -0.4711  0.1950 -0.2335
 4626TIP3    H113811   2.327   5.079   0.413  0.1542 -0.0784  0.2873
 4626TIP3    H213812   2.402   5.199   0.466 -2.1452  1.8505 -0.7224
 4627TIP3   OH213813   2.816   7.660   3.604  0.0092 -0.7178 -0.6963
 4627TIP3    H113814   2.787   7.647   3.513 -0.8277 -1.3315 -0.3387
 4627TIP3    H213815   2.847   7.574   3.632  1.5329 -0.2252 -0.8428
 4628TIP3   OH213816   2.704   7.231   5.111  0.1221 -0.1486 -0.5033
 4628TIP3    H113817   2.692   7.189   5.026 -0.5307 -0.3934 -0.2973
 4628TIP3    H213818   2.732   7.161   5.169  0.2260 -0.0538 -0.4402
 4629TIP3   OH213819   4.195   5.779   0.416 -0.3926  0.0637 -0.5948
 4629TIP3    H113820   4.201   5.705   0.476  0.1560 -0.8267 -1.7414
 4629TIP3    H213821   4.217   5.855   0.470 -0.1140 -0.7017  0.3784
 4630TIP3   OH213822   1.244   3.571   5.539  0.0192  0.2268  0.2503
 4630TIP3    H113823   1.205   3.618   5.613  0.0430  0.0248  0.3902
 4630TIP3    H213824   1.332   3.608   5.531 -0.0749  0.4314  0.1592
 4631TIP3   OH213825   2.005   4.565   2.305  0.5030 -0.3044 -0.0840
 4631TIP3    H113826   2.050   4.641   2.342  1.0947 -0.5887 -0.2178
 4631TIP3    H213827   1.923   4.600   2.271  1.4494  0.5427 -1.5252
 4632TIP3   OH213828   4.007   5.023   2.962 -0.0482  0.5666 -0.2201
 4632TIP3    H113829   3.981   4.976   3.042 -0.7291  1.3259  0.0149
 4632TIP3    H213830   3.931   5.078   2.941 -0.1451 -0.1731 -1.8141
 4633TIP3   OH213831   1.900   4.240   1.865 -0.4361 -0.3599  0.6843
 4633TIP3    H113832   1.889   4.154   1.905  1.9252  0.0381  2.2970
 4633TIP3    H213833   1.918   4.298   1.939  0.6115  1.0322 -0.6385
 4634TIP3   OH213834   3.817   5.478   2.135  0.1283  0.1512 -0.1828
 4634TIP3    H113835   3.798   5.538   2.063 -1.2649 -1.1271 -0.9192
 4634TIP3    H213836   3.734   5.470   2.182  0.6794 -0.0583  0.7695
 4635TIP3   OH213837   4.016   4.748   1.412  0.1043 -0.0581 -0.4321
 4635TIP3    H113838   3.956   4.726   1.341  0.3909 -2.0417 -0.0962
 4635TIP3    H213839   4.091   4.788   1.367  0.2930 -1.3034 -1.2599
 4636TIP3   OH213840   4.381   5.939   1.677  0.4384  0.3566 -0.2725
 4636TIP3    H113841   4.457   5.881   1.681 -0.6901 -1.0876  0.4327
 4636TIP3    H213842   4.367   5.967   1.767 -1.1444 -1.0702 -0.0570
 4637TIP3   OH213843   3.834   5.447   3.455  0.6107 -0.1620 -0.2794
 4637TIP3    H113844   3.777   5.386   3.501 -0.0154 -0.5678 -1.5825
 4637TIP3    H213845   3.864   5.399   3.377  0.7740  0.8901 -0.8824
 4638TIP3   OH213846   1.967   7.227   0.279  0.3526  0.4307 -0.0728
 4638TIP3    H113847   2.043   7.260   0.231  0.8915 -1.3414 -0.4401
 4638TIP3    H213848   1.947   7.297   0.341 -0.6199  2.9611 -3.0900
 4639TIP3   OH213849   4.998   4.305   0.715 -0.0307 -0.5866 -0.1168
 4639TIP3    H113850   5.010   4.240   0.784  1.3797 -0.9524 -0.7074
 4639TIP3    H213851   5.000   4.389   0.761 -0.9941 -0.9048  0.5296
 4640TIP3   OH213852   3.972   6.517   1.969  0.2339 -0.4018  0.3878
 4640TIP3    H113853   3.899   6.467   1.932 -0.7447  0.9368  0.4872
 4640TIP3    H213854   3.963   6.604   1.932  0.4293  0.4121  2.1973
 4641TIP3   OH213855   2.034   3.622   2.364  0.3011  0.4165 -0.0589
 4641TIP3    H113856   1.970   3.651   2.299  1.1453  0.9113 -0.6877
 4641TIP3    H213857   2.027   3.685   2.435 -0.5713 -0.0797  0.2977
 4642TIP3   OH213858   2.868   6.484   0.833  0.3531  0.2735  0.2724
 4642TIP3    H113859   2.852   6.578   0.834  0.0765  0.2367 -0.4662
 4642TIP3    H213860   2.962   6.476   0.852  0.5845  0.7552 -0.5979
 4643TIP3   OH213861   3.107   7.904   2.915 -0.2792 -0.1578 -0.5854
 4643TIP3    H113862   3.097   7.872   2.825  0.8653  2.9028 -1.8509
 4643TIP3    H213863   3.027   7.954   2.932  1.5902  3.3577 -1.7224
 4644TIP3   OH213864   2.409   4.139   2.654 -0.3181  0.3920  0.3098
 4644TIP3    H113865   2.405   4.235   2.657 -1.9127  0.3267  1.7045
 4644TIP3    H213866   2.473   4.119   2.586  2.0693  2.4615  1.8699
 4645TIP3   OH213867   4.776   5.607   4.401  0.0285 -0.0430 -0.9077
 4645TIP3    H113868   4.836   5.546   4.442 -0.6060 -0.2607 -0.2967
 4645TIP3    H213869   4.803   5.693   4.432  0.7604 -0.0291 -1.5656
 4646TIP3   OH213870   2.601   5.215   2.454 -0.0373 -0.0444  0.2413
 4646TIP3    H113871   2.650   5.285   2.496 -0.3738  0.9104 -0.9442
 4646TIP3    H213872   2.537   5.260   2.398 -1.4515 -1.2728  0.8227
 4647TIP3   OH213873   3.289   5.201   5.035 -0.5430  0.1134 -0.0574
 4647TIP3    H113874   3.305   5.189   5.129 -0.3099 -0.3447 -0.1546
 4647TIP3    H213875   3.276   5.295   5.025 -0.5941  0.1620  0.4402
 4648TIP3   OH213876   3.160   5.584   0.610 -0.5290  0.6272 -0.2886
 4648TIP3    H113877   3.131   5.654   0.668 -0.8669  0.7773 -0.6393
 4648TIP3    H213878   3.245   5.614   0.577 -0.6539  0.8535 -0.4067
 4649TIP3   OH213879   1.983   5.856   5.089 -0.1246  0.0648  0.3062
 4649TIP3    H113880   2.028   5.775   5.064  0.3651  0.4570 -0.1009
 4649TIP3    H213881   2.049   5.907   5.135 -0.8284 -0.3481  1.8082
 4650TIP3   OH213882   3.921   7.441   0.957 -0.1665  0.3923 -0.4226
 4650TIP3    H113883   3.880   7.426   0.872 -1.6804 -0.1059  0.3746
 4650TIP3    H213884   3.848   7.462   1.015  0.7016 -0.6790  1.0818
 4651TIP3   OH213885   4.437   7.594   3.710 -0.0814  0.3213 -0.6398
 4651TIP3    H113886   4.384   7.560   3.638 -0.7713 -0.4920  0.2266
 4651TIP3    H213887   4.378   7.652   3.758  0.4547  1.0676 -0.8726
 4652TIP3   OH213888   2.206   7.470   3.374  0.2499  0.2233  0.6817
 4652TIP3    H113889   2.233   7.529   3.445 -0.6739  3.3244 -1.4654
 4652TIP3    H213890   2.112   7.483   3.366  0.2829 -0.3591 -0.8696
 4653TIP3   OH213891   3.703   5.935   1.047 -0.4393  0.0707 -0.4230
 4653TIP3    H113892   3.759   5.865   1.013  0.2401  0.6450 -0.5015
 4653TIP3    H213893   3.738   5.953   1.134 -0.1210  0.8522 -0.7151
 4654TIP3   OH213894   3.635   5.541   4.653  0.2253  0.0117 -0.2239
 4654TIP3    H113895   3.571   5.591   4.603  0.0616  1.0856  1.0444
 4654TIP3    H213896   3.598   5.453   4.659 -1.0173  0.5692  0.3013
 4655TIP3   OH213897   1.418   2.832   6.090  0.1143 -0.2271  0.1975
 4655TIP3    H113898   1.503   2.788   6.091 -0.3093 -1.0750 -0.6088
 4655TIP3    H213899   1.362   2.776   6.037 -0.6809  0.8386 -0.1215
 4656TIP3   OH213900   4.512   5.418   4.160  0.5389  0.3367  0.2835
 4656TIP3    H113901   4.501   5.335   4.114  0.2188  0.8689 -0.6144
 4656TIP3    H213902   4.584   5.461   4.114  1.9715 -0.2477  1.9338
 4657TIP3   OH213903   1.407   1.809   6.862  0.0778 -0.0866 -0.2061
 4657TIP3    H113904   1.464   1.884   6.846 -1.4034  1.3419  0.9378
 4657TIP3    H213905   1.433   1.776   6.948 -1.0644  0.8342  0.5103
 4658TIP3   OH213906   1.543   3.828   4.267  0.3144  0.0084 -0.1300
 4658TIP3    H113907   1.475   3.878   4.222  1.4228  1.5686 -0.0932
 4658TIP3    H213908   1.618   3.830   4.209  0.8510 -0.3420  0.5396
 4659TIP3   OH213909   2.005   5.257   3.560 -0.0478  0.1694  0.1269
 4659TIP3    H113910   1.967   5.302   3.484 -0.0670  2.2517  1.3222
 4659TIP3    H213911   1.929   5.222   3.606  0.0126 -1.7089 -1.1666
 4660TIP3   OH213912   2.207   5.704   3.199  0.0783 -0.2202 -0.0251
 4660TIP3    H113913   2.182   5.766   3.131 -0.7541  0.2867  0.7247
 4660TIP3    H213914   2.302   5.715   3.207  0.0066  0.6089 -0.2489
 4661TIP3   OH213915   3.608   4.775   2.723 -0.1544  0.0503 -0.2306
 4661TIP3    H113916   3.675   4.810   2.665 -1.4944  0.1012 -1.7634
 4661TIP3    H213917   3.617   4.680   2.716  0.3881  0.0568  0.3193
 4662TIP3   OH213918   3.213   5.935   3.288  0.3126 -0.2615 -0.0790
 4662TIP3    H113919   3.193   6.023   3.255  0.1466  0.0209  0.7530
 4662TIP3    H213920   3.260   5.952   3.370  0.0050 -0.9545  0.2387
 4663TIP3   OH213921   3.203   2.945   2.667  0.0036  0.0129  0.1865
 4663TIP3    H113922   3.255   2.868   2.643  2.7287  0.9978  2.5872
 4663TIP3    H213923   3.131   2.910   2.720  0.6816 -0.9553  0.4715
 4664TIP3   OH213924   2.271   5.005   2.345  0.0793  0.7786  0.4586
 4664TIP3    H113925   2.225   4.945   2.286  0.1857  2.5040 -1.4213
 4664TIP3    H213926   2.360   4.971   2.349  0.1828  0.8831 -0.7373
 4665TIP3   OH213927   0.872   6.444   3.550 -0.3231 -0.3291  0.1677
 4665TIP3    H113928   0.939   6.411   3.610  0.1734 -0.9525 -0.7233
 4665TIP3    H213929   0.874   6.384   3.476 -1.4441  0.0070 -0.1542
 4666TIP3   OH213930   2.194   6.702   2.903 -0.3878  0.5436 -0.0457
 4666TIP3    H113931   2.243   6.632   2.946 -1.3663 -0.9086 -1.2389
 4666TIP3    H213932   2.116   6.713   2.959  0.1950  1.3052  0.6267
 4667TIP3   OH213933   5.169   4.855   3.928 -0.0264 -0.2801  0.4743
 4667TIP3    H113934   5.122   4.835   4.009 -0.8050  0.2882  0.1698
 4667TIP3    H213935   5.161   4.775   3.876 -0.8926 -0.1030  0.3181
 4668TIP3   OH213936   2.440   3.920   2.832  0.2650  0.4062  0.2553
 4668TIP3    H113937   2.475   3.937   2.920 -0.7000  1.4755  0.4402
 4668TIP3    H213938   2.410   4.005   2.801 -1.0570 -0.2848 -0.3943
 4669TIP3   OH213939   4.683   5.991   4.184  0.5107  0.5936 -0.5126
 4669TIP3    H113940   4.672   6.039   4.101 -1.7342 -0.7743 -1.0628
 4669TIP3    H213941   4.698   6.059   4.249  0.5406  1.8330 -1.7810
 4670TIP3   OH213942   2.475   4.291   2.909 -0.8019 -0.0862  0.1543
 4670TIP3    H113943   2.385   4.266   2.931 -1.0481 -0.3196 -1.0945
 4670TIP3    H213944   2.467   4.346   2.831  0.2166 -1.0006 -0.6168
 4671TIP3   OH213945   7.372   0.294   0.124  0.4974 -0.2324  0.0244
 4671TIP3    H113946   7.330   0.320   0.042  0.0996 -1.5043 -0.1804
 4671TIP3    H213947   7.466   0.295   0.104  0.4522  0.4513 -0.1546
 4672TIP3   OH213948   1.022   5.587   2.020  0.0427  0.3864  0.3829
 4672TIP3    H113949   1.036   5.681   2.035 -0.3122  0.5889 -0.4993
 4672TIP3    H213950   0.970   5.558   2.095 -1.9135  1.4158 -0.5422
 4673TIP3   OH213951   5.186   0.042   2.107  0.3592  0.0188 -0.5138
 4673TIP3    H113952   5.150  -0.040   2.074 -0.3231  0.3538 -0.6122
 4673TIP3    H213953   5.281   0.027   2.111  0.1457 -1.0838  0.3644
 4674TIP3   OH213954   3.250   5.509   2.526 -0.1592  0.5945  0.8387
 4674TIP3    H113955   3.335   5.465   2.533  0.1202  0.4297 -2.7309
 4674TIP3    H213956   3.265   5.597   2.562  1.1681  0.1638  1.3611
 4675TIP3   OH213957   3.204   7.286   1.570 -0.0135 -0.2034 -0.2146
 4675TIP3    H113958   3.207   7.190   1.575 -1.8383 -0.2383  0.7805
 4675TIP3    H213959   3.125   7.310   1.619  0.8384  1.8598  0.2213
 4676TIP3   OH213960   4.459   0.089   1.641 -0.0721  0.0917 -0.1520
 4676TIP3    H113961   4.530   0.100   1.704  0.6278  2.2876 -1.2760
 4676TIP3    H213962   4.385   0.136   1.679 -0.7515 -1.6555  0.7181
 4677TIP3   OH213963   4.024   7.063   3.450  0.9063  0.2433  0.2731
 4677TIP3    H113964   4.091   6.995   3.440  1.7475  0.9600  0.9575
 4677TIP3    H213965   3.966   7.028   3.518  1.3775  0.2308  0.6783
 4678TIP3   OH213966   4.788   6.309   1.550 -0.3861 -0.4079 -0.0510
 4678TIP3    H113967   4.882   6.302   1.567 -0.4252 -1.4801 -0.2262
 4678TIP3    H213968   4.747   6.303   1.636 -0.2658  0.9474  0.1190
 4679TIP3   OH213969   3.342   5.266   2.353 -0.0509 -0.5181  0.2445
 4679TIP3    H113970   3.280   5.302   2.289  1.1131 -0.7490 -1.0344
 4679TIP3    H213971   3.327   5.171   2.350 -0.1796 -0.5057  0.5050
 4680TIP3   OH213972   3.647   7.133   1.346  0.1209 -0.0296  0.0802
 4680TIP3    H113973   3.563   7.175   1.366  0.0897  0.5706 -1.3183
 4680TIP3    H213974   3.624   7.040   1.334 -0.3750  0.1684 -0.5150
 4681TIP3   OH213975   3.377   6.945   4.677  0.3188 -0.1334  0.4795
 4681TIP3    H113976   3.431   6.935   4.756  2.0990  0.3214 -0.6440
 4681TIP3    H213977   3.304   7.001   4.705  1.0181  0.1527  1.7661
 4682TIP3   OH213978   3.155   7.755   1.157  0.2354 -0.5203  0.3420
 4682TIP3    H113979   3.215   7.686   1.185 -0.1078 -0.5951  0.8810
 4682TIP3    H213980   3.209   7.834   1.154  0.1455 -0.3889  1.7767
 4683TIP3   OH213981   3.595   4.243   2.505 -1.0297  0.4746  0.0712
 4683TIP3    H113982   3.578   4.170   2.446  0.9090 -0.6865  0.8981
 4683TIP3    H213983   3.546   4.223   2.584  1.8351 -1.5364  1.4512
 4684TIP3   OH213984   3.597   4.608   3.470 -0.5075 -0.1600 -0.0707
 4684TIP3    H113985   3.503   4.611   3.451 -0.8537  0.1242  1.6374
 4684TIP3    H213986   3.636   4.666   3.405 -1.6854  0.9228  0.1725
 4685TIP3   OH213987   1.663   7.233   0.982 -0.0940 -0.0507 -0.0205
 4685TIP3    H113988   1.672   7.316   0.936 -0.1480 -0.4732 -0.8065
 4685TIP3    H213989   1.598   7.184   0.931 -0.3453 -0.4216  0.6493
 4686TIP3   OH213990   3.995   7.627   0.400 -0.1991 -0.5081  0.0187
 4686TIP3    H113991   4.035   7.626   0.487  0.5031 -0.3707 -0.3043
 4686TIP3    H213992   3.904   7.652   0.416 -0.0160 -0.2638  0.6942
 4687TIP3   OH213993   3.615   4.953   3.407  0.8421  0.3279 -0.6054
 4687TIP3    H113994   3.607   4.885   3.340  0.0662 -0.6583  0.4643
 4687TIP3    H213995   3.616   4.905   3.490 -0.3289  1.6614  0.2011
 4688TIP3   OH213996   3.506   5.285   3.812  0.0525 -0.2952  0.1096
 4688TIP3    H113997   3.448   5.295   3.888 -2.2903 -1.3723 -1.4881
 4688TIP3    H213998   3.564   5.361   3.817 -0.5581  0.0626  2.5405
 4689TIP3   OH213999   4.397   3.452   3.311  0.5575  0.2106 -0.1100
 4689TIP3    H114000   4.459   3.449   3.385 -0.4900  1.6835  0.8613
 4689TIP3    H214001   4.425   3.528   3.260  0.4970 -0.0485 -0.5300
 4690TIP3   OH214002   4.342   5.190   1.396 -0.1929 -0.3027  0.6036
 4690TIP3    H114003   4.400   5.252   1.353 -1.4291 -0.3497 -1.1471
 4690TIP3    H214004   4.371   5.104   1.366  0.3703 -0.4860  1.6328
 4691TIP3   OH214005   2.241   5.821   4.864  0.0515  0.3904 -0.6099
 4691TIP3    H114006   2.323   5.819   4.815 -0.5434  0.0603 -1.5886
 4691TIP3    H214007   2.261   5.876   4.941  0.8669  1.2257 -1.4049
 4692TIP3   OH214008   1.928   3.083   1.393  0.1217 -0.0975 -0.1352
 4692TIP3    H114009   1.906   3.116   1.305 -1.2117  0.0987  0.2528
 4692TIP3    H214010   1.946   3.162   1.444  0.7295 -0.2022 -0.1808
 4693TIP3   OH214011   3.596   5.554   1.422  0.3877 -0.3243  0.2919
 4693TIP3    H114012   3.644   5.555   1.339 -0.3241  0.6086 -0.1261
 4693TIP3    H214013   3.661   5.531   1.488  1.5223  1.4576 -0.1853
 4694TIP3   OH214014   5.603   5.123   3.262  0.4101 -0.3827 -0.0379
 4694TIP3    H114015   5.651   5.206   3.269 -1.0722  0.4376  0.5361
 4694TIP3    H214016   5.651   5.074   3.195  0.2605  1.6522 -1.6816
 4695TIP3   OH214017   1.719   5.493   1.069 -0.2529  0.2044 -0.8310
 4695TIP3    H114018   1.644   5.461   1.120  0.7451 -1.3092 -0.2854
 4695TIP3    H214019   1.765   5.551   1.129  0.4258 -0.8764 -0.2995
 4696TIP3   OH214020   6.690   4.219   1.758  0.3984  0.1219 -0.1786
 4696TIP3    H114021   6.690   4.301   1.808 -1.8551 -0.2140  0.4412
 4696TIP3    H214022   6.745   4.160   1.808  0.5075  0.6929  0.3861
 4697TIP3   OH214023   2.395   4.511   3.088  0.4503 -0.3902 -0.2408
 4697TIP3    H114024   2.356   4.433   3.128 -1.7729  1.0216  0.4142
 4697TIP3    H214025   2.479   4.480   3.054  0.3937 -2.6646  1.5281
 4698TIP3   OH214026   4.741   6.872   1.584 -0.4956  0.4465 -0.3760
 4698TIP3    H114027   4.709   6.920   1.508 -1.1606  0.3558 -0.1622
 4698TIP3    H214028   4.668   6.876   1.646 -0.1932 -0.0183  0.0085
 4699TIP3   OH214029   3.020   6.784   1.318 -0.1226 -0.2200  0.6677
 4699TIP3    H114030   3.070   6.861   1.346  1.1233 -0.8183  0.1646
 4699TIP3    H214031   3.011   6.795   1.223 -1.4120  0.1495  0.8373
 4700TIP3   OH214032   1.085   4.290   2.548  0.3616 -0.1098  0.5174
 4700TIP3    H114033   1.168   4.294   2.595  0.9245  1.4168 -0.5510
 4700TIP3    H214034   1.024   4.340   2.602  1.1270  2.0574 -0.5387
 4701TIP3   OH214035   2.708   3.794   2.720 -0.1418 -0.4847 -0.0412
 4701TIP3    H114036   2.654   3.846   2.660  1.3026  1.1770  0.0829
 4701TIP3    H214037   2.709   3.845   2.801 -0.2515 -1.6393  0.6964
 4702TIP3   OH214038   4.694   7.209   1.946 -0.0727  0.1699  0.2184
 4702TIP3    H114039   4.620   7.195   2.005 -0.9820  1.8257 -0.4983
 4702TIP3    H214040   4.657   7.257   1.872  1.6490  0.6674 -0.3451
 4703TIP3   OH214041   1.907   6.845   3.819  0.0334  0.2692 -0.0991
 4703TIP3    H114042   1.913   6.868   3.912 -1.6339  0.1986  0.0269
 4703TIP3    H214043   1.837   6.781   3.814  0.2099  0.1659 -1.4011
 4704TIP3   OH214044   5.722   5.251   2.263  0.5712  0.1278  0.1534
 4704TIP3    H114045   5.763   5.318   2.208 -0.5765  0.3744 -0.4159
 4704TIP3    H214046   5.702   5.296   2.345 -1.3933  0.8686 -0.6937
 4705TIP3   OH214047   2.219   5.490   4.589  0.1214 -0.3191 -0.1132
 4705TIP3    H114048   2.177   5.407   4.565 -0.3950  0.1179 -0.7064
 4705TIP3    H214049   2.147   5.549   4.609  0.5217 -0.4000  1.6525
 4706TIP3   OH214050   0.231   7.523   0.497  0.5694 -0.5331 -0.4402
 4706TIP3    H114051   0.170   7.586   0.536  1.3860  0.6065 -0.9993
 4706TIP3    H214052   0.194   7.504   0.411  0.8724 -0.0137 -0.6891
 4707TIP3   OH214053   4.481   6.159   3.696  0.0759  0.7239 -0.6616
 4707TIP3    H114054   4.542   6.096   3.659 -0.5373 -0.9227  1.0314
 4707TIP3    H214055   4.394   6.123   3.677 -0.3734  2.6439 -2.3660
 4708TIP3   OH214056   8.442   2.385   6.443  0.4516 -0.0344  0.1000
 4708TIP3    H114057   8.391   2.466   6.447 -0.9644 -0.8971  0.0199
 4708TIP3    H214058   8.399   2.333   6.376  0.0761 -1.6791  1.5739
 4709TIP3   OH214059   2.055   6.430   2.245 -0.0496 -0.3024  0.3125
 4709TIP3    H114060   2.117   6.503   2.236  0.4266 -0.7706 -0.2491
 4709TIP3    H214061   2.101   6.366   2.298 -0.1612 -0.5348  0.1272
 4710TIP3   OH214062   2.567   6.194   3.587  0.3245 -0.0980 -0.2267
 4710TIP3    H114063   2.607   6.278   3.565 -1.1399  1.2204  1.9101
 4710TIP3    H214064   2.616   6.163   3.663 -1.2514  0.4559  1.0336
 4711TIP3   OH214065   3.229   5.598   2.269 -0.3470  0.2089 -0.3222
 4711TIP3    H114066   3.152   5.655   2.275 -1.2301 -1.0655  0.8763
 4711TIP3    H214067   3.245   5.571   2.360 -0.0888 -1.6124 -0.8913
 4712TIP3   OH214068   4.988   5.754   0.956 -0.3529  0.0179  0.2558
 4712TIP3    H114069   4.979   5.666   0.994  0.3636  0.2927  1.0603
 4712TIP3    H214070   4.898   5.786   0.949 -0.6638 -0.9796 -0.5179
 4713TIP3   OH214071   2.612   4.307   4.053 -0.1297 -0.4591 -0.0242
 4713TIP3    H114072   2.700   4.332   4.027  0.3359 -1.6162  0.4112
 4713TIP3    H214073   2.579   4.257   3.978 -0.4726  0.0956 -0.2456
 4714TIP3   OH214074   5.791   3.807   1.401  0.1652 -0.4316 -0.0731
 4714TIP3    H114075   5.735   3.750   1.347  0.6108 -0.4646 -0.5050
 4714TIP3    H214076   5.879   3.794   1.366  0.4351 -0.3230  0.5574
 4715TIP3   OH214077   3.413   5.676   3.148  0.3661 -0.4877  0.5394
 4715TIP3    H114078   3.408   5.700   3.055 -1.6434  2.0574  1.2407
 4715TIP3    H214079   3.326   5.643   3.168  0.3583  0.2720  1.8197
 4716TIP3   OH214080   2.429   5.376   1.662 -0.6760 -0.2516 -0.1482
 4716TIP3    H114081   2.420   5.302   1.602  0.6903  0.0533 -0.7347
 4716TIP3    H214082   2.356   5.434   1.639  0.4926  0.4207 -2.3174
 4717TIP3   OH214083   4.845   6.059   2.528  0.4940 -0.1888 -0.3103
 4717TIP3    H114084   4.830   5.964   2.532  1.2146 -0.2723  0.4515
 4717TIP3    H214085   4.859   6.085   2.619 -2.1597  1.0673 -0.2113
 4718TIP3   OH214086   3.965   5.016   2.402 -0.5709  0.3396  0.0899
 4718TIP3    H114087   3.913   5.080   2.353  0.0481  0.9936  0.2719
 4718TIP3    H214088   4.041   5.066   2.433 -0.2677 -0.3985  0.5480
 4719TIP3   OH214089   3.990   5.475   0.392  0.2859 -0.1942 -0.0426
 4719TIP3    H114090   3.911   5.438   0.431  1.0959 -0.6203  1.2195
 4719TIP3    H214091   4.039   5.510   0.466  0.3626  1.8650 -1.0256
 4720TIP3   OH214092   1.290   5.435   2.379 -0.4300  0.1961  0.3314
 4720TIP3    H114093   1.218   5.409   2.436 -1.3815  0.7489 -0.6062
 4720TIP3    H214094   1.258   5.514   2.335  1.5523  1.7087  1.4953
 4721TIP3   OH214095   2.487   6.368   0.887 -0.0318 -0.4716 -0.0339
 4721TIP3    H114096   2.428   6.297   0.912 -0.1770 -0.2963  0.1271
 4721TIP3    H214097   2.498   6.419   0.967  0.1244 -0.3500 -0.1313
 4722TIP3   OH214098   4.979   4.330   2.301  0.1155  0.2763 -0.6405
 4722TIP3    H114099   4.967   4.391   2.228  2.1719  0.2678 -1.0208
 4722TIP3    H214100   4.988   4.244   2.259 -1.0452 -0.0690 -0.2123
 4723TIP3   OH214101   8.469   4.208   5.473  0.3661 -0.2624 -0.3266
 4723TIP3    H114102   8.374   4.200   5.464  0.2881  2.0813 -1.9667
 4723TIP3    H214103   8.505   4.136   5.420 -0.4769  0.3482 -1.7556
 4724TIP3   OH214104   3.640   4.771   3.204  0.4578 -0.3867 -0.0640
 4724TIP3    H114105   3.593   4.715   3.143 -0.2700 -1.1298  1.1527
 4724TIP3    H214106   3.703   4.819   3.150 -1.7623  0.6957 -1.7383
 4725TIP3   OH214107   4.662   5.438   2.779  0.1832 -0.1978  0.2423
 4725TIP3    H114108   4.729   5.373   2.799 -0.6524 -1.0109  0.4155
 4725TIP3    H214109   4.661   5.497   2.855  2.2415  1.1346 -0.7301
 4726TIP3   OH214110   2.238   5.847   0.668 -0.6980 -0.5692  0.0981
 4726TIP3    H114111   2.146   5.836   0.644 -0.6513  1.1581 -0.9981
 4726TIP3    H214112   2.274   5.758   0.668 -2.0516 -1.1308 -0.7832
 4727TIP3   OH214113   4.393   5.455   3.581 -0.5220 -0.5101  0.6347
 4727TIP3    H114114   4.397   5.548   3.605 -0.6615 -0.3327  0.0025
 4727TIP3    H214115   4.400   5.455   3.485 -0.8162 -1.1350  0.6094
 4728TIP3   OH214116   5.917   0.705   3.988 -0.1402 -0.3346 -0.3479
 4728TIP3    H114117   5.965   0.692   3.906 -2.0387 -0.4518 -1.4762
 4728TIP3    H214118   5.984   0.730   4.052  1.4558 -0.9166 -1.7739
 4729TIP3   OH214119   3.969   6.407   2.575 -0.1708 -0.2176  0.4249
 4729TIP3    H114120   3.935   6.326   2.613  0.1923  0.0080  1.2265
 4729TIP3    H214121   3.894   6.467   2.577  0.4738  0.5402  2.9455
 4730TIP3   OH214122   4.991   6.887   1.660  0.4027  0.7840  0.3205
 4730TIP3    H114123   5.020   6.969   1.622  2.3936 -0.8247 -1.8101
 4730TIP3    H214124   4.896   6.885   1.647  0.1062  3.4540  1.9086
 4731TIP3   OH214125   4.304   6.297   2.786 -0.0551  0.4420  0.0101
 4731TIP3    H114126   4.350   6.261   2.862 -0.7051  1.0166  0.6837
 4731TIP3    H214127   4.268   6.220   2.741  0.3527  0.1024  0.2590
 4732TIP3   OH214128   4.891   6.827   2.579  0.2572 -0.0289  0.0132
 4732TIP3    H114129   4.884   6.753   2.639  2.2734 -0.3246 -0.0881
 4732TIP3    H214130   4.851   6.795   2.498  2.1799 -1.4405 -0.4070
 4733TIP3   OH214131   4.923   0.229   3.241  0.0911 -0.0484  0.0439
 4733TIP3    H114132   4.922   0.149   3.293  0.7748 -0.4454 -0.5427
 4733TIP3    H214133   4.916   0.198   3.150 -1.4601  0.6470 -0.0971
 4734TIP3   OH214134   1.716   3.978   4.081  0.3772 -0.2494  0.6283
 4734TIP3    H114135   1.689   3.972   3.990 -0.2756 -1.5896  0.8936
 4734TIP3    H214136   1.809   4.001   4.078  0.1895  0.3727 -0.3643
 4735TIP3   OH214137   3.121   3.232   3.585  0.5292 -0.0884 -0.6755
 4735TIP3    H114138   3.041   3.219   3.636  1.0822  0.1504  0.2839
 4735TIP3    H214139   3.098   3.300   3.522  0.3522  0.9851  0.5043
 4736TIP3   OH214140   3.281   3.572   6.613 -0.0252 -0.4016 -0.0889
 4736TIP3    H114141   3.267   3.515   6.689 -1.1418  0.0197  0.0283
 4736TIP3    H214142   3.285   3.660   6.650  0.0404 -0.2491 -0.4586
 4737TIP3   OH214143   4.825   6.573   0.575 -0.2765  0.2193  0.2322
 4737TIP3    H114144   4.865   6.606   0.494  1.0395  0.3360  0.9238
 4737TIP3    H214145   4.742   6.535   0.546  0.2671  0.0852 -1.2110
 4738TIP3   OH214146   4.788   1.086   6.906 -0.2357  0.1378 -0.0263
 4738TIP3    H114147   4.732   1.155   6.871 -2.1743 -0.7434  1.2094
 4738TIP3    H214148   4.778   1.013   6.845  0.9168  0.5282 -0.7096
 4739TIP3   OH214149   4.780   7.920   3.078 -0.2874  0.3429  0.1762
 4739TIP3    H114150   4.841   7.886   3.144  0.1808  1.4757  0.3346
 4739TIP3    H214151   4.769   7.848   3.016  0.6814 -0.1066  0.5176
 4740TIP3   OH214152   6.217   6.046   2.188  0.0680  0.7929 -0.1354
 4740TIP3    H114153   6.203   6.046   2.283 -2.6814  0.7264 -0.5012
 4740TIP3    H214154   6.180   5.963   2.158 -0.6295  1.5689 -1.4679
 4741TIP3   OH214155   6.289   5.898   1.002 -0.3254 -0.9137 -0.2217
 4741TIP3    H114156   6.225   5.953   1.047 -0.7104 -1.3035 -0.2918
 4741TIP3    H214157   6.249   5.879   0.917 -0.0146 -0.9676 -0.3564
 4742TIP3   OH214158   3.668   7.293   1.997 -0.1422 -0.2224  0.1905
 4742TIP3    H114159   3.683   7.278   2.090 -0.1010  2.7821  0.7080
 4742TIP3    H214160   3.755   7.310   1.961 -0.4595  1.4976  0.1878
 4743TIP3   OH214161   4.523   6.329   2.520  0.2716 -0.0967  0.0002
 4743TIP3    H114162   4.532   6.396   2.452  0.7751 -2.4758 -2.3313
 4743TIP3    H214163   4.431   6.335   2.547 -0.9529 -1.4881 -3.4942
 4744TIP3   OH214164   5.376   5.747   0.090 -0.1204 -0.3536 -0.2724
 4744TIP3    H114165   5.416   5.660   0.094  0.8960  0.1790  1.3691
 4744TIP3    H214166   5.288   5.734   0.125  0.0913 -0.6761  0.1376
 4745TIP3   OH214167   4.581   4.677   1.235 -0.2408 -0.3289  0.1105
 4745TIP3    H114168   4.564   4.771   1.241  0.3870 -0.2495  0.7638
 4745TIP3    H214169   4.658   4.663   1.291  0.4520 -1.0206 -0.9792
 4746TIP3   OH214170   3.305   6.462   1.895 -0.3758 -0.3198 -0.0361
 4746TIP3    H114171   3.212   6.476   1.911 -0.0726  0.1262  1.3554
 4746TIP3    H214172   3.329   6.388   1.951  0.5411  0.8485  1.1511
 4747TIP3   OH214173   3.873   7.347   2.554  0.4078  0.4337 -0.1619
 4747TIP3    H114174   3.945   7.369   2.494 -0.6216  0.7238 -1.3195
 4747TIP3    H214175   3.799   7.399   2.522 -0.4358 -0.1863  0.7611
 4748TIP3   OH214176   5.888   5.361   3.468  0.2647  0.1173  0.4321
 4748TIP3    H114177   5.921   5.424   3.532  0.6776  1.0901 -0.7116
 4748TIP3    H214178   5.960   5.299   3.456  0.0976 -0.2061  1.0787
 4749TIP3   OH214179   4.390   5.190   3.673  0.5664 -0.0942  0.1499
 4749TIP3    H114180   4.403   5.132   3.598  1.1464  0.3056 -0.0687
 4749TIP3    H214181   4.423   5.275   3.643  1.1467 -0.0214  0.9797
 4750TIP3   OH214182   4.117   6.503   2.802 -0.5794 -0.5265  0.1226
 4750TIP3    H114183   4.086   6.510   2.712  2.0127 -0.3009 -0.7983
 4750TIP3    H214184   4.193   6.444   2.797  1.5112  1.9148  1.6042
 4751TIP3   OH214185   4.842   7.343   2.138 -0.1111 -0.1906 -0.0694
 4751TIP3    H114186   4.798   7.290   2.071 -0.3089  0.5193 -0.5107
 4751TIP3    H214187   4.875   7.280   2.201  0.6155 -0.9273 -1.1695
 4752TIP3   OH214188   6.680   6.871   3.050  0.5972  0.3927  0.2721
 4752TIP3    H114189   6.604   6.844   3.102 -0.6299  1.3526 -0.9631
 4752TIP3    H214190   6.712   6.789   3.011  0.7593 -0.1477  1.5231
 4753TIP3   OH214191   4.730   7.579   2.098  0.2887  0.6460 -0.3284
 4753TIP3    H114192   4.762   7.490   2.109  0.2950  0.4993 -1.4814
 4753TIP3    H214193   4.662   7.573   2.031 -0.0181  1.4404 -0.1036
 4754TIP3   OH214194   5.631   4.033   3.003 -0.5271 -0.2925  0.5535
 4754TIP3    H114195   5.686   3.960   3.031 -1.1663 -0.3102  1.8129
 4754TIP3    H214196   5.615   4.018   2.910  1.5142 -0.3397  0.1783
 4755TIP3   OH214197   4.967   5.227   1.748  0.5730  0.1211 -0.5893
 4755TIP3    H114198   5.033   5.191   1.689  1.0705  1.6813 -1.0074
 4755TIP3    H214199   4.939   5.308   1.706 -0.5710  0.1973  0.2974
 4756TIP3   OH214200   6.604   6.585   1.262 -0.4037  0.6040 -0.0720
 4756TIP3    H114201   6.612   6.585   1.166  0.6157  1.1291  0.0088
 4756TIP3    H214202   6.675   6.528   1.292 -0.8460  0.2820  0.3711
 4757TIP3   OH214203   6.821   5.934   1.379 -0.6119 -0.3206 -0.3564
 4757TIP3    H114204   6.796   6.026   1.371  0.1313 -0.2513 -2.2031
 4757TIP3    H214205   6.784   5.906   1.463 -2.3558  1.1770 -0.5931
 4758TIP3   OH214206   6.758   6.898   0.672  0.0629 -0.0047 -0.5273
 4758TIP3    H114207   6.716   6.871   0.590 -2.1747  2.1913 -0.1584
 4758TIP3    H214208   6.820   6.966   0.645  0.9978 -0.9037 -0.6648
 4759TIP3   OH214209   6.942   6.697   1.708  0.4163 -0.1130 -0.3696
 4759TIP3    H114210   7.037   6.700   1.695  0.5676 -1.5259  0.3107
 4759TIP3    H214211   6.929   6.735   1.795  0.3095  0.5682 -0.6845
 4760TIP3   OH214212   5.039   5.256   0.966 -0.3639  0.5009  0.8727
 4760TIP3    H114213   5.018   5.169   0.998 -0.8991  0.9623  1.8015
 4760TIP3    H214214   5.112   5.242   0.905 -1.3431 -0.7394 -0.0261
 4761TIP3   OH214215   6.267   5.824   3.740 -0.1322  0.0105  0.2347
 4761TIP3    H114216   6.353   5.859   3.719  0.6653 -1.5938  0.6736
 4761TIP3    H214217   6.247   5.765   3.668 -1.5321  1.4795 -0.5972
 4762TIP3   OH214218   6.792   3.932   2.704  0.2813  0.2152  0.1447
 4762TIP3    H114219   6.793   4.027   2.694 -1.2591  0.1372 -1.0235
 4762TIP3    H214220   6.783   3.917   2.798  1.2808  1.2010  0.4044
 4763TIP3   OH214221   3.783   5.414   1.583  0.4611  0.4128 -0.0145
 4763TIP3    H114222   3.811   5.325   1.605  1.0934  0.2179 -1.5097
 4763TIP3    H214223   3.859   5.469   1.605  0.6512  0.3723 -0.5601
 4764TIP3   OH214224   5.419   7.498   1.713  0.4934  0.0936 -0.0462
 4764TIP3    H114225   5.467   7.555   1.772  0.4198 -0.4773  0.5729
 4764TIP3    H214226   5.487   7.450   1.666  0.5592  0.9062 -0.7867
 4765TIP3   OH214227   7.180   0.135   2.558  0.1457  0.5392  0.1245
 4765TIP3    H114228   7.122   0.078   2.607 -1.3003  1.2917 -0.6694
 4765TIP3    H214229   7.260   0.084   2.546 -1.4418 -1.6685 -1.3679
 4766TIP3   OH214230   6.019   5.331   2.375  0.2139 -0.4482  0.6463
 4766TIP3    H114231   6.020   5.252   2.320  3.1308  1.5577 -2.3730
 4766TIP3    H214232   6.089   5.316   2.439  0.3652 -0.5178  0.4628
 4767TIP3   OH214233   5.886   0.441   3.335 -0.5310  0.3080 -0.1115
 4767TIP3    H114234   5.841   0.507   3.388 -1.0844  0.5234 -0.8323
 4767TIP3    H214235   5.971   0.481   3.314 -0.0725 -0.0170  1.0843
 4768TIP3   OH214236   4.628   6.143   2.347 -0.0219  0.1507 -0.5670
 4768TIP3    H114237   4.605   6.210   2.411 -1.7167 -1.0307  0.1208
 4768TIP3    H214238   4.704   6.099   2.384 -0.0913  0.4421 -0.0748
 4769TIP3   OH214239   6.051   6.937   1.145 -0.4274 -0.1091  0.1415
 4769TIP3    H114240   5.959   6.910   1.137 -0.7934  0.9216  0.7651
 4769TIP3    H214241   6.057   7.017   1.093  0.5124 -1.0227 -1.2025
 4770TIP3   OH214242   3.298   8.025   3.866  0.3328  0.2730  0.4925
 4770TIP3    H114243   3.277   7.967   3.940 -0.3053 -0.3604 -0.1713
 4770TIP3    H214244   3.365   7.978   3.817 -0.8576 -0.3719 -0.5727
 4771TIP3   OH214245   6.901   6.012   2.681 -0.6077  0.2121 -0.2114
 4771TIP3    H114246   6.948   6.081   2.728  1.0472 -1.3677  0.5160
 4771TIP3    H214247   6.969   5.969   2.629 -1.4517 -1.4681  0.0584
 4772TIP3   OH214248   2.684   5.475   1.547 -0.0002 -0.2261  0.4224
 4772TIP3    H114249   2.596   5.513   1.550 -0.0171 -0.0111 -1.7412
 4772TIP3    H214250   2.670   5.381   1.557 -0.5553 -0.2599 -0.5595
 4773TIP3   OH214251   2.928   6.905   2.060 -0.5365 -0.3531  0.8312
 4773TIP3    H114252   3.014   6.881   2.096  0.7946  1.6697 -0.8452
 4773TIP3    H214253   2.901   6.828   2.010  0.7097 -0.7001  0.6770
 4774TIP3   OH214254   1.922   6.103   0.832 -0.4393  0.1696  0.2157
 4774TIP3    H114255   1.935   6.042   0.906 -0.1935  1.0738  0.9315
 4774TIP3    H214256   1.979   6.177   0.853 -1.1135  0.8617 -0.4133
 4775TIP3   OH214257   4.966   6.094   4.106 -0.2389 -0.1612 -0.1569
 4775TIP3    H114258   4.962   6.160   4.037 -0.4160 -1.3813 -1.3409
 4775TIP3    H214259   4.907   6.125   4.174  0.0598  1.1409 -0.4894
 4776TIP3   OH214260   4.674   6.701   1.296  0.0511 -0.0361  0.1911
 4776TIP3    H114261   4.699   6.681   1.386  3.1664 -0.5825 -0.7700
 4776TIP3    H214262   4.671   6.797   1.293  1.5651  0.0317  0.4744
 4777TIP3   OH214263   2.988   5.436   2.704 -0.5661  0.6883 -0.1711
 4777TIP3    H114264   3.018   5.398   2.621 -0.6833  0.7694 -0.2508
 4777TIP3    H214265   3.060   5.420   2.765 -1.6652 -2.0862  0.5018
 4778TIP3   OH214266   0.503   2.833   6.332 -0.1446  0.2215  0.1190
 4778TIP3    H114267   0.591   2.795   6.333 -0.4308 -0.4929 -0.6718
 4778TIP3    H214268   0.446   2.761   6.305 -0.9923  0.6510  0.7298
 4779TIP3   OH214269   4.788   4.436   1.040 -0.2208  1.1079 -0.1066
 4779TIP3    H114270   4.778   4.518   0.991 -1.8292  0.3600 -1.0817
 4779TIP3    H214271   4.757   4.369   0.979  0.8935 -0.2064  0.7676
 4780TIP3   OH214272   6.751   5.172   2.357 -0.5941 -0.1819 -0.2917
 4780TIP3    H114273   6.720   5.240   2.417 -3.3672 -1.1331 -0.5542
 4780TIP3    H214274   6.742   5.212   2.270 -1.5768 -0.6139 -0.3986
 4781TIP3   OH214275   4.859   5.858   1.651 -0.3190  0.3416  0.0563
 4781TIP3    H114276   4.783   5.885   1.703 -1.1136  0.1250 -0.9667
 4781TIP3    H214277   4.826   5.786   1.597 -0.0389  1.7513 -2.0728
 4782TIP3   OH214278   4.642   6.381   1.319  0.5132  0.2870  0.1634
 4782TIP3    H114279   4.704   6.333   1.375  0.4593  0.3216  0.2521
 4782TIP3    H214280   4.652   6.472   1.344 -0.5251  0.1465  1.0959
 4783TIP3   OH214281   4.054   5.121   2.107  0.2245  0.4601  0.2128
 4783TIP3    H114282   3.993   5.176   2.058  0.9757  2.1061  1.1038
 4783TIP3    H214283   4.076   5.050   2.046 -2.7107 -0.3147 -0.0658
 4784TIP3   OH214284   5.278   4.665   0.718  0.3751  0.1458  0.2409
 4784TIP3    H114285   5.358   4.667   0.771  0.5057 -1.1299  0.1229
 4784TIP3    H214286   5.298   4.721   0.643  1.3166 -0.4879  0.0062
 4785TIP3   OH214287   4.841   5.278   0.759  0.3110 -0.1046 -0.1995
 4785TIP3    H114288   4.893   5.298   0.682  0.4472 -1.4008 -0.4550
 4785TIP3    H214289   4.896   5.302   0.833 -0.5105  2.8897 -0.4767
 4786TIP3   OH214290   4.397   5.784   2.971 -0.3468 -0.0737  0.2168
 4786TIP3    H114291   4.405   5.781   3.066 -1.6446  0.3109  0.3517
 4786TIP3    H214292   4.413   5.876   2.948 -1.0712  0.0402  0.1685
 4787TIP3   OH214293   4.756   6.008   3.771 -0.4873  0.4107 -0.3288
 4787TIP3    H114294   4.844   6.028   3.737 -0.5636  0.8727 -0.2627
 4787TIP3    H214295   4.744   6.070   3.843 -1.2669  1.0520 -0.9894
 4788TIP3   OH214296   4.822   5.014   2.996 -0.3292 -0.7667  0.4488
 4788TIP3    H114297   4.910   4.981   3.013  0.3672  0.5148 -0.5468
 4788TIP3    H214298   4.836   5.095   2.948 -2.0404  0.0084  1.2168
 4789TIP3   OH214299   6.264   5.661   2.542  0.5039  0.8736 -0.0437
 4789TIP3    H114300   6.205   5.736   2.546 -1.8791 -0.9041 -0.9839
 4789TIP3    H214301   6.252   5.616   2.625  0.1877  0.2504 -0.4259
 4790TIP3   OH214302   4.812   5.313   3.198  0.4098  0.1522  0.5225
 4790TIP3    H114303   4.855   5.229   3.213 -0.0433 -0.0763  0.5853
 4790TIP3    H214304   4.718   5.291   3.196  0.2448  0.7816  1.3552
 4791TIP3   OH214305   4.923   6.943   0.548 -0.5025 -0.1043 -0.2623
 4791TIP3    H114306   4.876   6.860   0.542  1.0423 -0.9257 -1.2208
 4791TIP3    H214307   4.873   6.994   0.612 -2.0125 -1.3970 -0.3773
 4792TIP3   OH214308   4.120   4.183   2.702  0.1111  0.4759 -0.3017
 4792TIP3    H114309   4.161   4.104   2.667  1.4991  1.7289 -1.5792
 4792TIP3    H214310   4.051   4.204   2.639 -1.5874 -0.8118  1.0845
 4793TIP3   OH214311   5.198   5.979   0.953  0.0145  0.7421 -0.4630
 4793TIP3    H114312   5.118   5.927   0.947 -0.0586  0.7135  0.7264
 4793TIP3    H214313   5.170   6.069   0.938  0.1026  0.4809 -2.2715
 4794TIP3   OH214314   2.311   4.685   2.213  0.6569 -0.1442  0.2620
 4794TIP3    H114315   2.308   4.714   2.122  0.5877  0.7135  0.5378
 4794TIP3    H214316   2.401   4.702   2.241  0.5088  0.1851  0.5450
 4795TIP3   OH214317   2.652   1.598   6.737  0.7404  0.3344 -0.2697
 4795TIP3    H114318   2.733   1.636   6.770  0.8621  0.2781 -0.5020
 4795TIP3    H214319   2.617   1.548   6.811  0.1165  1.6326  0.3264
 4796TIP3   OH214320   6.762   5.775   1.166 -0.2432  0.0590 -0.0812
 4796TIP3    H114321   6.667   5.761   1.168 -0.3529  0.8389  0.3600
 4796TIP3    H214322   6.786   5.788   1.257  0.5048 -1.4640 -0.0442
 4797TIP3   OH214323   8.350   3.391   6.344  0.6284  0.5632 -0.2704
 4797TIP3    H114324   8.421   3.346   6.389  0.6589  0.8262 -0.0548
 4797TIP3    H214325   8.280   3.398   6.409 -0.2585 -1.2339 -0.9955
 4798TIP3   OH214326   4.372   6.565   3.973 -0.1961  0.1600  0.0040
 4798TIP3    H114327   4.352   6.493   3.913 -0.6516  1.2675 -1.2002
 4798TIP3    H214328   4.304   6.630   3.956  0.4916  1.0878  0.7300
 4799TIP3   OH214329   5.589   5.579   2.834 -0.1023  0.4008  0.1726
 4799TIP3    H114330   5.549   5.492   2.830 -0.0233  0.4439 -1.6380
 4799TIP3    H214331   5.515   5.639   2.831 -0.1090  0.4284  0.7071
 4800TIP3   OH214332   6.380   5.970   1.961 -0.4086 -0.1604 -0.3713
 4800TIP3    H114333   6.332   6.020   2.027  0.9982 -0.9281  1.2411
 4800TIP3    H214334   6.467   6.008   1.960  0.0486 -1.1986 -0.6488
 4801TIP3   OH214335   4.913   6.612   1.757  0.0421  0.0117  0.5941
 4801TIP3    H114336   5.003   6.631   1.733 -0.8226  0.5764 -2.3199
 4801TIP3    H214337   4.892   6.675   1.826  1.1309  1.4541 -0.3741
 4802TIP3   OH214338   0.332   0.166   1.893 -0.1060 -0.1865  0.4310
 4802TIP3    H114339   0.349   0.091   1.836 -3.5257  0.5189 -1.6509
 4802TIP3    H214340   0.257   0.139   1.946  1.4156  0.1505  2.8593
 4803TIP3   OH214341   6.551   7.378   4.593  0.6987  0.1382  0.0569
 4803TIP3    H114342   6.519   7.406   4.678  1.5024 -0.7297  0.6674
 4803TIP3    H214343   6.646   7.370   4.604  0.9004  0.7301 -1.1288
 4804TIP3   OH214344   4.139   6.116   1.803 -0.8607  0.5956 -0.2733
 4804TIP3    H114345   4.048   6.144   1.793 -0.7239  0.4111 -2.1844
 4804TIP3    H214346   4.140   6.024   1.778 -0.0005  0.8305 -1.1646
 4805TIP3   OH214347   4.809   5.982   0.071 -0.0820 -0.0682 -0.4014
 4805TIP3    H114348   4.789   6.029   0.152  0.2153  1.5905 -1.2713
 4805TIP3    H214349   4.902   5.997   0.057 -0.6826  1.9256 -2.4632
 4806TIP3   OH214350   5.052   4.028   2.549  0.4710 -0.1545 -0.5380
 4806TIP3    H114351   4.999   4.005   2.625  0.0786  1.0027 -0.4558
 4806TIP3    H214352   4.998   4.003   2.474  0.6621 -0.8603 -0.4441
 4807TIP3   OH214353   2.361   1.477   6.827 -0.1792  0.1899  0.4575
 4807TIP3    H114354   2.346   1.559   6.780 -1.6337  0.0676  0.6958
 4807TIP3    H214355   2.283   1.465   6.881  0.6981 -0.5733  1.5925
 4808TIP3   OH214356   3.901   6.918   0.993 -0.0350  0.4516 -1.0071
 4808TIP3    H114357   3.911   6.961   0.908  0.4365 -0.1221 -1.2492
 4808TIP3    H214358   3.963   6.964   1.050 -0.3633  0.8468 -0.9741
 4809TIP3   OH214359   6.046   6.408   0.822 -0.1731  0.0201  0.2422
 4809TIP3    H114360   5.996   6.349   0.880  0.7331 -0.4803  0.5220
 4809TIP3    H214361   6.106   6.453   0.881 -1.0168  1.3936  0.0559
 4810TIP3   OH214362   4.845   5.257   2.479  0.0543 -0.0514  0.5503
 4810TIP3    H114363   4.905   5.235   2.407  0.0822 -1.6390  1.0480
 4810TIP3    H214364   4.846   5.180   2.535 -1.1507  0.5919  1.4630
 4811TIP3   OH214365   0.576   3.281   5.912 -0.1826 -0.3109 -0.2146
 4811TIP3    H114366   0.574   3.342   5.985  0.4207  0.7168 -1.0339
 4811TIP3    H214367   0.654   3.306   5.862 -1.0130 -0.4769 -1.6288
 4812TIP3   OH214368   3.404   7.888   3.250  0.1073 -1.0067 -0.1669
 4812TIP3    H114369   3.482   7.850   3.289  0.4306  0.9025  1.1507
 4812TIP3    H214370   3.344   7.899   3.324  0.1926  1.3793 -0.4140
 4813TIP3   OH214371   3.945   7.179   2.858  0.0409 -0.2438 -0.8809
 4813TIP3    H114372   3.942   7.132   2.774 -0.3061  3.5160 -3.0574
 4813TIP3    H214373   3.864   7.153   2.902  0.6735 -3.0107 -1.2091
 4814TIP3   OH214374   3.549   4.953   3.916 -0.1066  0.4768  0.6753
 4814TIP3    H114375   3.554   4.876   3.859  0.4523  0.6880  0.4329
 4814TIP3    H214376   3.588   5.023   3.864  0.1565  0.7344  1.2186
 4815TIP3   OH214377   5.434   6.630   4.080  0.2587 -0.2172 -0.1351
 4815TIP3    H114378   5.485   6.590   4.151  0.2988 -0.6597 -0.4079
 4815TIP3    H214379   5.492   6.627   4.004 -0.0183 -0.3324 -0.3436
 4816TIP3   OH214380   5.769   6.094   1.396 -0.1613  0.6087  0.0022
 4816TIP3    H114381   5.729   6.144   1.466 -3.5355 -0.2715 -1.1989
 4816TIP3    H214382   5.862   6.088   1.420 -0.8590  2.0843  3.2770
 4817TIP3   OH214383   6.256   4.593   1.657 -0.3612 -0.0271  0.3871
 4817TIP3    H114384   6.284   4.621   1.570 -0.4131 -1.0285  0.0516
 4817TIP3    H214385   6.338   4.584   1.706 -0.4091  2.1124  0.9430
 4818TIP3   OH214386   0.609   0.221   3.883  0.5908  0.4975  0.4548
 4818TIP3    H114387   0.673   0.292   3.870  0.7850  0.1864 -0.3502
 4818TIP3    H214388   0.636   0.154   3.820  0.1998 -0.1454  0.9771
 4819TIP3   OH214389   5.592   6.893   2.958 -0.5695  0.5209  0.2892
 4819TIP3    H114390   5.559   6.893   3.048 -0.7601  0.1952  0.2224
 4819TIP3    H214391   5.555   6.813   2.919  2.0967 -1.0975  0.9015
 4820TIP3   OH214392   7.010   6.703   3.128  0.2070  0.2704 -0.1473
 4820TIP3    H114393   7.088   6.655   3.099 -0.0681  0.6220 -1.4953
 4820TIP3    H214394   7.013   6.786   3.080  0.5797  1.5452  2.0278
 4821TIP3   OH214395   5.197   5.160   1.616 -0.3617 -0.5167  0.2155
 4821TIP3    H114396   5.214   5.254   1.625  0.6678 -0.4156 -2.2705
 4821TIP3    H214397   5.284   5.121   1.605 -0.8502 -1.6236  0.2206
 4822TIP3   OH214398   7.313   1.613   2.065  0.0567 -0.6596 -0.2910
 4822TIP3    H114399   7.315   1.593   1.972 -2.3362 -1.0018 -0.2875
 4822TIP3    H214400   7.249   1.684   2.073  1.4085  0.4599  0.9108
 4823TIP3   OH214401   4.621   6.052   0.928  0.1473  0.1260  0.3500
 4823TIP3    H114402   4.593   6.129   0.977 -0.3723 -0.5818  1.1726
 4823TIP3    H214403   4.686   6.010   0.984  2.1869  1.2325 -1.1343
 4824TIP3   OH214404   4.356   6.542   1.476  0.7003 -0.3961  0.2382
 4824TIP3    H114405   4.279   6.534   1.532  1.1155 -1.5080  0.6556
 4824TIP3    H214406   4.382   6.634   1.484 -0.4620 -0.0562  0.2424
 4825TIP3   OH214407   5.750   5.638   1.087 -0.7796 -0.1711  0.1689
 4825TIP3    H114408   5.675   5.625   1.145 -0.9725 -1.5816 -0.3709
 4825TIP3    H214409   5.733   5.581   1.012  0.7581 -0.4156 -0.0282
 4826TIP3   OH214410   6.158   0.245   0.267 -0.4321  0.1510 -0.3033
 4826TIP3    H114411   6.117   0.329   0.290 -0.1310  0.3550 -0.5117
 4826TIP3    H214412   6.151   0.241   0.172 -0.3044  0.0125 -0.3063
 4827TIP3   OH214413   4.073   6.510   1.050  0.2171 -0.3973  0.3947
 4827TIP3    H114414   4.074   6.422   1.014  0.2472  0.1791 -1.0743
 4827TIP3    H214415   4.165   6.529   1.070  0.7374  0.5679 -2.5887
 4828TIP3   OH214416   6.503   7.974   2.021 -0.3090  0.1872 -0.2134
 4828TIP3    H114417   6.417   7.995   1.984 -0.1865 -1.6149 -1.5645
 4828TIP3    H214418   6.536   8.058   2.053 -2.5249  0.9170  0.2442
 4829TIP3   OH214419   3.832   5.691   4.352 -0.0835 -0.8105 -0.2193
 4829TIP3    H114420   3.927   5.700   4.353  0.1190 -1.8010 -3.2780
 4829TIP3    H214421   3.816   5.597   4.361 -0.8164 -0.5792  1.0080
 4830TIP3   OH214422   3.650   2.233   5.541 -0.1006  0.3108  0.3245
 4830TIP3    H114423   3.713   2.195   5.603 -0.3225  0.9650  0.9629
 4830TIP3    H214424   3.677   2.199   5.456 -0.6413 -1.7381  0.9384
 4831TIP3   OH214425   5.749   6.591   2.929 -0.2843 -0.0345 -0.2271
 4831TIP3    H114426   5.662   6.601   2.890 -0.1832 -0.0908 -0.4674
 4831TIP3    H214427   5.807   6.640   2.871 -0.0385 -0.6439 -0.4921
 4832TIP3   OH214428   4.423   5.414   1.243  0.0801  0.2795  0.5369
 4832TIP3    H114429   4.375   5.470   1.183  0.7059  1.5359  1.2059
 4832TIP3    H214430   4.479   5.361   1.186  2.0071  2.7107  0.0787
 4833TIP3   OH214431   5.270   7.628   1.397  0.5009 -0.0796 -0.1846
 4833TIP3    H114432   5.219   7.669   1.467  0.0854 -0.9551  0.0250
 4833TIP3    H214433   5.346   7.686   1.386  0.9218 -0.3050  1.4505
 4834TIP3   OH214434   6.666   4.169   1.124 -0.5641 -0.4647 -0.1354
 4834TIP3    H114435   6.647   4.157   1.030 -1.8173  0.5334 -0.0300
 4834TIP3    H214436   6.692   4.083   1.154 -1.5307 -1.1184 -1.1134
 4835TIP3   OH214437   5.922   5.323   1.400  0.1036 -0.0683  0.7452
 4835TIP3    H114438   5.965   5.269   1.334 -1.5174  0.1510 -0.5256
 4835TIP3    H214439   5.900   5.262   1.471  0.1090 -0.6853  0.2215
 4836TIP3   OH214440   8.190   6.959   1.152  0.1303 -0.0057  0.1644
 4836TIP3    H114441   8.151   7.036   1.111 -0.9685 -0.2173  0.7849
 4836TIP3    H214442   8.190   6.893   1.083 -1.8485 -0.4066  0.5265
 4837TIP3   OH214443   4.987   5.500   1.050  0.9511 -0.0718 -0.2262
 4837TIP3    H114444   4.906   5.486   1.099  0.7054 -0.6368 -0.7871
 4837TIP3    H214445   5.009   5.414   1.015  1.5051  0.1877 -0.5230
 4838TIP3   OH214446   1.705   1.307   6.750  0.2606 -0.1389  0.6014
 4838TIP3    H114447   1.664   1.334   6.668  1.0728  0.9969  0.5583
 4838TIP3    H214448   1.684   1.214   6.758 -2.2514  0.3937  0.5459
 4839TIP3   OH214449   3.375   5.602   2.828 -0.2223  0.4240  0.2919
 4839TIP3    H114450   3.304   5.666   2.819 -0.3681  0.0531 -1.4582
 4839TIP3    H214451   3.332   5.522   2.857 -0.3199  0.5943  0.6126
 4840TIP3   OH214452   6.252   4.655   1.372  0.1019 -0.1737  0.3572
 4840TIP3    H114453   6.239   4.592   1.302  0.9641 -1.4156  1.2981
 4840TIP3    H214454   6.332   4.702   1.348  1.4605 -1.8862  1.4304
 4841TIP3   OH214455   7.670   5.706   1.057 -0.1723 -0.6015  0.4149
 4841TIP3    H114456   7.671   5.629   1.001 -1.1153 -0.1377 -0.2373
 4841TIP3    H214457   7.592   5.696   1.111 -0.1412 -0.2416  0.5283
 4842TIP3   OH214458   5.228   5.690   1.530  0.3074 -0.1528 -0.2946
 4842TIP3    H114459   5.320   5.699   1.506  0.5446 -0.6005  0.4135
 4842TIP3    H214460   5.188   5.645   1.455  0.7706 -0.3993 -0.3978
 4843TIP3   OH214461   3.759   6.694   2.828  0.0908 -0.2789  0.2883
 4843TIP3    H114462   3.851   6.705   2.853  0.5387 -0.2384 -1.3290
 4843TIP3    H214463   3.732   6.780   2.797  0.0896 -0.7572 -1.0754
 4844TIP3   OH214464   4.481   4.731   3.249 -0.4115 -0.3029 -0.5406
 4844TIP3    H114465   4.488   4.723   3.154 -1.9821 -0.6219 -0.6524
 4844TIP3    H214466   4.538   4.663   3.284 -0.5298 -0.7855 -1.2798
 4845TIP3   OH214467   8.117   0.640   0.419 -0.6493 -0.3657 -0.1644
 4845TIP3    H114468   8.058   0.671   0.488 -0.3490  0.2399 -0.1690
 4845TIP3    H214469   8.179   0.713   0.407 -1.8706  0.3287 -2.4278
 4846TIP3   OH214470   3.518   5.377   2.613 -0.0156  0.0599 -0.3609
 4846TIP3    H114471   3.503   5.356   2.705  1.8784 -0.0161 -0.0401
 4846TIP3    H214472   3.560   5.298   2.577 -0.2656  0.2823 -1.1539
 4847TIP3   OH214473   4.686   7.616   1.321 -0.7185  0.1547 -0.4206
 4847TIP3    H114474   4.601   7.651   1.347 -0.5622 -0.1976  0.5956
 4847TIP3    H214475   4.743   7.635   1.395 -0.6010 -2.1290  0.1141
 4848TIP3   OH214476   0.640   1.050   2.838  0.3733  0.5303  0.4261
 4848TIP3    H114477   0.706   0.984   2.820  0.3979  0.2923  1.3727
 4848TIP3    H214478   0.671   1.096   2.916  0.1554  1.3969  0.0194
 4849TIP3   OH214479   7.309   0.661   2.643  0.4470  0.2684  0.4593
 4849TIP3    H114480   7.263   0.736   2.681 -0.5105  0.0378 -0.2095
 4849TIP3    H214481   7.249   0.587   2.656 -0.0407  0.2478 -1.7659
 4850TIP3   OH214482   7.741   6.760   1.491  0.0433  0.2152 -1.0679
 4850TIP3    H114483   7.655   6.725   1.515 -0.0312  0.9944 -0.1634
 4850TIP3    H214484   7.727   6.806   1.409 -0.4287  0.4475 -0.8574
 4851TIP3   OH214485   6.508   7.768   0.466  0.0872  0.3815 -0.3212
 4851TIP3    H114486   6.494   7.783   0.373  1.8613  0.5423 -0.5824
 4851TIP3    H214487   6.572   7.697   0.470 -1.1988 -0.7497  0.8105
 4852TIP3   OH214488   6.589   7.922   2.964  0.2892  0.0151 -0.0262
 4852TIP3    H114489   6.581   8.017   2.966  0.1267 -0.0158  0.6936
 4852TIP3    H214490   6.506   7.892   2.925  1.3128  0.2888 -2.5571
 4853TIP3   OH214491   3.706   5.611   1.173  0.6059 -0.1523 -0.2037
 4853TIP3    H114492   3.618   5.620   1.138  0.4582 -1.0466 -0.0660
 4853TIP3    H214493   3.763   5.631   1.098  0.2929  1.0351 -0.1281
 4854TIP3   OH214494   0.009   7.185   1.364  0.8356  0.3660  0.7396
 4854TIP3    H114495  -0.034   7.253   1.312 -1.1517 -1.1745  0.2794
 4854TIP3    H214496   0.058   7.133   1.301 -1.4097 -1.3787  0.3484
 4855TIP3   OH214497   1.075   2.500   6.769  0.1252 -0.2293  0.2262
 4855TIP3    H114498   0.990   2.474   6.734  1.0162 -1.2074 -1.2846
 4855TIP3    H214499   1.097   2.580   6.721 -0.7856  1.1378  2.0031
 4856TIP3   OH214500   6.928   7.104   0.658  0.1478  0.1615 -0.0438
 4856TIP3    H114501   6.954   7.123   0.748  0.4680  1.9317 -0.4980
 4856TIP3    H214502   6.980   7.163   0.605 -2.3316  1.3690 -1.1789
 4857TIP3   OH214503   4.798   4.962   4.735 -0.0132 -0.1720  0.3476
 4857TIP3    H114504   4.841   4.882   4.764  0.9551 -0.2347 -1.1867
 4857TIP3    H214505   4.860   5.032   4.754  0.2308 -0.1040 -0.6721
 4858TIP3   OH214506   4.567   6.513   0.526  0.3828 -0.4310  0.4676
 4858TIP3    H114507   4.556   6.418   0.515  0.3979 -0.5024  1.0570
 4858TIP3    H214508   4.478   6.547   0.523  0.3044 -0.5716  1.2406
 4859TIP3   OH214509   7.169   5.212   1.785 -0.3053 -0.0232 -0.7667
 4859TIP3    H114510   7.144   5.208   1.693 -2.4729  3.0142 -0.3650
 4859TIP3    H214511   7.098   5.168   1.832 -0.8846  1.3741 -0.3011
 4860TIP3   OH214512   3.542   7.256   0.502  0.1324 -0.3080  0.0206
 4860TIP3    H114513   3.489   7.244   0.581 -0.2018  0.0400 -0.1452
 4860TIP3    H214514   3.588   7.338   0.517 -0.9250  0.4317 -0.6905
 4861TIP3   OH214515   7.980   0.208   1.693 -0.9722  0.4804  0.3094
 4861TIP3    H114516   7.998   0.116   1.674  0.5731  1.2515 -2.2507
 4861TIP3    H214517   8.040   0.230   1.764 -1.5950 -0.5685  1.1724
 4862TIP3   OH214518   7.866   3.737   0.914 -0.0923 -0.0215 -0.3964
 4862TIP3    H114519   7.848   3.663   0.971  0.1349 -1.0818 -1.6894
 4862TIP3    H214520   7.780   3.771   0.891 -0.1976  0.0506  0.0902
 4863TIP3   OH214521   2.053   7.830   3.592  0.0047 -1.0241 -0.4068
 4863TIP3    H114522   1.990   7.855   3.660 -0.7221  1.9913 -2.1010
 4863TIP3    H214523   2.138   7.847   3.632 -0.4250  0.9389 -0.2576
 4864TIP3   OH214524   3.803   7.761   3.032 -0.5588  0.1083 -0.0655
 4864TIP3    H114525   3.839   7.682   3.072  0.2613  0.2926 -0.4223
 4864TIP3    H214526   3.797   7.740   2.939  0.5325  0.7673 -0.3025
 4865TIP3   OH214527   4.363   7.854   2.279  0.4909 -0.3889  0.4131
 4865TIP3    H114528   4.270   7.860   2.257  0.4291 -0.0883  0.7675
 4865TIP3    H214529   4.408   7.874   2.197  0.2841  3.1526  1.1045
 4866TIP3   OH214530   7.650   4.439   3.035  0.6290  0.5382  0.0117
 4866TIP3    H114531   7.730   4.482   3.005  0.0874  2.3080  1.0707
 4866TIP3    H214532   7.616   4.495   3.104 -1.9046  0.2002 -0.8867
 4867TIP3   OH214533   6.932   6.005   1.117 -0.9830 -0.2371 -0.3312
 4867TIP3    H114534   6.975   6.054   1.187  0.0831 -1.4645 -0.1154
 4867TIP3    H214535   6.865   5.954   1.163 -0.4581 -0.8446 -0.2433
 4868TIP3   OH214536   4.809   6.913   2.074  0.3586 -0.5153  0.3836
 4868TIP3    H114537   4.805   6.821   2.049  1.1105 -0.2046 -0.9229
 4868TIP3    H214538   4.761   6.959   2.005 -0.0389  0.0684  1.0457
 4869TIP3   OH214539   5.050   4.874   0.522  0.1690  0.8296 -0.3121
 4869TIP3    H114540   5.039   4.867   0.428  0.0867  0.5229 -0.2828
 4869TIP3    H214541   5.144   4.869   0.536  0.0465 -1.7722 -0.1941
 4870TIP3   OH214542   4.969   5.596   4.633 -0.0679  0.4836  0.4383
 4870TIP3    H114543   4.958   5.578   4.727  1.8433  1.5450  0.8989
 4870TIP3    H214544   5.051   5.553   4.610 -0.0932  0.9512 -0.5557
 4871TIP3   OH214545   6.532   3.752   1.186 -0.4293  0.2211 -1.1784
 4871TIP3    H114546   6.451   3.703   1.205 -0.8729  1.0566 -0.8869
 4871TIP3    H214547   6.519   3.786   1.098  0.3401 -1.0784 -1.8148
 4872TIP3   OH214548   5.276   5.588   3.894  0.7011 -0.0840 -0.4340
 4872TIP3    H114549   5.212   5.575   3.824  0.4629  0.0630 -0.2451
 4872TIP3    H214550   5.223   5.605   3.971  0.9351 -1.1220 -0.0285
 4873TIP3   OH214551   7.245   0.364   2.429  0.4955 -0.1072 -0.2217
 4873TIP3    H114552   7.338   0.367   2.407  0.7033 -0.4556  0.6305
 4873TIP3    H214553   7.238   0.300   2.499 -0.2683  0.5340  0.3032
 4874TIP3   OH214554   5.310   2.232   2.035  0.5550 -0.1751 -0.0626
 4874TIP3    H114555   5.361   2.232   1.954 -0.2813 -1.3822 -0.5963
 4874TIP3    H214556   5.328   2.318   2.074  2.7488 -0.4578 -0.3845
 4875TIP3   OH214557   7.791   6.834   3.777 -0.3335  0.3177  0.1012
 4875TIP3    H114558   7.822   6.791   3.857  0.7699 -0.1492 -0.5662
 4875TIP3    H214559   7.820   6.776   3.706 -1.7678  0.4604 -0.6030
 4876TIP3   OH214560   3.262   3.396   5.863 -0.4747 -0.3760  0.3126
 4876TIP3    H114561   3.263   3.471   5.923 -1.0085  0.1601 -0.3296
 4876TIP3    H214562   3.227   3.324   5.915 -1.2287  0.1596  0.5665
 4877TIP3   OH214563   3.394   6.613   1.343  0.2525 -0.2360 -0.4008
 4877TIP3    H114564   3.479   6.619   1.298 -0.4087 -2.3980 -2.0274
 4877TIP3    H214565   3.331   6.648   1.280 -0.2759 -0.3206  0.0780
 4878TIP3   OH214566   3.164   7.758   2.458  0.1177 -0.3585  0.2608
 4878TIP3    H114567   3.154   7.770   2.364 -0.0566 -0.6445  0.2403
 4878TIP3    H214568   3.105   7.685   2.479 -0.3491  0.1441  0.7003
 4879TIP3   OH214569   3.051   5.115   2.766 -0.1899  0.3744  0.3090
 4879TIP3    H114570   3.111   5.113   2.841  0.0726  1.6262  0.1377
 4879TIP3    H214571   3.090   5.177   2.705 -1.8390  1.4776  0.3510
 4880TIP3   OH214572   5.151   7.506   1.052 -0.0567 -0.2075 -0.1784
 4880TIP3    H114573   5.180   7.597   1.065  0.8069 -0.6001  0.6461
 4880TIP3    H214574   5.058   7.514   1.031  0.0526  0.8844 -0.3011
 4881TIP3   OH214575   5.438   6.812   2.008  0.1852  0.3456 -0.5987
 4881TIP3    H114576   5.346   6.789   2.020 -0.1959  1.5460 -1.1392
 4881TIP3    H214577   5.441   6.859   1.925  1.4277 -0.3869 -0.9852
 4882TIP3   OH214578   6.806   5.272   2.086  0.3641 -0.5707 -0.1099
 4882TIP3    H114579   6.811   5.257   1.992  0.9064 -0.2210 -0.1337
 4882TIP3    H214580   6.837   5.190   2.125 -0.8116 -1.0848 -0.2245
 4883TIP3   OH214581   1.428   2.964   6.336  0.2461 -0.0309 -0.0944
 4883TIP3    H114582   1.389   2.945   6.250  0.4061 -0.3435 -0.0974
 4883TIP3    H214583   1.372   2.918   6.398 -0.4202  0.9486  0.0569
 4884TIP3   OH214584   8.032   6.749   1.467  0.0418 -0.4173  0.5539
 4884TIP3    H114585   8.042   6.654   1.459 -1.4440 -0.4794 -0.6745
 4884TIP3    H214586   7.950   6.761   1.515  0.3072  0.2542  0.8495
 4885TIP3   OH214587   3.444   5.827   2.119 -0.1492  0.0557 -0.6820
 4885TIP3    H114588   3.440   5.732   2.106  0.6060  0.1203 -1.4139
 4885TIP3    H214589   3.479   5.838   2.208  1.5637 -0.3339 -1.3051
 4886TIP3   OH214590   5.480   7.898   1.219 -0.5167 -0.1816  0.7064
 4886TIP3    H114591   5.478   7.844   1.298  0.3218  0.3726  1.1151
 4886TIP3    H214592   5.481   7.835   1.147 -2.2043 -0.6834  1.1083
 4887TIP3   OH214593   8.138   6.500   0.283 -0.6862 -0.3304 -0.8071
 4887TIP3    H114594   8.056   6.530   0.322  0.3252  1.7975 -0.2203
 4887TIP3    H214595   8.126   6.514   0.189  0.1348  3.1468 -0.4938
 4888TIP3   OH214596   6.391   5.321   0.653 -0.0763  0.1168  0.0001
 4888TIP3    H114597   6.486   5.329   0.644 -0.0012 -0.1787  0.5046
 4888TIP3    H214598   6.362   5.409   0.676  0.1010  0.1714  0.0190
 4889TIP3   OH214599   0.931   6.070   2.734  0.3785 -0.2265  0.3207
 4889TIP3    H114600   0.953   6.154   2.693 -0.0300  0.0844  0.7408
 4889TIP3    H214601   1.015   6.034   2.762  0.5808 -0.0775 -0.0901
 4890TIP3   OH214602   3.033   5.192   3.787  0.3356 -0.0809  0.2279
 4890TIP3    H114603   2.944   5.199   3.822  0.3322  1.4896 -0.0769
 4890TIP3    H214604   3.066   5.109   3.823 -1.7785 -1.4439 -0.9255
 4891TIP3   OH214605   7.004   6.195   2.837  0.5256 -0.2999  0.1145
 4891TIP3    H114606   6.991   6.188   2.932  0.0181 -1.6848 -0.0407
 4891TIP3    H214607   7.019   6.288   2.821 -0.8200  0.1477  1.3783
 4892TIP3   OH214608   0.736   4.633   2.819  0.1516 -0.4669 -0.0211
 4892TIP3    H114609   0.752   4.626   2.913 -0.9129 -0.3732  0.1808
 4892TIP3    H214610   0.770   4.719   2.795 -0.5251 -0.0525  0.4890
 4893TIP3   OH214611   5.842   5.588   1.356  0.0123 -0.0753  0.0950
 4893TIP3    H114612   5.805   5.620   1.273  2.3707  1.3439 -0.4735
 4893TIP3    H214613   5.858   5.495   1.341  0.8536  0.2725 -1.2322
 4894TIP3   OH214614   4.932   5.734   2.689 -0.2306 -0.2829 -0.5693
 4894TIP3    H114615   4.962   5.646   2.664  0.3387 -1.0041  2.4112
 4894TIP3    H214616   5.011   5.778   2.721 -0.9867  0.3710  0.4260
 4895TIP3   OH214617   5.656   5.780   1.949 -0.5973 -0.1078  0.1697
 4895TIP3    H114618   5.710   5.844   1.902 -1.3187  1.1228  1.0054
 4895TIP3    H214619   5.597   5.745   1.882 -0.1075 -0.0037 -0.3215
 4896TIP3   OH214620   6.013   5.037   0.387 -0.4862 -1.1309 -0.0147
 4896TIP3    H114621   6.082   5.056   0.324  1.5450 -2.4817  1.7452
 4896TIP3    H214622   6.009   5.114   0.443 -0.8590 -0.7947 -0.4980
 4897TIP3   OH214623   4.578   5.787   2.117 -0.0044 -0.9076 -0.3061
 4897TIP3    H114624   4.500   5.752   2.158 -0.4065  1.4573  1.0639
 4897TIP3    H214625   4.551   5.809   2.028 -1.5715  1.9455  0.8184
 4898TIP3   OH214626   7.170   6.242   2.522 -0.6280  0.5316 -0.0939
 4898TIP3    H114627   7.165   6.329   2.482 -0.3584  0.6394  0.1114
 4898TIP3    H214628   7.197   6.184   2.450 -1.2774  0.5371 -0.3462
 4899TIP3   OH214629   4.953   7.147   1.831  0.3584 -0.0320  0.1202
 4899TIP3    H114630   4.916   7.152   1.742  0.1116  1.4695  0.3055
 4899TIP3    H214631   4.876   7.137   1.888  0.3122  1.7462  0.3900
 4900TIP3   OH214632   4.207   5.366   2.238 -0.3477 -0.3058 -0.3105
 4900TIP3    H114633   4.189   5.307   2.165 -0.2707 -1.8156  0.8675
 4900TIP3    H214634   4.162   5.447   2.215 -1.0774 -1.0656 -1.6067
 4901TIP3   OH214635   2.475   7.015   2.030  0.0482 -0.4785 -0.1166
 4901TIP3    H114636   2.438   6.930   2.055  0.8221 -1.3143 -1.6640
 4901TIP3    H214637   2.402   7.076   2.035 -0.4858 -1.2097  1.1741
 4902TIP3   OH214638   5.687   5.913   2.443  0.1926 -0.1665  0.3120
 4902TIP3    H114639   5.763   5.902   2.386 -0.5322 -2.1205 -0.3395
 4902TIP3    H214640   5.718   5.884   2.529  0.4363 -0.1324  0.2355
 4903TIP3   OH214641   3.858   6.585   0.818  0.2021  0.2840 -0.2813
 4903TIP3    H114642   3.863   6.589   0.914 -1.5557  0.5598 -0.1799
 4903TIP3    H214643   3.769   6.612   0.798  0.6594  0.5431 -2.0318
 4904TIP3   OH214644   3.002   5.952   2.465 -0.5671  0.0962 -0.6367
 4904TIP3    H114645   2.921   5.930   2.511 -0.1757  2.0915  1.0729
 4904TIP3    H214646   2.982   6.033   2.418  0.4490  0.6477 -0.1410
 4905TIP3   OH214647   7.446   6.494   2.654 -0.0872 -0.3200 -0.3070
 4905TIP3    H114648   7.446   6.568   2.593 -1.5032 -0.1658 -0.1413
 4905TIP3    H214649   7.450   6.533   2.741 -0.3563 -0.4560 -0.2325
 4906TIP3   OH214650   4.758   6.638   2.977  0.4240  0.4689 -0.0666
 4906TIP3    H114651   4.771   6.622   2.884 -2.2724 -0.2389 -0.3651
 4906TIP3    H214652   4.704   6.717   2.980 -0.8528 -0.4200  0.8251
 4907TIP3   OH214653   4.601   7.249   4.011 -0.5523  0.7401 -0.3786
 4907TIP3    H114654   4.648   7.168   4.030 -2.0327  0.0551  0.4256
 4907TIP3    H214655   4.611   7.261   3.917 -0.4327 -0.4488 -0.5290
 4908TIP3   OH214656   5.643   7.115   1.439 -0.2681  0.4211 -0.2501
 4908TIP3    H114657   5.663   7.146   1.351 -0.9886 -0.1754 -0.6289
 4908TIP3    H214658   5.725   7.076   1.470 -0.0092  0.6506 -0.6441
 4909TIP3   OH214659   4.209   5.715   0.805  0.1488  0.1001 -0.0635
 4909TIP3    H114660   4.303   5.724   0.789 -0.0665  2.2887 -0.2336
 4909TIP3    H214661   4.181   5.648   0.743  1.6201 -0.6510  0.0701
 4910TIP3   OH214662   8.317   0.184   3.557  0.4065  0.1248  0.0962
 4910TIP3    H114663   8.235   0.193   3.605  0.9726  0.0843  1.0934
 4910TIP3    H214664   8.327   0.268   3.512 -0.3695 -0.0155 -0.3519
 4911TIP3   OH214665   7.963   5.909   2.555  0.6200 -0.1111 -0.0033
 4911TIP3    H114666   7.908   5.917   2.633 -0.8260  1.8864 -1.1981
 4911TIP3    H214667   7.912   5.854   2.496  1.7801 -1.7459  0.4559
 4912TIP3   OH214668   5.315   0.568   4.489 -0.0251  0.3343 -0.0202
 4912TIP3    H114669   5.409   0.581   4.504 -0.4169  1.9078  1.1142
 4912TIP3    H214670   5.298   0.480   4.523  1.2491 -0.4588 -1.3263
 4913TIP3   OH214671   6.060   1.329   3.488  0.0353 -0.5787  0.3449
 4913TIP3    H114672   5.995   1.319   3.558 -1.3111 -1.4970 -0.9776
 4913TIP3    H214673   6.040   1.414   3.449 -0.9658 -1.2131 -0.5892
 4914TIP3   OH214674   4.074   7.050   1.201  0.4982 -0.7809  0.3018
 4914TIP3    H114675   4.060   6.982   1.268  1.4978 -0.0171  1.2852
 4914TIP3    H214676   4.001   7.111   1.214 -0.9624 -2.1397 -1.2162
 4915TIP3   OH214677   6.375   7.814   1.262  0.5873  0.0010 -0.6082
 4915TIP3    H114678   6.347   7.781   1.348  0.2498  1.8437  0.0277
 4915TIP3    H214679   6.465   7.784   1.253  0.8245  0.2842  0.6604
 4916TIP3   OH214680   5.890   5.944   2.239 -0.0100  0.1861 -0.1806
 4916TIP3    H114681   5.950   5.881   2.198  1.3383  0.2292  1.6398
 4916TIP3    H214682   5.864   6.003   2.168 -0.2317 -1.6047 -1.6222
 4917TIP3   OH214683   3.758   7.160   1.595 -0.0088  0.0716  0.0246
 4917TIP3    H114684   3.735   7.246   1.631  0.3304 -0.0513  0.5457
 4917TIP3    H214685   3.722   7.160   1.507 -0.8392  0.3875  0.3648
 4918TIP3   OH214686   7.012   5.766   1.003  0.6066  0.2925  0.0208
 4918TIP3    H114687   6.982   5.848   0.963  0.6162  0.4837  0.3989
 4918TIP3    H214688   6.997   5.779   1.096  1.4309  0.2139  0.1724
 4919TIP3   OH214689   3.561   7.595   1.907 -0.6890 -0.6639 -0.3355
 4919TIP3    H114690   3.616   7.615   1.831 -1.4778  0.0936 -0.7108
 4919TIP3    H214691   3.577   7.668   1.967 -0.3292 -1.0876  0.0881
 4920TIP3   OH214692   6.967   6.400   1.776 -0.8465 -0.1878  0.0790
 4920TIP3    H114693   6.888   6.346   1.775 -1.9743  1.4252  0.0152
 4920TIP3    H214694   6.938   6.486   1.744 -0.0128  1.6699  3.8892
 4921TIP3   OH214695   4.295   5.882   2.165  0.2202 -0.1772  0.1147
 4921TIP3    H114696   4.335   5.881   2.252 -0.9082 -1.2446  0.6376
 4921TIP3    H214697   4.281   5.975   2.147  1.5237  0.1126  0.5780
 4922TIP3   OH214698   3.693   5.848   2.770 -0.2383  0.3264  0.3060
 4922TIP3    H114699   3.626   5.916   2.783  0.1354  0.5566  1.0819
 4922TIP3    H214700   3.717   5.821   2.859  2.1434  1.6709  0.1174
 4923TIP3   OH214701   1.091   2.141   6.345 -0.3293 -0.4473 -0.3077
 4923TIP3    H114702   1.050   2.129   6.430  2.6239 -2.0219  0.9510
 4923TIP3    H214703   1.124   2.231   6.347  0.6120 -0.8050  0.6195
 4924TIP3   OH214704   5.939   4.162   1.538  0.2849 -0.2643 -0.2595
 4924TIP3    H114705   5.926   4.238   1.480  0.4774  0.0217  0.0681
 4924TIP3    H214706   6.023   4.125   1.511  0.9066  0.5262  0.5642
 4925TIP3   OH214707   6.678   4.848   1.659  0.4630 -0.3094  0.1973
 4925TIP3    H114708   6.743   4.778   1.652  1.8339  0.8583  0.9276
 4925TIP3    H214709   6.653   4.847   1.752  0.4520  0.1401  0.1983
 4926TIP3   OH214710   6.434   6.391   1.638 -0.5358 -0.4200  0.0195
 4926TIP3    H114711   6.412   6.330   1.708 -0.1212 -1.3763 -0.6768
 4926TIP3    H214712   6.526   6.372   1.618 -0.6578 -0.1698 -0.7936
 4927TIP3   OH214713   3.939   7.847   1.460  0.1646  0.2009  0.4490
 4927TIP3    H114714   3.962   7.875   1.548  0.5669 -2.8327  1.3496
 4927TIP3    H214715   3.973   7.916   1.403 -0.0775  2.1818  2.6303
 4928TIP3   OH214716   3.960   6.089   0.517 -0.1822 -0.0689  0.6622
 4928TIP3    H114717   3.875   6.134   0.520 -0.2682 -0.1961  0.1471
 4928TIP3    H214718   4.024   6.158   0.533 -0.4417 -0.1670  2.2193
 4929TIP3   OH214719   3.566   5.375   3.326 -0.2214  0.5868  0.5427
 4929TIP3    H114720   3.603   5.345   3.409 -1.2931 -0.7644  0.5659
 4929TIP3    H214721   3.626   5.443   3.296 -0.0422  1.3707  2.6111
 4930TIP3   OH214722   5.628   7.395   0.098  0.3599 -0.2654 -0.2435
 4930TIP3    H114723   5.704   7.338   0.100  0.3208 -0.3445 -1.0582
 4930TIP3    H214724   5.661   7.479   0.068  0.1458 -0.2726 -0.5007
 4931TIP3   OH214725   8.120   2.512   5.879  0.0689  0.0701  0.3583
 4931TIP3    H114726   8.144   2.604   5.864 -3.0570  0.5820 -1.9790
 4931TIP3    H214727   8.076   2.512   5.964 -1.8789  1.1572 -0.6304
 4932TIP3   OH214728   5.670   3.140   3.653  0.0053  0.3827 -0.3693
 4932TIP3    H114729   5.633   3.112   3.569  0.4968  1.2477 -0.8796
 4932TIP3    H214730   5.701   3.059   3.694  0.9113  0.0962 -1.5885
 4933TIP3   OH214731   7.502   7.114   1.173 -0.2277  0.0579  0.2105
 4933TIP3    H114732   7.462   7.112   1.086 -0.5547 -0.9996  0.3806
 4933TIP3    H214733   7.448   7.055   1.226  0.9773 -0.6199  0.6922
 4934TIP3   OH214734   6.382   5.976   2.527 -0.0106 -0.2318 -0.1898
 4934TIP3    H114735   6.370   5.882   2.521  0.7601 -0.3841  0.5604
 4934TIP3    H214736   6.436   5.989   2.605 -0.9266  0.9023  0.2768
 4935TIP3   OH214737   4.460   0.374   5.283 -0.2751 -0.1812  0.2414
 4935TIP3    H114738   4.487   0.374   5.375 -0.5696 -0.7503  0.3321
 4935TIP3    H214739   4.414   0.457   5.271 -0.1092 -0.0408  0.5683
 4936TIP3   OH214740   1.344   5.168   0.710 -0.1062  0.7251 -0.2202
 4936TIP3    H114741   1.342   5.171   0.806  1.4028  2.3866 -0.2127
 4936TIP3    H214742   1.257   5.197   0.683 -0.2410  1.1085  0.6210
 4937TIP3   OH214743   7.612   7.867   1.708  0.4291 -0.5877 -0.3949
 4937TIP3    H114744   7.693   7.885   1.757 -0.4840 -0.9624  1.2878
 4937TIP3    H214745   7.554   7.827   1.772 -1.5934  0.9092 -1.2292
 4938TIP3   OH214746   1.968   0.969   6.911 -0.1467 -0.0450  0.1895
 4938TIP3    H114747   1.940   1.031   6.843 -0.2168 -0.1452  0.1273
 4938TIP3    H214748   1.912   0.893   6.898 -1.6314  0.7605  1.7221
 4939TIP3   OH214749   4.640   0.666   5.502 -0.7447  0.3523 -0.2443
 4939TIP3    H114750   4.613   0.757   5.511  1.2625  1.0298 -0.9609
 4939TIP3    H214751   4.709   0.654   5.567 -0.9451 -0.6551 -0.1957
 4940TIP3   OH214752   5.452   2.139   5.999 -0.1307 -0.0581 -0.6739
 4940TIP3    H114753   5.527   2.091   5.964  0.9292  0.4245  0.8834
 4940TIP3    H214754   5.431   2.095   6.081 -0.9735  0.3727 -0.6532
 4941TIP3   OH214755   8.352   5.073   2.760 -0.2295 -0.1673 -0.3385
 4941TIP3    H114756   8.423   5.105   2.703 -1.0445  1.7083 -0.3387
 4941TIP3    H214757   8.383   4.988   2.790  1.2361 -0.1824 -1.7726
 4942TIP3   OH214758   0.550   5.550   2.043  0.6123  0.3268  0.6000
 4942TIP3    H114759   0.631   5.600   2.037  0.0806  0.9331 -2.3071
 4942TIP3    H214760   0.492   5.605   2.096  0.1694  2.6588 -2.1987
 4943TIP3   OH214761   7.465   5.992   3.006  0.2826  0.7007 -0.0908
 4943TIP3    H114762   7.552   6.029   2.992  0.9885 -1.1579 -0.6608
 4943TIP3    H214763   7.429   5.983   2.918 -0.3449  1.1070  0.1218
 4944TIP3   OH214764   2.216   6.998   0.139  0.1163  0.4492  0.6955
 4944TIP3    H114765   2.269   6.982   0.217  0.6904  1.8692  0.6167
 4944TIP3    H214766   2.240   7.087   0.112  0.0012 -0.0620 -1.1418
 4945TIP3   OH214767   2.366   2.288   5.210  0.3413 -0.4298  0.4212
 4945TIP3    H114768   2.383   2.199   5.241  0.1397 -0.1928  1.2286
 4945TIP3    H214769   2.435   2.341   5.249 -0.1636 -0.0590  0.8300
 4946TIP3   OH214770   7.667   4.958   2.543  0.3570 -0.0743  0.3449
 4946TIP3    H114771   7.665   4.910   2.460  0.4398  0.9749 -0.2702
 4946TIP3    H214772   7.753   4.937   2.580  0.1184 -0.9491  0.4118
 4947TIP3   OH214773   6.921   7.345   1.178  0.3642 -0.9388  0.4894
 4947TIP3    H114774   6.858   7.361   1.108 -1.1144 -1.8163  1.5701
 4947TIP3    H214775   6.923   7.427   1.227  0.5178 -0.7095  0.0992
 4948TIP3   OH214776   0.829   1.437   3.592 -0.5362 -0.2744  0.2333
 4948TIP3    H114777   0.918   1.426   3.626 -0.3900  1.4028  0.4589
 4948TIP3    H214778   0.840   1.486   3.511 -1.3217  0.7531  0.7369
 4949TIP3   OH214779   8.187   7.675   0.650  0.7477  0.4087  0.2129
 4949TIP3    H114780   8.250   7.609   0.620  0.9420  1.2635 -1.3045
 4949TIP3    H214781   8.180   7.660   0.744 -0.9600 -3.3170 -0.3807
 4950TIP3   OH214782   7.387   7.023   2.031  0.4084  0.1585  0.5235
 4950TIP3    H114783   7.363   7.081   2.103  0.8453  0.2370  0.6114
 4950TIP3    H214784   7.469   7.060   1.998 -0.1460  0.5286 -0.4588
 4951TIP3   OH214785   5.393   6.949   1.769 -0.0356 -0.4283  0.0541
 4951TIP3    H114786   5.303   6.951   1.803 -0.5230  0.5220 -1.2254
 4951TIP3    H214787   5.429   7.034   1.793 -0.7996  0.7836 -2.7538
 4952TIP3   OH214788   3.784   7.070   0.624  0.0019 -0.5988 -0.5164
 4952TIP3    H114789   3.768   7.137   0.558 -1.6344  0.5634  1.0092
 4952TIP3    H214790   3.858   7.103   0.675  0.8735 -1.2089 -1.3681
 4953TIP3   OH214791   0.706   4.635   1.079 -0.3384 -0.0838  0.4624
 4953TIP3    H114792   0.762   4.665   1.007  0.5842 -1.9308  0.3832
 4953TIP3    H214793   0.624   4.682   1.066 -0.3670 -0.7761 -2.1401
 4954TIP3   OH214794   4.049   0.098   6.807 -0.0556 -0.7519  0.3828
 4954TIP3    H114795   4.095   0.094   6.723 -0.1878  0.0597  0.2732
 4954TIP3    H214796   3.969   0.047   6.792 -0.0615 -0.6376  0.0283
 4955TIP3   OH214797   7.254   6.042   2.345 -0.2375 -0.2102 -0.3707
 4955TIP3    H114798   7.295   6.093   2.275 -0.0507  1.4674  0.9394
 4955TIP3    H214799   7.231   5.958   2.304  0.2174  0.6119 -2.3224
 4956TIP3   OH214800   6.199   3.738   6.561  0.1893 -0.0161  0.2715
 4956TIP3    H114801   6.199   3.642   6.566  0.4945 -0.0077  0.4700
 4956TIP3    H214802   6.281   3.759   6.516  0.6429  0.1948  1.1816
 4957TIP3   OH214803   5.342   4.564   6.896 -0.6097 -0.1100 -0.6733
 4957TIP3    H114804   5.393   4.570   6.977 -0.7448  0.1413 -0.6032
 4957TIP3    H214805   5.307   4.653   6.884 -2.6330 -0.7296  0.3567
 4958TIP3   OH214806   7.694   6.335   2.169 -0.0917  0.4901  0.8354
 4958TIP3    H114807   7.639   6.257   2.168  0.9951 -0.3513 -2.5849
 4958TIP3    H214808   7.632   6.408   2.170 -1.1736 -0.4229  1.6444
 4959TIP3   OH214809   4.174   1.422   6.770 -0.2667 -0.1394 -0.2797
 4959TIP3    H114810   4.143   1.352   6.713  1.5964 -0.9549 -0.3340
 4959TIP3    H214811   4.217   1.376   6.842 -0.0512  0.9372  0.2817
 4960TIP3   OH214812   6.746   5.095   1.472 -0.1721 -0.1039  0.3813
 4960TIP3    H114813   6.842   5.094   1.470 -0.1227  0.1098  2.2165
 4960TIP3    H214814   6.723   5.025   1.533 -1.1846  0.0802  0.2145
 4961TIP3   OH214815   5.650   6.576   0.556 -0.6295 -0.1564  0.1043
 4961TIP3    H114816   5.631   6.560   0.464  0.2245  0.7515 -0.2416
 4961TIP3    H214817   5.656   6.489   0.595 -3.7679 -0.5163 -0.0930
 4962TIP3   OH214818   4.960   2.093   6.807  0.1986  0.4592  0.1025
 4962TIP3    H114819   4.906   2.015   6.795  0.0119  0.8974 -2.0551
 4962TIP3    H214820   4.949   2.143   6.726  2.6483  1.2866  0.2238
 4963TIP3   OH214821   0.414   7.666   1.900  0.5639  0.3617 -0.1317
 4963TIP3    H114822   0.389   7.697   1.813 -0.7878 -0.5630 -0.0845
 4963TIP3    H214823   0.474   7.593   1.882 -0.6125 -0.5782 -0.3223
 4964TIP3   OH214824   8.220   7.396   1.068  0.2071 -0.1563 -0.2267
 4964TIP3    H114825   8.134   7.425   1.099 -0.1682 -0.6364 -0.8113
 4964TIP3    H214826   8.207   7.306   1.040  1.0798 -0.4829  0.3886
 4965TIP3   OH214827   4.908   6.101   0.643 -0.0377 -0.4393 -0.6384
 4965TIP3    H114828   4.942   6.147   0.720 -1.2640  0.1941 -0.4671
 4965TIP3    H214829   4.979   6.042   0.617  1.0063  0.5114 -0.0006
 4966TIP3   OH214830   6.118   5.988   0.784 -0.5183  0.3287  0.3584
 4966TIP3    H114831   6.165   6.069   0.760  0.3632  0.3082  1.9551
 4966TIP3    H214832   6.054   6.016   0.849  0.3830 -0.3737  1.5814
 4967TIP3   OH214833   6.362   7.813   2.844 -0.1474  0.7442  0.8181
 4967TIP3    H114834   6.318   7.795   2.927 -1.3971  2.5903  0.5959
 4967TIP3    H214835   6.291   7.835   2.783  0.5905 -2.4688 -1.2932
 4968TIP3   OH214836   7.846   7.201   1.199 -0.0774 -0.0786 -0.3359
 4968TIP3    H114837   7.824   7.132   1.136 -0.2786  0.3866 -0.7865
 4968TIP3    H214838   7.863   7.278   1.144 -0.5297  0.4031  0.2033
 4969TIP3   OH214839   7.739   7.487   3.554  0.3004 -0.3773  0.5185
 4969TIP3    H114840   7.761   7.533   3.473  0.0889  0.7046  1.0678
 4969TIP3    H214841   7.659   7.439   3.532  0.5246 -0.4968 -0.0602
 4970TIP3   OH214842   5.432   6.504   1.014 -0.5887  0.2345  0.8016
 4970TIP3    H114843   5.498   6.570   0.993 -0.5011  0.1435  0.7926
 4970TIP3    H214844   5.411   6.520   1.106 -1.3128  0.9282  0.5246
 4971TIP3   OH214845   8.112   2.916   0.177 -0.3766 -0.5230  0.1892
 4971TIP3    H114846   8.085   2.849   0.114 -0.9045  0.3321 -0.5047
 4971TIP3    H214847   8.189   2.879   0.221 -1.4559 -2.1594  0.7688
 4972TIP3   OH214848   7.905   5.956   2.224  0.5836  0.3323  0.2945
 4972TIP3    H114849   7.937   5.866   2.215 -0.1658  0.1806 -1.0790
 4972TIP3    H214850   7.813   5.946   2.249 -0.0307  0.6769 -1.7299
 4973TIP3   OH214851   8.449   5.941   3.489 -0.0921 -0.4190  0.0535
 4973TIP3    H114852   8.479   5.856   3.456 -1.0549 -1.1033  0.9199
 4973TIP3    H214853   8.481   6.004   3.425 -0.8358 -1.6072 -1.5100
 4974TIP3   OH214854   6.833   7.369   1.664 -0.5270  0.7806  0.1754
 4974TIP3    H114855   6.861   7.284   1.630 -2.9065  0.3536 -0.8196
 4974TIP3    H214856   6.914   7.410   1.695  0.9540 -0.9946 -1.1916
 4975TIP3   OH214857   0.638   4.388   2.765  0.0368  0.0828 -0.4010
 4975TIP3    H114858   0.648   4.481   2.783 -0.3304  0.0476 -0.0281
 4975TIP3    H214859   0.606   4.385   2.674 -0.4708  0.3422 -0.2353
 4976TIP3   OH214860   0.031   7.016   1.582 -0.4162 -0.4087  0.1982
 4976TIP3    H114861   0.005   6.929   1.551 -0.7223  0.4610 -2.0193
 4976TIP3    H214862   0.015   7.074   1.508  1.6954  1.2207  0.9792
 4977TIP3   OH214863   0.684   4.551   1.583 -0.0980 -0.1803  0.3474
 4977TIP3    H114864   0.744   4.625   1.577  1.0150 -1.0316  0.7688
 4977TIP3    H214865   0.723   4.483   1.528  0.0216 -1.1902  1.6425
 4978TIP3   OH214866   6.192   6.078   1.206  0.4445  0.3652 -0.1403
 4978TIP3    H114867   6.157   6.065   1.295 -0.3153 -0.9276 -0.6091
 4978TIP3    H214868   6.120   6.119   1.158 -0.0869 -1.3080 -0.8217
 4979TIP3   OH214869   6.511   6.382   2.590 -0.5955 -0.0020 -0.5932
 4979TIP3    H114870   6.538   6.459   2.641 -0.1731 -0.3702 -0.2569
 4979TIP3    H214871   6.515   6.309   2.653 -1.4717 -0.2223 -0.7810
 4980TIP3   OH214872   7.169   5.738   0.503 -0.4050 -0.3510 -0.5437
 4980TIP3    H114873   7.222   5.818   0.501  0.6126 -1.0371 -2.9346
 4980TIP3    H214874   7.082   5.767   0.527  0.6125  1.0632  1.5950
 4981TIP3   OH214875   7.454   6.972   3.317  0.6561 -0.0958 -0.6765
 4981TIP3    H114876   7.536   7.022   3.321  0.8036 -0.3382 -0.6994
 4981TIP3    H214877   7.390   7.035   3.283  0.7093  0.2501 -0.1386
 4982TIP3   OH214878   0.047   5.623   2.367  0.0124 -0.1412  0.1727
 4982TIP3    H114879   0.009   5.649   2.283  1.1294  2.1577  0.3432
 4982TIP3    H214880   0.141   5.623   2.352  0.1922 -0.3110  1.2773
 4983TIP3   OH214881   7.480   4.959   1.463 -0.1211 -0.1859  0.0002
 4983TIP3    H114882   7.520   4.942   1.377 -0.1654 -1.0995  0.1560
 4983TIP3    H214883   7.479   4.873   1.506  1.7155  0.6224  1.7012
 4984TIP3   OH214884   8.248   6.334   1.904  0.0381 -0.3607  0.4244
 4984TIP3    H114885   8.179   6.366   1.846  0.4999 -1.2166 -0.6223
 4984TIP3    H214886   8.246   6.393   1.979 -0.3869  0.9434 -0.5896
 4985TIP3   OH214887   8.160   4.945   0.433  0.4130  0.1634  0.3730
 4985TIP3    H114888   8.241   4.972   0.390  0.7195 -1.5823 -0.1641
 4985TIP3    H214889   8.117   5.028   0.456  1.8642  1.1053 -0.2188
 4986TIP3   OH214890   5.991   5.743   1.848  0.7514 -0.0537  0.0333
 4986TIP3    H114891   5.969   5.679   1.780 -1.0545  0.2552  0.3191
 4986TIP3    H214892   5.930   5.815   1.835  0.5255  0.1079  1.8583
 4987TIP3   OH214893   8.444   3.398   3.147  0.2582 -0.0640 -0.0297
 4987TIP3    H114894   8.399   3.316   3.131 -0.3133  0.2455 -0.0175
 4987TIP3    H214895   8.395   3.463   3.096  1.8238 -0.0405 -1.6003
 4988TIP3   OH214896   6.815   5.009   1.118 -0.3991  0.3829 -0.1198
 4988TIP3    H114897   6.890   5.056   1.157  1.1699 -0.0903 -2.4659
 4988TIP3    H214898   6.746   5.075   1.114 -0.0262  0.9293  1.7977
 4989TIP3   OH214899   1.568   4.363   2.398 -0.1211 -0.0829 -0.8302
 4989TIP3    H114900   1.664   4.361   2.394 -0.0722 -3.5799  0.5699
 4989TIP3    H214901   1.540   4.285   2.350 -2.2164 -0.0461  0.2675
 4990TIP3   OH214902   0.744   6.699   1.106 -0.6370  0.0217  0.1483
 4990TIP3    H114903   0.695   6.618   1.089  0.4481 -0.1158 -2.4712
 4990TIP3    H214904   0.828   6.669   1.141 -0.2527 -0.0001 -0.7779
 4991TIP3   OH214905   1.010   0.533   1.031 -0.3620 -0.4267  0.4943
 4991TIP3    H114906   0.933   0.543   1.087 -0.8644 -1.2777 -0.0489
 4991TIP3    H214907   1.008   0.442   1.003 -0.2924  0.0663 -1.1685
 4992TIP3   OH214908   7.815   4.762   3.390 -0.5803  0.1324 -0.5250
 4992TIP3    H114909   7.908   4.768   3.367 -0.4014  0.0002  0.1615
 4992TIP3    H214910   7.796   4.669   3.388 -0.2561  0.0130  1.0351
 4993TIP3   OH214911   6.351   5.052   2.234  0.0746 -0.1585 -0.6822
 4993TIP3    H114912   6.381   5.005   2.156 -1.7766 -1.3346 -0.7271
 4993TIP3    H214913   6.276   5.102   2.204 -0.2464 -0.1033  0.2017
 4994TIP3   OH214914   6.621   3.685   2.426  0.5148  0.1256 -0.3932
 4994TIP3    H114915   6.583   3.598   2.411  1.1554 -0.0138 -1.2721
 4994TIP3    H214916   6.607   3.701   2.519 -1.6315  0.0542 -0.6777
 4995TIP3   OH214917   3.420   0.275   1.382  0.5591 -0.1582  0.9046
 4995TIP3    H114918   3.328   0.255   1.401 -0.5957  4.1409  0.2937
 4995TIP3    H214919   3.429   0.259   1.288  0.5883 -1.0650  1.0577
 4996TIP3   OH214920   7.111   5.390   2.434  0.0235 -0.1903  0.4065
 4996TIP3    H114921   7.135   5.349   2.517 -1.6191 -1.4338  0.2780
 4996TIP3    H214922   7.109   5.484   2.454  0.5556 -0.4137  1.5315
 4997TIP3   OH214923   0.408   6.913   1.331 -0.7109 -0.2457  0.3236
 4997TIP3    H114924   0.484   6.969   1.310 -1.7994  0.5797 -1.5247
 4997TIP3    H214925   0.408   6.908   1.427 -0.4506  2.7890  0.5356
 4998TIP3   OH214926   0.327   6.007   3.481 -0.4744 -0.4198 -0.1815
 4998TIP3    H114927   0.368   5.930   3.442 -1.6248 -0.8951 -0.4958
 4998TIP3    H214928   0.384   6.031   3.554  1.2844  0.0042 -1.6709
 4999TIP3   OH214929   5.843   5.958   0.213  0.0347 -0.1469  0.3350
 4999TIP3    H114930   5.830   5.864   0.227  2.0681 -0.9720 -2.7685
 4999TIP3    H214931   5.937   5.971   0.227 -0.1747  1.3644  0.4115
 5000TIP3   OH214932   7.597   4.908   1.801  0.0166 -0.2622  0.6890
 5000TIP3    H114933   7.540   4.853   1.748  0.5398 -0.3462  0.2108
 5000TIP3    H214934   7.552   4.992   1.805 -0.8670 -0.7769  1.5695
 5001TIP3   OH214935   7.631   5.874   4.168 -0.1017 -0.2353  0.3030
 5001TIP3    H114936   7.676   5.815   4.229  0.8854 -0.7072 -0.8495
 5001TIP3    H214937   7.628   5.958   4.214  0.5169 -0.6115  1.0473
 5002TIP3   OH214938   6.828   3.720   1.365 -0.2857 -0.1780  0.4318
 5002TIP3    H114939   6.909   3.678   1.392  1.7049  2.5708 -1.0418
 5002TIP3    H214940   6.780   3.652   1.317  1.6266 -1.5010  0.3685
 5003TIP3   OH214941   5.019   4.872   0.797 -0.3552  0.5159 -1.0644
 5003TIP3    H114942   5.065   4.866   0.713 -0.8473  0.7145 -1.3535
 5003TIP3    H214943   4.943   4.927   0.778  0.1494  1.5123 -0.2148
 5004TIP3   OH214944   7.107   6.731   2.061  0.6419  0.4268  0.4504
 5004TIP3    H114945   7.174   6.737   1.993 -1.2351 -1.9833 -1.7293
 5004TIP3    H214946   7.068   6.818   2.065 -0.1810  0.2702 -2.6786
 5005TIP3   OH214947   0.586   5.410   0.757 -0.2716 -0.3460  0.7671
 5005TIP3    H114948   0.602   5.364   0.674  0.5849 -1.0520  1.3123
 5005TIP3    H214949   0.492   5.426   0.757  0.0775  2.1345 -1.6237
 5006TIP3   OH214950   3.199   1.085   5.363  0.3459  0.0155  0.0074
 5006TIP3    H114951   3.140   1.109   5.292 -1.3394 -0.6986  1.1276
 5006TIP3    H214952   3.212   0.991   5.353  2.1560  0.3433 -0.8514
 5007TIP3   OH214953   4.269   3.185   6.457  0.5125 -0.4913 -0.5721
 5007TIP3    H114954   4.188   3.134   6.446  0.6896 -1.6825  3.2167
 5007TIP3    H214955   4.318   3.168   6.376 -2.8049 -0.0086 -2.8250
 5008TIP3   OH214956   7.972   4.261   0.291 -0.0441 -0.3019  0.0783
 5008TIP3    H114957   7.878   4.279   0.280 -0.1961  0.1027  1.8006
 5008TIP3    H214958   7.984   4.259   0.386  2.2022  2.3983 -0.0881
 5009TIP3   OH214959   7.245   3.988   0.059  0.0342 -0.4806 -0.6702
 5009TIP3    H114960   7.259   4.078   0.090 -0.6891 -0.0121 -1.6743
 5009TIP3    H214961   7.329   3.944   0.075  0.3395  0.3159 -0.0042
 5010TIP3   OH214962   0.880   4.756   1.721 -0.3256 -0.6905 -0.1593
 5010TIP3    H114963   0.874   4.671   1.764 -3.4080  0.1058  1.0759
 5010TIP3    H214964   0.854   4.819   1.788 -0.0088  1.0512 -1.6358
 5011TIP3   OH214965   5.667   3.390   6.734  0.1270  0.3124  0.5591
 5011TIP3    H114966   5.613   3.375   6.656  0.8756 -2.5442  0.5017
 5011TIP3    H214967   5.664   3.484   6.749 -4.2689  0.3547  0.1287
 5012TIP3   OH214968   6.043   4.476   0.845 -0.0020  0.0279  0.2399
 5012TIP3    H114969   6.052   4.516   0.758 -0.3422 -4.2792 -1.9145
 5012TIP3    H214970   6.132   4.471   0.879  0.4808 -0.7121 -1.0816
 5013TIP3   OH214971   4.623   5.642   2.983  0.1925  0.0384  0.3167
 5013TIP3    H114972   4.550   5.688   3.025  0.5608  0.7104  0.2303
 5013TIP3    H214973   4.673   5.711   2.938 -0.3253 -0.7006 -1.4325
 5014TIP3   OH214974   7.551   5.945   1.471 -0.2892 -0.2516  0.2871
 5014TIP3    H114975   7.477   6.006   1.479  0.5773  1.4101 -3.3143
 5014TIP3    H214976   7.627   5.998   1.492  0.1933 -0.9583  0.3282
 5015TIP3   OH214977   2.527   0.337   1.463 -0.3643  0.1414 -0.3716
 5015TIP3    H114978   2.551   0.416   1.512  1.4700  0.2434 -1.3698
 5015TIP3    H214979   2.576   0.267   1.505 -2.6214 -0.6295  1.0233
 5016TIP3   OH214980   3.252   0.255   2.993 -0.2996 -0.1678  0.1211
 5016TIP3    H114981   3.338   0.262   3.034  0.1973 -1.8892 -0.5706
 5016TIP3    H214982   3.233   0.161   2.992 -1.2921  0.0229 -1.5667
 5017TIP3   OH214983   5.122   6.136   1.283  0.0331 -0.0768  0.3795
 5017TIP3    H114984   5.120   6.076   1.357  1.1453 -0.5680  0.0207
 5017TIP3    H214985   5.199   6.110   1.233 -0.0044  1.0506 -0.2840
 5018TIP3   OH214986   0.507   7.298   1.273 -0.2503 -0.1644  0.3040
 5018TIP3    H114987   0.438   7.295   1.339  0.5718  2.2341  1.3213
 5018TIP3    H214988   0.476   7.360   1.208  0.4285  0.0584  0.1811
 5019TIP3   OH214989   2.273   0.301   3.345  0.3385  0.1912  0.5353
 5019TIP3    H114990   2.283   0.263   3.258 -0.1135 -2.0375  1.4232
 5019TIP3    H214991   2.194   0.355   3.338  0.7479  0.6688 -0.6344
 5020TIP3   OH214992   0.437   7.977   4.016  0.8016 -0.2847 -0.0855
 5020TIP3    H114993   0.450   7.921   4.093 -0.3709  2.2024  1.9802
 5020TIP3    H214994   0.343   7.973   4.000  1.0561 -0.8690 -1.4811
 5021TIP3   OH214995   5.792   7.775   2.078 -0.3514 -0.4387  0.0002
 5021TIP3    H114996   5.833   7.834   2.015  0.8573 -0.8967  0.3453
 5021TIP3    H214997   5.709   7.817   2.100 -0.4390  0.1084 -1.3103
 5022TIP3   OH214998   3.058   0.681   2.602  0.2841  0.9360 -0.0542
 5022TIP3    H114999   3.138   0.669   2.654  0.4085  0.9304 -0.2450
 5022TIP3    H215000   3.090   0.709   2.517  0.1388 -0.1294 -0.4650
 5023TIP3   OH215001   8.203   7.070   1.713 -0.1040  0.2651 -0.2354
 5023TIP3    H115002   8.198   6.990   1.765  0.4106  0.5901  0.3214
 5023TIP3    H215003   8.269   7.052   1.647  1.0803  0.7392  0.8016
 5024TIP3   OH215004   6.996   6.410   1.004 -0.1412  0.4697  0.3165
 5024TIP3    H115005   7.058   6.383   1.072  0.3055  1.1795  0.1872
 5024TIP3    H215006   7.049   6.452   0.937 -0.6703  0.4019 -0.1498
 5025TIP3   OH215007   8.014   4.526   2.031 -0.0628  0.2020  0.3481
 5025TIP3    H115008   8.027   4.576   1.951 -0.9930 -1.6158 -0.9964
 5025TIP3    H215009   8.004   4.435   2.001 -1.0480 -0.4277  2.4583
 5026TIP3   OH215010   7.577   5.007   0.258  0.1879 -0.4392 -0.0984
 5026TIP3    H115011   7.589   5.084   0.201 -1.7336 -0.6890 -0.8837
 5026TIP3    H215012   7.566   4.934   0.197 -0.7571 -0.8848  0.5971
 5027TIP3   OH215013   8.050   3.479   1.596  0.1608  0.1217  0.0560
 5027TIP3    H115014   7.974   3.437   1.554  0.6872 -1.1458  0.3377
 5027TIP3    H215015   8.013   3.529   1.668 -0.3674 -1.0479  0.6196
 5028TIP3   OH215016   0.323   4.420   2.698 -0.3821 -0.4375 -0.4167
 5028TIP3    H115017   0.291   4.386   2.614  0.6409 -0.1813 -0.9269
 5028TIP3    H215018   0.383   4.490   2.673 -0.1331 -0.3095  0.5413
 5029TIP3   OH215019   0.065   4.987   3.027  0.0744 -0.0360 -0.1680
 5029TIP3    H115020   0.005   4.986   3.102  0.7349 -0.0934  0.3616
 5029TIP3    H215021   0.027   4.924   2.966 -0.7687  0.4237 -0.1217
 5030TIP3   OH215022   6.540   6.415   2.221 -0.3088 -0.5175 -0.2241
 5030TIP3    H115023   6.485   6.339   2.240  0.1725 -1.1695 -1.3814
 5030TIP3    H215024   6.574   6.398   2.133 -0.1483  1.0101 -0.4708
 5031TIP3   OH215025   6.409   5.843   4.667 -0.0262 -0.2268  0.0457
 5031TIP3    H115026   6.417   5.919   4.725  0.6486 -0.6930  0.5704
 5031TIP3    H215027   6.489   5.793   4.682 -0.1095 -0.6474 -0.8683
 5032TIP3   OH215028   6.820   5.628   1.457  0.3748 -0.6357 -0.0745
 5032TIP3    H115029   6.804   5.598   1.368  1.3732 -0.9217 -0.1702
 5032TIP3    H215030   6.900   5.582   1.484  1.1016  0.8053  0.3152
 5033TIP3   OH215031   0.680   3.553   2.565 -0.1537  0.5035  0.0023
 5033TIP3    H115032   0.701   3.632   2.615  0.6953 -0.2656  0.8643
 5033TIP3    H215033   0.722   3.482   2.613 -0.5175 -0.4211 -1.0308
 5034TIP3   OH215034   8.429   5.527   2.605  0.6329  0.1378  0.3048
 5034TIP3    H115035   8.454   5.542   2.514  0.6655  0.6448  0.3942
 5034TIP3    H215036   8.340   5.562   2.612  0.2404 -0.8357  0.2146
 5035TIP3   OH215037   7.816   4.364   2.627  0.4016  0.0730  0.2948
 5035TIP3    H115038   7.843   4.294   2.687 -0.7916 -1.6487 -1.1092
 5035TIP3    H215039   7.735   4.399   2.666  0.4068 -0.0685  0.4326
 5036TIP3   OH215040   7.717   6.228   0.114 -0.2708 -0.5095 -0.3378
 5036TIP3    H115041   7.722   6.191   0.026 -1.1217 -1.7579  0.1198
 5036TIP3    H215042   7.624   6.245   0.128 -0.0444  0.4521  0.0094
 5037TIP3   OH215043   6.227   6.591   0.109  0.3710 -0.1347  0.5905
 5037TIP3    H115044   6.317   6.563   0.098  1.4106  2.3712  2.2155
 5037TIP3    H215045   6.179   6.547   0.039  2.5218 -2.8747  0.7656
 5038TIP3   OH215046   5.105   6.697   1.137 -0.9075  0.3278  0.5712
 5038TIP3    H115047   5.140   6.736   1.217  1.9228  0.1982 -0.5422
 5038TIP3    H215048   5.142   6.609   1.135 -1.6555  0.0269 -0.4338
 5039TIP3   OH215049   4.431   1.356   6.640 -0.0246 -0.6380  0.2793
 5039TIP3    H115050   4.346   1.385   6.674  1.1543  0.7246  2.1650
 5039TIP3    H215051   4.409   1.292   6.572 -2.6228  1.4857 -0.9788
 5040TIP3   OH215052   6.024   2.407   6.612 -0.1879 -0.2540  0.3703
 5040TIP3    H115053   6.087   2.455   6.666 -0.3586  0.5124 -0.1054
 5040TIP3    H215054   6.053   2.316   6.617  2.0748  0.3120 -1.2809
 5041TIP3   OH215055   6.004   1.329   5.943 -0.0398 -0.8566  0.0280
 5041TIP3    H115056   5.955   1.395   5.893 -0.3766  0.1771  1.7021
 5041TIP3    H215057   5.945   1.254   5.948 -0.1131 -0.8697 -0.8784
 5042TIP3   OH215058   0.392   5.109   2.472  0.2185 -0.1578 -0.6208
 5042TIP3    H115059   0.364   5.025   2.436 -0.6228  0.4976 -1.5136
 5042TIP3    H215060   0.336   5.174   2.428  1.4963  0.9467 -0.6456
 5043TIP3   OH215061   4.185   2.400   6.075 -0.9651  0.1105  0.8329
 5043TIP3    H115062   4.251   2.468   6.089 -0.0805 -0.3408 -1.0880
 5043TIP3    H215063   4.130   2.433   6.005 -1.7553 -0.2791  1.2598
 5044TIP3   OH215064   5.580   4.349   2.672  0.1107  0.0574  0.6485
 5044TIP3    H115065   5.544   4.413   2.610  0.0323 -1.2227 -0.6495
 5044TIP3    H215066   5.594   4.399   2.753 -2.2566  1.1647  0.4340
 5045TIP3   OH215067   8.072   5.054   1.884 -0.1249 -0.2471 -0.3709
 5045TIP3    H115068   8.095   5.073   1.975 -0.9793  2.6071 -0.6960
 5045TIP3    H215069   8.022   4.973   1.889 -2.9094  1.5070  2.1257
 5046TIP3   OH215070   3.637   5.090   1.184 -0.5105  0.0770 -0.3667
 5046TIP3    H115071   3.635   5.155   1.254  1.3380 -1.0945  0.8039
 5046TIP3    H215072   3.606   5.137   1.106  0.0421  2.1241  0.6336
 5047TIP3   OH215073   6.942   4.743   4.276  0.2185 -0.2854 -0.4299
 5047TIP3    H115074   7.002   4.817   4.266 -1.4777  1.4123  1.4268
 5047TIP3    H215075   6.870   4.762   4.216  0.1770 -0.8834 -0.5745
 5048TIP3   OH215076   7.246   7.153   2.741 -0.2523  0.2405 -0.1752
 5048TIP3    H115077   7.215   7.197   2.820 -0.5037 -1.9738  0.9929
 5048TIP3    H215078   7.171   7.154   2.682 -0.4022  0.9385  0.0244
 5049TIP3   OH215079   6.832   4.580   2.340  0.3339 -0.4544 -0.4153
 5049TIP3    H115080   6.781   4.502   2.365 -0.9802  0.6296  0.4189
 5049TIP3    H215081   6.893   4.592   2.413 -0.4006  0.0742  0.1244
 5050TIP3   OH215082   7.186   7.801   1.041  0.2848  0.7362 -0.7485
 5050TIP3    H115083   7.130   7.824   1.115  0.9085 -3.0654  1.0279
 5050TIP3    H215084   7.275   7.812   1.074  0.5893  1.3672 -1.7507
 5051TIP3   OH215085  -0.020   3.730   0.848  0.0495 -0.2263 -0.9123
 5051TIP3    H115086   0.007   3.784   0.923 -1.9229 -1.4510  0.7314
 5051TIP3    H215087   0.017   3.776   0.772  0.5222  2.0758  0.6228
 5052TIP3   OH215088   5.040   5.972   2.258  0.1026  0.0628 -0.2277
 5052TIP3    H115089   4.981   5.898   2.264 -0.5487  0.4822 -1.2254
 5052TIP3    H215090   5.000   6.029   2.192  1.3457  0.5967 -0.5387
 5053TIP3   OH215091   4.568   7.403   0.152 -0.5513  0.5534  0.3507
 5053TIP3    H115092   4.534   7.484   0.192  0.4618  1.3584 -0.4055
 5053TIP3    H215093   4.643   7.379   0.207  1.1971  1.9777 -1.3637
 5054TIP3   OH215094   6.327   7.196   2.802 -0.0991 -0.4807  0.0847
 5054TIP3    H115095   6.296   7.246   2.878 -0.6571  0.0721 -0.5062
 5054TIP3    H215096   6.421   7.187   2.817 -0.2232 -0.4809  0.9031
 5055TIP3   OH215097   5.895   7.390   1.427  0.5596  0.5246  0.1003
 5055TIP3    H115098   5.963   7.324   1.412 -0.3721 -1.0420  2.3935
 5055TIP3    H215099   5.918   7.431   1.510 -0.8818  0.4790  0.5411
 5056TIP3   OH215100   7.199   7.170   1.540  0.1525  0.2399 -0.2010
 5056TIP3    H115101   7.274   7.218   1.504  0.3629  0.6685  0.7982
 5056TIP3    H215102   7.135   7.168   1.468  2.0102 -2.1699 -1.8709
 5057TIP3   OH215103   6.666   5.806   1.888  0.4225 -0.5931 -0.1132
 5057TIP3    H115104   6.664   5.729   1.830  0.9183  0.5261 -1.6487
 5057TIP3    H215105   6.596   5.789   1.952  0.1789 -2.0818 -0.7415
 5058TIP3   OH215106   0.279   5.089   0.899 -0.3318 -0.0961  0.3546
 5058TIP3    H115107   0.295   4.996   0.918 -0.3121 -0.4985 -1.4470
 5058TIP3    H215108   0.327   5.105   0.817 -1.4953  1.1143 -0.1131
 5059TIP3   OH215109   1.102   6.182   2.307 -0.8041 -0.0656 -0.3425
 5059TIP3    H115110   1.037   6.191   2.237  1.5869 -0.8682 -2.7719
 5059TIP3    H215111   1.145   6.098   2.289  1.5954  0.9180  0.5494
 5060TIP3   OH215112   3.405   2.083   2.695 -0.1884  0.5663  0.1901
 5060TIP3    H115113   3.350   2.064   2.771  0.1627 -0.1098  0.2824
 5060TIP3    H215114   3.348   2.132   2.636 -0.9020 -0.1421  0.2736
 5061TIP3   OH215115   7.260   4.753   0.631  0.6173  0.0081  0.4582
 5061TIP3    H115116   7.262   4.848   0.622  1.6006 -0.0797 -0.3209
 5061TIP3    H215117   7.344   4.731   0.670  0.3636 -0.5460  0.6967
 5062TIP3   OH215118   5.153   6.297   2.559  0.0720  0.0973 -0.1708
 5062TIP3    H115119   5.148   6.260   2.647 -1.2385  0.9884  0.1441
 5062TIP3    H215120   5.244   6.285   2.533  0.1639 -1.3590  0.7810
 5063TIP3   OH215121   0.734   4.953   2.431  0.5689 -1.0949 -0.0972
 5063TIP3    H115122   0.765   4.866   2.405  0.3933 -1.5395  1.1668
 5063TIP3    H215123   0.681   4.937   2.509  1.6263  0.3005  0.9142
 5064TIP3   OH215124   0.207   6.409   1.733  0.0900 -0.4636 -0.0237
 5064TIP3    H115125   0.263   6.405   1.810  0.5977  0.5176 -0.3308
 5064TIP3    H215126   0.266   6.393   1.659 -0.5489 -2.3148 -0.1703
 5065TIP3   OH215127   6.221   5.463   1.175  0.0368  0.8288  0.2243
 5065TIP3    H115128   6.229   5.550   1.213  0.2152  1.0931 -0.3998
 5065TIP3    H215129   6.159   5.474   1.102  1.1500  0.7587 -0.7594
 5066TIP3   OH215130   8.048   5.583   1.818 -0.1909  0.9381 -0.1024
 5066TIP3    H115131   7.966   5.625   1.844  0.5689  2.9594 -0.8510
 5066TIP3    H215132   8.044   5.581   1.722 -0.2463 -0.8179 -0.0803
 5067TIP3   OH215133   0.218   6.010   2.826  0.6859  0.2754 -0.1093
 5067TIP3    H115134   0.200   5.938   2.766  1.9576 -0.6078  0.5355
 5067TIP3    H215135   0.273   5.971   2.894  1.4150  1.8586  0.2316
 5068TIP3   OH215136   6.768   3.176   2.149 -0.3750 -0.1238  0.0040
 5068TIP3    H115137   6.690   3.228   2.166 -0.4260  0.1615 -1.0807
 5068TIP3    H215138   6.791   3.138   2.234 -1.0477  0.6837  0.5500
 5069TIP3   OH215139   6.527   3.721   3.127  0.3904 -0.3837 -0.3473
 5069TIP3    H115140   6.455   3.780   3.103  1.7309  0.8183 -1.5078
 5069TIP3    H215141   6.542   3.739   3.220  1.5456  2.0087 -0.9440
 5070TIP3   OH215142   0.887   7.221   0.136 -0.1665  0.2946  0.4861
 5070TIP3    H115143   0.882   7.192   0.045 -1.9877  0.2923  0.5541
 5070TIP3    H215144   0.954   7.289   0.137 -0.8363  1.0038 -1.0600
 5071TIP3   OH215145   0.477   5.727   2.443 -0.4689 -0.0486 -0.1801
 5071TIP3    H115146   0.421   5.735   2.520 -2.6541 -0.4822 -1.6889
 5071TIP3    H215147   0.541   5.798   2.453  2.2769 -2.9200  4.3652
 5072TIP3   OH215148   8.040   7.447   1.785  0.2555 -0.2141  0.0585
 5072TIP3    H115149   8.032   7.533   1.825 -0.8071  0.1532 -0.9232
 5072TIP3    H215150   8.122   7.412   1.819  1.4171  1.7662 -0.6508
 5073TIP3   OH215151   8.478   5.814   1.397 -0.6383 -0.1838 -0.2480
 5073TIP3    H115152   8.415   5.884   1.381 -0.3367  0.1349 -0.0510
 5073TIP3    H215153   8.551   5.857   1.440 -0.8213 -0.7818  0.6682
 5074TIP3   OH215154   8.243   7.290   1.902 -0.0572 -0.2905 -0.0264
 5074TIP3    H115155   8.298   7.235   1.957 -0.2787  0.5673  1.0632
 5074TIP3    H215156   8.241   7.245   1.818 -0.2943 -1.9995  0.8745
 5075TIP3   OH215157   2.977   0.324   4.222  0.1535 -0.4444 -0.1812
 5075TIP3    H115158   2.897   0.351   4.176  0.4621  2.0227  0.6401
 5075TIP3    H215159   3.040   0.305   4.152 -0.2802  0.4290 -0.8162
 5076TIP3   OH215160   3.699   0.264   4.858  0.0570 -0.1495  0.1363
 5076TIP3    H115161   3.606   0.245   4.870  0.4322 -1.4094  1.1951
 5076TIP3    H215162   3.707   0.357   4.878 -1.0503  0.0734 -0.4207
 5077TIP3   OH215163   1.012   4.741   2.752 -0.1803  0.0970 -0.2084
 5077TIP3    H115164   1.098   4.729   2.713 -0.4911 -2.3294 -0.1821
 5077TIP3    H215165   0.951   4.704   2.688 -1.2971  2.3867 -0.5421
 5078TIP3   OH215166   3.589   0.299   3.574  0.2650  0.2009 -0.0043
 5078TIP3    H115167   3.634   0.383   3.578 -0.5970  0.8614 -2.7780
 5078TIP3    H215168   3.652   0.239   3.536 -0.2866  0.5128 -1.4682
 5079TIP3   OH215169   1.861   7.618   3.477 -0.4182 -0.1483  0.1403
 5079TIP3    H115170   1.804   7.589   3.548 -0.7945  1.7706  0.6451
 5079TIP3    H215171   1.919   7.682   3.517 -0.0613  0.3108 -1.0915
 5080TIP3   OH215172   8.232   7.067   3.748  0.1151 -0.0012  0.6939
 5080TIP3    H115173   8.199   6.997   3.692 -0.3564 -0.4277  1.4928
 5080TIP3    H215174   8.158   7.127   3.758  0.9849  1.4415 -1.2667
 5081TIP3   OH215175   7.024   7.212   3.676  0.3824  0.0201 -0.3357
 5081TIP3    H115176   7.041   7.138   3.734  2.5257  0.1722 -0.7173
 5081TIP3    H215177   7.057   7.184   3.591  1.9265  1.6478 -0.3189
 5082TIP3   OH215178   1.354   4.968   2.678 -0.7723  0.3661  0.5522
 5082TIP3    H115179   1.344   4.911   2.602 -2.2244 -0.1386  1.1200
 5082TIP3    H215180   1.312   4.922   2.750 -2.2872  2.2739  0.9500
 5083TIP3   OH215181   7.204   5.757   4.800 -0.3100 -0.5621  0.1792
 5083TIP3    H115182   7.151   5.700   4.856 -1.6871 -1.1365 -1.6556
 5083TIP3    H215183   7.205   5.712   4.716  1.3370  0.5275 -0.3943
 5084TIP3   OH215184   1.001   0.539   4.683 -0.0108 -0.0190 -0.1377
 5084TIP3    H115185   0.960   0.585   4.610 -0.6726 -0.6747 -0.1882
 5084TIP3    H215186   0.959   0.453   4.683  1.8058 -0.9308 -0.5778
 5085TIP3   OH215187   3.762   1.459   1.415  0.2602  0.1199 -0.2281
 5085TIP3    H115188   3.740   1.550   1.398 -1.9337  0.2745  2.9764
 5085TIP3    H215189   3.827   1.461   1.485 -1.3299 -0.7500  1.3398
 5086TIP3   OH215190   0.090   7.996   2.795 -0.3222  0.3218  0.2525
 5086TIP3    H115191   0.181   7.969   2.807 -0.1376  1.2375  1.0239
 5086TIP3    H215192   0.088   8.038   2.709 -0.5773 -1.9581 -0.8699
 5087TIP3   OH215193   0.458   6.936   1.598  0.0955 -0.6600 -0.4396
 5087TIP3    H115194   0.436   7.025   1.626 -2.0741 -0.6053 -2.1052
 5087TIP3    H215195   0.431   6.880   1.672 -1.0822 -0.1356 -0.4555
 5088TIP3   OH215196   1.746   7.728   1.788  0.1732 -0.1681  0.1142
 5088TIP3    H115197   1.656   7.760   1.782  0.3602  0.4285  0.4112
 5088TIP3    H215198   1.773   7.718   1.696 -0.3034 -0.6598  0.0289
 5089TIP3   OH215199   3.015   0.259   3.614 -0.5664  0.2316 -0.2078
 5089TIP3    H115200   3.016   0.284   3.706 -0.3625  1.2675 -0.4856
 5089TIP3    H215201   2.931   0.213   3.603 -1.3185  1.4935  0.1428
 5090TIP3   OH215202   6.795   6.448   4.730 -0.0382 -0.4254 -0.4955
 5090TIP3    H115203   6.820   6.400   4.651 -1.6068 -0.9721 -0.6780
 5090TIP3    H215204   6.803   6.383   4.801 -3.2386 -1.3007 -0.9021
 5091TIP3   OH215205   3.596   0.467   2.061  0.5672 -0.2054  0.5389
 5091TIP3    H115206   3.643   0.549   2.078 -0.5115  0.6451 -0.4547
 5091TIP3    H215207   3.619   0.444   1.971 -0.8104  0.1691  0.0751
 5092TIP3   OH215208   0.815   5.702   2.572  0.2298 -0.1264  0.0355
 5092TIP3    H115209   0.875   5.664   2.636  0.6902  2.2415  1.0586
 5092TIP3    H215210   0.739   5.728   2.623 -1.6506 -2.8773 -1.2126
 5093TIP3   OH215211   6.862   5.559   2.332 -0.3680  0.3743  1.0367
 5093TIP3    H115212   6.887   5.476   2.291  0.6954  1.0175  0.3335
 5093TIP3    H215213   6.785   5.588   2.283 -1.1440 -0.5129  1.7199
 5094TIP3   OH215214   7.685   4.888   2.897 -0.4213 -0.3218  0.3464
 5094TIP3    H115215   7.754   4.822   2.906  0.1579  0.1577 -0.5349
 5094TIP3    H215216   7.605   4.844   2.927 -0.1575 -1.6065 -0.8146
 5095TIP3   OH215217   0.645   7.956   1.188 -0.3329 -0.6666  0.2715
 5095TIP3    H115218   0.687   8.042   1.181  1.3346 -1.6126 -1.9152
 5095TIP3    H215219   0.562   7.966   1.142 -0.3448 -0.1195  0.4070
 5096TIP3   OH215220   2.040   0.387   3.118  0.0023  1.0132  0.0709
 5096TIP3    H115221   2.078   0.475   3.121  0.3854  0.8254  1.0482
 5096TIP3    H215222   1.958   0.395   3.167  0.2005  0.7574  0.4507
 5097TIP3   OH215223   0.852   7.602   1.316  0.2390  0.6017  0.0262
 5097TIP3    H115224   0.761   7.585   1.292  0.5505 -0.9591 -0.0841
 5097TIP3    H215225   0.851   7.690   1.353 -1.3123  0.6090 -0.0145
 5098TIP3   OH215226   1.177   0.184   1.476 -0.0843 -0.0890 -0.4839
 5098TIP3    H115227   1.112   0.254   1.476  0.2493  0.2247  0.9855
 5098TIP3    H215228   1.260   0.227   1.456  0.2195  0.0432  1.0123
 5099TIP3   OH215229   1.401   0.279   3.721 -0.0200 -0.0627 -0.5149
 5099TIP3    H115230   1.402   0.256   3.628  0.1535 -0.0929 -0.5049
 5099TIP3    H215231   1.436   0.368   3.724 -0.2127  0.0121 -0.4995
 5100TIP3   OH215232   7.308   7.618   0.398  0.2085 -0.2305  0.3272
 5100TIP3    H115233   7.226   7.654   0.364  1.9021  1.4526 -2.1132
 5100TIP3    H215234   7.300   7.523   0.385 -0.5563  0.0883 -1.7604
 5101TIP3   OH215235   8.022   7.136   2.206 -0.0578  1.2886  0.1973
 5101TIP3    H115236   8.105   7.158   2.248 -0.2986  0.2694  1.2218
 5101TIP3    H215237   8.032   7.168   2.116  1.8576  0.1836 -0.0130
 5102TIP3   OH215238   1.354   6.238   4.608 -0.1774  0.0937 -0.0062
 5102TIP3    H115239   1.432   6.214   4.658  0.2418  1.0705 -0.1911
 5102TIP3    H215240   1.377   6.320   4.564 -1.1233  0.1154 -0.4794
 5103TIP3   OH215241   1.357   6.767   3.547  0.2600 -0.2129  0.3937
 5103TIP3    H115242   1.445   6.754   3.512  0.1555  0.1462 -0.0090
 5103TIP3    H215243   1.353   6.860   3.569 -0.1919 -0.1090 -0.0945
 5104TIP3   OH215244   7.971   6.684   0.390  0.0994  0.1730  0.1942
 5104TIP3    H115245   7.886   6.677   0.433  0.1917  0.9884  0.5290
 5104TIP3    H215246   8.029   6.721   0.458  0.5954  0.0938 -0.1809
 5105TIP3   OH215247   6.029   0.869   1.161  0.5153  0.5445 -0.4690
 5105TIP3    H115248   6.066   0.929   1.227  0.2081  0.4302 -0.1891
 5105TIP3    H215249   5.969   0.813   1.211 -1.1476  1.6699 -1.1349
 5106TIP3   OH215250   0.773   7.722   3.376 -0.1313  0.1232 -0.4835
 5106TIP3    H115251   0.867   7.741   3.371 -0.1505  0.2110 -0.5189
 5106TIP3    H215252   0.748   7.744   3.466 -0.3844  1.3486 -0.8405
 5107TIP3   OH215253   2.026   5.649   2.715 -0.4819  0.0755 -0.7216
 5107TIP3    H115254   2.015   5.557   2.740 -0.8649 -0.1669 -1.7426
 5107TIP3    H215255   2.103   5.678   2.763 -0.5080 -0.7135 -0.1925
 5108TIP3   OH215256   2.923   0.612   3.823 -0.4271  0.3167  0.1588
 5108TIP3    H115257   2.922   0.659   3.740  0.8652  0.7212  0.3545
 5108TIP3    H215258   3.015   0.616   3.851 -1.0091  0.9949  2.0543
 5109TIP3   OH215259   3.801   0.134   3.409  0.1843 -0.1857 -0.3323
 5109TIP3    H115260   3.802   0.209   3.349 -2.6166  0.2349  0.0910
 5109TIP3    H215261   3.849   0.066   3.362  2.2775  1.6503 -0.9733
 5110TIP3   OH215262   1.970   4.498   0.581 -0.6147 -0.3899 -0.5244
 5110TIP3    H115263   1.914   4.550   0.523 -3.5016 -1.5453  1.1198
 5110TIP3    H215264   1.957   4.408   0.551  0.0429 -0.7111  0.1591
 5111TIP3   OH215265   0.434   5.302   0.205 -0.0672 -0.1513  0.2746
 5111TIP3    H115266   0.527   5.318   0.191 -0.1153  1.1587  1.4626
 5111TIP3    H215267   0.430   5.211   0.234  0.6269 -0.8908 -1.8391
 5112TIP3   OH215268   2.428   5.524   2.764 -0.3670 -0.6604  0.0764
 5112TIP3    H115269   2.359   5.459   2.748 -0.5526 -0.6364  0.7685
 5112TIP3    H215270   2.436   5.527   2.859 -1.3412  1.3325  0.1264
 5113TIP3   OH215271   2.947   6.869   1.043 -0.1153  0.5539  0.4284
 5113TIP3    H115272   2.918   6.951   1.081 -2.4896 -0.5875  1.1415
 5113TIP3    H215273   2.884   6.850   0.974  0.9676 -0.1890 -0.3858
 5114TIP3   OH215274   0.599   6.032   1.632  0.6277  1.0367 -0.6185
 5114TIP3    H115275   0.515   5.995   1.660  1.6815  0.6795  2.2330
 5114TIP3    H215276   0.648   5.957   1.599  0.6674  0.8355 -0.1128
 5115TIP3   OH215277   0.823   7.725   2.129  0.2158 -0.0744  0.2682
 5115TIP3    H115278   0.818   7.641   2.085 -0.5868  0.5393 -0.8550
 5115TIP3    H215279   0.917   7.743   2.137  0.3769 -0.2275 -1.1522
 5116TIP3   OH215280   2.663   7.970   3.338  0.6933  0.5786  0.2102
 5116TIP3    H115281   2.746   7.994   3.379  1.0480  0.9799 -0.7247
 5116TIP3    H215282   2.644   8.043   3.279 -1.7648  1.8506  2.4797
 5117TIP3   OH215283   1.182   6.503   2.138 -0.7470  0.7163 -0.3020
 5117TIP3    H115284   1.244   6.434   2.161 -0.9567 -0.6989 -3.6825
 5117TIP3    H215285   1.225   6.551   2.067 -2.5236  1.1746 -1.0964
 5118TIP3   OH215286   2.192   0.340   0.464  0.0802 -0.0730 -0.2165
 5118TIP3    H115287   2.131   0.411   0.483  0.7132  0.3404  0.3068
 5118TIP3    H215288   2.220   0.356   0.374  0.0674  0.2299 -0.1681
 5119TIP3   OH215289   1.359   5.741   0.884  0.2216  0.2150  0.5869
 5119TIP3    H115290   1.267   5.755   0.904  0.3555  0.7865  0.8364
 5119TIP3    H215291   1.360   5.704   0.796 -0.2118  0.8921  0.2944
 5120TIP3   OH215292   2.462   6.425   1.379 -0.7034 -0.5184 -0.2259
 5120TIP3    H115293   2.369   6.412   1.357 -1.1735  1.3427  0.5576
 5120TIP3    H215294   2.509   6.378   1.311 -2.2210 -1.2792 -0.7866
 5121TIP3   OH215295   0.204   6.982   2.886  0.3710  0.6989 -0.0901
 5121TIP3    H115296   0.266   6.915   2.857 -1.0708 -0.8545  0.3085
 5121TIP3    H215297   0.221   7.056   2.828  2.2259  0.1255 -0.3314
 5122TIP3   OH215298   7.608   6.009   0.367 -0.4027 -0.5103  0.0094
 5122TIP3    H115299   7.594   6.048   0.281 -2.7889  0.9865  1.0384
 5122TIP3    H215300   7.602   6.082   0.429  0.6021 -1.6644  1.5251
 5123TIP3   OH215301   3.696   5.656   3.662  0.4875 -0.3007  0.6187
 5123TIP3    H115302   3.745   5.594   3.609 -1.0834 -0.7894 -0.2798
 5123TIP3    H215303   3.656   5.602   3.730 -1.0188 -0.3114 -0.2631
 5124TIP3   OH215304   1.025   4.028   2.089  0.3597 -0.6005 -0.2242
 5124TIP3    H115305   0.995   4.062   2.173 -0.5978 -1.2372 -0.3025
 5124TIP3    H215306   1.083   4.096   2.055  1.2294 -0.5911  1.2179
 5125TIP3   OH215307   3.382   7.936   1.743  0.0898  0.1964  0.2961
 5125TIP3    H115308   3.347   7.847   1.738 -0.3728  0.2365  2.1751
 5125TIP3    H215309   3.445   7.942   1.672 -0.6279 -1.3027 -0.4799
 5126TIP3   OH215310   1.432   6.844   2.851  0.0715 -0.2889 -0.6719
 5126TIP3    H115311   1.393   6.797   2.776 -0.3604  1.5980 -1.6703
 5126TIP3    H215312   1.508   6.889   2.814  0.8848 -0.7717  0.4197
 5127TIP3   OH215313   1.900   6.526   2.469 -0.1455  0.0832  0.0356
 5127TIP3    H115314   1.955   6.510   2.393 -0.4203 -0.6770 -0.0027
 5127TIP3    H215315   1.961   6.526   2.543 -0.2247 -1.7559  0.1080
 5128TIP3   OH215316   0.483   7.448   2.860  0.2763  0.0853 -0.6394
 5128TIP3    H115317   0.452   7.478   2.774  0.3196 -2.5265 -1.6178
 5128TIP3    H215318   0.530   7.367   2.842  1.3954  0.1500  1.7329
 5129TIP3   OH215319   1.368   7.347   3.871  0.0468  0.2491 -0.0718
 5129TIP3    H115320   1.401   7.316   3.787  2.2262  0.6860  0.5732
 5129TIP3    H215321   1.393   7.439   3.875 -0.8527  0.4777  0.6692
 5130TIP3   OH215322   2.645   7.796   1.181  0.1825  0.4819  0.4517
 5130TIP3    H115323   2.569   7.801   1.240  0.5261 -0.0704  0.9457
 5130TIP3    H215324   2.608   7.809   1.094 -0.4376  0.5581  0.7206
 5131TIP3   OH215325   1.915   6.914   4.100  0.0236 -0.2001  0.0696
 5131TIP3    H115326   1.996   6.867   4.116  0.4507  0.1740 -0.9501
 5131TIP3    H215327   1.938   7.006   4.106 -0.2413 -0.0854 -0.5662
 5132TIP3   OH215328   0.514   6.556   0.600 -0.0823  0.2152 -0.1657
 5132TIP3    H115329   0.489   6.464   0.593 -0.5153  0.4428 -2.0556
 5132TIP3    H215330   0.440   6.598   0.642 -0.3996 -0.1047 -0.3986
 5133TIP3   OH215331   0.721   5.356   3.241 -0.0626  0.1156  0.5334
 5133TIP3    H115332   0.664   5.356   3.164  0.9573  1.0161 -0.2388
 5133TIP3    H215333   0.661   5.350   3.315 -1.1048  0.0213 -0.3051
 5134TIP3   OH215334   2.617   7.619   2.001  0.2442  0.0266  0.1900
 5134TIP3    H115335   2.636   7.525   2.003  1.6608  0.3008  0.8068
 5134TIP3    H215336   2.530   7.628   2.040 -0.2116 -1.0963 -0.5657
 5135TIP3   OH215337   2.434   0.095   1.697 -0.0792 -0.2617 -0.0871
 5135TIP3    H115338   2.507   0.087   1.759  0.6266  2.8825 -0.4726
 5135TIP3    H215339   2.462   0.045   1.620 -0.2801 -2.8194  1.4136
 5136TIP3   OH215340   0.696   7.454   0.955  0.1575 -0.8484  0.0816
 5136TIP3    H115341   0.687   7.430   0.863  1.7409 -0.6763 -0.1325
 5136TIP3    H215342   0.716   7.548   0.953 -0.8470 -0.6108  0.6609
 5137TIP3   OH215343   7.006   6.923   2.816  0.1930 -0.3997  0.2511
 5137TIP3    H115344   7.072   6.946   2.882 -2.0181  0.7658  2.1147
 5137TIP3    H215345   6.994   7.002   2.765  2.1614 -1.4058 -1.8680
 5138TIP3   OH215346   5.454   1.553   6.363  0.1503 -0.4256 -0.7831
 5138TIP3    H115347   5.536   1.535   6.409  0.0315  2.7414  0.8084
 5138TIP3    H215348   5.480   1.601   6.285 -0.1994  1.0876  0.0155
 5139TIP3   OH215349   1.417   6.743   0.716 -0.5491 -0.3395  0.8565
 5139TIP3    H115350   1.433   6.786   0.632  0.1314 -1.5473  0.3474
 5139TIP3    H215351   1.364   6.805   0.766  0.3482  1.0305  0.1211
 5140TIP3   OH215352   0.726   7.889   3.592 -0.0242 -0.6538 -0.3809
 5140TIP3    H115353   0.641   7.923   3.564  0.0235 -1.2240 -1.2720
 5140TIP3    H215354   0.766   7.960   3.642 -0.4943  0.0904 -1.0411
 5141TIP3   OH215355   1.476   6.602   2.136  0.2659  0.2534  0.1360
 5141TIP3    H115356   1.449   6.688   2.167  0.1860 -0.3592  1.8236
 5141TIP3    H215357   1.484   6.549   2.215  4.2523 -0.2133 -0.5074
 5142TIP3   OH215358   1.021   5.409   2.775  0.1972 -0.0861  0.4011
 5142TIP3    H115359   1.025   5.316   2.756 -0.7299  0.0913 -0.6769
 5142TIP3    H215360   0.945   5.419   2.832  0.1111  0.0468  0.2650
 5143TIP3   OH215361   8.504   5.759   4.466 -0.0778  0.3467  0.0693
 5143TIP3    H115362   8.409   5.750   4.465  0.0285 -0.6378 -1.3341
 5143TIP3    H215363   8.519   5.851   4.490 -1.3335  0.0007  2.3518
 5144TIP3   OH215364   2.360   6.824   4.426  0.3925 -0.0689 -0.3410
 5144TIP3    H115365   2.374   6.731   4.447  0.0350 -0.0465 -0.0051
 5144TIP3    H215366   2.436   6.848   4.372  0.0074 -0.8216 -1.2453
 5145TIP3   OH215367   1.089   7.889   4.062 -0.2458  0.1743 -0.5563
 5145TIP3    H115368   1.088   7.931   4.148 -1.0816  0.3180 -0.6323
 5145TIP3    H215369   1.005   7.913   4.022 -0.2126 -0.5646 -1.0862
 5146TIP3   OH215370   4.003   0.529   2.807  0.1801 -0.0641  0.2572
 5146TIP3    H115371   4.014   0.557   2.716  0.1035 -1.6278 -0.2321
 5146TIP3    H215372   3.927   0.472   2.807  0.1392 -0.0312  1.3262
 5147TIP3   OH215373   1.539   6.124   1.678  0.3089 -0.3881 -0.1938
 5147TIP3    H115374   1.462   6.155   1.726  0.5867  0.6879 -0.4360
 5147TIP3    H215375   1.528   6.029   1.674 -1.0131 -0.2456 -0.2176
 5148TIP3   OH215376   1.712   6.205   1.479 -0.6860 -0.0808 -0.9072
 5148TIP3    H115377   1.693   6.150   1.403  1.6930 -2.6718  0.2575
 5148TIP3    H215378   1.643   6.184   1.542  0.0542 -1.6463 -0.5728
 5149TIP3   OH215379   0.664   6.468   1.349  0.1999 -0.2180 -0.0442
 5149TIP3    H115380   0.578   6.428   1.359  0.2470 -0.0273  1.2227
 5149TIP3    H215381   0.678   6.472   1.255 -0.1794 -2.4074 -0.2247
 5150TIP3   OH215382   0.168   6.674   2.629 -0.6744 -0.0618  0.1333
 5150TIP3    H115383   0.134   6.627   2.704  0.4676 -0.7576  0.2366
 5150TIP3    H215384   0.176   6.765   2.658 -0.5963 -0.2634  0.7345
 5151TIP3   OH215385   2.932   7.957   3.479 -0.5387  0.1870 -0.5033
 5151TIP3    H115386   2.936   7.865   3.452  0.0181 -0.2662  1.0738
 5151TIP3    H215387   3.006   7.967   3.539 -0.3379  1.7865 -1.0045
 5152TIP3   OH215388   2.773   7.080   1.075 -0.7367  0.2235  0.4119
 5152TIP3    H115389   2.794   7.154   1.018 -0.2744  0.7466  1.2506
 5152TIP3    H215390   2.749   7.120   1.158 -0.5172 -0.5795  0.8625
 5153TIP3   OH215391   1.828   5.861   2.692  0.5457  0.2979  0.3981
 5153TIP3    H115392   1.885   5.784   2.693  1.3841  0.9165  1.2903
 5153TIP3    H215393   1.767   5.845   2.620  2.2469 -0.1016 -0.9964
 5154TIP3   OH215394   7.873   4.293   6.880  0.2157 -0.3782  0.1600
 5154TIP3    H115395   7.866   4.277   6.786  1.2424  1.7434 -0.3056
 5154TIP3    H215396   7.963   4.270   6.902 -0.4108 -2.1746  0.9066
 5155TIP3   OH215397   1.593   5.848   3.556  0.4681 -0.0566  0.1812
 5155TIP3    H115398   1.593   5.774   3.616 -2.4051 -0.5659 -0.3693
 5155TIP3    H215399   1.565   5.922   3.609 -1.5382 -0.3997 -0.3375
 5156TIP3   OH215400   1.891   5.506   2.456 -0.3968  0.2795 -0.3492
 5156TIP3    H115401   1.965   5.458   2.493  1.3555  3.3113  0.3106
 5156TIP3    H215402   1.864   5.565   2.527 -2.7427 -0.0120 -0.9713
 5157TIP3   OH215403   0.933   7.121   1.641 -0.8258  0.2142  0.2303
 5157TIP3    H115404   0.854   7.107   1.588 -0.5803  0.7865 -0.2869
 5157TIP3    H215405   1.005   7.112   1.578 -0.4556 -0.6503  0.7649
 5158TIP3   OH215406   8.245   7.684   0.954 -0.0101 -0.5351  0.8415
 5158TIP3    H115407   8.211   7.741   1.022 -1.1631 -0.6223  0.3462
 5158TIP3    H215408   8.237   7.595   0.989  0.3599 -0.5066  1.0008
 5159TIP3   OH215409   8.391   6.668   2.545  0.5115 -0.2728  0.0357
 5159TIP3    H115410   8.487   6.666   2.553  0.4926 -1.6061  0.0316
 5159TIP3    H215411   8.360   6.624   2.624 -0.1010  0.0889 -0.0049
 5160TIP3   OH215412   3.515   0.406   4.218  0.2704 -0.5658 -0.1652
 5160TIP3    H115413   3.567   0.478   4.253 -3.8721  1.9941  1.0779
 5160TIP3    H215414   3.486   0.357   4.295  1.3828 -2.3898 -0.8789
 5161TIP3   OH215415   1.950   6.924   2.678  0.0926 -0.1638 -0.1026
 5161TIP3    H115416   2.010   6.989   2.642  0.5760 -1.7996 -2.3476
 5161TIP3    H215417   2.005   6.848   2.696 -0.9020 -0.8533  0.0670
 5162TIP3   OH215418   1.362   3.756   2.423  0.5325  0.3602  0.2686
 5162TIP3    H115419   1.392   3.724   2.338  0.6665  0.4606  0.2778
 5162TIP3    H215420   1.272   3.785   2.408  0.8591  1.2289 -0.0556
 5163TIP3   OH215421   1.353   7.242   1.950  0.3021 -0.6765 -0.0875
 5163TIP3    H115422   1.359   7.197   1.866  2.0925  1.1846 -0.9800
 5163TIP3    H215423   1.419   7.199   2.004  1.2094  0.0852 -0.5784
 5164TIP3   OH215424   0.647   6.420   0.835 -0.2180 -0.4085  0.2653
 5164TIP3    H115425   0.673   6.338   0.792 -0.5627  0.4385 -1.6031
 5164TIP3    H215426   0.666   6.488   0.770  1.1532  1.1220  2.2280
 5165TIP3   OH215427   1.250   4.388   0.696 -0.1053 -0.1946 -0.5730
 5165TIP3    H115428   1.314   4.353   0.634  0.5357 -1.4028  0.7497
 5165TIP3    H215429   1.294   4.463   0.736  0.8044 -1.4469  0.8530
 5166TIP3   OH215430   2.881   0.126   2.533 -0.4032  0.0439 -0.4439
 5166TIP3    H115431   2.905   0.218   2.527 -2.5649  0.6645 -0.1335
 5166TIP3    H215432   2.815   0.114   2.464 -1.1694 -0.9125  0.4425
 5167TIP3   OH215433   2.703   6.270   0.368  0.0387  0.0722 -0.4007
 5167TIP3    H115434   2.648   6.318   0.305 -0.7680 -0.5073 -0.1481
 5167TIP3    H215435   2.730   6.337   0.432 -0.2375  0.3970 -0.6211
 5168TIP3   OH215436   1.319   7.079   0.244  0.3584 -0.2145  0.3818
 5168TIP3    H115437   1.250   7.142   0.223  1.1960  1.1185  1.4500
 5168TIP3    H215438   1.313   7.068   0.339  1.6465  0.0064  0.5071
 5169TIP3   OH215439   2.412   7.122   2.306  0.3206  1.4542  0.5394
 5169TIP3    H115440   2.503   7.099   2.324  1.0639  2.6264 -1.5643
 5169TIP3    H215441   2.416   7.212   2.274 -1.2162  0.4948 -2.5446
 5170TIP3   OH215442   3.956   0.211   5.420 -0.3102  0.0317  0.0410
 5170TIP3    H115443   3.974   0.181   5.331  0.9804  0.8250  0.0243
 5170TIP3    H215444   3.936   0.131   5.468  1.2067 -0.6576 -0.4482
 5171TIP3   OH215445   7.013   3.946   6.784  0.0758  0.1837 -0.1268
 5171TIP3    H115446   6.960   3.866   6.777  3.1925 -1.9419 -0.3146
 5171TIP3    H215447   7.005   3.987   6.699 -1.8489  0.2991  0.0837
 5172TIP3   OH215448   0.203   7.554   1.462  0.4268 -0.0628  0.2278
 5172TIP3    H115449   0.158   7.486   1.513  0.2707 -1.9168 -2.2809
 5172TIP3    H215450   0.295   7.527   1.462  0.7487  0.9988  1.1391
 5173TIP3   OH215451   0.891   7.517   1.974  0.1210 -0.3227  0.0839
 5173TIP3    H115452   0.954   7.484   1.909 -0.7121 -1.9250  0.0684
 5173TIP3    H215453   0.888   7.448   2.041 -1.6310 -0.2575  0.0799
 5174TIP3   OH215454   0.039   5.789   2.633  0.1421  0.1580  0.5255
 5174TIP3    H115455   0.023   5.710   2.581 -1.3439  1.1856 -0.6209
 5174TIP3    H215456  -0.046   5.809   2.673 -0.1241  2.4734 -1.0648
 5175TIP3   OH215457   2.285   7.653   4.167  0.1942 -0.3331 -0.1907
 5175TIP3    H115458   2.314   7.668   4.257  0.7851 -0.3725 -0.3669
 5175TIP3    H215459   2.364   7.668   4.114 -0.1986 -0.1094 -0.7182
 5176TIP3   OH215460   0.958   6.609   1.613  0.0164 -0.4244 -0.0246
 5176TIP3    H115461   0.965   6.608   1.708 -0.3278 -0.7646 -0.0012
 5176TIP3    H215462   0.865   6.624   1.595  0.1774  0.2855 -0.3127
 5177TIP3   OH215463   6.097   2.074   5.783  0.2654 -0.1847  0.3953
 5177TIP3    H115464   6.104   2.149   5.842  1.0361  0.0148  0.0633
 5177TIP3    H215465   6.072   2.001   5.839 -0.2478  0.2754  0.7605
 5178TIP3   OH215466   1.748   7.725   2.365  0.2986  0.8118  0.5319
 5178TIP3    H115467   1.751   7.640   2.321  1.3366  2.3511 -2.4714
 5178TIP3    H215468   1.663   7.762   2.343  0.7855  1.5575 -0.1271
 5179TIP3   OH215469   1.782   6.819   1.197 -0.8314 -0.1858 -0.2480
 5179TIP3    H115470   1.873   6.816   1.225 -0.7792  2.0303 -0.1455
 5179TIP3    H215471   1.770   6.739   1.146  0.9838 -0.8107  0.2888
 5180TIP3   OH215472   2.508   6.072   2.684 -0.3556  0.5970  0.0405
 5180TIP3    H115473   2.476   6.059   2.773  2.2004 -3.8703  0.4934
 5180TIP3    H215474   2.602   6.052   2.690  0.1346  1.6577 -3.3734
 5181TIP3   OH215475   8.093   7.762   2.999 -1.0543 -0.5388  0.1703
 5181TIP3    H115476   8.068   7.841   3.047 -0.2485 -1.2677  1.8223
 5181TIP3    H215477   8.178   7.737   3.036 -0.8873 -1.7012 -0.9422
 5182TIP3   OH215478   3.545   6.839   2.297  0.4057 -0.4871  0.2991
 5182TIP3    H115479   3.604   6.773   2.262 -0.4461 -0.4504 -1.2552
 5182TIP3    H215480   3.539   6.905   2.228 -0.4668  0.1226  0.9369
 5183TIP3   OH215481   5.034   0.847   2.698  0.0593  0.3886 -0.0689
 5183TIP3    H115482   5.007   0.898   2.621 -0.4469 -0.9670 -0.8057
 5183TIP3    H215483   5.109   0.796   2.668  0.0233  0.0549  0.4025
 5184TIP3   OH215484   2.120   7.031   1.500  0.0057  0.0289  0.0461
 5184TIP3    H115485   2.167   6.991   1.573 -0.5092  0.5882  0.6852
 5184TIP3    H215486   2.140   7.124   1.506 -1.8078  0.3847  0.7955
 5185TIP3   OH215487   6.118   7.777   0.197 -0.3876 -0.3821 -0.0856
 5185TIP3    H115488   6.117   7.805   0.289 -1.4553 -0.3645 -0.0980
 5185TIP3    H215489   6.089   7.686   0.200  1.2898 -0.9257 -0.2314
 5186TIP3   OH215490   1.524   6.341   3.433  0.0794  0.3556  0.2766
 5186TIP3    H115491   1.476   6.355   3.515 -1.2352 -0.5149 -0.3214
 5186TIP3    H215492   1.495   6.411   3.375 -1.1802 -0.6870 -0.3826
 5187TIP3   OH215493   1.968   4.949   2.921  0.1290  0.4873  0.1720
 5187TIP3    H115494   1.892   4.998   2.952  0.4816  0.0737  1.7239
 5187TIP3    H215495   1.992   4.993   2.839 -0.6467  1.7950  0.6219
 5188TIP3   OH215496   4.667   1.039   0.944  0.1046 -0.3377 -0.0692
 5188TIP3    H115497   4.665   0.944   0.950  2.0897 -0.4003 -0.3745
 5188TIP3    H215498   4.755   1.061   0.914 -0.2811  1.6003  0.1013
 5189TIP3   OH215499   1.469   7.313   0.712  0.5272 -0.4513 -0.3439
 5189TIP3    H115500   1.438   7.306   0.802 -2.1861 -0.1361 -1.1908
 5189TIP3    H215501   1.561   7.288   0.716  0.7512  0.6466  2.6818
 5190TIP3   OH215502   3.375   7.696   1.480 -0.4487  0.3372 -0.5152
 5190TIP3    H115503   3.401   7.781   1.443 -1.5582  0.6740 -0.5212
 5190TIP3    H215504   3.283   7.687   1.456 -0.0244 -1.4135 -1.5203
 5191TIP3   OH215505   0.306   5.582   2.229 -0.1019  0.4563  0.3578
 5191TIP3    H115506   0.272   5.634   2.156 -1.1304 -0.5864  0.0822
 5191TIP3    H215507   0.360   5.643   2.279  1.0800  1.0458 -1.6011
 5192TIP3   OH215508   2.101   0.167   3.935 -0.3551  0.1099  0.2062
 5192TIP3    H115509   2.116   0.243   3.879 -1.0610 -0.4840 -0.7918
 5192TIP3    H215510   2.014   0.181   3.972 -0.3467 -0.0451  0.2858
 5193TIP3   OH215511   2.477   7.688   3.578  0.0339  0.0308  0.3824
 5193TIP3    H115512   2.383   7.684   3.596  0.3413  0.2536  2.1643
 5193TIP3    H215513   2.484   7.685   3.483 -1.7471 -0.6785  0.2601
 5194TIP3   OH215514   1.098   7.804   2.392  0.2518 -0.2146 -0.0639
 5194TIP3    H115515   1.097   7.709   2.391  1.3328 -0.2291  0.0262
 5194TIP3    H215516   1.189   7.828   2.406 -0.1246  0.8341  0.7100
 5195TIP3   OH215517   8.000   7.994   3.097 -0.1860 -0.0328  0.0448
 5195TIP3    H115518   7.911   8.022   3.078 -0.4079  0.4625  1.6878
 5195TIP3    H215519   8.009   8.006   3.192  1.5117 -0.3847 -0.0505
 5196TIP3   OH215520   0.071   6.173   0.974 -0.3823 -0.1086 -0.5770
 5196TIP3    H115521   0.040   6.262   0.960 -0.1906 -0.2633 -2.0749
 5196TIP3    H215522   0.118   6.177   1.057 -3.0420  0.4649  0.9496
 5197TIP3   OH215523   0.887   6.323   4.004  0.1795  0.0277 -0.0276
 5197TIP3    H115524   0.884   6.230   3.983 -0.1470  0.1713 -0.6552
 5197TIP3    H215525   0.965   6.355   3.960  0.9594 -0.1787  1.1892
 5198TIP3   OH215526   8.493   5.908   0.577  0.1055 -0.8238  0.1912
 5198TIP3    H115527   8.421   5.970   0.587  0.3493 -0.4877 -0.1253
 5198TIP3    H215528   8.489   5.882   0.485  1.5076  0.5921 -0.3011
 5199TIP3   OH215529   0.682   5.854   4.749 -0.9765 -0.0790 -0.2127
 5199TIP3    H115530   0.714   5.867   4.839 -1.1097 -0.3524 -0.1225
 5199TIP3    H215531   0.706   5.934   4.703 -0.3607 -0.1861 -0.0899
 5200TIP3   OH215532   0.429   7.231   0.420 -0.6289  0.2188 -0.0608
 5200TIP3    H115533   0.421   7.267   0.332  1.7559  0.0807 -0.3528
 5200TIP3    H215534   0.447   7.306   0.476  0.0284  0.0277 -0.0151
 5201TIP3   OH215535   8.380   6.041   3.799  0.4860 -0.4434  0.6214
 5201TIP3    H115536   8.318   6.110   3.776  0.8416  0.2125  1.6010
 5201TIP3    H215537   8.440   6.037   3.725 -0.7628 -1.1414 -0.3796
 5202TIP3   OH215538   0.961   6.062   0.781  0.3090 -0.2084  0.1962
 5202TIP3    H115539   1.003   6.147   0.764 -1.5417  1.0481  1.7650
 5202TIP3    H215540   0.902   6.079   0.854 -0.4742 -2.7474  0.1705
 5203TIP3   OH215541   0.950   6.164   3.107 -0.2300  0.4342 -0.4028
 5203TIP3    H115542   0.892   6.215   3.051  0.8050 -0.5093 -2.4182
 5203TIP3    H215543   0.913   6.075   3.106 -0.0075  0.3355  0.0962
 5204TIP3   OH215544   5.707   0.014   2.968 -0.1697 -0.4054  0.4769
 5204TIP3    H115545   5.736   0.099   3.001 -0.2270  0.3687 -1.3807
 5204TIP3    H215546   5.629   0.033   2.917 -1.3721 -1.8777  1.7071
 5205TIP3   OH215547   2.573   7.575   2.343 -0.7109  0.0285  0.4255
 5205TIP3    H115548   2.509   7.639   2.314 -0.5867  0.4186  0.9969
 5205TIP3    H215549   2.574   7.508   2.275 -0.7288  0.7146 -0.2460
 5206TIP3   OH215550   4.738   0.810   3.644  0.5153 -0.0348  0.3418
 5206TIP3    H115551   4.797   0.781   3.714  0.1493 -1.4976  0.0616
 5206TIP3    H215552   4.696   0.730   3.614 -1.3498  0.9422  0.2869
 5207TIP3   OH215553   1.492   6.027   2.457  0.7037  0.3778  0.0798
 5207TIP3    H115554   1.568   6.067   2.497  1.1291  0.5447 -0.8687
 5207TIP3    H215555   1.469   5.954   2.514  2.1363 -0.2424 -0.1191
 5208TIP3   OH215556   0.063   7.789   3.987 -0.0337 -0.1286 -0.0914
 5208TIP3    H115557   0.124   7.863   3.993  0.0611 -0.1995 -0.1817
 5208TIP3    H215558   0.092   7.729   4.056  0.2078 -0.3151 -0.3510
 5209TIP3   OH215559   2.169   7.018   4.086 -0.1597 -0.4197 -0.0167
 5209TIP3    H115560   2.237   6.950   4.080 -0.9566 -1.1265 -1.0872
 5209TIP3    H215561   2.181   7.071   4.008  0.5982  0.8224  0.9244
 5210TIP3   OH215562   1.960   6.442   1.417  0.3132 -0.3884 -0.0893
 5210TIP3    H115563   1.935   6.394   1.497 -0.4193 -0.2589 -0.2333
 5210TIP3    H215564   1.975   6.531   1.446  0.0979 -0.3530 -0.0841
 5211TIP3   OH215565   0.402   7.833   2.113 -0.2456 -0.3136  0.4209
 5211TIP3    H115566   0.315   7.822   2.150 -0.7194  2.0916  0.1215
 5211TIP3    H215567   0.402   7.779   2.034 -0.9895 -1.4069  1.1683
 5212TIP3   OH215568   1.986   6.416   3.237 -0.1237 -0.4201 -0.1418
 5212TIP3    H115569   1.891   6.422   3.223 -0.1977 -0.6931  0.2543
 5212TIP3    H215570   2.011   6.332   3.197  0.1946  0.3401 -1.5952
 5213TIP3   OH215571   1.135   6.630   4.497  0.6195 -0.1516 -0.0051
 5213TIP3    H115572   1.169   6.598   4.580 -1.3221 -0.8749  0.5195
 5213TIP3    H215573   1.049   6.666   4.517  1.8296  3.5474 -0.9626
 5214TIP3   OH215574   5.792   2.057   3.820  0.1698  0.3622 -0.0551
 5214TIP3    H115575   5.696   2.066   3.822 -0.0663 -1.8385 -0.7200
 5214TIP3    H215576   5.823   2.127   3.877 -1.9051  0.2967  1.2085
 5215TIP3   OH215577   2.548   7.083   0.841 -0.0557 -0.0152  0.8879
 5215TIP3    H115578   2.511   7.100   0.928 -0.1731 -0.4731  0.9323
 5215TIP3    H215579   2.643   7.079   0.855 -0.1227 -0.9218  1.1521
 5216TIP3   OH215580   2.182   5.563   1.050  0.0473 -0.8772  0.1709
 5216TIP3    H115581   2.175   5.473   1.082  1.2570 -1.1053 -0.2012
 5216TIP3    H215582   2.175   5.555   0.955  2.0524 -0.7825  0.0032
 5217TIP3   OH215583   0.751   7.729   3.826  0.2044  0.6720 -0.1890
 5217TIP3    H115584   0.827   7.784   3.843 -0.2956  1.7786 -1.4812
 5217TIP3    H215585   0.701   7.776   3.759 -0.2298 -1.3450 -1.3392
 5218TIP3   OH215586   2.177   5.821   1.494 -0.1442  0.0234 -0.4901
 5218TIP3    H115587   2.101   5.778   1.456  0.8036 -2.6870  0.5658
 5218TIP3    H215588   2.245   5.813   1.428 -0.9452  3.1965 -1.7833
 5219TIP3   OH215589   1.145   7.068   1.487  0.3484 -0.2689 -0.2578
 5219TIP3    H115590   1.190   7.148   1.515  0.8473 -1.2356  1.7531
 5219TIP3    H215591   1.175   7.000   1.547 -1.7901 -1.5066 -0.5074
 5220TIP3   OH215592   1.865   5.901   2.086 -0.5497 -0.2473  0.5731
 5220TIP3    H115593   1.886   5.953   2.163  3.2526  0.1483 -0.6303
 5220TIP3    H215594   1.846   5.814   2.119 -3.6879  1.0395  2.3239
 5221TIP3   OH215595   1.042   7.429   1.183 -0.1282  0.3572  0.0012
 5221TIP3    H115596   1.022   7.402   1.094 -0.2468 -0.6651  0.3423
 5221TIP3    H215597   0.970   7.486   1.208 -0.2830  0.3439 -0.4205
 5222TIP3   OH215598   0.564   7.668   4.021  0.4147 -0.1809  0.9395
 5222TIP3    H115599   0.526   7.750   4.052 -0.2057 -0.0590 -0.1305
 5222TIP3    H215600   0.643   7.695   3.973 -0.9422 -0.0064 -1.2799
 5223TIP3   OH215601   4.486   7.915   4.929  0.1892 -0.4722  0.0777
 5223TIP3    H115602   4.506   7.829   4.891  0.3588  0.0171 -0.9690
 5223TIP3    H215603   4.393   7.928   4.912 -0.3766 -1.4381  2.2852
 5224TIP3   OH215604   1.385   5.683   3.139 -0.5466 -0.4870  0.4234
 5224TIP3    H115605   1.461   5.711   3.191 -1.2527  0.9953  0.6770
 5224TIP3    H215606   1.317   5.666   3.204 -1.5617  1.7792  0.0162
 5225TIP3   OH215607   5.214   3.144   4.828  0.0204  0.2187 -0.6090
 5225TIP3    H115608   5.211   3.232   4.865  1.3568  0.9283 -2.1181
 5225TIP3    H215609   5.179   3.088   4.897  0.9102  1.6992  1.0935
 5226TIP3   OH215610   2.177   6.094   1.321 -0.5468 -0.1633 -0.1856
 5226TIP3    H115611   2.223   6.178   1.308  0.4257 -0.4048  1.4461
 5226TIP3    H215612   2.134   6.104   1.406  0.1602 -1.5714  0.3477
 5227TIP3   OH215613   4.826   1.278   1.063  0.6052 -0.5207  0.3478
 5227TIP3    H115614   4.882   1.284   1.139  1.4419 -1.2241 -0.2099
 5227TIP3    H215615   4.879   1.234   0.996 -0.7296 -1.5621 -0.0617
 5228TIP3   OH215616   1.564  -0.030   4.137 -0.3765 -0.2539 -0.2523
 5228TIP3    H115617   1.551   0.016   4.220 -1.5206 -2.4831  0.8349
 5228TIP3    H215618   1.544   0.036   4.071  1.6619  1.8992  1.1819
 5229TIP3   OH215619   3.140   5.548   3.132 -0.4500 -0.1468  0.0379
 5229TIP3    H115620   3.169   5.502   3.211 -1.4129 -0.9388 -0.0563
 5229TIP3    H215621   3.081   5.616   3.164 -0.4269 -0.1325  0.0481
 5230TIP3   OH215622   3.529   6.519   0.952 -0.3499 -0.0300 -0.0100
 5230TIP3    H115623   3.569   6.441   0.992  0.8791  1.0759  0.9723
 5230TIP3    H215624   3.472   6.554   1.020  1.6523  1.7881  0.7904
 5231TIP3   OH215625   2.119   6.257   0.946 -0.4606 -0.1629  0.0305
 5231TIP3    H115626   2.179   6.195   0.904  0.5970  0.3608  0.7533
 5231TIP3    H215627   2.135   6.340   0.900 -0.0257  0.1770  0.8040
 5232TIP3   OH215628   7.682   6.656   1.201 -0.3914  0.1449 -0.0856
 5232TIP3    H115629   7.677   6.749   1.223 -1.4707  0.3894 -1.3298
 5232TIP3    H215630   7.642   6.650   1.114  1.2291 -1.2286 -0.7546
 5233TIP3   OH215631   1.736   5.552   4.100  0.4781 -0.2905 -0.2091
 5233TIP3    H115632   1.647   5.519   4.084  0.7456 -1.1099 -0.0557
 5233TIP3    H215633   1.793   5.489   4.056  0.9387  0.8936 -1.3315
 5234TIP3   OH215634   7.498   7.511   2.785 -0.4292 -0.5618 -0.4095
 5234TIP3    H115635   7.518   7.494   2.877  1.1978  0.6666 -0.5052
 5234TIP3    H215636   7.569   7.568   2.755 -1.0317 -0.7985 -2.3823
 5235TIP3   OH215637   8.067   7.109   3.337 -0.1899  0.1862  0.9199
 5235TIP3    H115638   8.000   7.159   3.382 -0.3891  0.6260  0.1482
 5235TIP3    H215639   8.145   7.165   3.339 -0.0628  0.0021  1.1424
 5236TIP3   OH215640   3.139   5.723   2.011 -0.7836 -0.5269 -0.1664
 5236TIP3    H115641   3.131   5.731   2.106 -3.8613 -3.5355 -0.0725
 5236TIP3    H215642   3.053   5.748   1.978  0.0250 -0.2805 -2.1426
 5237TIP3   OH215643   0.653   6.391   3.856  0.2626  0.1220 -0.0414
 5237TIP3    H115644   0.727   6.360   3.908 -0.2238 -1.5561 -0.2968
 5237TIP3    H215645   0.676   6.480   3.832  1.4971  0.1541  1.1831
 5238TIP3   OH215646   4.571   5.719   2.536  0.1398  0.0068  0.0970
 5238TIP3    H115647   4.487   5.680   2.514  0.3284 -0.3475  0.0015
 5238TIP3    H215648   4.627   5.645   2.559  0.2908  0.2785  0.6127
 5239TIP3   OH215649   5.063   0.216   2.287  0.4659  0.0360  0.0006
 5239TIP3    H115650   5.086   0.148   2.224  0.1190 -0.1867  0.1111
 5239TIP3    H215651   4.967   0.217   2.286  0.4583  0.0283  0.5258
 5240TIP3   OH215652   0.314   6.747   3.768 -0.3767 -0.4552 -0.5114
 5240TIP3    H115653   0.396   6.791   3.791 -1.4252  0.6035  1.2968
 5240TIP3    H215654   0.315   6.745   3.672  1.9407 -0.8321 -0.5248
 5241TIP3   OH215655   1.477   5.213   2.449 -0.7965  0.1220 -0.4640
 5241TIP3    H115656   1.421   5.156   2.501 -2.4241 -0.1980 -2.4801
 5241TIP3    H215657   1.424   5.291   2.435  0.2905  0.9063 -0.1973
 5242TIP3   OH215658   2.027   5.235   1.437  0.6032 -0.1350  0.2208
 5242TIP3    H115659   1.957   5.286   1.478  0.8405  1.2439 -1.0368
 5242TIP3    H215660   1.982   5.184   1.370  0.7505  0.5258 -0.3861
 5243TIP3   OH215661   8.341   3.778   2.648  0.7864  0.2766  0.1137
 5243TIP3    H115662   8.290   3.703   2.619  0.1337 -0.5552  3.2005
 5243TIP3    H215663   8.322   3.847   2.585  1.2465 -2.0824 -2.6696
 5244TIP3   OH215664   8.335   3.925   3.244  0.4623  0.0114  0.1561
 5244TIP3    H115665   8.354   3.973   3.324  0.2894  0.6539 -0.1846
 5244TIP3    H215666   8.337   3.833   3.270 -1.0375  0.2581  1.2062
 5245TIP3   OH215667   7.696   6.459   0.438  0.0036 -0.3962 -0.0293
 5245TIP3    H115668   7.611   6.463   0.396 -0.8664 -0.2658  1.6983
 5245TIP3    H215669   7.705   6.543   0.484  0.6486 -0.7678  0.5505
 5246TIP3   OH215670   8.349   5.325   0.750 -0.1017  0.5776  0.0036
 5246TIP3    H115671   8.428   5.293   0.792 -0.6419 -0.1255  0.5056
 5246TIP3    H215672   8.362   5.419   0.741  0.4707  0.5743  0.7614
 5247TIP3   OH215673   0.097   6.231   3.063 -0.0158  0.2391  0.5449
 5247TIP3    H115674   0.019   6.228   3.007  0.2863 -0.9547  0.1732
 5247TIP3    H215675   0.071   6.182   3.142  0.9487 -1.8073 -0.3656
 5248TIP3   OH215676   2.591   0.073   1.931  0.6351  0.0292  0.3757
 5248TIP3    H115677   2.512   0.117   1.960 -0.0560 -0.4416 -0.7600
 5248TIP3    H215678   2.661   0.112   1.982 -0.4074  0.0315  1.8144
 5249TIP3   OH215679   2.751   4.313   2.889  0.1095 -0.5014  0.5553
 5249TIP3    H115680   2.661   4.283   2.877 -0.4707  1.2133  0.3841
 5249TIP3    H215681   2.800   4.273   2.817 -0.9685  0.2741 -0.6337
 5250TIP3   OH215682   3.249   6.028   2.783 -0.8391  0.3122 -0.0481
 5250TIP3    H115683   3.324   5.982   2.746 -0.7099  0.6950 -0.2682
 5250TIP3    H215684   3.176   6.004   2.725 -1.0416 -0.6537  0.6047
 5251TIP3   OH215685   1.599   6.684   4.352 -0.6514  0.0585  0.3381
 5251TIP3    H115686   1.636   6.662   4.437 -2.2134 -2.5509  0.4069
 5251TIP3    H215687   1.646   6.762   4.324  2.2172 -0.9881  2.0837
 5252TIP3   OH215688   5.099   0.475   2.387  0.5424 -0.5547 -0.4479
 5252TIP3    H115689   5.104   0.392   2.338  0.4280  0.3708 -2.0662
 5252TIP3    H215690   5.080   0.541   2.320 -0.2639  0.6567  0.9583
 5253TIP3   OH215691   5.284   7.782   1.646 -0.3628 -0.0100  0.0060
 5253TIP3    H115692   5.324   7.710   1.695  2.2007  1.9882  0.9837
 5253TIP3    H215693   5.243   7.836   1.713 -2.7895 -0.8368 -0.7797
 5254TIP3   OH215694   0.507   6.513   1.648 -0.7650  0.4352  0.0471
 5254TIP3    H115695   0.500   6.577   1.577 -0.1175  1.6634  1.0587
 5254TIP3    H215696   0.498   6.428   1.605  2.2340  1.0180 -1.9224
 5255TIP3   OH215697   5.391   0.993   2.319 -0.0082  0.0945 -0.1535
 5255TIP3    H115698   5.404   0.905   2.354  2.4504  0.1325 -0.8118
 5255TIP3    H215699   5.445   1.049   2.375 -0.8392  1.0502 -0.2973
 5256TIP3   OH215700   8.098   7.975   2.266 -0.2259  0.3356 -0.1281
 5256TIP3    H115701   8.090   7.944   2.356 -0.6362  1.8053  0.3598
 5256TIP3    H215702   8.101   7.895   2.213 -2.8115 -0.5185  0.9527
 5257TIP3   OH215703   5.946   0.138   1.214  0.0207  0.6087  0.2139
 5257TIP3    H115704   5.959   0.198   1.288  0.5855  0.1214  0.5094
 5257TIP3    H215705   5.875   0.080   1.242  0.6240  0.0613  0.5938
 5258TIP3   OH215706   5.346   7.927   2.497 -0.3580 -0.9360  0.1707
 5258TIP3    H115707   5.286   7.969   2.558  0.5221  1.6189 -0.6641
 5258TIP3    H215708   5.420   7.899   2.551  0.5843  1.6437  0.2655
 5259TIP3   OH215709   2.138   4.946   2.078  0.1201 -0.3053  0.0266
 5259TIP3    H115710   2.045   4.950   2.055  0.2109 -0.5704 -0.3946
 5259TIP3    H215711   2.163   4.855   2.062  0.6570 -0.0372 -0.6794
 5260TIP3   OH215712   5.635   1.014   1.004 -0.9600 -0.0819 -0.5420
 5260TIP3    H115713   5.564   1.044   0.947 -1.0923  0.9707  0.1733
 5260TIP3    H215714   5.594   0.999   1.089 -0.1756  1.4081  0.1244
 5261TIP3   OH215715   1.351   7.406   3.324  0.0909  0.5725 -0.4864
 5261TIP3    H115716   1.298   7.448   3.256  1.0547 -0.7547 -2.1034
 5261TIP3    H215717   1.401   7.339   3.277  1.0669 -0.1118  1.4827
 5262TIP3   OH215718   7.486   2.075   1.470  0.5335 -0.6668 -0.8304
 5262TIP3    H115719   7.519   2.011   1.532  0.1116  0.2646  0.3770
 5262TIP3    H215720   7.395   2.088   1.495  0.1653 -0.7916 -2.0827
 5263TIP3   OH215721   2.252   7.424   2.661 -0.4534 -0.1024 -0.0878
 5263TIP3    H115722   2.320   7.359   2.681  0.0135  0.2347 -0.5695
 5263TIP3    H215723   2.190   7.417   2.734  1.3235  1.2836  1.5852
 5264TIP3   OH215724   7.044   1.004   2.088  0.0326 -0.3114  0.2337
 5264TIP3    H115725   7.075   1.084   2.130  2.7508  0.5527 -3.2302
 5264TIP3    H215726   6.953   1.022   2.065 -0.1675  0.7635  1.8100
 5265TIP3   OH215727   1.343   6.413   1.742 -0.0676 -0.2819 -0.3075
 5265TIP3    H115728   1.270   6.395   1.683 -3.2732 -0.7584  3.5972
 5265TIP3    H215729   1.326   6.501   1.775  1.0867 -0.4280  0.7251
 5266TIP3   OH215730   2.644   7.984   4.930  0.3944 -0.3967 -0.0438
 5266TIP3    H115731   2.699   8.061   4.943 -0.3182  0.4820 -2.1089
 5266TIP3    H215732   2.707   7.914   4.912  1.0658 -0.4361  2.2586
 5267TIP3   OH215733   4.680   7.838   2.109  0.0498  0.1286  0.0735
 5267TIP3    H115734   4.689   7.743   2.121 -1.6011 -0.3540 -2.0623
 5267TIP3    H215735   4.739   7.858   2.036  1.5956  1.0617  1.5353
 5268TIP3   OH215736   6.465   0.440   5.387  0.7236 -0.5515  0.6554
 5268TIP3    H115737   6.455   0.346   5.405  2.1750 -0.9383 -0.5220
 5268TIP3    H215738   6.406   0.457   5.313 -0.7186 -0.1940  1.8616
 5269TIP3   OH215739   5.416   0.678   2.380 -0.3884  0.2625  0.6000
 5269TIP3    H115740   5.504   0.641   2.387 -0.9808 -1.0166  1.6461
 5269TIP3    H215741   5.381   0.641   2.299  0.3847  1.5840 -0.3586
 5270TIP3   OH215742   1.135   7.377   1.930  0.6597  0.7012 -0.2512
 5270TIP3    H115743   1.062   7.329   1.969  0.9212 -0.0714 -0.6979
 5270TIP3    H215744   1.211   7.322   1.947  1.0263  1.1570 -0.4185
 5271TIP3   OH215745   2.293   6.826   1.624 -0.3978 -0.2312  0.3476
 5271TIP3    H115746   2.218   6.803   1.678  0.7215 -0.3472  1.8758
 5271TIP3    H215747   2.350   6.749   1.625 -0.0874 -0.0317 -0.5335
 5272TIP3   OH215748   5.974   0.456   0.606  0.2731  1.6093  0.3373
 5272TIP3    H115749   6.030   0.502   0.669  0.5736  0.7118  0.7377
 5272TIP3    H215750   5.935   0.385   0.657  0.9245  0.5519 -0.6260
 5273TIP3   OH215751   3.449   7.701   0.209  0.3055 -0.6220 -0.3983
 5273TIP3    H115752   3.362   7.726   0.243  0.5650  1.0094 -0.8885
 5273TIP3    H215753   3.431   7.665   0.123  0.1860  0.6590 -0.9277
 5274TIP3   OH215754   5.903   0.972   1.920  0.3518  0.4397  0.6743
 5274TIP3    H115755   5.820   1.018   1.911  0.8198  1.0973 -0.4297
 5274TIP3    H215756   5.913   0.923   1.839  1.2098  0.6551  0.6429
 5275TIP3   OH215757   5.737   7.367   4.691 -0.1481  0.0528  0.5670
 5275TIP3    H115758   5.731   7.272   4.702  0.8652 -0.2117 -0.8903
 5275TIP3    H215759   5.808   7.378   4.628 -0.8793  1.7371  0.0241
 5276TIP3   OH215760   7.252   4.207   6.462 -0.1137 -0.1829 -0.2672
 5276TIP3    H115761   7.220   4.295   6.479 -1.9201 -0.8942  0.1892
 5276TIP3    H215762   7.311   4.216   6.387 -0.4122  1.3724 -0.3181
 5277TIP3   OH215763   0.500   3.974   6.590 -0.6133  0.1531  0.8393
 5277TIP3    H115764   0.526   3.885   6.613 -1.1957 -0.0592  0.6800
 5277TIP3    H215765   0.496   4.021   6.674 -0.9019 -0.1301  0.9846
 5278TIP3   OH215766   0.907   0.808   2.514 -0.0653  0.0394  0.0291
 5278TIP3    H115767   0.894   0.880   2.576  2.6683 -0.6695  1.5120
 5278TIP3    H215768   0.898   0.729   2.567 -0.8719 -0.6735 -1.1434
 5279TIP3   OH215769   7.090   0.533   2.280  0.4683  0.1030  0.2819
 5279TIP3    H115770   7.030   0.520   2.354  1.1035 -0.4012  0.7109
 5279TIP3    H215771   7.166   0.480   2.301  0.6810  0.0055 -0.7164
 5280TIP3   OH215772   7.223   2.096   1.311 -0.5275  0.1714 -0.3198
 5280TIP3    H115773   7.271   2.019   1.282  1.2568  0.7860  0.9221
 5280TIP3    H215774   7.162   2.063   1.378 -0.0956 -0.2192 -0.1209
 5281TIP3   OH215775   2.900   7.666   3.342 -0.0103 -0.7431 -0.2644
 5281TIP3    H115776   2.955   7.588   3.332 -0.5365 -0.9733 -1.5102
 5281TIP3    H215777   2.874   7.688   3.253  0.3652  1.0384  0.0486
 5282TIP3   OH215778   6.329   0.915   1.820 -0.0270 -0.1723 -0.4118
 5282TIP3    H115779   6.420   0.945   1.817 -0.2902  0.5838 -1.0079
 5282TIP3    H215780   6.312   0.901   1.913  0.2096  1.2167 -0.1434
 5283TIP3   OH215781   4.917   1.656   1.569  0.0931  0.0033 -0.0792
 5283TIP3    H115782   4.897   1.706   1.648  1.5557  1.1447 -0.4133
 5283TIP3    H215783   4.873   1.704   1.499 -1.4347 -1.1617  0.0388
 5284TIP3   OH215784   6.374   1.583   2.005 -1.0702 -0.3539  0.1252
 5284TIP3    H115785   6.366   1.671   1.969  0.7147 -0.9280 -1.7928
 5284TIP3    H215786   6.352   1.525   1.932 -0.6132 -1.5099  0.8890
 5285TIP3   OH215787   0.828   3.724   5.998 -0.4045 -0.9962  0.2982
 5285TIP3    H115788   0.859   3.779   5.926  0.0586 -0.5296  0.8505
 5285TIP3    H215789   0.749   3.683   5.964  0.0486 -1.1111 -0.6263
 5286TIP3   OH215790   3.769   6.943   3.590 -0.5375  0.0929 -0.5227
 5286TIP3    H115791   3.739   6.922   3.678  0.1389 -0.1567 -0.3433
 5286TIP3    H215792   3.757   6.861   3.541  1.1032 -0.4278 -0.0979
 5287TIP3   OH215793   3.297   7.307   1.897  0.6376 -0.0222  0.7271
 5287TIP3    H115794   3.247   7.225   1.898  1.5061 -0.5672  0.2010
 5287TIP3    H215795   3.231   7.375   1.908 -0.1209 -0.7792  0.9612
 5288TIP3   OH215796   3.165   7.788   4.661  0.0705 -0.1584 -0.6240
 5288TIP3    H115797   3.166   7.694   4.642  0.8642 -0.0626 -1.1067
 5288TIP3    H215798   3.178   7.794   4.755  2.1515 -0.4763 -0.8744
 5289TIP3   OH215799   5.701   0.366   2.619 -0.1184 -0.0543  0.1863
 5289TIP3    H115800   5.624   0.379   2.675 -0.0083  0.3134  0.2535
 5289TIP3    H215801   5.692   0.433   2.551 -0.7426 -1.0959 -0.7812
 5290TIP3   OH215802   5.327   1.284   1.984 -0.1096 -0.3259 -0.2176
 5290TIP3    H115803   5.353   1.197   2.014  0.9139 -0.0585 -0.3099
 5290TIP3    H215804   5.254   1.267   1.925  0.7686 -1.2248 -1.0777
 5291TIP3   OH215805   6.007   0.523   2.531 -0.0578  0.2214 -0.2985
 5291TIP3    H115806   5.984   0.436   2.564  0.4303  0.7761  1.5314
 5291TIP3    H215807   6.101   0.531   2.545 -0.2591  1.4212  0.4658
 5292TIP3   OH215808   3.760   6.086   4.094 -0.6390 -0.6297  0.7316
 5292TIP3    H115809   3.800   6.054   4.175  1.5244  1.1984  0.4237
 5292TIP3    H215810   3.809   6.043   4.024 -0.6675 -0.0707  0.3663
 5293TIP3   OH215811   5.875   1.214   4.321  0.2215  0.0482 -0.6514
 5293TIP3    H115812   5.920   1.295   4.347 -2.8439  1.7758 -0.4647
 5293TIP3    H215813   5.843   1.178   4.404  1.1888 -1.1437 -0.7844
 5294TIP3   OH215814   6.016   1.284   1.863  0.4796 -0.2415 -0.2403
 5294TIP3    H115815   6.091   1.279   1.921  0.5166  0.1948 -0.2477
 5294TIP3    H215816   6.010   1.197   1.823 -0.5185 -1.0466  1.6207
 5295TIP3   OH215817   3.683   0.469   3.017  0.1854  0.0668  0.7584
 5295TIP3    H115818   3.680   0.496   2.925  0.7551 -1.0059  0.4209
 5295TIP3    H215819   3.714   0.547   3.063 -2.3256  1.3631  0.3579
 5296TIP3   OH215820   4.345   7.900   0.846  0.7454  0.4859  0.3896
 5296TIP3    H115821   4.321   7.824   0.900  1.3134 -0.2564 -0.3829
 5296TIP3    H215822   4.439   7.909   0.859  0.7570  0.7597  0.1017
 5297TIP3   OH215823   5.326   0.984   1.469 -0.1925  0.2502 -0.1769
 5297TIP3    H115824   5.316   0.925   1.544 -1.3672 -1.0779 -1.3276
 5297TIP3    H215825   5.263   0.950   1.405  0.6708  1.4685 -1.6849
 5298TIP3   OH215826   1.277   7.931   0.476  0.4897  0.1912  0.0631
 5298TIP3    H115827   1.321   8.010   0.442  2.4023  1.0354  4.1659
 5298TIP3    H215828   1.190   7.962   0.502  0.7130  0.6131  0.3146
 5299TIP3   OH215829   3.924   6.850   0.494  0.5436 -0.5061  0.4677
 5299TIP3    H115830   4.005   6.898   0.475 -1.0820  2.3436  0.3395
 5299TIP3    H215831   3.867   6.916   0.534 -1.6093 -2.5297  0.7938
 5300TIP3   OH215832   4.646   0.856   0.638  0.0765  0.0094 -0.3098
 5300TIP3    H115833   4.622   0.787   0.576 -0.5803 -0.1521  0.1209
 5300TIP3    H215834   4.569   0.866   0.694 -0.3953  2.1121 -1.2963
 5301TIP3   OH215835   2.284   7.747   2.688  0.2414 -0.2028 -0.3444
 5301TIP3    H115836   2.222   7.717   2.754 -0.3330 -0.6477 -1.0745
 5301TIP3    H215837   2.363   7.695   2.703  0.1012 -0.3224 -0.0288
 5302TIP3   OH215838   2.123   6.497   1.817 -0.8922  0.5052 -0.6346
 5302TIP3    H115839   2.060   6.443   1.864  0.2557  0.1768  0.5330
 5302TIP3    H215840   2.119   6.466   1.726  0.0411 -1.8312  0.0969
 5303TIP3   OH215841   0.637   3.037   6.118  0.3828  0.4632 -0.2408
 5303TIP3    H115842   0.566   2.993   6.166 -0.5003  0.9883 -1.0717
 5303TIP3    H215843   0.594   3.107   6.070  1.8562  2.6042  1.4650
 5304TIP3   OH215844   0.957   6.659   0.844 -0.4409  0.2011  0.0508
 5304TIP3    H115845   1.034   6.658   0.786 -1.1501 -0.8157 -0.8797
 5304TIP3    H215846   0.888   6.698   0.791 -0.9137 -0.1016  0.4449
 5305TIP3   OH215847   1.206   6.991   2.896 -0.6235  0.7049  0.5656
 5305TIP3    H115848   1.146   6.940   2.841 -0.7125  0.2715  1.0622
 5305TIP3    H215849   1.291   6.948   2.884 -0.6911  0.4685  0.9560
 5306TIP3   OH215850   1.024   7.342   0.932 -0.1547  0.7441  0.4187
 5306TIP3    H115851   1.005   7.366   0.841  0.6648 -0.5404 -0.1067
 5306TIP3    H215852   0.971   7.264   0.948  1.0040 -0.0438  0.4842
 5307TIP3   OH215853   5.139   1.610   3.839 -0.4316 -0.7487 -0.3051
 5307TIP3    H115854   5.216   1.662   3.861 -0.0118 -1.2889 -0.5054
 5307TIP3    H215855   5.168   1.519   3.842 -1.0049 -0.9492 -0.5808
 5308TIP3   OH215856   2.428   6.562   0.698  0.0369 -0.6071 -0.0065
 5308TIP3    H115857   2.448   6.639   0.750 -1.8339  0.5234 -0.8992
 5308TIP3    H215858   2.449   6.488   0.755  1.3662  0.5512  1.0428
 5309TIP3   OH215859   3.966   7.055   2.092 -0.0542  1.0111  0.0627
 5309TIP3    H115860   3.982   7.149   2.088  0.9314  0.8590  0.4323
 5309TIP3    H215861   3.903   7.039   2.021 -0.0156  1.9003 -0.1784
 5310TIP3   OH215862   2.949   7.327   1.743 -0.5968  0.1825  0.2906
 5310TIP3    H115863   2.940   7.269   1.819 -0.8829 -0.3103 -0.1093
 5310TIP3    H215864   2.873   7.306   1.689 -1.3390  1.7741  0.6860
 5311TIP3   OH215865   3.546   1.446   4.589 -0.1907  0.1364  0.0077
 5311TIP3    H115866   3.623   1.390   4.581 -0.0095  0.4150 -0.1713
 5311TIP3    H215867   3.519   1.463   4.499 -0.9779 -0.6816  0.0802
 5312TIP3   OH215868   2.300   7.078   3.383  0.5551  0.7408  0.3134
 5312TIP3    H115869   2.389   7.048   3.399 -0.2762 -2.2943 -0.4973
 5312TIP3    H215870   2.250   7.049   3.459 -0.3373 -0.2760 -0.6463
 5313TIP3   OH215871   0.203   3.113   5.649 -0.2880  0.2080 -0.6149
 5313TIP3    H115872   0.172   3.120   5.739 -1.9896  0.0986 -1.1723
 5313TIP3    H215873   0.277   3.054   5.654  0.0410  0.7066  0.8039
 5314TIP3   OH215874   2.653   7.861   2.850 -0.2546 -0.8144  0.1582
 5314TIP3    H115875   2.567   7.893   2.877 -0.2966  1.9737 -3.0221
 5314TIP3    H215876   2.634   7.800   2.778  0.3472 -1.5236  0.5972
 5315TIP3   OH215877   2.527   7.828   0.125  0.3371  0.1059  0.0140
 5315TIP3    H115878   2.435   7.850   0.141  0.3868 -0.3325  0.9292
 5315TIP3    H215879   2.544   7.860   0.036 -0.9177 -0.4904 -0.4637
 5316TIP3   OH215880   2.620   6.694   0.174  0.1053 -0.1188  0.0899
 5316TIP3    H115881   2.571   6.655   0.102 -1.6447  4.1310 -1.2016
 5316TIP3    H215882   2.673   6.762   0.132  0.2584  1.3890  2.6334
 5317TIP3   OH215883   2.258   5.779   2.490  0.1548  0.2907 -0.1791
 5317TIP3    H115884   2.260   5.683   2.483 -1.4262  0.3091 -1.0509
 5317TIP3    H215885   2.338   5.807   2.445 -0.8070 -0.5007 -2.4438
 5318TIP3   OH215886   4.758   1.142   1.828 -0.4686 -0.2156  0.7864
 5318TIP3    H115887   4.711   1.174   1.751 -0.5573  1.4930  1.5247
 5318TIP3    H215888   4.820   1.078   1.794  0.9429  2.0438 -0.9947
 5319TIP3   OH215889   5.674   4.331   0.390 -0.3132 -0.5683 -0.3932
 5319TIP3    H115890   5.667   4.252   0.443  0.5512 -0.5895 -0.3062
 5319TIP3    H215891   5.732   4.389   0.440 -2.3823  0.8623  0.4256
 5320TIP3   OH215892   5.944   0.362   1.686  0.0040 -0.3033 -0.1051
 5320TIP3    H115893   5.985   0.305   1.750  1.0198  0.7138  0.1597
 5320TIP3    H215894   5.891   0.423   1.738  1.4311  1.0117 -0.1548
 5321TIP3   OH215895   8.461   4.622   6.201 -0.0082  0.0175  0.2958
 5321TIP3    H115896   8.441   4.563   6.128 -0.7182 -0.5459  0.9353
 5321TIP3    H215897   8.553   4.606   6.221 -0.0222 -0.3956  0.0266
 5322TIP3   OH215898   4.623   0.373   2.862  0.4131  0.3467 -0.4566
 5322TIP3    H115899   4.545   0.341   2.817  0.7136 -0.0390 -0.7006
 5322TIP3    H215900   4.697   0.335   2.815  0.7543  0.6739 -0.2020
 5323TIP3   OH215901   3.846   7.966   2.745 -0.0092  0.2370  0.1992
 5323TIP3    H115902   3.901   7.991   2.819 -0.5443  1.1703  0.2821
 5323TIP3    H215903   3.768   8.020   2.754 -1.5391 -2.0289  0.8476
 5324TIP3   OH215904   2.683   6.271   0.705 -0.0040 -0.1270  0.2556
 5324TIP3    H115905   2.629   6.307   0.776 -0.4562  0.2486 -0.2779
 5324TIP3    H215906   2.704   6.346   0.650  1.3461 -0.2115  0.6252
 5325TIP3   OH215907   7.362   0.074   1.480 -0.2731 -0.3859 -0.3158
 5325TIP3    H115908   7.429   0.063   1.412  0.0392  1.5190 -0.3389
 5325TIP3    H215909   7.391   0.016   1.551  0.0400 -1.4818 -1.3237
 5326TIP3   OH215910   3.601   6.046   2.082 -0.0880 -0.3299 -0.0108
 5326TIP3    H115911   3.519   5.997   2.082  0.2068 -0.9211 -2.9950
 5326TIP3    H215912   3.669   5.980   2.096  0.0476 -0.1619  0.1431
 5327TIP3   OH215913   3.745   6.331   2.021 -0.7360  0.3517  0.1494
 5327TIP3    H115914   3.677   6.272   2.053 -0.2048  0.1782  0.9750
 5327TIP3    H215915   3.824   6.305   2.069 -0.2043  0.8922 -0.4180
 5328TIP3   OH215916   4.380   0.224   2.760  0.0474  0.4904  0.2426
 5328TIP3    H115917   4.336   0.259   2.684 -0.4631 -1.7351 -0.5357
 5328TIP3    H215918   4.324   0.247   2.834 -0.3107  1.2227 -0.2579
 5329TIP3   OH215919   6.033   0.584   1.511 -0.4673 -0.3241 -0.5011
 5329TIP3    H115920   6.125   0.569   1.492 -1.2116 -2.5726 -2.5522
 5329TIP3    H215921   6.016   0.534   1.591 -0.6849 -2.7406 -2.0232
 5330TIP3   OH215922   2.481   5.772   3.250  0.2332 -0.3174  0.7930
 5330TIP3    H115923   2.469   5.867   3.244 -3.5020 -0.8677 -2.3779
 5330TIP3    H215924   2.560   5.755   3.198 -1.1682  0.7688 -1.8104
 5331TIP3   OH215925   5.046   7.805   2.867 -0.4068  0.2101  0.5573
 5331TIP3    H115926   5.055   7.865   2.793  0.6117 -0.8676 -0.2175
 5331TIP3    H215927   4.952   7.787   2.873 -0.4091 -0.3603 -1.0163
 5332TIP3   OH215928   3.150   0.950   0.738 -0.1117 -0.1224  0.2081
 5332TIP3    H115929   3.079   0.893   0.768 -0.0518  0.1311  0.8438
 5332TIP3    H215930   3.178   0.996   0.817  2.0375 -1.6077  0.3474
 5333TIP3   OH215931   1.648   7.178   1.241 -0.0383  0.3474  0.0793
 5333TIP3    H115932   1.639   7.218   1.155 -0.7631  0.2768  0.1142
 5333TIP3    H215933   1.742   7.177   1.258  0.2249 -0.9022 -1.3080
 5334TIP3   OH215934   1.812   6.767   2.381  0.8398  0.0904 -0.2162
 5334TIP3    H115935   1.844   6.680   2.404  0.3253 -0.0225  0.0874
 5334TIP3    H215936   1.717   6.762   2.395  0.5379  0.0926 -2.1240
 5335TIP3   OH215937   3.667   6.354   0.462  0.1034 -0.1047  0.6051
 5335TIP3    H115938   3.673   6.360   0.367  2.3937 -0.8115  0.6792
 5335TIP3    H215939   3.613   6.429   0.488  1.6556  1.6015 -1.0196
 5336TIP3   OH215940   0.484   7.128   0.741  0.0337  0.5960  0.3573
 5336TIP3    H115941   0.455   7.197   0.801  2.4245  0.2585  1.9535
 5336TIP3    H215942   0.548   7.172   0.684 -0.3129  0.2792 -0.2855
 5337TIP3   OH215943   3.862   6.718   3.470  0.0373 -0.1685 -0.3696
 5337TIP3    H115944   3.950   6.724   3.506  0.1533  1.5957 -0.8845
 5337TIP3    H215945   3.875   6.699   3.378 -0.0637  1.0276 -0.6470
 5338TIP3   OH215946   3.685   7.405   1.676 -0.3515  0.1114 -0.4611
 5338TIP3    H115947   3.686   7.457   1.596  1.2452  0.4647 -0.2265
 5338TIP3    H215948   3.752   7.445   1.732 -1.3236 -0.2387  0.9756
 5339TIP3   OH215949   2.165   5.311   1.821 -0.0092 -0.1111 -0.1564
 5339TIP3    H115950   2.130   5.394   1.852  0.2344 -0.0117 -0.1522
 5339TIP3    H215951   2.244   5.334   1.772 -1.1598 -0.1336 -2.0858
 5340TIP3   OH215952   4.578   7.582   2.593  0.9064 -0.0510 -0.1507
 5340TIP3    H115953   4.533   7.508   2.552 -0.2528 -0.3422  1.6083
 5340TIP3    H215954   4.509   7.635   2.632  1.5746  2.9998 -2.9625
 5341TIP3   OH215955   3.048   6.237   1.831  0.0192  0.1342 -0.0241
 5341TIP3    H115956   2.960   6.220   1.798  0.1242 -1.3436  0.4291
 5341TIP3    H215957   3.106   6.194   1.769  0.2897 -1.2263  1.1503
 5342TIP3   OH215958   1.530   6.974   4.905 -0.4579 -0.1943  0.6565
 5342TIP3    H115959   1.537   7.050   4.847  0.8936  0.0195  1.0908
 5342TIP3    H215960   1.473   6.913   4.858  0.2000  0.2000 -0.6611
 5343TIP3   OH215961   7.269   3.188   6.693  0.8881 -0.3153  0.1511
 5343TIP3    H115962   7.333   3.201   6.763 -0.1111  0.2079  0.9750
 5343TIP3    H215963   7.225   3.107   6.716 -0.3907  0.5745  0.8788
 5344TIP3   OH215964   3.386   6.437   2.892  0.1071 -0.6719 -0.1004
 5344TIP3    H115965   3.443   6.501   2.849  0.2571  0.5612  1.8819
 5344TIP3    H215966   3.446   6.369   2.923  0.5380  0.6512  2.0306
 5345TIP3   OH215967   5.301   0.737   3.223  0.1855  0.3779  0.7278
 5345TIP3    H115968   5.340   0.656   3.188  0.0582  0.0311  1.3729
 5345TIP3    H215969   5.208   0.731   3.199 -0.1590 -0.4644  2.1860
 5346TIP3   OH215970   2.982   7.804   1.649 -0.2211  0.2627  0.9772
 5346TIP3    H115971   3.046   7.748   1.607  0.6326  1.2421  0.9564
 5346TIP3    H215972   2.908   7.806   1.588  0.3891  0.4401  0.2372
 5347TIP3   OH215973   1.850   6.071   3.457 -0.1428 -0.1134  0.9154
 5347TIP3    H115974   1.853   6.165   3.474 -0.7127  0.6038 -2.6210
 5347TIP3    H215975   1.792   6.062   3.382  1.2671 -3.1365  0.1170
 5348TIP3   OH215976   5.800   0.791   2.575  0.1169  0.4526 -0.0313
 5348TIP3    H115977   5.886   0.761   2.604 -1.1255 -2.5269  0.7244
 5348TIP3    H215978   5.805   0.790   2.479  1.2845  1.4442  0.0143
 5349TIP3   OH215979   0.457   0.830   0.097 -0.2380 -0.0565 -0.6035
 5349TIP3    H115980   0.362   0.841   0.096 -0.0996  1.1827 -1.9078
 5349TIP3    H215981   0.488   0.893   0.161 -0.1973  0.5075 -1.1717
 5350TIP3   OH215982   3.416   6.805   3.104 -0.2765  0.2030 -0.3223
 5350TIP3    H115983   3.430   6.895   3.073  1.9820 -0.0827 -0.2632
 5350TIP3    H215984   3.399   6.815   3.198  1.9606  0.4840  0.0951
 5351TIP3   OH215985   3.859   7.161   4.012 -0.3247  0.9378 -0.6742
 5351TIP3    H115986   3.884   7.075   4.045 -1.4471  0.6604 -0.4999
 5351TIP3    H215987   3.941   7.202   3.985  0.2390 -0.1131 -0.5816
 5352TIP3   OH215988   1.338   6.465   1.325 -0.1643  0.1418 -0.3093
 5352TIP3    H115989   1.340   6.522   1.249  1.2475  0.6610  0.1101
 5352TIP3    H215990   1.424   6.424   1.328 -0.3186 -0.1406  0.8034
 5353TIP3   OH215991   3.663   7.404   1.168  0.1346  0.1563 -0.0105
 5353TIP3    H115992   3.635   7.443   1.251  1.8374  0.1042  0.6224
 5353TIP3    H215993   3.630   7.463   1.101 -2.2305 -0.3843  0.6281
 5354TIP3   OH215994   5.039   1.264   1.775  0.1494  0.4475  0.3035
 5354TIP3    H115995   4.952   1.231   1.752  1.3287 -1.5968 -1.4737
 5354TIP3    H215996   5.034   1.358   1.759 -1.8930  0.4335  0.7457
 5355TIP3   OH215997   1.084   6.938   1.837  0.1715 -0.0385 -0.0693
 5355TIP3    H115998   1.156   6.935   1.774  0.9647  2.0835  0.6976
 5355TIP3    H215999   1.035   7.016   1.813  0.5390  0.8477  1.9967
 5356TIP3   OH216000   4.071   7.440   3.685  0.3746  0.2944  0.2753
 5356TIP3    H116001   4.144   7.452   3.624  0.0140  0.5689 -0.1099
 5356TIP3    H216002   4.006   7.390   3.635 -0.9887  2.6854 -0.4525
 5357TIP3   OH216003   5.767   0.330   0.768  1.0581 -0.0365 -0.5296
 5357TIP3    H116004   5.722   0.414   0.784 -1.2913 -0.9285 -2.1797
 5357TIP3    H216005   5.792   0.300   0.855 -3.3546 -0.4284  0.7392
 5358TIP3   OH216006   5.056   0.100   1.332 -0.1476  0.0445  0.0926
 5358TIP3    H116007   5.009   0.181   1.353  0.9271  0.8076 -0.3697
 5358TIP3    H216008   5.020   0.072   1.248  1.3935  1.5770 -1.1289
 5359TIP3   OH216009   8.321   0.075   1.800  0.0818  0.1897  0.1958
 5359TIP3    H116010   8.270   0.151   1.828 -2.2297 -0.7756 -1.2634
 5359TIP3    H216011   8.327   0.020   1.878  0.8617  1.3495  0.9701
 5360TIP3   OH216012   1.974   6.936   2.022 -0.3993  0.1455 -0.6267
 5360TIP3    H116013   1.942   6.847   2.010  1.4793 -0.2344 -3.0780
 5360TIP3    H216014   2.051   6.926   2.078  0.0302  0.1843 -1.2084
 5361TIP3   OH216015   3.072   6.261   2.903  0.5160  0.8786  0.4719
 5361TIP3    H116016   3.114   6.182   2.870 -0.6977  1.2932 -2.1607
 5361TIP3    H216017   3.000   6.229   2.957 -0.1754  0.1484 -0.8594
 5362TIP3   OH216018   2.600   6.547   4.775 -0.0718  1.1180 -0.1155
 5362TIP3    H116019   2.516   6.587   4.798 -0.2524  0.3414  0.6248
 5362TIP3    H216020   2.600   6.464   4.822  1.0462  1.0377 -0.2483
 5363TIP3   OH216021   3.168   7.470   5.127 -0.3606 -0.2580  0.1163
 5363TIP3    H116022   3.149   7.484   5.219 -0.9431  0.6873 -0.1363
 5363TIP3    H216023   3.094   7.510   5.081  1.6990  2.6389 -0.8673
 5364TIP3   OH216024   2.848   6.388   3.905  0.4354 -0.2811  0.1755
 5364TIP3    H116025   2.940   6.375   3.924  0.7095 -1.4175 -1.8028
 5364TIP3    H216026   2.846   6.425   3.816 -0.8962  2.3801  1.2625
 5365TIP3   OH216027   3.606   6.596   3.028  0.0318 -1.4314  0.5111
 5365TIP3    H116028   3.663   6.630   2.960 -0.0558 -1.1309  0.5875
 5365TIP3    H216029   3.548   6.668   3.050  1.7464 -0.6371  2.7337
 5366TIP3   OH216030   1.972   5.534   1.841 -0.0063 -0.0969  0.6645
 5366TIP3    H116031   1.912   5.490   1.902  1.4806  0.4349  2.5641
 5366TIP3    H216032   1.999   5.613   1.888  1.3319  0.2161 -0.6193
 5367TIP3   OH216033   3.857   4.430   3.284 -0.4881  0.1712 -0.1453
 5367TIP3    H116034   3.873   4.463   3.372  1.1805 -1.2691  0.1240
 5367TIP3    H216035   3.886   4.339   3.287 -2.0769 -0.4144 -1.7097
 5368TIP3   OH216036   3.754   7.480   5.151  0.0555  0.1644  0.0753
 5368TIP3    H116037   3.775   7.562   5.196 -0.8867 -1.0332  2.7965
 5368TIP3    H216038   3.673   7.500   5.103  0.4199  1.1140 -0.1667
 5369TIP3   OH216039   1.869   6.443   2.816  0.0769  0.6009 -0.3430
 5369TIP3    H116040   1.941   6.401   2.768 -1.5839 -0.6746 -1.7771
 5369TIP3    H216041   1.811   6.371   2.841  0.5077  1.3404  2.9590
 5370TIP3   OH216042   7.660   1.733   1.613  0.0480 -0.6993 -0.8611
 5370TIP3    H116043   7.604   1.788   1.668 -0.4399 -0.9129 -1.1318
 5370TIP3    H216044   7.708   1.678   1.675  0.6265  0.1199 -0.5926
 5371TIP3   OH216045   5.279   0.877   0.235 -0.1039 -0.0142 -0.0625
 5371TIP3    H116046   5.367   0.839   0.231 -0.2623 -0.2832 -1.3149
 5371TIP3    H216047   5.223   0.813   0.190 -1.3190 -0.8716  2.5827
 5372TIP3   OH216048   2.162   3.289   6.896  0.2160  0.3395  0.3402
 5372TIP3    H116049   2.080   3.333   6.875 -0.2496  0.3688  2.1401
 5372TIP3    H216050   2.226   3.329   6.837 -1.0599  0.2637 -1.1381
 5373TIP3   OH216051   2.476   7.196   1.540  0.7160 -0.4050  0.6604
 5373TIP3    H116052   2.403   7.207   1.600 -0.2840  0.7803 -0.7571
 5373TIP3    H216053   2.454   7.118   1.489 -0.2729  0.7573 -0.7336
 5374TIP3   OH216054   3.585   7.011   2.071 -0.3150 -0.0841 -0.0317
 5374TIP3    H116055   3.639   7.072   2.121 -0.8523  1.7621 -1.6551
 5374TIP3    H216056   3.495   7.040   2.087 -0.5573 -0.2818 -1.0293
 5375TIP3   OH216057   4.636   6.985   0.037 -0.0910  0.1869  0.0357
 5375TIP3    H116058   4.557   7.040   0.034 -0.8965 -0.9350  0.3353
 5375TIP3    H216059   4.707   7.047   0.054 -0.9726  1.1503  0.2979
 5376TIP3   OH216060   4.739   0.361   1.101 -0.0858 -0.1639 -0.0003
 5376TIP3    H116061   4.797   0.414   1.155  1.4880 -0.9694 -0.8561
 5376TIP3    H216062   4.797   0.303   1.053 -1.7057 -1.9418  0.1149
 5377TIP3   OH216063   2.732   7.855   2.109  0.0692  0.3000 -0.2768
 5377TIP3    H116064   2.653   7.819   2.068  1.2485  0.6453 -2.9493
 5377TIP3    H216065   2.781   7.779   2.140  0.7870 -0.1984 -2.5883
 5378TIP3   OH216066   3.575   3.906   5.951  0.7977  0.3706 -0.1603
 5378TIP3    H116067   3.562   3.939   6.040 -0.1637 -0.9866  0.2319
 5378TIP3    H216068   3.658   3.858   5.955  0.3407 -0.4007  0.2347
 5379TIP3   OH216069   2.649   7.537   3.190 -0.8526 -0.4048 -0.0497
 5379TIP3    H116070   2.711   7.590   3.140 -0.6222 -0.4364  0.2013
 5379TIP3    H216071   2.603   7.486   3.124 -1.5973  0.6521 -0.3625
 5380TIP3   OH216072   2.591   6.206   1.231  0.4439 -0.1380 -0.4217
 5380TIP3    H116073   2.639   6.138   1.278  0.7298  1.1506  1.2000
 5380TIP3    H216074   2.658   6.254   1.182  0.1309 -1.5598 -2.2894
 5381TIP3   OH216075   0.133   2.988   6.888 -0.0027  0.3973 -0.3579
 5381TIP3    H116076   0.058   2.929   6.888 -1.3186  2.0525  0.4553
 5381TIP3    H216077   0.099   3.071   6.855  1.6459  0.9330 -0.7460
 5382TIP3   OH216078   2.009   6.676   1.505 -0.3468  0.2269  0.0830
 5382TIP3    H116079   1.950   6.752   1.512 -2.0595 -1.1726  1.6435
 5382TIP3    H216080   2.097   6.714   1.504 -1.1719  2.2581  0.7385
 5383TIP3   OH216081   1.360   7.020   3.630  0.5587  0.1732 -0.1059
 5383TIP3    H116082   1.303   7.036   3.705  1.4028  1.7901  0.2221
 5383TIP3    H216083   1.376   7.107   3.593  2.8604 -0.2273 -0.1361
 5384TIP3   OH216084   2.036   7.882   2.226 -0.8327 -0.2561  0.7981
 5384TIP3    H116085   2.085   7.859   2.147  0.3947  0.5976  1.3051
 5384TIP3    H216086   1.961   7.823   2.225 -1.5739  0.6729 -1.7243
 5385TIP3   OH216087   6.062   0.429   1.179  0.2873 -0.2610 -0.4245
 5385TIP3    H116088   6.116   0.354   1.154  1.8861  0.3228  1.1455
 5385TIP3    H216089   6.024   0.404   1.264 -0.0723  0.2434 -0.4366
 5386TIP3   OH216090   7.355   1.135   2.012 -0.2097 -0.0848  0.0760
 5386TIP3    H116091   7.296   1.114   1.940 -0.4566 -0.0872  0.2771
 5386TIP3    H216092   7.420   1.194   1.974 -0.1663 -0.3227 -0.2195
 5387TIP3   OH216093   5.996   0.788   2.766 -0.7440  0.0141 -0.1737
 5387TIP3    H116094   6.063   0.723   2.748 -0.9338  0.1288 -1.3223
 5387TIP3    H216095   5.950   0.755   2.843  0.8788  0.1297  0.8536
 5388TIP3   OH216096   2.727   0.359   4.102 -0.1313  0.6705 -0.1591
 5388TIP3    H116097   2.704   0.451   4.088 -2.6060 -0.0660 -1.2868
 5388TIP3    H216098   2.658   0.310   4.056  0.5648 -1.7478  1.2892
 5389TIP3   OH216099   5.201   6.682   2.062 -0.0974  0.4417 -1.1555
 5389TIP3    H116100   5.227   6.613   2.002 -3.5126 -0.9151 -1.1533
 5389TIP3    H216101   5.201   6.641   2.148 -0.4427  0.9209 -0.9205
 5390TIP3   OH216102   4.130   7.720   1.033 -0.2790 -0.0426  0.3351
 5390TIP3    H116103   4.132   7.701   1.127 -0.9055 -0.0671  0.3468
 5390TIP3    H216104   4.161   7.639   0.992 -0.4842 -0.2071  0.5022
 5391TIP3   OH216105   8.397   2.174   6.798  0.0048 -0.2233 -0.3946
 5391TIP3    H116106   8.393   2.079   6.810 -0.5607 -0.0795  0.6001
 5391TIP3    H216107   8.445   2.186   6.716  0.7116 -1.3439 -0.1463
 5392TIP3   OH216108   1.709   5.512   3.542 -0.3371  0.0911  0.1023
 5392TIP3    H116109   1.754   5.596   3.553  0.5232 -0.3538  0.0232
 5392TIP3    H216110   1.619   5.536   3.522 -0.7848  1.0132  2.9046
 5393TIP3   OH216111   6.788   1.106   2.720 -0.2412 -0.0084 -0.6819
 5393TIP3    H116112   6.703   1.078   2.684  0.0200 -0.4988 -0.9169
 5393TIP3    H216113   6.842   1.028   2.718  0.3951  0.4359 -1.0517
 5394TIP3   OH216114   2.746   6.131   4.002  0.4717  0.5181 -1.0363
 5394TIP3    H116115   2.824   6.173   3.965  1.7800  1.0136  2.1376
 5394TIP3    H216116   2.697   6.202   4.044  0.8357 -0.5095  1.1955
 5395TIP3   OH216117   2.706   7.025   2.187 -0.1515 -0.5830 -0.2578
 5395TIP3    H116118   2.785   6.982   2.154  0.2847  0.0388 -0.0352
 5395TIP3    H216119   2.636   6.995   2.129  0.2755 -1.0203 -0.5478
 5396TIP3   OH216120   0.594   3.473   6.139 -0.6928 -0.3216 -0.0075
 5396TIP3    H116121   0.659   3.436   6.198 -2.0767 -1.2717  0.9528
 5396TIP3    H216122   0.644   3.533   6.083  0.3566  1.9326  3.2285
 5397TIP3   OH216123   4.516   0.283   3.235 -0.3507 -0.4994  0.0731
 5397TIP3    H116124   4.426   0.312   3.249  0.3779  1.8942 -0.0306
 5397TIP3    H216125   4.549   0.341   3.166  1.7101 -0.4393  1.0901
 5398TIP3   OH216126   2.405   6.306   1.984  0.1842  0.1289  0.1026
 5398TIP3    H116127   2.346   6.234   2.009  1.6740 -1.4143 -0.7338
 5398TIP3    H216128   2.415   6.357   2.064 -1.4844 -0.1705  0.5230
 5399TIP3   OH216129   2.858   7.948   2.637 -0.2091  0.2686  0.2545
 5399TIP3    H116130   2.821   7.910   2.717  0.3111  0.0484  0.3951
 5399TIP3    H216131   2.783   7.988   2.592 -1.1968 -2.8892 -1.0425
 5400TIP3   OH216132   2.738   7.236   1.573 -0.0452 -0.0021  0.1845
 5400TIP3    H116133   2.769   7.157   1.618  0.1963  0.6517  1.1928
 5400TIP3    H216134   2.643   7.233   1.581 -0.1198 -0.8454 -0.9145
 5401TIP3   OH216135   3.715   7.807   4.157 -0.3382 -0.1293 -0.0370
 5401TIP3    H116136   3.625   7.794   4.187  0.1153 -0.9604  1.0257
 5401TIP3    H216137   3.733   7.899   4.174 -0.8984 -0.0218 -0.0056
 5402TIP3   OH216138   3.645   6.864   1.068 -0.1819  0.8702  0.3241
 5402TIP3    H116139   3.728   6.862   1.020  0.1702  0.0350  0.9675
 5402TIP3    H216140   3.599   6.786   1.040 -0.6143  1.1628  0.2174
 5403TIP3   OH216141   1.434   6.126   1.221  0.6928 -0.3849 -0.8829
 5403TIP3    H116142   1.528   6.123   1.236  0.9023 -2.0777 -2.3277
 5403TIP3    H216143   1.425   6.145   1.127 -0.3993 -0.1216 -0.7341
 5404TIP3   OH216144   3.143   7.509   2.667  0.4887  0.0278  0.6934
 5404TIP3    H116145   3.229   7.549   2.678  0.5174 -0.3695  1.9224
 5404TIP3    H216146   3.130   7.455   2.745  0.0789 -1.6958 -0.5199
 5405TIP3   OH216147   2.182   6.998   2.223 -0.2631  0.0990 -0.3993
 5405TIP3    H116148   2.265   7.033   2.254 -1.0492 -0.2494  2.1625
 5405TIP3    H216149   2.146   6.950   2.297 -2.1445 -0.8870 -1.8899
 5406TIP3   OH216150   1.458   3.585   5.868 -0.1462  0.1949  0.4331
 5406TIP3    H116151   1.527   3.519   5.875 -0.6735 -0.1936  2.2747
 5406TIP3    H216152   1.491   3.659   5.918 -0.6124  0.4079  0.4256
 5407TIP3   OH216153   0.580   1.588   1.531 -0.3903 -0.5192  0.1035
 5407TIP3    H116154   0.551   1.508   1.574  0.1812 -1.3553 -1.0399
 5407TIP3    H216155   0.550   1.659   1.589 -0.5327 -1.5655  1.3284
 5408TIP3   OH216156   3.905   6.900   3.089  0.2314  0.3844  0.3139
 5408TIP3    H116157   3.949   6.897   3.004  2.5830  1.4076  1.4348
 5408TIP3    H216158   3.913   6.811   3.123  0.1798  0.2164 -0.1073
 5409TIP3   OH216159   7.746   0.693   1.075 -0.5571  0.0082 -0.0923
 5409TIP3    H116160   7.824   0.637   1.080  0.6183  1.6223 -0.0812
 5409TIP3    H216161   7.712   0.693   1.165 -0.3437 -0.3918 -0.0097
 5410TIP3   OH216162   8.067   0.633   3.668  0.7006 -0.4589  0.1799
 5410TIP3    H116163   7.986   0.653   3.715 -0.8652 -1.1574 -2.1229
 5410TIP3    H216164   8.110   0.717   3.657 -0.7337  0.2363 -0.3311
 5411TIP3   OH216165   6.746   4.577   6.638 -0.0239 -0.6653  0.1763
 5411TIP3    H116166   6.752   4.594   6.732  1.8753  0.7995 -0.1824
 5411TIP3    H216167   6.828   4.611   6.602 -0.6377 -1.3881 -1.9919
 5412TIP3   OH216168   5.028   0.927   2.978  0.0990 -0.0733 -0.2962
 5412TIP3    H116169   5.120   0.914   3.002  0.1000  1.1267  0.3830
 5412TIP3    H216170   5.029   0.935   2.882  0.6958 -0.0691 -0.2905
 5413TIP3   OH216171   7.593   0.617   1.582 -0.0167  0.0779 -0.1240
 5413TIP3    H116172   7.536   0.541   1.575 -0.9265  0.5785  1.6703
 5413TIP3    H216173   7.557   0.669   1.653  2.3204  0.7000  0.6719
 5414TIP3   OH216174   6.664   0.677   1.716  0.0732  0.4056 -0.2171
 5414TIP3    H116175   6.749   0.715   1.693  0.0969 -0.1833 -1.1932
 5414TIP3    H216176   6.685   0.587   1.742 -0.3260  0.0072 -1.2430
 5415TIP3   OH216177   4.757   6.561   3.436  0.0580 -0.0370 -0.7671
 5415TIP3    H116178   4.738   6.468   3.424  0.7094 -0.0090 -2.0181
 5415TIP3    H216179   4.674   6.598   3.469  0.1317 -1.2486  0.8509
 5416TIP3   OH216180   2.964   8.028   2.279  0.4407 -0.0511 -0.0487
 5416TIP3    H116181   3.014   7.946   2.270 -0.2939 -0.3110 -1.9242
 5416TIP3    H216182   2.906   8.012   2.354 -0.1649 -1.5107 -0.7981
 5417TIP3   OH216183   4.271   5.889   1.155 -0.2010 -0.1930 -0.3830
 5417TIP3    H116184   4.184   5.925   1.172 -0.8640 -0.9339 -2.0972
 5417TIP3    H216185   4.311   5.952   1.095  1.0137  0.8911  1.5191
 5418TIP3   OH216186   7.801   2.039   1.637 -0.0631 -0.4442 -0.1336
 5418TIP3    H116187   7.889   2.073   1.656  0.0850 -1.6179  1.3747
 5418TIP3    H216188   7.817   1.963   1.582 -0.1675 -0.3777 -0.2553
 5419TIP3   OH216189   5.123   7.913   1.837 -0.3038  0.0884 -0.0332
 5419TIP3    H116190   5.141   7.839   1.895 -0.8448  0.3420  0.4633
 5419TIP3    H216191   5.154   7.989   1.887 -1.4153  0.3812  0.2173
 5420TIP3   OH216192   7.157   7.759   2.227  0.1173 -0.3531 -0.2975
 5420TIP3    H116193   7.224   7.735   2.163  1.6059  0.0868  1.0601
 5420TIP3    H216194   7.170   7.697   2.299 -1.2369 -0.5459 -0.2055
 5421TIP3   OH216195   2.848   7.207   0.585 -0.1921  0.5988  0.0361
 5421TIP3    H116196   2.845   7.285   0.640 -0.3619  0.4471  0.2397
 5421TIP3    H216197   2.772   7.214   0.528  0.7555  1.4779 -1.1547
 5422TIP3   OH216198   3.530   6.670   1.911 -0.1078 -0.4621 -0.1147
 5422TIP3    H116199   3.449   6.619   1.912 -1.5661  1.7944  1.5201
 5422TIP3    H216200   3.513   6.741   1.849  0.5273  0.2119  0.4749
 5423TIP3   OH216201   5.393   7.141   0.282  0.1853 -0.6006 -0.3586
 5423TIP3    H116202   5.442   7.184   0.212 -2.0970  1.6914 -0.6373
 5423TIP3    H216203   5.353   7.065   0.239 -0.7548  0.4842 -1.4530
 5424TIP3   OH216204   6.056   7.990   1.710 -0.2221 -0.0543  0.2367
 5424TIP3    H116205   6.082   7.899   1.725 -1.8317 -0.4940  0.4088
 5424TIP3    H216206   6.105   8.016   1.631  1.0264 -0.7285  0.7824
 5425TIP3   OH216207   4.232   6.986   0.445 -0.3640 -0.4566  0.6785
 5425TIP3    H116208   4.255   6.953   0.532  0.3384 -0.2632  0.5760
 5425TIP3    H216209   4.265   6.919   0.385  1.9104  0.8250  0.4257
 5426TIP3   OH216210   7.935   1.665   2.782  0.4319  0.0396  0.2372
 5426TIP3    H116211   7.933   1.705   2.694  2.4304 -1.8489 -0.7277
 5426TIP3    H216212   8.027   1.673   2.809  0.6237 -2.7081  0.5359
 5427TIP3   OH216213   1.087   4.023   5.922 -0.5411 -0.0040 -0.1465
 5427TIP3    H116214   1.140   3.951   5.955 -0.8566 -0.1358  0.0746
 5427TIP3    H216215   1.078   4.082   5.997  1.9121  1.5829 -1.0070
 5428TIP3   OH216216   5.821   7.148   1.202 -0.4334  0.0297 -0.4598
 5428TIP3    H116217   5.799   7.174   1.113 -0.8093  0.5248 -0.2247
 5428TIP3    H216218   5.828   7.230   1.250 -0.8303 -0.2691  0.1082
 5429TIP3   OH216219   2.395   8.003   2.841  0.3079  0.0991 -0.4101
 5429TIP3    H116220   2.372   8.008   2.748  1.1238 -1.4734 -0.7158
 5429TIP3    H216221   2.318   7.963   2.882  0.4509 -0.3771 -0.6069
 5430TIP3   OH216222   3.617   6.683   0.751 -0.6115  0.7779 -0.0154
 5430TIP3    H116223   3.574   6.663   0.668  0.5870 -1.0491 -0.2322
 5430TIP3    H216224   3.586   6.616   0.812  1.5200 -0.3143 -0.0646
 5431TIP3   OH216225   2.067   7.206   0.731  0.6562  0.2139  0.4941
 5431TIP3    H116226   2.141   7.150   0.756 -0.6647 -0.9458  1.8594
 5431TIP3    H216227   1.991   7.165   0.771 -0.4006  2.7411  1.1502
 5432TIP3   OH216228   8.207   0.458   2.825  0.3201  0.1935  0.1114
 5432TIP3    H116229   8.205   0.542   2.871  1.6648 -0.7326  1.9241
 5432TIP3    H216230   8.180   0.394   2.890  2.6961 -1.2046 -0.2194
 5433TIP3   OH216231   1.071   4.082   6.892 -0.2255 -0.0156  0.0571
 5433TIP3    H116232   1.155   4.058   6.932  0.2862  0.4024 -0.7733
 5433TIP3    H216233   1.007   4.062   6.960  0.3916 -1.7504  0.1607
 5434TIP3   OH216234   4.596   6.468   2.282  0.7227  0.6223  0.0396
 5434TIP3    H116235   4.593   6.551   2.236 -0.8528  0.7063  0.2688
 5434TIP3    H216236   4.646   6.410   2.225  1.4385  1.5915 -0.3233
 5435TIP3   OH216237   7.441   1.592   0.424  0.2016 -0.3435 -0.1402
 5435TIP3    H116238   7.440   1.531   0.498 -1.3227 -1.8519 -1.3469
 5435TIP3    H216239   7.349   1.609   0.406  0.5599  0.1619 -1.5527
 5436TIP3   OH216240   0.412   4.269   6.546  0.5358  0.3590  0.2470
 5436TIP3    H116241   0.427   4.255   6.639 -1.9342  0.2605  0.6646
 5436TIP3    H216242   0.372   4.356   6.541 -0.3406 -0.0786 -0.5898
 5437TIP3   OH216243   7.294   0.567   3.263  0.0515 -0.4770 -0.3093
 5437TIP3    H116244   7.289   0.643   3.319  2.8711 -2.0458  2.1947
 5437TIP3    H216245   7.214   0.518   3.281 -1.4596  1.4914 -1.4654
 5438TIP3   OH216246   8.099   1.446   2.955 -0.5437  0.0483  0.6442
 5438TIP3    H116247   8.101   1.467   3.049  0.0477 -0.8879  0.8432
 5438TIP3    H216248   8.137   1.523   2.912  1.2615 -0.4368  1.3397
 5439TIP3   OH216249   5.211   7.327   0.859  0.1426 -0.6499  1.2257
 5439TIP3    H116250   5.204   7.378   0.939 -0.3893  1.2887 -0.0113
 5439TIP3    H216251   5.298   7.350   0.824 -0.6968  0.6497 -0.1067
 5440TIP3   OH216252   1.082   4.082   6.616 -0.6211  0.0165 -0.1260
 5440TIP3    H116253   1.171   4.110   6.593 -1.4984  3.4853  0.3665
 5440TIP3    H216254   1.086   4.066   6.711 -0.2086 -1.1848 -0.3408
 5441TIP3   OH216255   6.912   6.994   1.652 -0.8059  0.0444 -0.1412
 5441TIP3    H116256   6.874   7.027   1.571 -0.8436 -1.6150 -0.8162
 5441TIP3    H216257   6.913   6.898   1.641 -2.7615 -0.3524  2.6326
 5442TIP3   OH216258   2.400   4.311   6.762 -0.1631  0.7133  0.4441
 5442TIP3    H116259   2.360   4.227   6.739 -0.0807  1.0225 -0.8691
 5442TIP3    H216260   2.330   4.375   6.754  0.2705  1.0708 -0.6387
 5443TIP3   OH216261   6.901   0.712   5.059 -0.7161 -0.2597 -0.0870
 5443TIP3    H116262   6.987   0.748   5.079 -1.5900  2.0283 -0.3375
 5443TIP3    H216263   6.903   0.696   4.965 -0.8566  0.5510 -0.2235
 5444TIP3   OH216264   1.516   3.115   6.863 -0.1719  0.4539  0.1628
 5444TIP3    H116265   1.543   3.190   6.810 -0.7281 -0.0464 -0.8334
 5444TIP3    H216266   1.486   3.154   6.945 -3.0032  1.5722 -1.3373
 5445TIP3   OH216267   5.820   5.290   2.930  0.1072 -0.2358 -0.1141
 5445TIP3    H116268   5.770   5.371   2.940 -0.2474 -0.5729  0.9753
 5445TIP3    H216269   5.896   5.302   2.987  0.0519 -0.6685  0.0505
 5446TIP3   OH216270   4.314   6.545   4.244  0.4451  1.2994 -0.1218
 5446TIP3    H116271   4.296   6.544   4.150 -1.1228  1.6017  0.1587
 5446TIP3    H216272   4.228   6.554   4.284  1.1127  1.1904  1.3470
 5447TIP3   OH216273   6.223   6.846   0.726  0.7121  0.1477 -0.0343
 5447TIP3    H116274   6.273   6.765   0.716 -1.8214 -1.5289  0.4043
 5447TIP3    H216275   6.146   6.820   0.776 -0.3465  2.7671 -0.2496
 5448TIP3   OH216276   5.410   7.069   2.507 -0.2310  0.2586  0.0385
 5448TIP3    H116277   5.459   7.062   2.589 -1.7098  0.0405  0.9270
 5448TIP3    H216278   5.394   7.162   2.496 -0.2999  0.2649  0.1799
 5449TIP3   OH216279   7.119   0.246   2.069 -0.7962  0.9245 -0.3382
 5449TIP3    H116280   7.035   0.247   2.115  1.5495  2.0078  4.1717
 5449TIP3    H216281   7.167   0.172   2.107  0.6697  0.9094 -2.1302
 5450TIP3   OH216282   3.062   4.379   6.196 -0.6482 -0.0266  0.1143
 5450TIP3    H116283   3.086   4.384   6.103 -0.2942 -0.6164  0.1739
 5450TIP3    H216284   2.970   4.403   6.197 -0.8647 -0.7922 -0.4898
 5451TIP3   OH216285   4.382   7.128   3.447  0.2341  0.1116 -0.0674
 5451TIP3    H116286   4.403   7.068   3.374  1.0818 -1.0881  1.1370
 5451TIP3    H216287   4.286   7.128   3.451  0.2252 -1.8172  0.4119
 5452TIP3   OH216288   2.526   6.761   6.457 -0.1130  0.5356 -0.1138
 5452TIP3    H116289   2.450   6.807   6.421 -0.3593  0.6891  0.6021
 5452TIP3    H216290   2.601   6.802   6.413 -0.4927 -0.3422 -1.6159
 5453TIP3   OH216291   4.144   7.937   4.474 -0.1857 -1.0619  0.5371
 5453TIP3    H116292   4.167   7.850   4.441  0.3398 -1.1289  1.0634
 5453TIP3    H216293   4.185   7.998   4.411  0.8700 -1.1874  1.0857
 5454TIP3   OH216294   1.866   2.335   6.874 -0.6650 -0.1278  0.3221
 5454TIP3    H116295   1.839   2.312   6.963 -0.6065 -0.2051  0.3207
 5454TIP3    H216296   1.825   2.269   6.818 -1.2674  0.3256  0.2194
 5455TIP3   OH216297   3.848   6.249   0.871 -0.4474  0.2143 -0.0650
 5455TIP3    H116298   3.936   6.244   0.908  0.1119 -0.5609 -1.4413
 5455TIP3    H216299   3.860   6.291   0.786 -1.0510 -2.0609 -1.3088
 5456TIP3   OH216300   3.893   7.240   1.265  0.2135  0.2153 -1.6572
 5456TIP3    H116301   3.819   7.199   1.309  1.4361 -1.8018 -1.4130
 5456TIP3    H216302   3.854   7.305   1.207 -1.7156 -0.6060 -1.3052
 5457TIP3   OH216303   7.953   0.606   0.048 -0.5533  0.2836 -0.0245
 5457TIP3    H116304   7.955   0.535   0.112 -3.1255  0.0047 -0.1917
 5457TIP3    H216305   7.937   0.685   0.100 -3.8954 -0.1022 -0.3671
 5458TIP3   OH216306   4.941   7.979   1.608 -0.5530  0.4652 -0.0799
 5458TIP3    H116307   4.983   7.930   1.537 -2.8911 -0.7103 -0.7304
 5458TIP3    H216308   4.993   7.959   1.686  1.2011  0.6066 -1.1859
 5459TIP3   OH216309   4.994   7.779   1.157  0.5098  0.4577 -0.1675
 5459TIP3    H116310   4.963   7.848   1.098  1.1615  1.2476  0.3922
 5459TIP3    H216311   5.079   7.811   1.188  0.3572 -0.1283  0.8768
 5460TIP3   OH216312   5.674   1.177   1.863 -0.1493 -0.0929  0.0932
 5460TIP3    H116313   5.636   1.264   1.862  2.4382  1.1094  0.3533
 5460TIP3    H216314   5.611   1.123   1.910 -1.4615  1.8121  0.5652
 5461TIP3   OH216315   7.321   1.806   0.906 -0.4281  0.6712  0.2860
 5461TIP3    H116316   7.342   1.898   0.889  0.2352  1.1072  3.1056
 5461TIP3    H216317   7.227   1.799   0.890 -0.0217  1.1758 -2.5572
 5462TIP3   OH216318   8.285   1.164   0.659  0.1307  0.8558  0.2057
 5462TIP3    H116319   8.267   1.253   0.690 -1.5930  0.3473  0.7165
 5462TIP3    H216320   8.224   1.109   0.708  2.0566 -0.7694  0.8014
 5463TIP3   OH216321   4.014   6.834   1.362 -0.1633 -0.1476 -0.3293
 5463TIP3    H116322   4.015   6.756   1.306  3.0363  0.0453 -0.6345
 5463TIP3    H216323   3.953   6.812   1.432 -0.6380 -2.2384 -1.3446
 5464TIP3   OH216324   5.453   6.064   1.692 -0.3524  0.2587 -0.7587
 5464TIP3    H116325   5.375   6.025   1.733  0.5374 -0.1660  0.5589
 5464TIP3    H216326   5.450   6.033   1.601 -1.4793 -0.1256 -0.5990
 5465TIP3   OH216327   3.116   7.086   1.930 -0.1873  0.2012  0.0777
 5465TIP3    H116328   3.125   7.006   1.878  0.8888  0.0389  0.4865
 5465TIP3    H216329   3.022   7.095   1.944 -0.3929 -0.4203 -0.8617
 5466TIP3   OH216330   5.386   0.193   2.319  0.0024 -0.2997  0.2852
 5466TIP3    H116331   5.420   0.201   2.230  2.0732 -0.5322  1.0312
 5466TIP3    H216332   5.291   0.202   2.309 -0.0031 -2.3380 -2.2061
 5467TIP3   OH216333   1.106   2.050   6.819 -0.2825  0.0186  0.5754
 5467TIP3    H116334   1.047   2.072   6.890  0.1682 -0.7323  1.1808
 5467TIP3    H216335   1.192   2.080   6.849 -0.1946  0.2824  0.0769
 5468TIP3   OH216336   6.745   6.686   2.504  0.1448  0.4589 -0.5376
 5468TIP3    H116337   6.657   6.712   2.476  0.5349  1.1118 -1.1726
 5468TIP3    H216338   6.759   6.601   2.463 -1.2732 -0.9844  1.8278
 5469TIP3   OH216339   7.694   0.226   1.757 -0.2112 -0.2220 -0.6119
 5469TIP3    H116340   7.785   0.211   1.731 -0.5130 -1.7581 -0.8597
 5469TIP3    H216341   7.650   0.256   1.677  0.2437  1.3461 -0.2909
 5470TIP3   OH216342   2.576   7.234   1.849  0.2193  0.4576  0.1093
 5470TIP3    H116343   2.554   7.236   1.942 -0.2296  0.3539  0.0069
 5470TIP3    H216344   2.501   7.275   1.806 -0.1971 -0.7613 -0.3267
 5471TIP3   OH216345   2.246   7.700   1.490  0.8296 -0.0897 -0.2671
 5471TIP3    H116346   2.165   7.748   1.472  0.6403 -0.2803  0.0669
 5471TIP3    H216347   2.315   7.757   1.456  0.7407  1.3029  1.7832
 5472TIP3   OH216348   5.205   7.383   3.588  0.0345  0.0266  0.3482
 5472TIP3    H116349   5.246   7.344   3.666 -1.3228 -0.1965  0.9659
 5472TIP3    H216350   5.116   7.347   3.587 -0.4174  1.1298 -0.5225
 5473TIP3   OH216351   7.925   0.432   5.151  0.5074 -0.6865 -0.6445
 5473TIP3    H116352   7.959   0.487   5.080 -0.0178 -0.0825 -0.4300
 5473TIP3    H216353   7.857   0.380   5.109 -0.4976  0.3875 -0.3731
 5474TIP3   OH216354   4.264   7.261   1.250 -0.5990 -0.7379  0.1634
 5474TIP3    H116355   4.249   7.322   1.178  0.8096  0.4243  0.8245
 5474TIP3    H216356   4.236   7.176   1.216 -2.3740  0.2264 -0.8534
 5475TIP3   OH216357   3.682   7.735   1.232 -0.3500 -0.0925  0.5531
 5475TIP3    H116358   3.614   7.801   1.220 -0.1926  0.0797  0.6078
 5475TIP3    H216359   3.748   7.757   1.166 -1.5687 -1.8437 -1.3175
 5476TIP3   OH216360   2.778   6.573   2.586  0.0649  0.5540  0.0051
 5476TIP3    H116361   2.688   6.542   2.596 -0.1164  2.0583  3.5309
 5476TIP3    H216362   2.832   6.501   2.620  0.0456  0.8255  0.6127
 5477TIP3   OH216363   8.429   2.800   6.848 -0.3970  0.0342 -0.2601
 5477TIP3    H116364   8.344   2.822   6.808 -0.2000 -0.0602 -0.7380
 5477TIP3    H216365   8.455   2.718   6.804  0.3879  0.5668 -0.7947
 5478TIP3   OH216366   4.467   7.723   2.923 -0.4157  0.1007  0.6480
 5478TIP3    H116367   4.552   7.680   2.916  0.0678  1.0414  0.6970
 5478TIP3    H216368   4.451   7.760   2.836  0.6474  2.5629  1.4747
 5479TIP3   OH216369   2.676   6.779   1.507  0.7908  0.2046  0.0896
 5479TIP3    H116370   2.644   6.868   1.524 -0.1983  0.0606 -0.9421
 5479TIP3    H216371   2.643   6.728   1.580 -0.1814  0.3435 -0.2351
 5480TIP3   OH216372   4.135   5.676   3.028 -0.0067 -0.0132 -0.3205
 5480TIP3    H116373   4.210   5.735   3.038 -0.3264  0.4212 -0.4302
 5480TIP3    H216374   4.059   5.734   3.037 -0.3197 -0.2755 -1.2094
 5481TIP3   OH216375   4.457   7.726   1.092 -0.4593 -0.1371  0.0203
 5481TIP3    H116376   4.464   7.679   1.176 -0.8180 -1.7614 -0.8410
 5481TIP3    H216377   4.456   7.657   1.026  0.2253  1.1543 -1.3638
 5482TIP3   OH216378   4.481   6.146   0.714  0.2500  0.5827 -0.3758
 5482TIP3    H116379   4.534   6.112   0.786 -0.2041  0.1697 -0.2413
 5482TIP3    H216380   4.439   6.224   0.750  1.5455  1.4820 -0.7827
 5483TIP3   OH216381   3.781   6.969   1.889 -0.3941  0.3242 -0.1338
 5483TIP3    H116382   3.763   7.047   1.836 -1.6697  0.6792  0.7812
 5483TIP3    H216383   3.702   6.959   1.943  0.1300 -1.0890  0.3834
 5484TIP3   OH216384   3.100   5.650   1.055  0.3866  0.4320  0.1896
 5484TIP3    H116385   3.018   5.638   1.104 -0.8423  0.8646 -1.6770
 5484TIP3    H216386   3.160   5.586   1.092 -1.5273 -1.5126  0.0637
 5485TIP3   OH216387   0.395   3.513   6.420  0.5188 -0.3876  0.6821
 5485TIP3    H116388   0.446   3.439   6.386  0.4475  0.5893 -1.6690
 5485TIP3    H216389   0.461   3.577   6.446  0.5484  0.4475 -1.3655
 5486TIP3   OH216390   0.118   4.109   5.713 -0.0909  0.4502 -0.4215
 5486TIP3    H116391   0.105   4.112   5.618  1.5185 -2.9176 -0.8187
 5486TIP3    H216392   0.192   4.169   5.729 -0.0052  0.6012 -1.3580
 5487TIP3   OH216393   7.771   2.021   2.118  0.3901  0.3627  0.2717
 5487TIP3    H116394   7.748   2.110   2.092 -0.7080  0.1018  0.3158
 5487TIP3    H216395   7.819   2.032   2.200  0.7354  0.9469 -0.0025
 5488TIP3   OH216396   2.345   6.305   6.762  0.8329  0.3484 -0.1864
 5488TIP3    H116397   2.292   6.240   6.807  1.1459 -0.0617 -0.4095
 5488TIP3    H216398   2.364   6.266   6.677 -1.8941  2.1333 -1.7089
 5489TIP3   OH216399   1.884   4.457   6.666 -0.0003 -0.4862 -0.4918
 5489TIP3    H116400   1.923   4.456   6.579 -0.5859 -2.2766 -0.7628
 5489TIP3    H216401   1.813   4.521   6.660  1.3211  0.9815 -0.6849
 5490TIP3   OH216402   0.099   0.589   3.470 -0.0576 -0.1267  0.1316
 5490TIP3    H116403   0.011   0.554   3.456 -0.1114 -0.4976  1.3714
 5490TIP3    H216404   0.087   0.657   3.536  0.4829  0.3237 -0.2276
 5491TIP3   OH216405   5.380   7.787   3.540  0.2575 -0.4269  0.2699
 5491TIP3    H116406   5.368   7.709   3.594  2.3563  0.1075  1.5628
 5491TIP3    H216407   5.292   7.809   3.509 -0.3379 -3.4279 -0.3202
 5492TIP3   OH216408   6.275   1.715   1.556  0.2412 -0.2632 -1.0007
 5492TIP3    H116409   6.279   1.651   1.485 -0.1989  0.3031 -1.5486
 5492TIP3    H216410   6.219   1.785   1.521 -1.7418 -0.9546  0.7120
 5493TIP3   OH216411   7.773   1.625   0.562 -0.6463  0.3099  0.1359
 5493TIP3    H116412   7.855   1.596   0.523  0.4096 -0.0664  2.5754
 5493TIP3    H216413   7.705   1.583   0.508  0.7786 -1.4058 -0.3799
 5494TIP3   OH216414   3.723   6.531   5.598 -0.0953 -1.1662 -0.3456
 5494TIP3    H116415   3.804   6.512   5.551  0.8464  0.6285  0.5061
 5494TIP3    H216416   3.668   6.454   5.583  0.7544 -1.2792 -3.0850
 5495TIP3   OH216417   2.652   2.976   6.031  0.1498  0.5386 -0.2880
 5495TIP3    H116418   2.700   2.965   6.113  2.0922 -0.4202 -1.5109
 5495TIP3    H216419   2.692   3.054   5.991  0.8968 -0.4370 -1.4553
 5496TIP3   OH216420   5.984   6.175   1.020  0.1707  0.2786  0.7593
 5496TIP3    H116421   5.920   6.246   1.027 -0.3531 -0.0593 -0.4189
 5496TIP3    H216422   5.934   6.100   0.989  1.2889  0.2701 -1.1219
 5497TIP3   OH216423   8.383   0.412   3.393  0.0544  0.0144  0.5157
 5497TIP3    H116424   8.443   0.359   3.339 -1.7080 -2.9221  1.3658
 5497TIP3    H216425   8.326   0.456   3.329  1.3744  0.7457 -0.1861
 5498TIP3   OH216426   8.231   0.890   4.473 -0.2204 -0.0284 -0.5797
 5498TIP3    H116427   8.282   0.878   4.553  1.3812  0.3236 -1.5022
 5498TIP3    H216428   8.220   0.985   4.466  1.4672  0.1102 -1.8261
 5499TIP3   OH216429   4.447   6.085   2.973  0.7540 -0.1344 -0.1910
 5499TIP3    H116430   4.513   6.101   3.040  0.5037 -1.6389  0.4275
 5499TIP3    H216431   4.365   6.079   3.022  0.6677 -1.9904 -0.5406
 5500TIP3   OH216432   7.328   0.366   1.958  0.0075  0.3143  0.3009
 5500TIP3    H116433   7.301   0.454   1.931  0.4539  0.2139 -0.4841
 5500TIP3    H216434   7.256   0.334   2.012 -0.8515  0.5483 -0.7021
 5501TIP3   OH216435   7.417   0.088   1.821 -0.4308 -0.3855 -0.4210
 5501TIP3    H116436   7.509   0.077   1.797  0.1981 -1.1970  2.1815
 5501TIP3    H216437   7.410   0.179   1.851 -0.7437  0.0027 -1.6410
 5502TIP3   OH216438   4.203   7.554   2.184 -0.2530  0.2027  0.5055
 5502TIP3    H116439   4.204   7.508   2.100  3.0825 -2.8189  2.0502
 5502TIP3    H216440   4.151   7.497   2.242 -0.8452  1.2456  1.0210
 5503TIP3   OH216441   3.636   7.095   3.011  1.0490  0.5233 -0.0707
 5503TIP3    H116442   3.693   7.107   3.087  1.2428  1.3057 -0.3360
 5503TIP3    H216443   3.687   7.042   2.950  0.9795  0.0875  0.2498
 5504TIP3   OH216444   3.883   6.303   3.211 -0.0058  0.2646  1.0552
 5504TIP3    H116445   3.883   6.236   3.144 -1.2438  1.7790 -0.5033
 5504TIP3    H216446   3.864   6.257   3.293  0.2220 -1.4028  0.1675
 5505TIP3   OH216447   8.048   7.147   3.044  0.5331 -0.3818 -0.2334
 5505TIP3    H116448   8.010   7.109   3.124 -4.3245  2.8239 -0.8382
 5505TIP3    H216449   8.028   7.083   2.976 -1.6011  0.0528 -0.0550
 5506TIP3   OH216450   5.290   6.469   1.916 -0.7068 -0.7708  0.1364
 5506TIP3    H116451   5.268   6.393   1.970 -1.8397  0.0193  0.8141
 5506TIP3    H216452   5.298   6.434   1.827 -2.0032 -1.5580  0.3161
 5507TIP3   OH216453   7.110   6.698   2.628  0.0915  0.4082 -0.2221
 5507TIP3    H116454   7.108   6.774   2.687 -1.5704  0.0764  0.1699
 5507TIP3    H216455   7.058   6.726   2.552 -0.7511 -0.4430  0.0469
 5508TIP3   OH216456   7.644   0.351   1.998 -0.0306  0.3414 -0.7273
 5508TIP3    H116457   7.550   0.342   2.012 -0.1086 -1.3737 -2.0420
 5508TIP3    H216458   7.665   0.282   1.934  1.9048  1.4623 -1.3559
 5509TIP3   OH216459   4.511   7.903   2.498 -0.0720  0.0694 -0.4183
 5509TIP3    H116460   4.463   7.879   2.419  0.4633 -0.5984 -0.5445
 5509TIP3    H216461   4.599   7.925   2.467 -0.4037  1.7461 -0.2477
 5510TIP3   OH216462   7.765   1.693   3.012 -0.0171  0.3786 -0.3356
 5510TIP3    H116463   7.831   1.672   2.946  0.3079 -2.5601  0.8884
 5510TIP3    H216464   7.805   1.764   3.063  0.8577  0.7791 -1.5424
 5511TIP3   OH216465   4.538   1.224   1.111  0.0455  0.6269 -0.1029
 5511TIP3    H116466   4.608   1.228   1.177 -0.4773 -1.0428  0.5884
 5511TIP3    H216467   4.569   1.160   1.047 -0.2657  0.8683 -0.4936
 5512TIP3   OH216468   1.771   1.212   1.683  0.2207  0.0950 -0.3992
 5512TIP3    H116469   1.837   1.280   1.671  2.1929 -1.5609  0.7386
 5512TIP3    H216470   1.791   1.147   1.615 -0.6289 -0.1229 -0.4481
 5513TIP3   OH216471   0.136   0.032   0.530 -0.2125 -0.1594  0.0311
 5513TIP3    H116472   0.212   0.067   0.483 -0.4888  0.9580  0.3973
 5513TIP3    H216473   0.078   0.107   0.540 -1.0513 -0.8536  0.3794
 5514TIP3   OH216474   3.758   2.677   6.385 -0.1812  0.3348  0.7011
 5514TIP3    H116475   3.775   2.699   6.477 -1.6925  2.1857  0.5775
 5514TIP3    H216476   3.845   2.672   6.346  0.4866 -0.6190  2.2493
 5515TIP3   OH216477   4.335   6.813   1.419  0.2466  0.5935 -0.2506
 5515TIP3    H116478   4.272   6.873   1.459 -0.8884  0.1554 -1.3675
 5515TIP3    H216479   4.341   6.841   1.328 -2.0728 -2.3592 -1.4103
 5516TIP3   OH216480   5.809   6.986   0.781  0.6788 -0.2087  0.0926
 5516TIP3    H116481   5.751   6.915   0.809  0.8857 -0.2396  0.4524
 5516TIP3    H216482   5.789   7.059   0.839 -2.2958  1.3626 -2.7867
 5517TIP3   OH216483   5.361   6.236   1.437  0.2062 -0.2825 -0.3681
 5517TIP3    H116484   5.390   6.295   1.367  0.4772 -0.7430 -0.6512
 5517TIP3    H216485   5.406   6.153   1.418 -0.5247 -0.7112 -0.2406
 5518TIP3   OH216486   5.989   7.432   0.933  0.1004  0.0226 -0.3742
 5518TIP3    H116487   6.060   7.462   0.877 -1.3531 -0.4589 -2.5462
 5518TIP3    H216488   5.946   7.512   0.963  1.1142  0.2920  0.3664
 5519TIP3   OH216489   5.012   7.770   1.453  0.9293 -0.4434  0.1608
 5519TIP3    H116490   5.015   7.679   1.483  1.1957 -0.3671  0.3667
 5519TIP3    H216491   4.993   7.763   1.359 -0.3111 -0.6641  0.4193
 5520TIP3   OH216492   6.470   0.501   1.594  0.6239  0.4113  0.7270
 5520TIP3    H116493   6.487   0.421   1.644  0.9611  1.3214  2.1244
 5520TIP3    H216494   6.552   0.551   1.602  0.0169  1.3905  0.8572
 5521TIP3   OH216495   4.179   6.780   3.099  0.1512  0.0103 -0.0350
 5521TIP3    H116496   4.168   6.824   3.015  1.1351  0.1805 -0.0810
 5521TIP3    H216497   4.160   6.688   3.081  1.5998 -0.1639 -0.7314
 5522TIP3   OH216498   6.436   6.633   4.214 -0.3136  0.3476  0.2888
 5522TIP3    H116499   6.450   6.727   4.200 -0.0017  0.3193  0.4018
 5522TIP3    H216500   6.389   6.604   4.136  1.9513  0.0813 -1.0210
 5523TIP3   OH216501   6.377   6.557   1.441 -0.1627 -0.1962  0.3771
 5523TIP3    H116502   6.408   6.491   1.504  1.8517  0.7303  0.4217
 5523TIP3    H216503   6.443   6.555   1.371 -0.8874  0.7361 -0.3392
 5524TIP3   OH216504   7.468   1.511   2.281 -0.4150  0.1570  0.1370
 5524TIP3    H116505   7.515   1.592   2.302  0.8069 -0.7006  0.7238
 5524TIP3    H216506   7.397   1.540   2.224  0.2088  1.6032  0.0545
 5525TIP3   OH216507   3.713   7.719   0.366  0.1552  0.3577 -0.2629
 5525TIP3    H116508   3.627   7.719   0.323  0.3260  0.6089 -0.5997
 5525TIP3    H216509   3.698   7.669   0.447 -0.4859  1.0172  0.0356
 5526TIP3   OH216510   7.565   0.518   2.664  0.3886  0.2220 -0.5863
 5526TIP3    H116511   7.499   0.545   2.600  0.2711  1.0931 -0.1106
 5526TIP3    H216512   7.514   0.484   2.738  0.4974  0.1185 -0.5589
 5527TIP3   OH216513   3.192   5.831   1.257  0.1513  0.3400  0.1864
 5527TIP3    H116514   3.098   5.844   1.242  0.1527  1.8795  1.3443
 5527TIP3    H216515   3.231   5.836   1.170 -0.9734 -1.7189 -0.4766
 5528TIP3   OH216516   6.742   0.546   2.384  0.4410  0.1747  0.0214
 5528TIP3    H116517   6.767   0.612   2.449  1.5308  1.3487 -1.5538
 5528TIP3    H216518   6.797   0.471   2.405  0.5233  0.4203  0.6915
 5529TIP3   OH216519   7.091   0.592   1.481 -0.1849 -0.0008  0.0864
 5529TIP3    H116520   7.107   0.513   1.429  1.4294  0.3519  0.0301
 5529TIP3    H216521   7.123   0.664   1.427  1.1299  0.4089  1.3801
 5530TIP3   OH216522   6.554   5.503   1.201  0.5050  0.0306  0.3266
 5530TIP3    H116523   6.636   5.460   1.226  0.8051  0.3108 -0.1613
 5530TIP3    H216524   6.542   5.572   1.266  1.9404  1.5769 -1.0022
 5531TIP3   OH216525   5.442   7.193   1.871  0.0408  0.1168 -0.8646
 5531TIP3    H116526   5.449   7.233   1.958  0.0645 -0.3237 -0.6604
 5531TIP3    H216527   5.455   7.265   1.810  2.8618 -0.0367 -0.5123
 5532TIP3   OH216528   5.751   6.339   0.725  0.9302 -0.6627 -0.1442
 5532TIP3    H116529   5.830   6.354   0.777  1.0074 -0.6934 -0.2512
 5532TIP3    H216530   5.708   6.265   0.768  0.7908 -0.4355  0.1070
 5533TIP3   OH216531   4.298   6.343   1.842 -1.0754 -0.0239  0.4220
 5533TIP3    H116532   4.241   6.270   1.864 -1.3113 -0.4995 -1.6426
 5533TIP3    H216533   4.367   6.305   1.788 -0.2238  0.9925  0.7676
 5534TIP3   OH216534   2.544   6.954   2.727 -0.4107  0.5670 -0.1553
 5534TIP3    H116535   2.624   6.960   2.676 -1.8659  1.6963 -2.3959
 5534TIP3    H216536   2.521   6.861   2.727  1.5765  0.0291  1.6735
 5535TIP3   OH216537   5.663   0.006   0.937  0.3585  0.0856  0.1661
 5535TIP3    H116538   5.747   0.032   0.976 -0.8336 -0.4992  3.3096
 5535TIP3    H216539   5.598   0.060   0.982 -1.1284 -0.8747 -0.7750
 5536TIP3   OH216540   3.946   6.524   0.151  0.8674 -0.7080 -0.1664
 5536TIP3    H116541   3.954   6.549   0.059  3.7180 -0.5216  0.1039
 5536TIP3    H216542   3.979   6.434   0.155  1.7993 -0.3255  0.8684
 5537TIP3   OH216543   2.561   4.244   6.379  0.2081 -0.0874 -0.4860
 5537TIP3    H116544   2.532   4.328   6.414 -1.0086  0.0544 -1.7920
 5537TIP3    H216545   2.486   4.186   6.392  1.0478 -0.9976  0.4277
 5538TIP3   OH216546   6.312   3.455   6.240  0.0535  0.1353 -0.8135
 5538TIP3    H116547   6.230   3.464   6.191  0.9141  1.5555 -2.0148
 5538TIP3    H216548   6.380   3.448   6.173  1.0676  0.3774  0.1759
 5539TIP3   OH216549   3.837   5.965   2.383 -0.0804  0.3505 -0.6761
 5539TIP3    H116550   3.881   6.047   2.365  0.2980  0.1121 -0.8285
 5539TIP3    H216551   3.795   5.941   2.300  0.4764 -0.0171 -0.8560
 5540TIP3   OH216552   5.467   7.245   1.205 -0.4591 -0.1112 -0.2084
 5540TIP3    H116553   5.421   7.164   1.180  0.5684 -0.6703 -0.2890
 5540TIP3    H216554   5.396   7.305   1.231 -1.5562  0.3136 -3.8903
 5541TIP3   OH216555   4.027   7.840   3.986  0.6754 -0.1968  0.1053
 5541TIP3    H116556   4.043   7.801   4.072  1.3456 -1.5527 -0.6269
 5541TIP3    H216557   4.112   7.841   3.942  0.0139 -1.2459 -1.2472
 5542TIP3   OH216558   5.236   4.840   1.542 -0.3960  0.2709  0.6196
 5542TIP3    H116559   5.296   4.902   1.585  1.1596 -0.1504 -0.9053
 5542TIP3    H216560   5.158   4.893   1.522  0.2600  1.3313  0.8104
 5543TIP3   OH216561   4.657   7.089   0.465 -0.2508 -0.1954 -0.3608
 5543TIP3    H116562   4.684   7.168   0.511 -3.6554  0.8569 -0.0860
 5543TIP3    H216563   4.678   7.106   0.373 -1.4659  1.2565 -0.3774
 5544TIP3   OH216564   2.965   2.706   5.101 -0.6204  0.2918 -0.3284
 5544TIP3    H116565   2.966   2.638   5.168 -2.7967 -1.7630 -2.3199
 5544TIP3    H216566   2.873   2.719   5.081 -0.1103  2.3415 -1.4946
 5545TIP3   OH216567   7.731   7.607   0.298  0.1010  0.2120  0.0241
 5545TIP3    H116568   7.726   7.566   0.384 -0.1712 -1.9113 -0.9756
 5545TIP3    H216569   7.671   7.682   0.303 -2.3363 -1.7049  0.7288
 5546TIP3   OH216570   4.631   6.977   1.325 -1.0301  0.0919 -0.1117
 5546TIP3    H116571   4.566   7.039   1.358 -0.3063  0.1842  1.1513
 5546TIP3    H216572   4.706   7.031   1.301 -0.4326 -0.2733  0.9025
 5547TIP3   OH216573   7.494   6.678   1.591 -0.0442 -0.1398 -0.2287
 5547TIP3    H116574   7.498   6.594   1.636 -1.5421 -0.3608 -0.5129
 5547TIP3    H216575   7.482   6.742   1.661  0.3046 -0.2213 -0.0889
 5548TIP3   OH216576   5.585   7.629   2.726 -0.2674 -0.4890  0.2841
 5548TIP3    H116577   5.676   7.617   2.752 -1.0397 -0.9040  2.8797
 5548TIP3    H216578   5.574   7.724   2.719  0.2609 -0.4294  0.2832
 5549TIP3   OH216579   8.130   1.057   0.305 -0.0874  0.2921 -0.3844
 5549TIP3    H116580   8.132   1.134   0.362  0.4599  0.3168 -0.4428
 5549TIP3    H216581   8.063   1.000   0.344 -0.0489  0.5182  0.0122
 5550TIP3   OH216582   8.019   6.186   2.569 -0.1780 -0.3100  0.1599
 5550TIP3    H116583   7.987   6.207   2.481 -0.5817  0.9168  0.5840
 5550TIP3    H216584   8.018   6.091   2.573 -3.4366 -0.3494 -0.0073
 5551TIP3   OH216585   0.430   1.215   4.126 -0.0926 -1.1583 -0.1050
 5551TIP3    H116586   0.338   1.210   4.150 -0.3738 -0.1173 -0.9505
 5551TIP3    H216587   0.439   1.158   4.050 -0.4327  0.1841 -1.1682
 5552TIP3   OH216588   0.000   1.470   1.196  0.6723 -0.1455 -0.6077
 5552TIP3    H116589   0.035   1.559   1.188  1.6300 -0.6477 -2.1783
 5552TIP3    H216590  -0.021   1.461   1.289  0.6232  1.6970 -0.4251
 5553TIP3   OH216591   2.876   3.216   6.553  0.0617  0.1337 -0.0440
 5553TIP3    H116592   2.806   3.266   6.510 -1.6570 -0.5574  1.8869
 5553TIP3    H216593   2.956   3.264   6.530 -1.1803  1.7913 -1.0810
 5554TIP3   OH216594   6.590   0.079   1.583  0.6017 -0.2068  0.3390
 5554TIP3    H116595   6.582   0.071   1.678  1.2328 -1.3796  0.3038
 5554TIP3    H216596   6.641   0.002   1.557  1.2749  0.6326 -0.8370
 5555TIP3   OH216597   4.774   6.396   2.594  0.2592 -0.6699 -0.0706
 5555TIP3    H116598   4.684   6.364   2.592 -0.4673  1.3449 -3.4727
 5555TIP3    H216599   4.819   6.344   2.526  1.2050 -0.4453  0.3802
 5556TIP3   OH216600   0.605   0.128   1.944  0.0905  0.2979  0.5581
 5556TIP3    H116601   0.520   0.154   1.908 -0.0520  0.3670  0.9412
 5556TIP3    H216602   0.633   0.203   1.995  0.7822  0.6044 -0.2530
 5557TIP3   OH216603   8.090   7.650   1.965  0.0575  0.1167  0.5828
 5557TIP3    H116604   8.012   7.705   1.961 -0.8968 -1.1179  2.0532
 5557TIP3    H216605   8.138   7.682   2.042  1.1262  1.0148 -0.4379
 5558TIP3   OH216606   5.185   6.786   0.909 -0.3227  0.0635 -0.2142
 5558TIP3    H116607   5.169   6.743   0.993 -1.8044  0.6271 -0.1817
 5558TIP3    H216608   5.144   6.728   0.844  0.5568 -0.2222 -0.5086
 5559TIP3   OH216609   6.229   6.854   1.352 -0.1315 -0.2052  0.4872
 5559TIP3    H116610   6.294   6.807   1.301 -2.0207 -0.9561 -1.2932
 5559TIP3    H216611   6.172   6.896   1.287 -1.3187  0.6042  1.9899
 5560TIP3   OH216612   6.380   6.982   1.063 -0.2654 -0.0842  0.8181
 5560TIP3    H116613   6.422   6.960   0.979  0.1927  0.2237  0.9641
 5560TIP3    H216614   6.286   6.971   1.047 -0.1314 -0.7804  0.4856
 5561TIP3   OH216615   6.527   6.173   0.438  0.1534 -0.3602  0.0721
 5561TIP3    H116616   6.589   6.240   0.409  0.6346 -0.2153  1.4284
 5561TIP3    H216617   6.442   6.217   0.439  0.4282  0.1574  0.6932
 5562TIP3   OH216618   6.180   7.051   1.953 -0.2526 -0.3722 -0.4703
 5562TIP3    H116619   6.235   7.109   2.006 -0.0182 -1.0482  0.0319
 5562TIP3    H216620   6.241   7.003   1.897 -0.2932 -1.2926  0.2534
 5563TIP3   OH216621   7.490   7.820   2.188  0.7141 -0.0438 -0.2657
 5563TIP3    H116622   7.582   7.806   2.210  0.8888 -1.6860 -1.8843
 5563TIP3    H216623   7.445   7.744   2.227  0.4219 -0.6157 -1.6952
 5564TIP3   OH216624   5.393   6.374   2.162  0.1198  0.2682 -0.2823
 5564TIP3    H116625   5.378   6.448   2.221 -0.2639 -0.1272  0.1195
 5564TIP3    H216626   5.427   6.305   2.219 -0.7705 -0.2981 -0.4278
 5565TIP3   OH216627   7.987   6.896   4.619 -0.3664 -0.3440 -0.1968
 5565TIP3    H116628   7.924   6.851   4.676 -0.3810  0.3730  0.3564
 5565TIP3    H216629   8.069   6.850   4.634  0.0519  1.0214  1.8194
 5566TIP3   OH216630   4.073   6.331   4.515  0.2766 -0.1286 -0.2605
 5566TIP3    H116631   4.126   6.317   4.593  0.1847 -0.2677 -0.2228
 5566TIP3    H216632   4.017   6.253   4.509 -0.6874  0.5107  0.3077
 5567TIP3   OH216633   7.435   2.281   0.781  0.3730  0.8361 -0.1316
 5567TIP3    H116634   7.419   2.373   0.763 -2.1105  0.4140 -0.3636
 5567TIP3    H216635   7.395   2.235   0.707 -1.3379 -0.5299  1.5685
 5568TIP3   OH216636   7.726   0.330   1.087 -0.0267 -0.3282 -0.1159
 5568TIP3    H116637   7.746   0.419   1.118 -1.0754 -0.2799  0.4263
 5568TIP3    H216638   7.805   0.280   1.109  1.0693  0.7187 -1.5325
 5569TIP3   OH216639   1.973   1.979   6.038  0.3847 -0.9091  0.3892
 5569TIP3    H116640   1.915   2.002   6.110 -0.3068  0.1267 -0.4903
 5569TIP3    H216641   2.035   1.916   6.077 -0.9579 -1.6045  1.4680
 5570TIP3   OH216642   5.620   5.607   0.779 -0.2809  0.3767 -0.4038
 5570TIP3    H116643   5.623   5.523   0.825  1.5527  1.5365  1.7086
 5570TIP3    H216644   5.696   5.605   0.721 -0.6965  0.2432 -0.9404
 5571TIP3   OH216645   4.731   6.603   1.546 -0.1531  0.4065 -0.5309
 5571TIP3    H116646   4.804   6.634   1.599  0.1820 -0.2613 -0.5932
 5571TIP3    H216647   4.673   6.559   1.609 -0.0970  0.2196 -0.6088
 5572TIP3   OH216648   7.522   6.455   1.770 -0.0452  0.1130 -0.1932
 5572TIP3    H116649   7.445   6.455   1.827  0.8629  1.0913  1.0480
 5572TIP3    H216650   7.597   6.461   1.830  1.0442 -1.5033 -1.3419
 5573TIP3   OH216651   1.876   0.857   4.174  0.1081  0.2792 -0.1704
 5573TIP3    H116652   1.878   0.779   4.230 -0.8800 -0.1707 -0.7488
 5573TIP3    H216653   1.828   0.922   4.226  0.5735  0.3680  0.1463
 5574TIP3   OH216654   6.814   6.708   2.767  0.3933 -0.2403 -0.1901
 5574TIP3    H116655   6.879   6.777   2.779 -0.2296  0.1853  0.8419
 5574TIP3    H216656   6.790   6.714   2.675  1.4984 -0.1266 -0.4761
 5575TIP3   OH216657   2.124   0.792   5.332  0.0152 -0.2089  0.2353
 5575TIP3    H116658   2.083   0.706   5.335  0.7408 -0.6385 -1.5293
 5575TIP3    H216659   2.083   0.840   5.403 -3.1135 -0.8304 -1.0388
 5576TIP3   OH216660   1.222   2.141   5.418  0.2850  0.4008  0.2324
 5576TIP3    H116661   1.296   2.194   5.388  1.3614 -0.3604  1.4793
 5576TIP3    H216662   1.178   2.196   5.483  0.7458  0.1907  0.7196
 5577TIP3   OH216663   2.073   4.215   6.475  0.0706 -0.2853 -0.1129
 5577TIP3    H116664   2.110   4.300   6.500 -0.0100 -0.6139  1.1723
 5577TIP3    H216665   1.999   4.203   6.535 -0.2424 -1.0220 -0.6463
 5578TIP3   OH216666   2.751   1.700   4.695 -0.0386  0.4869 -0.0711
 5578TIP3    H116667   2.754   1.660   4.782 -3.4192  1.8483  0.7527
 5578TIP3    H216668   2.764   1.626   4.635  0.0905 -0.8324  1.5345
 5579TIP3   OH216669   3.531   0.265   6.505 -0.3269 -0.4915 -0.0329
 5579TIP3    H116670   3.557   0.259   6.413  0.2616 -0.0751  0.1077
 5579TIP3    H216671   3.585   0.199   6.549  0.4666  0.3497  0.2542
 5580TIP3   OH216672   8.293   2.772   5.249  0.3569  0.1300  0.0092
 5580TIP3    H116673   8.324   2.858   5.278  0.6778 -0.3295  1.0465
 5580TIP3    H216674   8.343   2.709   5.301  0.2901 -0.6916 -0.9184
 5581TIP3   OH216675   1.242   2.033   4.335 -0.7415 -0.2525 -0.3579
 5581TIP3    H116676   1.217   2.100   4.399  2.1964  1.3671 -0.8292
 5581TIP3    H216677   1.219   1.950   4.376  0.9351  0.7747  2.7689
 5582TIP3   OH216678   4.336   2.668   6.018 -0.2414 -0.2089 -0.1169
 5582TIP3    H116679   4.308   2.756   5.993 -0.2872  0.1828  1.2937
 5582TIP3    H216680   4.411   2.650   5.961 -1.2527  0.0705 -1.5613
 5583TIP3   OH216681   2.767   1.902   5.039  0.0728  0.5143  0.1856
 5583TIP3    H116682   2.788   1.953   4.961 -0.8493  0.2106 -0.2669
 5583TIP3    H216683   2.745   1.967   5.105 -0.8773  0.7311 -0.3269
 5584TIP3   OH216684   2.336   2.380   4.512 -0.1419 -0.7201 -0.1162
 5584TIP3    H116685   2.326   2.296   4.558 -1.8954  0.1431  1.1429
 5584TIP3    H216686   2.346   2.445   4.581 -0.4479  0.3116 -1.0206
 5585TIP3   OH216687   6.737   5.991   0.292 -0.4960 -0.2234 -0.6009
 5585TIP3    H116688   6.663   5.984   0.352  0.6412 -0.2954  0.8480
 5585TIP3    H216689   6.758   6.084   0.290  1.5708 -0.5467  1.8503
 5586TIP3   OH216690   3.015   0.333   3.863 -0.3402  0.0341 -0.1411
 5586TIP3    H116691   3.099   0.347   3.906  0.5716  0.4127 -2.0204
 5586TIP3    H216692   2.963   0.410   3.885 -0.8543 -1.0086  2.4841
 5587TIP3   OH216693   6.057   5.057   0.966 -0.4287  0.4194 -0.3415
 5587TIP3    H116694   6.046   5.002   0.888 -0.0448  0.3071 -0.3158
 5587TIP3    H216695   6.139   5.027   1.005 -0.3712  0.8094 -0.1640
 5588TIP3   OH216696   2.410   2.603   6.080 -0.2533 -0.0468  0.1011
 5588TIP3    H116697   2.441   2.643   5.999  0.4509  1.4886  1.0998
 5588TIP3    H216698   2.317   2.585   6.064 -0.2225  0.6508 -0.8813
 5589TIP3   OH216699   1.445   0.206   4.872 -0.0772 -0.1043 -0.3117
 5589TIP3    H116700   1.478   0.119   4.849  3.9099  1.2800 -0.2633
 5589TIP3    H216701   1.404   0.195   4.958 -0.0926 -2.0068 -0.5403
 5590TIP3   OH216702   0.846   0.810   6.083 -0.3667 -0.8636 -0.5944
 5590TIP3    H116703   0.787   0.868   6.035 -0.4225  1.4724  2.1722
 5590TIP3    H216704   0.926   0.808   6.030  0.3531  3.3661  0.1270
 5591TIP3   OH216705   0.228   2.982   4.356  0.6037  0.0465  0.1674
 5591TIP3    H116706   0.213   2.989   4.450 -0.3278  1.4861 -0.0777
 5591TIP3    H216707   0.237   3.072   4.326 -0.2421 -0.3447 -1.3114
 5592TIP3   OH216708   3.389   0.493   6.361 -0.3476  0.2595  0.3710
 5592TIP3    H116709   3.442   0.417   6.338 -1.6724 -0.9726  1.2715
 5592TIP3    H216710   3.334   0.508   6.284  0.1178  0.4976  0.0814
 5593TIP3   OH216711   8.449   1.641   6.167 -0.1740  0.2619  0.6608
 5593TIP3    H116712   8.485   1.568   6.217 -0.2142 -0.8404 -0.9093
 5593TIP3    H216713   8.356   1.620   6.159 -0.1398  0.3707 -0.0002
 5594TIP3   OH216714   3.203   2.811   4.774  0.5540 -0.0758  0.1019
 5594TIP3    H116715   3.297   2.798   4.782  0.4985  0.0369  0.9956
 5594TIP3    H216716   3.187   2.899   4.809  0.0140 -0.4280  0.7674
 5595TIP3   OH216717   2.600   0.326   3.748  0.3229 -0.0273 -0.0900
 5595TIP3    H116718   2.662   0.271   3.701 -0.6684 -1.6142  0.4352
 5595TIP3    H216719   2.540   0.358   3.681 -0.1485 -1.0116 -0.1382
 5596TIP3   OH216720   4.463   1.681   6.597  0.5595  0.1125  0.0355
 5596TIP3    H116721   4.420   1.687   6.512 -1.4697  1.0975  1.0881
 5596TIP3    H216722   4.466   1.588   6.617 -0.0013 -0.0418 -0.5967
 5597TIP3   OH216723   4.350   7.219   0.923  0.0005 -0.4966 -0.3883
 5597TIP3    H116724   4.299   7.156   0.871  0.9856  0.7289 -2.9031
 5597TIP3    H216725   4.414   7.165   0.970 -0.9131 -1.6343 -0.4435
 5598TIP3   OH216726   5.778   7.744   3.870 -0.0770 -0.0676 -0.1184
 5598TIP3    H116727   5.847   7.807   3.851 -0.1822 -0.1880 -0.9245
 5598TIP3    H216728   5.798   7.669   3.814 -0.8756 -0.0923 -0.3778
 5599TIP3   OH216729   3.277   1.926   5.922 -0.5374  0.0118  0.2710
 5599TIP3    H116730   3.364   1.912   5.885 -0.2312  0.9930  0.5912
 5599TIP3    H216731   3.265   2.021   5.920 -1.4841 -0.0970  0.4920
 5600TIP3   OH216732   3.965   0.082   4.863 -0.2868 -0.3386 -0.2399
 5600TIP3    H116733   3.952   0.158   4.919  0.4888  1.1526 -2.0444
 5600TIP3    H216734   3.876   0.052   4.843 -0.6389  0.8391 -0.4934
 5601TIP3   OH216735   1.735   3.416   6.463 -0.0834 -0.1545 -0.1276
 5601TIP3    H116736   1.793   3.366   6.521  2.3627 -0.9552 -3.1079
 5601TIP3    H216737   1.751   3.507   6.486  0.6427 -0.4714  0.6482
 5602TIP3   OH216738   2.822   2.965   6.283  0.2329  0.1499 -0.0503
 5602TIP3    H116739   2.912   2.942   6.260  0.3757  0.1114  0.5364
 5602TIP3    H216740   2.788   2.886   6.326 -0.7212 -0.5615 -2.0057
 5603TIP3   OH216741   6.659   7.651   2.715 -0.1228  0.2009  0.1450
 5603TIP3    H116742   6.600   7.603   2.658 -0.1287 -0.0170  0.3343
 5603TIP3    H216743   6.683   7.729   2.665  1.4730 -0.9767 -0.9695
 5604TIP3   OH216744   3.466   1.007   5.189  0.3653 -0.1646  0.3169
 5604TIP3    H116745   3.452   0.991   5.096 -2.0942  1.6398  0.3344
 5604TIP3    H216746   3.487   1.100   5.195  1.9409 -0.5786  1.4335
 5605TIP3   OH216747   1.160   0.836   5.383  0.1115 -0.0225 -0.0919
 5605TIP3    H116748   1.161   0.811   5.475 -2.4055 -0.0275 -0.0272
 5605TIP3    H216749   1.075   0.806   5.351 -0.1606  2.3682 -1.7303
 5606TIP3   OH216750   1.940   3.438   5.756  0.7747 -0.2351 -0.0170
 5606TIP3    H116751   2.035   3.449   5.747  0.6808 -1.4854 -2.8515
 5606TIP3    H216752   1.903   3.500   5.694 -0.3120  0.3682  1.2026
 5607TIP3   OH216753   5.657   7.534   4.467 -0.4432 -0.2655  0.5453
 5607TIP3    H116754   5.679   7.627   4.467 -0.1773 -0.3273  0.7479
 5607TIP3    H216755   5.740   7.490   4.485 -0.0366 -0.6616 -2.0655
 5608TIP3   OH216756   2.892   2.782   6.472  0.0335 -0.4244 -0.2413
 5608TIP3    H116757   2.984   2.761   6.455 -0.0862 -2.1258  1.0935
 5608TIP3    H216758   2.896   2.852   6.539  0.3618 -2.1302  1.5669
 5609TIP3   OH216759   2.259   0.929   6.187 -0.1558  0.8840 -0.3901
 5609TIP3    H116760   2.250   0.920   6.092 -0.5297  0.4553 -0.3135
 5609TIP3    H216761   2.314   1.007   6.198  3.3127 -1.3832 -1.0555
 5610TIP3   OH216762   3.292   0.597   6.594 -0.3641  0.0775 -0.1276
 5610TIP3    H116763   3.341   0.549   6.527  0.8097  0.4424  0.4483
 5610TIP3    H216764   3.300   0.541   6.672 -0.9957  0.0697 -0.0682
 5611TIP3   OH216765   2.186   1.422   5.086 -0.1273 -0.1918  0.0487
 5611TIP3    H116766   2.185   1.430   5.181  1.6786  0.1813  0.0495
 5611TIP3    H216767   2.118   1.483   5.055  1.0260  1.5828  0.9709
 5612TIP3   OH216768   3.484   7.265   0.234 -0.6971  0.3491  0.6550
 5612TIP3    H116769   3.476   7.249   0.328 -0.3334 -0.3555  0.5651
 5612TIP3    H216770   3.578   7.275   0.219 -0.7133 -0.0889  0.2715
 5613TIP3   OH216771   3.429   1.942   5.526  0.0520  0.7103  0.1385
 5613TIP3    H116772   3.440   1.851   5.497 -0.5833  1.1744 -1.5803
 5613TIP3    H216773   3.517   1.971   5.547  0.3015 -0.1878  0.3744
 5614TIP3   OH216774   4.324   1.761   5.427 -0.0314  0.1431 -0.8834
 5614TIP3    H116775   4.298   1.789   5.515  0.1282  0.3174 -0.8917
 5614TIP3    H216776   4.241   1.754   5.379 -0.0404  1.0393 -1.0078
 5615TIP3   OH216777   2.873   0.242   3.201 -0.4548 -0.3252 -0.1324
 5615TIP3    H116778   2.947   0.293   3.166 -1.4483 -0.1573 -2.0686
 5615TIP3    H216779   2.808   0.244   3.131 -0.9725 -3.3095  0.2288
 5616TIP3   OH216780   4.035   0.644   5.132 -0.1248  0.3584  0.1313
 5616TIP3    H116781   4.022   0.739   5.131 -0.7571  0.2679 -0.3342
 5616TIP3    H216782   3.947   0.608   5.138  0.1793 -0.1884  1.4216
 5617TIP3   OH216783   2.024   1.886   6.760 -0.1562 -0.4821 -0.2219
 5617TIP3    H116784   1.970   1.806   6.763  0.3159 -0.7283  2.4417
 5617TIP3    H216785   1.984   1.944   6.825 -0.4471  1.4557 -2.0841
 5618TIP3   OH216786   2.345   1.203   6.207 -0.0852  0.0729  0.0370
 5618TIP3    H116787   2.280   1.268   6.181 -0.3848 -0.4374 -0.4973
 5618TIP3    H216788   2.416   1.254   6.246 -1.7488  0.5097  2.6638
 5619TIP3   OH216789   1.562   7.527   5.933  0.3602  0.0201 -0.1925
 5619TIP3    H116790   1.589   7.593   5.997  0.2149 -0.1048  0.0006
 5619TIP3    H216791   1.469   7.542   5.921  0.8244  1.5225 -2.1096
 5620TIP3   OH216792   0.998   1.421   5.521  0.2840  0.4115  0.0775
 5620TIP3    H116793   1.061   1.493   5.514 -0.7669  1.3304 -0.2595
 5620TIP3    H216794   0.994   1.384   5.433 -2.2618  2.6723 -0.8387
 5621TIP3   OH216795   1.566   1.492   5.965 -0.6109  0.1630  0.2620
 5621TIP3    H116796   1.514   1.415   5.941  0.8491 -0.8862  0.4238
 5621TIP3    H216797   1.626   1.461   6.033 -0.1505  1.5067  0.4943
 5622TIP3   OH216798   8.421   4.036   6.693  0.4170  0.2102  0.2932
 5622TIP3    H116799   8.335   4.076   6.710  0.5814  1.9708 -2.7783
 5622TIP3    H216800   8.465   4.098   6.635  3.1765 -1.4463  0.5561
 5623TIP3   OH216801   1.106   1.070   6.443 -0.5377 -0.8100  0.1308
 5623TIP3    H116802   1.040   1.018   6.396  0.1341 -0.7817 -0.8681
 5623TIP3    H216803   1.106   1.154   6.398 -0.0499 -0.6986  0.3367
 5624TIP3   OH216804   2.976   1.443   6.609 -0.3200 -0.3643  0.2679
 5624TIP3    H116805   3.030   1.521   6.599 -0.3759 -0.3489  0.0867
 5624TIP3    H216806   2.998   1.388   6.534 -2.2719  0.6721 -1.1082
 5625TIP3   OH216807   2.109   2.278   6.292 -0.4306  0.2197 -0.1962
 5625TIP3    H116808   2.135   2.287   6.201 -1.5214 -1.8337 -0.7547
 5625TIP3    H216809   2.075   2.364   6.316  1.0545  1.1368 -1.3184
 5626TIP3   OH216810   1.424   2.044   5.583 -0.5081  0.1283  0.1224
 5626TIP3    H116811   1.358   2.032   5.515  0.0653  1.2801 -0.6662
 5626TIP3    H216812   1.507   2.030   5.539 -0.1502  0.3607  0.7100
 5627TIP3   OH216813   5.382   3.928   0.519  0.1741 -0.0569  0.1590
 5627TIP3    H116814   5.338   3.875   0.585 -0.7080 -1.2765 -1.3752
 5627TIP3    H216815   5.355   4.018   0.539  0.1356 -0.3718  1.6071
 5628TIP3   OH216816   0.530   1.697   5.889 -0.0850  0.1311  0.3958
 5628TIP3    H116817   0.512   1.604   5.902 -1.1012  0.3193  0.3508
 5628TIP3    H216818   0.516   1.736   5.975 -1.7097  0.5597 -0.0430
 5629TIP3   OH216819   0.458   2.179   3.342 -0.2387  0.1284  0.3665
 5629TIP3    H116820   0.453   2.173   3.438 -0.3221  1.6295  0.4568
 5629TIP3    H216821   0.378   2.223   3.316 -0.1386 -0.1281 -0.3977
 5630TIP3   OH216822   4.854   0.582   5.321 -0.2164 -0.1224 -0.2221
 5630TIP3    H116823   4.782   0.629   5.363 -0.2384  0.1873 -0.6011
 5630TIP3    H216824   4.813   0.536   5.248 -0.2821 -1.1332  0.4364
 5631TIP3   OH216825   0.278   3.772   4.926 -0.1859 -0.6623  0.2532
 5631TIP3    H116826   0.305   3.855   4.889  0.0737 -1.2404 -0.8746
 5631TIP3    H216827   0.190   3.789   4.960 -0.7558 -0.3131 -1.3415
 5632TIP3   OH216828   4.592   6.724   0.059  0.3347  0.5763  0.1950
 5632TIP3    H116829   4.608   6.817   0.040  1.0610  0.0975 -1.6726
 5632TIP3    H216830   4.648   6.704   0.134  1.7349  1.1550 -0.6803
 5633TIP3   OH216831   7.170   1.741   4.163 -0.0955  0.2587  0.5516
 5633TIP3    H116832   7.095   1.683   4.149  1.5811 -2.0346  0.8742
 5633TIP3    H216833   7.161   1.770   4.253 -2.3296  2.6058 -0.3473
 5634TIP3   OH216834   2.805   2.822   3.575  0.0786 -0.3720 -0.0483
 5634TIP3    H116835   2.728   2.796   3.625  0.3466 -0.6508  0.2232
 5634TIP3    H216836   2.810   2.758   3.503 -0.2851  0.0064 -0.4127
 5635TIP3   OH216837   8.253   1.129   3.445  0.1533  0.1974 -0.1119
 5635TIP3    H116838   8.262   1.225   3.449 -0.1875  0.2348 -0.1893
 5635TIP3    H216839   8.167   1.112   3.484  0.3162 -0.0984  0.1266
 5636TIP3   OH216840   1.890   2.621   4.397  0.5892 -0.6118  0.0631
 5636TIP3    H116841   1.902   2.697   4.453  1.1645 -1.2377  0.7956
 5636TIP3    H216842   1.967   2.621   4.340  0.1144 -0.1034 -0.5924
 5637TIP3   OH216843   2.752   2.415   5.917  0.2546 -0.2896 -0.1144
 5637TIP3    H116844   2.673   2.361   5.908  0.8530 -1.0413 -1.0082
 5637TIP3    H216845   2.739   2.463   5.999 -0.6314 -1.2439  0.3276
 5638TIP3   OH216846   4.031   2.775   6.575  0.2830  0.0725  0.3547
 5638TIP3    H116847   3.966   2.731   6.630 -0.7585  0.0933 -0.8556
 5638TIP3    H216848   4.064   2.846   6.630  0.7505 -1.1475  1.7067
 5639TIP3   OH216849   6.676   5.430   0.663 -0.0438  0.2848  0.3103
 5639TIP3    H116850   6.653   5.456   0.574 -1.2100  1.7408  1.0139
 5639TIP3    H216851   6.703   5.511   0.706  0.6133 -0.4210  1.2487
 5640TIP3   OH216852   4.024   1.848   5.897  0.1377 -0.8423  0.3486
 5640TIP3    H116853   3.936   1.853   5.934 -0.1845  0.3158 -0.5546
 5640TIP3    H216854   4.072   1.919   5.939  0.4734 -1.0775  0.3713
 5641TIP3   OH216855   4.295   0.859   5.912  0.1392 -0.2489 -0.3151
 5641TIP3    H116856   4.362   0.816   5.859 -0.6672  0.2486 -1.7408
 5641TIP3    H216857   4.291   0.806   5.992  2.5658 -0.0296  0.0064
 5642TIP3   OH216858   3.834   2.272   4.763 -0.0587  0.0526 -0.9807
 5642TIP3    H116859   3.761   2.309   4.714 -0.3261 -1.0822 -1.4580
 5642TIP3    H216860   3.886   2.225   4.698 -0.2646 -1.2374 -0.2407
 5643TIP3   OH216861   1.158   1.346   6.322 -0.0991  0.2015 -0.1123
 5643TIP3    H116862   1.087   1.408   6.304  0.3956  1.3043  1.6426
 5643TIP3    H216863   1.203   1.383   6.398  1.1437 -1.5270  0.0036
 5644TIP3   OH216864   2.558   1.397   6.291  0.0157  0.2275  0.0346
 5644TIP3    H116865   2.643   1.437   6.306 -0.9345  2.3069  0.0237
 5644TIP3    H216866   2.522   1.381   6.378 -0.3309  1.0122  0.0407
 5645TIP3   OH216867   3.194   1.617   5.497  0.2462 -0.5545  0.1211
 5645TIP3    H116868   3.136   1.541   5.490  2.8284 -2.6779  1.2759
 5645TIP3    H216869   3.176   1.653   5.584 -1.7812  0.9170 -0.8437
 5646TIP3   OH216870   5.879   5.693   0.612  0.4962 -0.3346  0.4015
 5646TIP3    H116871   5.928   5.635   0.671  0.2214 -0.4279  0.5402
 5646TIP3    H216872   5.850   5.636   0.541 -1.5498 -0.8257  1.5843
 5647TIP3   OH216873   2.404   0.442   5.237 -0.6396 -0.8628 -0.7067
 5647TIP3    H116874   2.323   0.490   5.217 -0.5109  0.5468  2.0054
 5647TIP3    H216875   2.467   0.510   5.262  0.6811 -2.1467 -0.4747
 5648TIP3   OH216876   2.510   0.575   4.852 -0.0920 -0.0313 -0.5118
 5648TIP3    H116877   2.517   0.480   4.859  1.1040 -0.0109 -1.2761
 5648TIP3    H216878   2.577   0.600   4.788  0.0566  1.3937  0.1699
 5649TIP3   OH216879   1.623   8.001   5.701  0.1138  0.3277 -0.2238
 5649TIP3    H116880   1.630   7.909   5.725 -0.3724 -0.0455 -1.4990
 5649TIP3    H216881   1.530   8.021   5.707  0.1588  0.6055 -0.4360
 5650TIP3   OH216882   1.546   6.809   5.774 -0.3432  0.7048  0.1314
 5650TIP3    H116883   1.548   6.806   5.679 -1.9616 -0.7985  0.1178
 5650TIP3    H216884   1.546   6.902   5.796  1.3841  1.0647 -1.2703
 5651TIP3   OH216885   3.558   1.486   3.760  0.0940 -0.4319  0.0005
 5651TIP3    H116886   3.619   1.435   3.706 -0.6085 -0.7334 -0.5269
 5651TIP3    H216887   3.505   1.534   3.696 -0.8436 -0.9028  0.4109
 5652TIP3   OH216888   3.380   6.144   6.352 -1.1279  0.2923 -0.6065
 5652TIP3    H116889   3.389   6.092   6.273  0.3308  0.9145 -0.8570
 5652TIP3    H216890   3.427   6.226   6.333  0.1418  0.0278  1.2669
 5653TIP3   OH216891   3.820   0.950   4.745 -0.7740 -0.0364  0.1552
 5653TIP3    H116892   3.755   0.909   4.689 -1.4079  0.9629  0.1602
 5653TIP3    H216893   3.854   1.023   4.694  0.0306 -0.2815  0.3253
 5654TIP3   OH216894   1.103   7.400   6.591  0.2679 -0.0831 -0.2621
 5654TIP3    H116895   1.050   7.337   6.639  1.0256 -2.6455 -2.7052
 5654TIP3    H216896   1.190   7.362   6.588  1.2953  2.1263  0.0825
 5655TIP3   OH216897   3.554   0.727   4.770  0.0226  0.1549  0.0037
 5655TIP3    H116898   3.621   0.670   4.731 -0.1962 -0.5462  0.6313
 5655TIP3    H216899   3.493   0.743   4.699  0.8790  0.8417 -0.5922
 5656TIP3   OH216900   3.902   3.722   4.464  0.7200 -0.3457  0.7725
 5656TIP3    H116901   3.810   3.748   4.465  0.5274 -0.9827  0.1042
 5656TIP3    H216902   3.949   3.798   4.498  0.0005  0.1952  0.5655
 5657TIP3   OH216903   2.906   1.908   6.886  0.4596  0.2212 -0.1177
 5657TIP3    H116904   2.930   1.939   6.973  0.0134 -1.1698  0.5281
 5657TIP3    H216905   2.875   1.818   6.901  0.8197 -0.1913 -1.7705
 5658TIP3   OH216906   4.239   1.564   5.173 -0.0957  0.6872  0.4574
 5658TIP3    H116907   4.175   1.506   5.216 -0.2627  0.0642 -0.6185
 5658TIP3    H216908   4.190   1.645   5.157 -0.6319  0.1869 -0.4234
 5659TIP3   OH216909   2.714   0.609   5.551 -0.0328 -0.2249 -0.8818
 5659TIP3    H116910   2.786   0.555   5.584  2.0144  1.5352 -2.3175
 5659TIP3    H216911   2.660   0.626   5.628  0.5537 -2.3667  0.0454
 5660TIP3   OH216912   5.194   0.634   5.035  0.0077 -0.1158 -0.1729
 5660TIP3    H116913   5.261   0.659   5.098  0.4408  0.0833 -0.7037
 5660TIP3    H216914   5.120   0.690   5.054  0.6224  0.8905 -0.7117
 5661TIP3   OH216915   2.295   6.253   5.989  0.1462  0.7120 -0.0828
 5661TIP3    H116916   2.287   6.227   5.898 -2.5326 -0.9658  0.5870
 5661TIP3    H216917   2.338   6.179   6.032  0.1110  0.8872  0.2587
 5662TIP3   OH216918   2.211   6.772   6.360  0.0594  0.4496 -0.3501
 5662TIP3    H116919   2.225   6.865   6.380  1.1680  0.8928 -2.9444
 5662TIP3    H216920   2.117   6.766   6.339  0.2590  1.3101 -1.5785
 5663TIP3   OH216921   4.538   1.858   6.210 -0.6553  0.2605 -0.1073
 5663TIP3    H116922   4.495   1.795   6.268  0.6981 -1.6438 -1.1425
 5663TIP3    H216923   4.501   1.840   6.123  0.5958  0.0922 -0.6132
 5664TIP3   OH216924   0.526   4.901   1.325  0.3573  0.0036 -0.8597
 5664TIP3    H116925   0.522   4.853   1.242  0.4661 -1.6037  0.0575
 5664TIP3    H216926   0.515   4.834   1.392 -1.6742  1.5414  0.3959
 5665TIP3   OH216927   0.813   6.410   5.113 -0.2122  0.6492 -0.3272
 5665TIP3    H116928   0.832   6.396   5.205  0.5103 -0.1091 -0.5808
 5665TIP3    H216929   0.724   6.445   5.112 -0.4066  0.2082  0.6273
 5666TIP3   OH216930   3.563   1.673   4.223  0.5485 -0.6367  0.3174
 5666TIP3    H116931   3.610   1.717   4.293  1.4429 -1.4828  0.2578
 5666TIP3    H216932   3.611   1.694   4.144 -0.7778  0.7719 -0.1342
 5667TIP3   OH216933   4.098   2.731   5.035  0.0683  0.2227  0.2688
 5667TIP3    H116934   4.095   2.637   5.049 -0.9397 -0.0119 -1.4549
 5667TIP3    H216935   4.187   2.756   5.062  0.3482 -1.1999  0.7219
 5668TIP3   OH216936   1.407   1.226   4.776  0.1717  0.2231 -0.1982
 5668TIP3    H116937   1.406   1.249   4.869  2.7037 -0.4962  0.0518
 5668TIP3    H216938   1.371   1.138   4.772  0.5211  0.0609  0.1769
 5669TIP3   OH216939   2.224   1.709   5.237 -0.0765  0.3786  0.3239
 5669TIP3    H116940   2.310   1.696   5.196 -0.1559 -0.4291  0.3971
 5669TIP3    H216941   2.224   1.649   5.311 -0.5832  0.6172  0.5198
 5670TIP3   OH216942   0.707   7.562   6.898  0.8438 -0.4298  0.6359
 5670TIP3    H116943   0.612   7.553   6.896  0.7272  1.0221 -1.6417
 5670TIP3    H216944   0.739   7.472   6.893 -0.4059 -0.7811 -1.7885
 5671TIP3   OH216945   2.082   1.280   6.433 -0.3673  0.3622 -0.2864
 5671TIP3    H116946   2.126   1.268   6.349  0.5329  1.6196 -0.0230
 5671TIP3    H216947   2.034   1.362   6.423 -2.2630 -0.7415 -0.3872
 5672TIP3   OH216948   0.635   7.579   5.169  0.1672  0.2926 -0.3742
 5672TIP3    H116949   0.645   7.498   5.218 -0.7756  0.3989 -0.0024
 5672TIP3    H216950   0.595   7.553   5.086 -4.0881  0.8332  1.3741
 5673TIP3   OH216951   3.073   0.319   5.147  0.2163 -0.3864 -0.0303
 5673TIP3    H116952   3.122   0.382   5.094  0.4779  0.1439  0.8347
 5673TIP3    H216953   3.100   0.233   5.113  0.5630 -0.0584 -0.5877
 5674TIP3   OH216954   3.526   1.427   5.237 -0.5423 -0.0385 -0.1177
 5674TIP3    H116955   3.580   1.353   5.210  0.2792  0.6668 -0.4483
 5674TIP3    H216956   3.462   1.390   5.297  1.1725 -0.6675  1.3656
 5675TIP3   OH216957   0.836   0.622   0.534 -0.3997 -0.0702  0.3503
 5675TIP3    H116958   0.868   0.537   0.504  0.0379 -0.2933  1.4110
 5675TIP3    H216959   0.911   0.661   0.580 -1.0578  0.2532  1.1498
 5676TIP3   OH216960   0.315   7.686   4.470  0.7560 -0.1372 -0.2197
 5676TIP3    H116961   0.345   7.767   4.511 -0.8355  0.2154  0.2624
 5676TIP3    H216962   0.334   7.618   4.534 -0.8295  0.2865  0.7323
 5677TIP3   OH216963   2.367   2.547   3.546 -0.6942  0.5282  0.0458
 5677TIP3    H116964   2.318   2.512   3.621 -0.5580 -1.1440 -0.6290
 5677TIP3    H216965   2.311   2.531   3.471  0.2675 -0.1493 -0.5433
 5678TIP3   OH216966   2.409   7.054   5.055  0.6588  0.2313  0.5967
 5678TIP3    H116967   2.416   7.116   5.127  0.5264  0.4509  0.4195
 5678TIP3    H216968   2.323   7.071   5.016  0.3031 -0.5604  1.0090
 5679TIP3   OH216969   4.248   1.368   5.605 -0.4100  0.3604 -0.5573
 5679TIP3    H116970   4.311   1.439   5.611  0.4120 -0.3708 -0.4438
 5679TIP3    H216971   4.230   1.359   5.512 -0.3102  0.5385 -0.5933
 5680TIP3   OH216972   3.521   0.753   5.319  0.2660  0.4079 -0.5906
 5680TIP3    H116973   3.539   0.840   5.283 -0.2199  0.4335 -0.7758
 5680TIP3    H216974   3.455   0.716   5.260 -0.8450  0.6168  0.4948
 5681TIP3   OH216975   1.123   1.798   4.932 -0.3901  0.7727 -0.1602
 5681TIP3    H116976   1.195   1.776   4.872  1.9692  1.2743  2.3787
 5681TIP3    H216977   1.115   1.893   4.925  1.2842  1.0925  1.7547
 5682TIP3   OH216978   2.696   0.722   6.172 -0.4417  0.6698 -0.3057
 5682TIP3    H116979   2.630   0.765   6.118 -0.1573  0.4959 -0.7928
 5682TIP3    H216980   2.760   0.791   6.191 -1.6775  1.3218  1.6893
 5683TIP3   OH216981   5.333   0.327   4.606  0.5470 -0.1134 -0.5493
 5683TIP3    H116982   5.352   0.361   4.693  0.5099 -0.2441 -0.4917
 5683TIP3    H216983   5.411   0.277   4.581  1.2844  1.3720 -1.3074
 5684TIP3   OH216984   3.394   1.241   4.777  0.2292  0.5859  0.3828
 5684TIP3    H116985   3.303   1.270   4.783 -0.2666 -0.6963 -0.7143
 5684TIP3    H216986   3.430   1.291   4.704  0.2558  0.6974  0.4720
 5685TIP3   OH216987   6.617   5.122   0.376  0.1323  0.1545  0.2124
 5685TIP3    H116988   6.527   5.147   0.400 -0.3061 -1.4649  0.2986
 5685TIP3    H216989   6.638   5.050   0.435  0.8538 -0.6154 -0.9706
 5686TIP3   OH216990   3.424   0.543   4.462  0.4356  0.2643 -0.2118
 5686TIP3    H116991   3.505   0.585   4.432  1.3719 -2.0731 -1.0726
 5686TIP3    H216992   3.378   0.520   4.381 -0.3370  0.1661  0.2547
 5687TIP3   OH216993   1.427   6.312   3.078  0.3187  0.2443 -0.4295
 5687TIP3    H116994   1.345   6.303   3.029 -0.3484 -1.8590  0.9852
 5687TIP3    H216995   1.401   6.354   3.160  0.7978  0.2951 -0.3019
 5688TIP3   OH216996   3.740  -0.026   3.885  0.0237  1.1281 -0.5293
 5688TIP3    H116997   3.811   0.036   3.869  0.6511  0.4307 -0.4823
 5688TIP3    H216998   3.660   0.026   3.878  0.5208  1.8285 -1.0270
 5689TIP3   OH216999   0.977   7.035   6.144  0.2951 -0.0426 -0.4329
 5689TIP3    H117000   0.989   7.129   6.136  1.4017 -0.1479 -0.0912
 5689TIP3    H217001   0.884   7.020   6.123 -0.2367  1.2718  0.8984
 5690TIP3   OH217002   3.085   7.062   3.158  0.1313 -0.1229  0.0598
 5690TIP3    H117003   3.173   7.085   3.128  0.0803  0.3947  0.2998
 5690TIP3    H217004   3.044   7.146   3.180  0.2320 -0.4886  1.7386
 5691TIP3   OH217005   3.017   0.904   6.661  0.3767  0.0543 -0.5704
 5691TIP3    H117006   2.979   0.946   6.584 -3.6862 -1.1968  0.6367
 5691TIP3    H217007   3.018   0.811   6.639  0.7087 -0.1446  0.2889
 5692TIP3   OH217008   0.779   6.716   5.259 -0.0838  0.7998  0.4089
 5692TIP3    H117009   0.724   6.711   5.337  1.6767 -2.5423  1.5093
 5692TIP3    H217010   0.724   6.680   5.189 -0.3904  0.3637  0.8699
 5693TIP3   OH217011   4.250   0.696   6.120 -0.0035 -0.3545  0.4424
 5693TIP3    H117012   4.186   0.713   6.189 -0.0307 -0.2944  0.4038
 5693TIP3    H217013   4.230   0.608   6.089  1.1911 -1.1138  1.7649
 5694TIP3   OH217014   1.912   6.654   5.482  0.3046  0.6571 -0.4300
 5694TIP3    H117015   1.843   6.687   5.425  0.7524  0.9894 -0.7884
 5694TIP3    H217016   1.876   6.662   5.571 -0.1892  0.6426 -0.6310
 5695TIP3   OH217017   8.405   6.916   3.451  0.3945 -0.1687 -0.3428
 5695TIP3    H117018   8.392   6.824   3.431  2.8590 -0.4834 -0.6703
 5695TIP3    H217019   8.500   6.928   3.450  0.1733  2.1171  0.8347
 5696TIP3   OH217020   3.678   1.056   3.903 -0.2458  0.9089  0.4759
 5696TIP3    H117021   3.694   0.988   3.969 -1.2659  1.1668  0.9954
 5696TIP3    H217022   3.765   1.078   3.870  0.0840 -0.8163  0.1287
 5697TIP3   OH217023   6.144   5.611   0.865  0.0454 -0.7520 -0.1192
 5697TIP3    H117024   6.109   5.546   0.805  0.0656  0.0571 -1.0106
 5697TIP3    H217025   6.235   5.621   0.839  0.0868 -0.4942  0.1237
 5698TIP3   OH217026   2.629   0.591   5.291 -0.1419  0.2590  0.1364
 5698TIP3    H117027   2.666   0.624   5.373 -1.3767 -2.0713  1.6704
 5698TIP3    H217028   2.690   0.522   5.264  0.6951  1.5433 -1.3755
 5699TIP3   OH217029   1.151   1.488   3.358  0.3791 -0.0974  0.3251
 5699TIP3    H117030   1.178   1.398   3.340  1.8867  0.7419 -1.7438
 5699TIP3    H217031   1.232   1.532   3.384 -0.1284  0.9848  0.0580
 5700TIP3   OH217032   1.530   2.193   5.930 -0.0181  0.1851  0.0703
 5700TIP3    H117033   1.603   2.188   5.869 -0.8881  1.4714 -1.0937
 5700TIP3    H217034   1.479   2.114   5.912  0.7811 -0.4461  0.5213
 5701TIP3   OH217035   4.077   1.157   5.623 -0.1538  0.3878  0.2962
 5701TIP3    H117036   4.133   1.235   5.622  0.3537  0.0515  1.7168
 5701TIP3    H217037   4.137   1.084   5.636 -1.0391  0.1640  3.5542
 5702TIP3   OH217038   5.139   1.579   6.130 -0.0080  0.5923  0.4526
 5702TIP3    H117039   5.138   1.485   6.113  0.1753  0.6339  0.2132
 5702TIP3    H217040   5.205   1.614   6.071  1.7551  0.5213  2.3488
 5703TIP3   OH217041   2.667   0.672   6.457 -0.1956  0.0510  0.0828
 5703TIP3    H117042   2.630   0.757   6.434  0.6801  0.2060 -0.7828
 5703TIP3    H217043   2.719   0.647   6.381 -0.1672 -1.1046  0.4663
 5704TIP3   OH217044   7.748   5.280   0.344 -0.1203  1.1927  0.0431
 5704TIP3    H117045   7.763   5.271   0.250 -0.4582 -0.2187  0.1219
 5704TIP3    H217046   7.672   5.338   0.351 -2.2893 -1.4960 -0.6622
 5705TIP3   OH217047   3.445   0.674   5.866  0.1654  0.2955  0.1620
 5705TIP3    H117048   3.452   0.666   5.771 -0.5212  1.4295  0.0010
 5705TIP3    H217049   3.367   0.727   5.880  0.8951  1.0882  1.3336
 5706TIP3   OH217050   4.021   4.273   1.345 -0.4092  0.2661 -0.5596
 5706TIP3    H117051   4.050   4.344   1.402  1.9126 -1.3050  0.3105
 5706TIP3    H217052   4.097   4.215   1.338 -1.3882 -0.7702 -3.4168
 5707TIP3   OH217053   0.898   7.915   4.826 -0.0519 -0.7382  0.3094
 5707TIP3    H117054   0.832   7.889   4.891  0.7081 -0.0130  1.3983
 5707TIP3    H217055   0.959   7.841   4.823  0.2753 -0.5001  0.9293
 5708TIP3   OH217056   4.190   0.126   4.266 -0.5856 -0.5261  0.1488
 5708TIP3    H117057   4.239   0.120   4.348 -1.4726 -1.7006  0.6069
 5708TIP3    H217058   4.111   0.073   4.281 -2.4019  1.9466 -0.2557
 5709TIP3   OH217059   3.430   1.239   5.402 -0.4852  0.6046  0.1848
 5709TIP3    H117060   3.504   1.181   5.419 -1.2163 -0.3773  0.0468
 5709TIP3    H217061   3.362   1.182   5.367 -1.2781  1.5180  0.2052
 5710TIP3   OH217062   1.180   6.866   6.534  0.6767 -0.3807 -0.2003
 5710TIP3    H117063   1.124   6.901   6.604 -1.9517 -1.5777 -1.6552
 5710TIP3    H217064   1.183   6.936   6.469  0.1964 -0.6292 -0.4902
 5711TIP3   OH217065   5.709   0.856   4.044 -0.1852  0.6448 -0.0170
 5711TIP3    H117066   5.748   0.941   4.023 -1.1431  0.8934 -0.8322
 5711TIP3    H217067   5.775   0.792   4.018  0.8522  1.1421  1.2795
 5712TIP3   OH217068   1.333   6.565   4.017  0.1507  0.0726 -0.0477
 5712TIP3    H117069   1.418   6.526   3.999 -0.6696 -1.3592 -0.8980
 5712TIP3    H217070   1.330   6.575   4.112  1.0633 -0.3426  0.0239
 5713TIP3   OH217071   4.261   1.460   6.186  0.1770  0.0170  0.5534
 5713TIP3    H117072   4.324   1.492   6.120 -0.6422 -0.1028 -0.3015
 5713TIP3    H217073   4.176   1.490   6.154 -0.2550 -0.2288  1.4611
 5714TIP3   OH217074   0.889   7.832   4.546  0.3461 -0.0528  0.0271
 5714TIP3    H117075   0.961   7.889   4.520  1.2155 -0.4638  1.5468
 5714TIP3    H217076   0.868   7.858   4.635  1.1078 -2.4597  0.9466
 5715TIP3   OH217077   4.190   0.861   6.531 -0.5241 -0.2078 -0.0708
 5715TIP3    H117078   4.201   0.847   6.437 -0.7277  0.0991 -0.1424
 5715TIP3    H217079   4.277   0.884   6.562 -0.2739 -1.1973 -0.0234
 5716TIP3   OH217080   2.407   1.413   4.313  0.3555 -0.3198  0.3978
 5716TIP3    H117081   2.490   1.429   4.268  0.8256  1.5666  1.8911
 5716TIP3    H217082   2.364   1.498   4.317  0.3008 -0.4295  3.3976
 5717TIP3   OH217083   0.229   6.349   4.426 -0.2312 -0.1096  0.4398
 5717TIP3    H117084   0.265   6.401   4.355  1.7290  0.2111  1.5991
 5717TIP3    H217085   0.158   6.299   4.387  0.6372  0.2586 -1.6622
 5718TIP3   OH217086   8.526   3.811   5.056 -0.0258  0.2424 -0.3015
 5718TIP3    H117087   8.483   3.894   5.033 -0.8323 -0.2660 -0.6530
 5718TIP3    H217088   8.481   3.745   5.002 -0.7257 -0.7088  1.3975
 5719TIP3   OH217089   0.966   1.377   5.236 -0.7508 -0.0674  0.2653
 5719TIP3    H117090   1.006   1.305   5.187  3.7444  2.0048  0.6023
 5719TIP3    H217091   0.943   1.441   5.169  1.8486  1.1158  0.4191
 5720TIP3   OH217092   4.028   7.088   0.778  0.3299  0.0822 -0.1566
 5720TIP3    H117093   4.079   7.149   0.725  1.4199  0.2964  1.1135
 5720TIP3    H217094   4.079   7.007   0.777 -0.4310 -0.3928 -0.7260
 5721TIP3   OH217095   3.968   0.613   3.968  0.7057 -0.3229 -0.5742
 5721TIP3    H117096   3.881   0.573   3.969  1.0733 -1.1502 -1.0091
 5721TIP3    H217097   3.969   0.667   3.889  0.0317  0.9735  0.2781
 5722TIP3   OH217098   5.682   4.825   0.042 -0.1937  0.1802  0.4532
 5722TIP3    H117099   5.672   4.768  -0.033 -4.4777  1.9490 -0.4730
 5722TIP3    H217100   5.750   4.784   0.095 -1.6409 -4.5941 -1.1758
 5723TIP3   OH217101   6.494   1.273   5.707 -0.1329 -0.3366 -0.4795
 5723TIP3    H117102   6.482   1.291   5.614 -0.3548 -0.9595 -0.5730
 5723TIP3    H217103   6.417   1.221   5.731 -0.9075  1.2034  0.4241
 5724TIP3   OH217104   1.297   3.555   6.828  0.3004  0.9089  0.2208
 5724TIP3    H117105   1.357   3.500   6.778 -0.5296  1.0451 -0.9435
 5724TIP3    H217106   1.353   3.603   6.889  1.2479  0.2392 -0.1187
 5725TIP3   OH217107   1.471   1.759   6.037  0.2159  0.4468  0.1522
 5725TIP3    H117108   1.418   1.683   6.059 -0.6265  1.4861  1.8787
 5725TIP3    H217109   1.483   1.754   5.943 -0.0312 -1.6801  0.2050
 5726TIP3   OH217110   3.007   1.297   4.132  0.1296 -1.1471 -0.8360
 5726TIP3    H117111   3.045   1.378   4.167 -0.3203 -1.3087  0.0347
 5726TIP3    H217112   3.048   1.227   4.182 -1.0488 -1.3408 -0.1245
 5727TIP3   OH217113   0.377   7.858   4.822 -0.2099 -0.3976 -0.1722
 5727TIP3    H117114   0.299   7.822   4.779 -1.0241  1.3087 -0.1588
 5727TIP3    H217115   0.451   7.815   4.779 -1.0405  0.5628 -2.6012
 5728TIP3   OH217116   4.848   0.384   4.993  0.5166 -0.1801  0.0540
 5728TIP3    H117117   4.940   0.389   5.018  0.6579  1.3768 -0.6902
 5728TIP3    H217118   4.846   0.318   4.924  1.3849  0.9994 -1.1431
 5729TIP3   OH217119   2.224   0.953   5.887  0.2477 -0.6925  0.3215
 5729TIP3    H117120   2.212   1.048   5.878  1.1448 -0.4794  1.2757
 5729TIP3    H217121   2.137   0.920   5.910 -0.9523 -0.6085 -3.7069
 5730TIP3   OH217122   1.953   1.219   5.498 -0.2605  0.2896  0.3133
 5730TIP3    H117123   1.969   1.312   5.514  1.7518 -0.1887  1.2631
 5730TIP3    H217124   1.980   1.206   5.407 -0.9712  0.7252  0.0373
 5731TIP3   OH217125   1.379   6.290   6.753 -0.2507  0.2311 -0.4695
 5731TIP3    H117126   1.362   6.257   6.665  1.0382  1.2789 -1.1143
 5731TIP3    H217127   1.302   6.343   6.774 -1.1302 -1.0274 -0.4603
 5732TIP3   OH217128   2.263   1.013   4.066 -0.2082  0.2543  0.3992
 5732TIP3    H117129   2.230   1.057   4.144 -0.6052  0.2208  0.2505
 5732TIP3    H217130   2.233   0.922   4.076 -0.8252  0.4000 -0.1146
 5733TIP3   OH217131   2.070   7.252   4.765  0.1766 -0.1277 -0.9287
 5733TIP3    H117132   1.982   7.288   4.776 -0.4831 -1.9200 -0.1618
 5733TIP3    H217133   2.066   7.205   4.682  0.9370  1.2465 -1.7592
 5734TIP3   OH217134   5.431   0.556   6.066 -0.2755 -0.4955 -0.6357
 5734TIP3    H117135   5.345   0.547   6.109  0.0471 -0.3356  0.0580
 5734TIP3    H217136   5.466   0.468   6.063  0.5277 -0.2653  1.1916
 5735TIP3   OH217137   7.856   0.076   4.923 -0.0677  0.4381  0.2500
 5735TIP3    H117138   7.939   0.046   4.886  0.1304  1.2970 -0.0065
 5735TIP3    H217139   7.789   0.027   4.875  0.0369  3.7027 -3.3949
 5736TIP3   OH217140   5.073   6.005   0.090  0.4224  0.2879  0.2937
 5736TIP3    H117141   5.043   5.925   0.133  1.4235 -0.8552 -1.1146
 5736TIP3    H217142   5.121   6.052   0.158 -1.5528  0.4936  1.5927
 5737TIP3   OH217143   5.241   3.149   5.804 -0.0076 -0.4596 -0.5049
 5737TIP3    H117144   5.309   3.202   5.846 -1.6855  1.4751 -0.1904
 5737TIP3    H217145   5.285   3.109   5.729  2.0347 -0.9644  0.9223
 5738TIP3   OH217146   3.257   0.619   4.201  0.1656 -0.1993 -0.2638
 5738TIP3    H117147   3.328   0.683   4.201  0.1412 -0.1599  1.5569
 5738TIP3    H217148   3.267   0.572   4.118  1.9840  0.1579 -0.2594
 5739TIP3   OH217149   6.897   5.902   0.708  0.8140 -0.6252 -0.8647
 5739TIP3    H117150   6.958   5.974   0.723  0.6146 -0.6627  0.1297
 5739TIP3    H217151   6.815   5.945   0.683  0.7890 -0.5176 -0.5987
 5740TIP3   OH217152   0.532   5.468   3.890 -0.3880  0.0443 -0.3414
 5740TIP3    H117153   0.542   5.519   3.970  0.9356 -1.7784  0.6953
 5740TIP3    H217154   0.566   5.381   3.912  0.1123 -0.4670 -2.9186
 5741TIP3   OH217155   2.340   0.959   6.651 -0.3737 -0.6166  0.4130
 5741TIP3    H117156   2.384   0.919   6.726  0.9412 -1.2725 -0.6808
 5741TIP3    H217157   2.250   0.926   6.656  0.0765 -1.8134  0.8748
 5742TIP3   OH217158   2.357   1.487   5.678  0.2962 -0.5573 -0.1660
 5742TIP3    H117159   2.402   1.460   5.598  1.7381 -0.7395  0.6922
 5742TIP3    H217160   2.338   1.406   5.724 -0.6563 -0.4611 -0.3837
 5743TIP3   OH217161   4.137   1.881   4.986 -0.1687 -0.4751 -0.1497
 5743TIP3    H117162   4.091   1.822   4.926  1.2426 -0.8250 -0.9088
 5743TIP3    H217163   4.080   1.958   4.992 -0.5331 -0.6079 -1.6267
 5744TIP3   OH217164   1.405   6.871   6.945 -0.2420 -0.0307  0.1463
 5744TIP3    H117165   1.388   6.875   6.850 -0.3657 -0.4072  0.1528
 5744TIP3    H217166   1.500   6.865   6.952 -0.2082  0.3678  0.0575
 5745TIP3   OH217167   5.347   4.359   2.354 -0.2724  0.4939 -0.6541
 5745TIP3    H117168   5.298   4.405   2.422  1.4461  1.1320  0.1981
 5745TIP3    H217169   5.334   4.266   2.372 -0.2805  0.6610  0.2156
 5746TIP3   OH217170   3.846   5.053   0.411  0.3682  0.2943 -0.3236
 5746TIP3    H117171   3.772   5.016   0.460 -2.0176  1.4182 -2.9574
 5746TIP3    H217172   3.891   4.977   0.375 -0.4149 -0.3529  0.0349
 5747TIP3   OH217173   1.576   7.864   3.635  0.0827  0.4896 -0.0587
 5747TIP3    H117174   1.527   7.921   3.576  0.4805  0.4978 -0.3747
 5747TIP3    H217175   1.512   7.796   3.660  0.3486 -0.3943 -1.6960
 5748TIP3   OH217176   3.556   0.504   4.990 -0.1083 -0.6016  0.0122
 5748TIP3    H117177   3.521   0.549   4.913  0.3794  0.8351  0.6135
 5748TIP3    H217178   3.504   0.423   4.996 -1.5074  0.2190 -0.6565
 5749TIP3   OH217179   6.542   5.130   0.091 -0.1379 -0.1634  0.0131
 5749TIP3    H117180   6.582   5.044   0.080  1.9981  0.7911 -0.0724
 5749TIP3    H217181   6.563   5.154   0.181 -1.0468  0.1057  0.1520
 5750TIP3   OH217182   1.807   7.355   4.790  0.1048 -0.0637 -0.2896
 5750TIP3    H117183   1.796   7.450   4.787 -0.5918 -0.0966  1.0694
 5750TIP3    H217184   1.755   7.327   4.865 -0.3737 -1.6235 -1.1946
 5751TIP3   OH217185   2.135   1.126   6.641 -0.4855 -0.2206  0.0628
 5751TIP3    H117186   2.219   1.094   6.610 -0.3938 -0.9395  1.0413
 5751TIP3    H217187   2.117   1.202   6.586  1.1186  0.3473  0.2998
 5752TIP3   OH217188   5.712   6.202   0.137  0.0419 -0.1260  0.2176
 5752TIP3    H117189   5.622   6.184   0.111  0.4932 -1.0950 -0.6991
 5752TIP3    H217190   5.755   6.117   0.135  1.3667  0.5488 -0.8740
 5753TIP3   OH217191   1.971   1.341   6.811  0.0166 -0.0079  0.2449
 5753TIP3    H117192   1.887   1.307   6.779 -2.3077  4.5324  0.9459
 5753TIP3    H217193   1.984   1.297   6.895 -0.7371 -2.0600 -0.6718
 5754TIP3   OH217194   6.740   1.253   5.814 -0.0497 -0.4516  0.3871
 5754TIP3    H117195   6.658   1.285   5.776 -0.8324 -2.9258 -0.0699
 5754TIP3    H217196   6.715   1.215   5.898  0.6474 -1.0438  0.3365
 5755TIP3   OH217197   6.437   3.292   0.556 -0.1502 -0.4348  0.0063
 5755TIP3    H117198   6.445   3.271   0.463  1.5931  1.1766 -0.2451
 5755TIP3    H217199   6.425   3.207   0.599  3.0070 -1.6174 -1.3129
 5756TIP3   OH217200   4.249   1.269   2.071 -0.1175 -0.0691 -0.2753
 5756TIP3    H117201   4.338   1.262   2.037  0.0301 -0.7096  0.2346
 5756TIP3    H217202   4.200   1.312   2.001  0.3856 -0.5217 -0.9161
 5757TIP3   OH217203   0.831   2.022   5.077 -0.8779  0.5507  0.1817
 5757TIP3    H117204   0.904   2.061   5.125 -0.0697 -0.0267 -0.5433
 5757TIP3    H217205   0.826   1.933   5.110 -0.1348  0.0599 -0.9607
 5758TIP3   OH217206   2.561   2.396   5.345  0.4909 -0.5115 -0.6764
 5758TIP3    H117207   2.542   2.348   5.425  1.3149  0.4844  0.1210
 5758TIP3    H217208   2.568   2.487   5.372 -0.6034  0.0168 -2.1060
 5759TIP3   OH217209   1.036   1.897   4.461  0.3816 -0.4934  0.2413
 5759TIP3    H117210   0.985   1.847   4.525 -2.1063 -0.0597 -1.3303
 5759TIP3    H217211   0.991   1.981   4.455  1.6130  0.1104 -0.8006
 5760TIP3   OH217212   3.667   1.965   4.029  0.3429 -0.2718 -0.4209
 5760TIP3    H117213   3.582   1.924   4.013  0.5008  0.1942 -2.5644
 5760TIP3    H217214   3.655   2.056   4.002  1.6454 -0.3120 -1.1763
 5761TIP3   OH217215   2.443   2.430   5.697 -0.4027 -0.1453 -0.7651
 5761TIP3    H117216   2.494   2.356   5.664  0.7891 -0.0989  0.9262
 5761TIP3    H217217   2.429   2.410   5.790  0.1306  1.8532 -0.2360
 5762TIP3   OH217218   4.313   0.945   6.301  0.3522 -0.2123 -0.4529
 5762TIP3    H117219   4.392   0.916   6.256  0.9082  0.1451  0.2724
 5762TIP3    H217220   4.341   0.963   6.390 -0.9858 -2.0721  0.3731
 5763TIP3   OH217221   1.377   7.867   5.901  0.5456  0.1844 -0.2460
 5763TIP3    H117222   1.342   7.908   5.822  0.6855  0.1619 -0.3210
 5763TIP3    H217223   1.302   7.856   5.958  0.6324  1.2773  0.0922
 5764TIP3   OH217224   4.706   0.249   5.209  0.2877  0.0941 -0.5955
 5764TIP3    H117225   4.636   0.314   5.203  0.6110  0.3440 -1.8094
 5764TIP3    H217226   4.772   0.280   5.148  2.4319  1.0250  2.1007
 5765TIP3   OH217227   3.998   0.919   5.144 -0.2348 -0.2691 -0.0854
 5765TIP3    H117228   4.079   0.969   5.154  0.5773 -1.4665 -0.6018
 5765TIP3    H217229   3.936   0.981   5.105  0.7092  0.3705 -0.5732
 5766TIP3   OH217230   3.169   0.979   5.068 -0.2368 -0.3249 -0.3006
 5766TIP3    H117231   3.241   1.043   5.075  1.3542 -2.0431 -0.5830
 5766TIP3    H217232   3.156   0.968   4.974  0.4798 -1.4691 -0.2754
 5767TIP3   OH217233   5.616   0.917   5.187  0.4485 -0.0703  0.4552
 5767TIP3    H117234   5.613   0.841   5.129  0.6692 -0.6499  1.1971
 5767TIP3    H217235   5.707   0.920   5.217  0.4842  0.5987  0.2741
 5768TIP3   OH217236   3.212   1.236   3.643  0.8918 -0.0580  0.4177
 5768TIP3    H117237   3.250   1.202   3.561  1.8222  0.6266  0.5620
 5768TIP3    H217238   3.242   1.175   3.710  0.9130 -0.0714  0.3960
 5769TIP3   OH217239   2.084   7.145   5.036  0.0592  0.4299  0.4488
 5769TIP3    H117240   2.066   7.233   5.070 -0.4516  0.4194  0.2170
 5769TIP3    H217241   2.091   7.158   4.941 -1.8733 -0.0624  0.2092
 5770TIP3   OH217242   2.198   0.024   4.223  0.2101  0.2538 -0.5512
 5770TIP3    H117243   2.136  -0.040   4.190  1.5951 -0.4874 -1.7920
 5770TIP3    H217244   2.238   0.061   4.145  2.1046 -0.0724  0.2323
 5771TIP3   OH217245   1.088   8.020   6.395  0.1973 -0.2721 -0.4490
 5771TIP3    H117246   1.144   7.944   6.411 -0.6941 -1.1822 -1.5639
 5771TIP3    H217247   1.110   8.047   6.306 -1.6114 -1.0508 -1.1482
 5772TIP3   OH217248   4.939   0.703   5.905  0.5997  0.2356  0.6173
 5772TIP3    H117249   5.028   0.706   5.941  0.6302  0.4804  0.5220
 5772TIP3    H217250   4.882   0.699   5.981  0.7434 -1.3031  0.6653
 5773TIP3   OH217251   3.994   6.700   4.810 -0.5564 -0.9112  0.2309
 5773TIP3    H117252   4.061   6.642   4.845  1.4841  0.4134 -1.3371
 5773TIP3    H217253   3.961   6.748   4.886  2.6431  0.7805  0.6359
 5774TIP3   OH217254   4.242   1.474   4.717  0.2929 -0.6395  0.6131
 5774TIP3    H117255   4.198   1.465   4.633  3.1102 -1.7071 -0.8120
 5774TIP3    H217256   4.245   1.384   4.752  4.0573 -1.1123 -0.7834
 5775TIP3   OH217257   7.069   4.115   1.819  0.1069 -0.4389 -0.6503
 5775TIP3    H117258   7.157   4.097   1.785 -0.1226 -0.4432 -1.2512
 5775TIP3    H217259   7.077   4.103   1.914  1.0163  0.6075 -0.5724
 5776TIP3   OH217260   3.958   1.820   0.152  0.0610 -0.2147  0.2233
 5776TIP3    H117261   4.024   1.884   0.128 -0.0116  0.3729  1.5248
 5776TIP3    H217262   3.876   1.868   0.153 -0.0875 -0.4653  0.5863
 5777TIP3   OH217263   3.335   1.494   5.864  0.0934 -0.3561  0.1915
 5777TIP3    H117264   3.348   1.421   5.803 -2.0598 -0.6063 -0.0067
 5777TIP3    H217265   3.382   1.468   5.943  0.8258 -1.1521 -0.5001
 5778TIP3   OH217266   6.081   5.534   2.193 -0.0843 -0.1473  0.0140
 5778TIP3    H117267   6.061   5.488   2.274  1.3871 -1.1464 -0.1836
 5778TIP3    H217268   6.062   5.470   2.124 -2.2056  0.9884 -0.5207
 5779TIP3   OH217269   6.343   6.895   1.793 -0.0455 -0.2171 -0.2734
 5779TIP3    H117270   6.354   6.831   1.862 -2.8698 -0.2883  0.1821
 5779TIP3    H217271   6.394   6.861   1.720  2.5877 -0.3703  1.5865
 5780TIP3   OH217272   4.025   2.581   6.338  0.3393 -0.1006  0.1656
 5780TIP3    H117273   4.059   2.593   6.426 -1.5318  0.5649  0.8137
 5780TIP3    H217274   4.063   2.498   6.309 -0.6608 -1.3793  2.3847
 5781TIP3   OH217275   3.132   2.542   4.937  0.1740 -0.6914  0.1370
 5781TIP3    H117276   3.122   2.593   5.017  0.7400 -1.3792  0.6525
 5781TIP3    H217277   3.212   2.491   4.951  1.1485  0.3541 -1.5232
 5782TIP3   OH217278   3.148   0.689   6.373  0.6132  0.0757  0.1150
 5782TIP3    H117279   3.092   0.681   6.450 -0.5746 -0.5224 -0.7981
 5782TIP3    H217280   3.231   0.648   6.400  0.8213  1.4151  1.6313
 5783TIP3   OH217281   4.115   1.609   6.015 -0.1557  0.8992 -0.1302
 5783TIP3    H117282   4.056   1.684   6.010 -0.5729  0.5503 -0.5877
 5783TIP3    H217283   4.108   1.567   5.928  0.3180  0.5253  0.0091
 5784TIP3   OH217284   5.491   1.472   4.062 -0.4461  0.2538 -0.4605
 5784TIP3    H117285   5.528   1.384   4.066  0.4277  0.6901  2.6246
 5784TIP3    H217286   5.559   1.525   4.021  0.0657 -0.0286  0.0125
 5785TIP3   OH217287   3.376   1.764   3.005  0.0428 -0.4346  0.5268
 5785TIP3    H117288   3.342   1.680   2.975 -0.4388 -0.3916  0.9421
 5785TIP3    H217289   3.366   1.761   3.100 -0.5729  0.3442  0.4939
 5786TIP3   OH217290   3.273   1.038   6.721 -0.1869 -0.0337  0.4948
 5786TIP3    H117291   3.184   1.004   6.708  0.9701 -2.3740 -1.8024
 5786TIP3    H217292   3.329   0.961   6.711  2.0447  1.1662  3.1790
 5787TIP3   OH217293   3.161   1.002   4.125  0.3796 -0.2245  0.3338
 5787TIP3    H117294   3.236   1.043   4.170  0.3048  0.1395  0.1329
 5787TIP3    H217295   3.196   0.920   4.091  1.8059  1.6971 -3.1309
 5788TIP3   OH217296   1.365   1.348   5.036 -0.4185  0.4691  0.1095
 5788TIP3    H117297   1.391   1.344   5.128  0.5676 -0.6528 -0.2192
 5788TIP3    H217298   1.399   1.432   5.005  0.5539  0.1722  0.3690
 5789TIP3   OH217299   6.515   7.457   4.849 -0.6169 -0.5225  0.1599
 5789TIP3    H117300   6.522   7.368   4.884 -0.9435 -0.1558  1.1872
 5789TIP3    H217301   6.521   7.513   4.926 -0.2183  0.3546 -0.5078
 5790TIP3   OH217302   3.948   0.112   4.496  0.5595  0.1587  0.1882
 5790TIP3    H117303   3.982   0.023   4.503 -1.5473 -0.5337  2.3293
 5790TIP3    H217304   4.026   0.167   4.490  1.9971 -1.6232  1.9103
 5791TIP3   OH217305   3.186   0.591   3.862 -0.7141  0.8339 -0.5637
 5791TIP3    H117306   3.222   0.552   3.782 -1.1743  2.0220 -1.3767
 5791TIP3    H217307   3.245   0.664   3.881 -0.0537 -0.0227  0.7482
 5792TIP3   OH217308   0.967   6.913   3.952 -0.4036 -0.1417 -0.1359
 5792TIP3    H117309   0.879   6.945   3.974 -0.6230 -0.7416 -0.1331
 5792TIP3    H217310   0.957   6.872   3.866  0.6807  3.2100 -1.9574
 5793TIP3   OH217311   3.052   0.435   5.407 -0.2116 -0.3262  0.5016
 5793TIP3    H117312   3.055   0.369   5.338  3.4252  1.0345 -0.7789
 5793TIP3    H217313   2.998   0.506   5.372  0.8084 -0.0733 -0.5735
 5794TIP3   OH217314   4.772   0.532   4.593 -0.1158 -0.3581  0.5356
 5794TIP3    H117315   4.717   0.536   4.671 -1.8574  1.1920 -0.6976
 5794TIP3    H217316   4.859   0.509   4.625 -0.3862  2.0256  3.1444
 5795TIP3   OH217317   5.034   1.261   3.692 -0.0941  0.1643  0.5381
 5795TIP3    H117318   4.979   1.332   3.659 -0.2931  0.9977  2.5342
 5795TIP3    H217319   4.973   1.205   3.742  0.8012  0.9804  2.5880
 5796TIP3   OH217320   5.250   1.383   3.933 -1.1213 -0.5757  0.1933
 5796TIP3    H117321   5.329   1.417   3.975 -1.5773 -1.1357  1.5147
 5796TIP3    H217322   5.273   1.294   3.907 -1.2788 -0.6990  0.4748
 5797TIP3   OH217323   3.967   7.183   4.932  0.5151 -0.9564  0.0470
 5797TIP3    H117324   4.056   7.189   4.969 -0.1189 -1.7941  1.7570
 5797TIP3    H217325   3.909   7.202   5.006 -0.7035  2.6658 -1.7458
 5798TIP3   OH217326   3.942   1.290   5.171  0.6659  0.1057  0.5128
 5798TIP3    H117327   3.986   1.243   5.101 -0.2675 -0.0186  0.0023
 5798TIP3    H217328   3.881   1.227   5.209 -1.6430  1.2576 -1.1146
 5799TIP3   OH217329   0.668   7.975   4.341  0.0279 -0.0312  0.2452
 5799TIP3    H117330   0.675   8.019   4.256  2.6507  0.4485  0.6662
 5799TIP3    H217331   0.704   7.888   4.326 -0.7417 -0.4041  0.5594
 5800TIP3   OH217332   2.814   7.076   4.353 -0.2045  0.2855  0.1654
 5800TIP3    H117333   2.869   7.021   4.296 -0.0916  0.0560  0.4961
 5800TIP3    H217334   2.784   7.147   4.296 -2.6356 -1.6208 -1.0418
 5801TIP3   OH217335   4.494   0.302   6.517  0.4418  0.1504  0.3450
 5801TIP3    H117336   4.570   0.287   6.460  1.3908 -0.0275  1.6336
 5801TIP3    H217337   4.420   0.305   6.457  1.3548 -0.5918 -0.8545
 5802TIP3   OH217338   3.917   7.995   4.631  0.1611 -0.8073 -0.4851
 5802TIP3    H117339   3.985   7.983   4.565 -0.9519 -1.3008 -1.5467
 5802TIP3    H217340   3.865   7.915   4.627  0.7360 -1.3346  1.7646
 5803TIP3   OH217341   6.192   1.253   4.943  0.0447  0.3213 -0.1862
 5803TIP3    H117342   6.102   1.260   4.912 -0.2951  0.6951  0.9017
 5803TIP3    H217343   6.203   1.160   4.962 -0.3558  0.4070  0.4509
 5804TIP3   OH217344   1.340   0.908   5.134  0.2197  0.1731  0.0163
 5804TIP3    H117345   1.380   0.825   5.107 -0.3868  0.7435 -2.7536
 5804TIP3    H217346   1.294   0.886   5.216 -0.0807 -2.2831 -0.7647
 5805TIP3   OH217347   3.155   0.125   4.935  0.7045  0.1301  0.1464
 5805TIP3    H117348   3.166   0.033   4.914  2.5078  0.7655 -1.9411
 5805TIP3    H217349   3.122   0.164   4.854  0.0219  1.3190  0.9897
 5806TIP3   OH217350   1.928   4.704   0.200  0.5566  0.6927 -0.6034
 5806TIP3    H117351   2.018   4.680   0.177  0.8879  0.7903  0.5292
 5806TIP3    H217352   1.925   4.798   0.188  0.6467  0.7062 -0.5261
 5807TIP3   OH217353   6.374   2.168   4.392 -0.4159 -0.3987 -0.1790
 5807TIP3    H117354   6.446   2.134   4.340 -0.6684  0.7398 -1.3198
 5807TIP3    H217355   6.355   2.254   4.353 -0.4423  0.6019  1.9606
 5808TIP3   OH217356   6.258   1.947   3.767  0.0941  0.2896  0.0232
 5808TIP3    H117357   6.340   1.940   3.718  0.0747  0.2606 -0.0049
 5808TIP3    H217358   6.216   2.025   3.732  1.0671  1.4825  1.4700
 5809TIP3   OH217359   3.074   8.026   4.406  0.2494 -0.1938 -0.1664
 5809TIP3    H117360   3.008   8.013   4.338  1.4644 -1.4744 -1.1397
 5809TIP3    H217361   3.125   7.945   4.405  1.5754  0.6153  0.8501
 5810TIP3   OH217362   5.367   1.229   5.880  0.2081  0.6495  0.5303
 5810TIP3    H117363   5.382   1.311   5.926  2.3665  0.2128  0.6479
 5810TIP3    H217364   5.439   1.172   5.907 -0.7748 -0.9944 -0.2211
 5811TIP3   OH217365   1.777   1.276   4.720  0.1828 -0.0135 -0.0324
 5811TIP3    H117366   1.712   1.257   4.652  0.6942  1.5963 -0.9991
 5811TIP3    H217367   1.861   1.262   4.677  0.5080 -3.4360  1.6139
 5812TIP3   OH217368   5.136   0.139   5.629 -0.2564 -0.0598  0.2200
 5812TIP3    H117369   5.128   0.051   5.591 -1.4363 -0.0570  0.4467
 5812TIP3    H217370   5.196   0.184   5.570 -0.6822 -0.6111 -0.6519
 5813TIP3   OH217371   4.549   3.095   4.288  0.2401 -0.0635  0.1419
 5813TIP3    H117372   4.643   3.111   4.287  0.4715 -1.3377 -0.2937
 5813TIP3    H217373   4.514   3.159   4.349  1.3678  0.5543  0.1549
 5814TIP3   OH217374   5.153   2.914   4.434 -0.1382 -0.2021 -0.5410
 5814TIP3    H117375   5.070   2.950   4.404 -0.3653  0.0039  0.3287
 5814TIP3    H217376   5.156   2.826   4.396 -0.6539 -0.1348 -0.7450
 5815TIP3   OH217377   5.665   0.971   3.414 -0.2680  0.5618 -0.4573
 5815TIP3    H117378   5.618   0.999   3.336 -0.9774 -1.4382 -0.7787
 5815TIP3    H217379   5.749   0.939   3.381 -0.5141 -0.1605 -0.3895
 5816TIP3   OH217380   5.643   0.702   4.290 -0.2107 -0.5140  0.3691
 5816TIP3    H117381   5.615   0.648   4.216  0.7331  0.5257 -0.7555
 5816TIP3    H217382   5.672   0.784   4.251 -2.2955  1.1292  2.1258
 5817TIP3   OH217383   7.097   1.049   5.021 -0.1195  0.1834 -0.0795
 5817TIP3    H117384   7.003   1.030   5.015  0.2332 -2.4250  1.9885
 5817TIP3    H217385   7.132   1.023   4.936 -1.1639  0.5992 -0.6531
 5818TIP3   OH217386   4.116   1.401   5.384 -0.2223  0.2830 -0.4214
 5818TIP3    H117387   4.039   1.452   5.409  0.4649 -0.1369  2.6661
 5818TIP3    H217388   4.080   1.325   5.338 -1.5955  0.6315  0.0547
 5819TIP3   OH217389   4.838   3.215   4.324 -0.2681  0.2660 -0.0318
 5819TIP3    H117390   4.799   3.302   4.320 -0.0769  0.3523 -0.0306
 5819TIP3    H217391   4.871   3.200   4.235 -2.0330 -0.6075 -0.5525
 5820TIP3   OH217392   5.032   2.141   3.512  0.0212 -0.2235  0.0870
 5820TIP3    H117393   5.109   2.157   3.566 -0.3437  4.0877 -0.4374
 5820TIP3    H217394   5.068   2.122   3.425  0.5142 -0.8901  0.4331
 5821TIP3   OH217395   3.331   1.647   5.075  0.0138 -0.1208 -0.0780
 5821TIP3    H117396   3.315   1.694   4.993  2.6965 -0.1290 -0.6641
 5821TIP3    H217397   3.334   1.555   5.050 -1.5329 -0.3237  0.4472
 5822TIP3   OH217398   5.333   0.576   5.407  0.2511 -0.5131 -0.2548
 5822TIP3    H117399   5.331   0.650   5.346 -0.0222  0.5004  0.9591
 5822TIP3    H217400   5.256   0.589   5.462  0.0861 -1.8251 -0.1660
 5823TIP3   OH217401   1.711   6.442   4.763  0.1953  0.5143  0.5734
 5823TIP3    H117402   1.637   6.474   4.815 -0.2729 -0.1210  0.3076
 5823TIP3    H217403   1.752   6.377   4.820  1.0774  1.4854  1.0680
 5824TIP3   OH217404   4.461   0.409   3.956 -0.3547 -0.4612 -0.3437
 5824TIP3    H117405   4.432   0.318   3.969 -2.6794  0.3096  0.0677
 5824TIP3    H217406   4.465   0.419   3.861 -1.3202 -0.6502 -0.4154
 5825TIP3   OH217407   7.807   2.453   1.704  0.0641 -0.1638  0.3322
 5825TIP3    H117408   7.879   2.399   1.737 -0.2211  0.7895  2.6171
 5825TIP3    H217409   7.739   2.389   1.680  0.8989 -0.9720  0.0834
 5826TIP3   OH217410   3.167   2.169   4.581  0.1416 -0.3142  0.3039
 5826TIP3    H117411   3.088   2.211   4.547  0.0107 -0.2635  0.6624
 5826TIP3    H217412   3.169   2.084   4.538 -1.9504 -1.7143  2.7691
 5827TIP3   OH217413   4.822   0.714   3.911 -0.8796 -0.5730 -0.2232
 5827TIP3    H117414   4.728   0.727   3.921 -0.5009  0.9539  1.6061
 5827TIP3    H217415   4.853   0.694   3.999  0.5892 -0.4109 -0.6974
 5828TIP3   OH217416   6.175   3.164   3.298  0.4383 -0.2468 -0.8772
 5828TIP3    H117417   6.122   3.200   3.226 -0.1846 -1.9381 -1.2859
 5828TIP3    H217418   6.252   3.128   3.255  1.5956  1.5667 -0.3503
 5829TIP3   OH217419   6.423   2.298   5.895  0.6669  0.3017 -0.2756
 5829TIP3    H117420   6.350   2.320   5.836  1.0853 -1.6045 -1.5421
 5829TIP3    H217421   6.390   2.224   5.945  1.6088 -0.3291 -0.5956
 5830TIP3   OH217422   5.244   0.692   3.827  0.6122 -0.1509 -0.8312
 5830TIP3    H117423   5.206   0.681   3.914 -0.2232  2.0755 -0.8839
 5830TIP3    H217424   5.174   0.664   3.767  0.9018 -0.9245 -0.8115
 5831TIP3   OH217425   5.471   1.068   3.608 -0.3404  0.3281 -0.7953
 5831TIP3    H117426   5.514   1.035   3.529  1.3751 -0.5813  0.5025
 5831TIP3    H217427   5.396   1.117   3.575 -1.1269 -2.1827 -2.9086
 5832TIP3   OH217428   4.925   1.262   5.070 -0.0580  0.5255 -0.1495
 5832TIP3    H117429   4.985   1.194   5.038  1.1133  1.2223  0.5320
 5832TIP3    H217430   4.857   1.214   5.117 -0.4037 -0.3224 -1.4925
 5833TIP3   OH217431   5.162   2.371   4.620 -0.7522  0.7132 -0.0472
 5833TIP3    H117432   5.239   2.328   4.584 -0.9616 -1.2819  1.8527
 5833TIP3    H217433   5.195   2.454   4.654  0.2965  0.4580 -0.4174
 5834TIP3   OH217434   5.385   1.821   5.417 -0.4522 -0.4811  0.0611
 5834TIP3    H117435   5.416   1.756   5.479  1.6036  0.4597  0.0507
 5834TIP3    H217436   5.329   1.879   5.468  1.9513  0.8285  1.3031
 5835TIP3   OH217437   5.422   1.032   4.205 -0.1676 -0.6100  0.3170
 5835TIP3    H117438   5.450   1.061   4.292 -0.8062 -0.9453  0.6388
 5835TIP3    H217439   5.370   0.953   4.221  1.0498 -1.5931 -0.5050
 5836TIP3   OH217440   5.093   2.750   4.692  0.0450  0.1157  0.2267
 5836TIP3    H117441   5.143   2.738   4.611  1.7655 -1.3295  1.4718
 5836TIP3    H217442   5.002   2.739   4.665  0.6031 -0.4784 -1.5033
 5837TIP3   OH217443   3.757   3.277   3.520  0.1108  0.3302 -0.1857
 5837TIP3    H117444   3.675   3.302   3.562  0.0749  1.2513 -0.7970
 5837TIP3    H217445   3.754   3.319   3.435  0.1968 -1.5021 -1.1296
 5838TIP3   OH217446   4.270   2.280   4.770 -0.0577 -0.1844  0.2882
 5838TIP3    H117447   4.270   2.369   4.805  0.3493  0.2413 -0.7705
 5838TIP3    H217448   4.178   2.264   4.748  0.1921  0.8490 -1.6468
 5839TIP3   OH217449   6.175   4.318   0.136 -0.1262  0.1318 -0.0021
 5839TIP3    H117450   6.166   4.224   0.155 -1.6385  0.0609 -1.0319
 5839TIP3    H217451   6.186   4.358   0.222  0.3637 -0.9594  0.4657
 5840TIP3   OH217452   6.075   1.936   4.974  0.0514  0.5786 -0.6111
 5840TIP3    H117453   6.031   1.934   5.059  1.4733  0.3549  0.1387
 5840TIP3    H217454   6.096   2.029   4.960  1.7312  0.3564  0.3097
 5841TIP3   OH217455   6.109   1.086   4.280 -0.3597 -0.4158 -0.1028
 5841TIP3    H117456   6.024   1.131   4.275  1.5516  3.5662  1.1278
 5841TIP3    H217457   6.103   1.034   4.361 -1.0534  1.0724  0.8216
 5842TIP3   OH217458   3.977   0.019   3.632  0.2670 -0.5065 -0.2822
 5842TIP3    H117459   3.942   0.078   3.699  0.3557 -0.8984  0.1114
 5842TIP3    H217460   3.927   0.040   3.553  1.8293  1.6716 -0.7457
 5843TIP3   OH217461   3.471   1.787   6.500  0.2037  0.3319  0.5812
 5843TIP3    H117462   3.498   1.696   6.500  1.9504  0.8358  0.8218
 5843TIP3    H217463   3.451   1.807   6.408 -1.9495 -0.7715  0.7758
 5844TIP3   OH217464   1.371   7.126   5.194  0.8346 -0.3058 -0.0512
 5844TIP3    H117465   1.455   7.108   5.152  1.4255  0.2860  0.8736
 5844TIP3    H217466   1.345   7.212   5.160  1.9847  0.8129  1.8325
 5845TIP3   OH217467   2.276   6.288   3.345 -0.2398 -0.1970 -0.3004
 5845TIP3    H117468   2.261   6.239   3.425  2.3256 -0.8539 -0.1870
 5845TIP3    H217469   2.248   6.377   3.365 -1.0131 -0.6915  0.8335
 5846TIP3   OH217470   0.067   5.969   2.148 -0.1821 -0.1217 -0.0703
 5846TIP3    H117471   0.028   6.032   2.087  0.6811 -0.2165 -0.7243
 5846TIP3    H217472   0.033   5.884   2.119  0.5860 -0.2152 -0.7026
 5847TIP3   OH217473   3.022   0.735   4.285 -0.1194  0.2762 -0.4553
 5847TIP3    H117474   3.084   0.669   4.254  0.1598  0.2804  0.0907
 5847TIP3    H217475   2.950   0.732   4.222  0.2067 -0.0738 -0.8122
 5848TIP3   OH217476   1.485   7.489   5.135 -0.3767 -0.3879 -0.5624
 5848TIP3    H117477   1.403   7.470   5.180 -0.0963  2.2666  1.1368
 5848TIP3    H217478   1.459   7.530   5.053 -0.7833 -1.6043 -1.0504
 5849TIP3   OH217479   2.291   7.941   5.479  0.0327  0.1900 -0.2883
 5849TIP3    H117480   2.224   7.971   5.418 -1.4615 -1.4107  0.5020
 5849TIP3    H217481   2.362   7.910   5.424  0.1911  2.0547 -1.1399
 5850TIP3   OH217482   4.879   0.952   4.851 -0.1207  0.4974  0.7688
 5850TIP3    H117483   4.898   0.884   4.916 -0.8886 -0.4616 -0.0022
 5850TIP3    H217484   4.813   0.913   4.793  0.0591  1.5902 -0.1940
 5851TIP3   OH217485   4.505   1.591   3.447 -0.0865 -0.0457  0.0353
 5851TIP3    H117486   4.437   1.643   3.405 -1.3302 -2.3676 -0.9178
 5851TIP3    H217487   4.583   1.646   3.443 -0.8352  0.8985 -2.8734
 5852TIP3   OH217488   0.821   5.103   4.808  0.0879 -0.1150 -0.1106
 5852TIP3    H117489   0.867   5.021   4.793  0.4722  0.0567  0.1263
 5852TIP3    H217490   0.797   5.134   4.721 -0.2947 -0.6092 -0.1869
 5853TIP3   OH217491   4.265   2.134   5.997 -0.0397 -0.5983  0.7290
 5853TIP3    H117492   4.338   2.128   6.058  1.3071  1.5167 -0.6146
 5853TIP3    H217493   4.228   2.222   6.011 -1.7868 -1.3187  0.7926
 5854TIP3   OH217494   3.769   1.095   5.248 -0.2260  0.0624  0.1394
 5854TIP3    H117495   3.735   1.102   5.337  1.8792  0.4588  0.9553
 5854TIP3    H217496   3.732   1.013   5.214 -0.2903 -0.5807  1.7207
 5855TIP3   OH217497   5.289   0.410   2.077 -0.0666 -0.2386  0.3976
 5855TIP3    H117498   5.230   0.482   2.096 -0.2225 -0.8382  2.3579
 5855TIP3    H217499   5.233   0.340   2.045  0.1502  0.6646 -2.0258
 5856TIP3   OH217500   2.473   6.521   3.598 -0.0627 -0.0957 -0.0883
 5856TIP3    H117501   2.401   6.554   3.543 -0.1931  0.8207  0.6192
 5856TIP3    H217502   2.550   6.526   3.542 -0.2582  0.5001 -0.3048
 5857TIP3   OH217503   3.248   2.572   4.075  0.4252  0.1698  0.4486
 5857TIP3    H117504   3.284   2.636   4.137 -1.4121  0.3722  1.3129
 5857TIP3    H217505   3.263   2.611   3.989 -0.4095  1.6242  0.9539
 5858TIP3   OH217506   4.368   2.044   4.084  0.3119  0.4127  0.0940
 5858TIP3    H117507   4.331   1.968   4.039 -1.7147  0.5498  1.4537
 5858TIP3    H217508   4.431   2.007   4.146  0.1952 -0.0822 -0.0822
 5859TIP3   OH217509   1.385   3.694   2.143  0.4751  0.1388  0.8104
 5859TIP3    H117510   1.330   3.736   2.077  0.2708 -0.9575  0.2691
 5859TIP3    H217511   1.394   3.604   2.113 -1.0531 -0.8486  3.1791
 5860TIP3   OH217512   6.360   0.452   2.489  0.1686  0.1898 -0.7147
 5860TIP3    H117513   6.380   0.528   2.543  1.8953 -0.1703 -0.8087
 5860TIP3    H217514   6.355   0.379   2.552  1.1889 -0.0607 -0.9168
 5861TIP3   OH217515   4.679   0.926   2.883  0.3154  0.7679 -0.5328
 5861TIP3    H117516   4.692   0.946   2.791 -2.1612 -0.3125 -1.1695
 5861TIP3    H217517   4.743   0.858   2.903 -1.6112 -1.7228 -2.5192
 5862TIP3   OH217518   0.958   7.591   6.456 -0.2979 -0.1778 -0.1928
 5862TIP3    H117519   1.017   7.532   6.502  2.7682  1.1052 -2.2453
 5862TIP3    H217520   0.894   7.534   6.414  0.0545 -1.6964  1.2610
 5863TIP3   OH217521   4.700   1.089   2.143  0.6295  0.1476 -0.0517
 5863TIP3    H117522   4.749   1.165   2.175 -0.0409  0.4825  0.1905
 5863TIP3    H217523   4.660   1.052   2.222 -1.5423  1.3368 -0.5410
 5864TIP3   OH217524   6.891   5.036   0.547 -0.4437  0.1795  0.1597
 5864TIP3    H117525   6.837   5.066   0.621  1.5890  1.0462  1.3520
 5864TIP3    H217526   6.980   5.040   0.581  0.5532  0.9557 -2.4982
 5865TIP3   OH217527   5.225   2.116   5.026  0.1099  0.6960  0.6173
 5865TIP3    H117528   5.187   2.156   5.105 -1.6342  1.1148 -0.3972
 5865TIP3    H217529   5.264   2.190   4.979  2.1403  0.2866  1.5860
 5866TIP3   OH217530   5.063   2.986   3.861 -0.1669  0.5229  0.0422
 5866TIP3    H117531   5.042   3.044   3.788 -1.1232 -0.0673 -0.1658
 5866TIP3    H217532   4.991   2.922   3.862  2.3350 -2.4515 -1.5657
 5867TIP3   OH217533   5.840   1.401   2.097 -0.4233  0.3782  0.0458
 5867TIP3    H117534   5.753   1.406   2.137  0.6070 -2.6791  2.9311
 5867TIP3    H217535   5.834   1.326   2.037 -0.1192  0.9562 -0.7217
 5868TIP3   OH217536   5.712   2.084   5.879 -0.5048 -0.2721  0.7853
 5868TIP3    H117537   5.763   2.004   5.891  0.7255 -0.0785 -2.4797
 5868TIP3    H217538   5.749   2.146   5.941  2.2186 -0.6460 -0.3930
 5869TIP3   OH217539   4.873   0.547   1.905  0.1164 -0.3200  0.1336
 5869TIP3    H117540   4.923   0.617   1.864 -0.6428  0.4052  0.4412
 5869TIP3    H217541   4.793   0.541   1.852 -1.9247  2.1427  2.7760
 5870TIP3   OH217542   7.546   1.947   6.119 -0.1511 -0.1071 -0.2345
 5870TIP3    H117543   7.452   1.963   6.112  0.0590  0.9320 -0.6465
 5870TIP3    H217544   7.556   1.897   6.200 -1.0583 -0.2219 -0.1968
 5871TIP3   OH217545   7.779   6.449   4.671 -0.1059 -0.0757 -0.5349
 5871TIP3    H117546   7.863   6.448   4.626 -1.3506  0.9663 -2.9738
 5871TIP3    H217547   7.745   6.538   4.656 -1.2726 -0.2192  1.1239
 5872TIP3   OH217548   7.720   7.285   0.182  0.0781 -0.5329  0.3689
 5872TIP3    H117549   7.645   7.339   0.207 -0.9557 -1.2874 -0.9956
 5872TIP3    H217550   7.786   7.347   0.150  0.9786  0.3469  3.7527
 5873TIP3   OH217551   4.631   0.668   5.168 -0.6881  0.1400 -0.2853
 5873TIP3    H117552   4.666   0.741   5.219 -0.8706  1.0786 -1.4852
 5873TIP3    H217553   4.540   0.661   5.197 -0.8137  0.7204 -0.5218
 5874TIP3   OH217554   5.077   0.356   5.364  0.2884  0.0686  0.1650
 5874TIP3    H117555   4.993   0.376   5.323  1.1384  2.3590 -0.5005
 5874TIP3    H217556   5.080   0.413   5.440  1.7247  0.8335 -0.4534
 5875TIP3   OH217557   7.026   0.652   5.765 -0.1245  0.1282  0.2025
 5875TIP3    H117558   6.952   0.663   5.825  0.7427  0.8433  1.1607
 5875TIP3    H217559   7.050   0.741   5.741 -0.4347 -0.1578 -1.1753
 5876TIP3   OH217560   4.440   1.976   5.631  0.7057  0.1070 -0.0140
 5876TIP3    H117561   4.446   1.892   5.675 -0.8946 -0.2780 -0.4979
 5876TIP3    H217562   4.362   2.017   5.667  1.3787  1.3349  0.0968
 5877TIP3   OH217563   5.146   1.489   2.644  0.1500  0.0408  0.7333
 5877TIP3    H117564   5.209   1.539   2.591 -0.8844 -0.2885 -0.8469
 5877TIP3    H217565   5.182   1.401   2.646  0.6604  0.2606  1.3548
 5878TIP3   OH217566   6.133   1.553   6.463  0.2983  0.1487 -0.1781
 5878TIP3    H117567   6.045   1.579   6.488 -0.1391  0.4941 -2.0033
 5878TIP3    H217568   6.153   1.478   6.520 -1.3338 -0.2260 -0.0637
 5879TIP3   OH217569   5.806   1.488   5.795 -0.1457  0.2705  0.0791
 5879TIP3    H117570   5.734   1.429   5.773  1.3440 -1.3652 -0.4895
 5879TIP3    H217571   5.848   1.508   5.712  0.7332  0.3253  0.5294
 5880TIP3   OH217572   5.549   3.726   3.952  0.5173  0.0354 -0.1762
 5880TIP3    H117573   5.582   3.815   3.944  0.3331 -0.0081 -1.5956
 5880TIP3    H217574   5.482   3.730   4.020  2.4753  0.4008  1.7478
 5881TIP3   OH217575   2.922   2.322   5.516 -0.6056  0.0917  0.2035
 5881TIP3    H117576   2.954   2.407   5.547 -0.4706  0.1105  0.0157
 5881TIP3    H217577   2.934   2.325   5.421 -0.1650 -0.3157  0.2432
 5882TIP3   OH217578   4.367   0.325   4.962 -0.1190 -0.1348  0.4624
 5882TIP3    H117579   4.361   0.411   5.004 -0.1044 -0.6641  1.5671
 5882TIP3    H217580   4.424   0.339   4.887 -2.5502  1.4923 -1.1433
 5883TIP3   OH217581   5.617   0.322   6.097  0.5485 -0.4964 -0.3312
 5883TIP3    H117582   5.567   0.277   6.165 -0.3503  0.0809 -0.5997
 5883TIP3    H217583   5.702   0.340   6.137  0.8873 -2.3386 -0.1894
 5884TIP3   OH217584   2.780   6.372   3.105 -0.1218 -0.2652  0.9958
 5884TIP3    H117585   2.818   6.287   3.126 -0.9446 -0.9923 -0.3677
 5884TIP3    H217586   2.688   6.354   3.090  0.2725  0.2737 -2.4982
 5885TIP3   OH217587   1.461   7.078   3.173  0.1042 -0.2984  0.0171
 5885TIP3    H117588   1.481   7.160   3.129 -0.9473 -0.4129 -0.6993
 5885TIP3    H217589   1.433   7.019   3.103 -0.3495 -0.8821  0.6799
 5886TIP3   OH217590   5.192   1.224   4.528  0.5092 -0.0255 -0.2854
 5886TIP3    H117591   5.170   1.141   4.487  0.8020 -0.0125 -0.4695
 5886TIP3    H217592   5.199   1.286   4.455  0.4082  0.1361 -0.1600
 5887TIP3   OH217593   5.390   2.066   3.136 -0.4614 -0.1382 -0.1048
 5887TIP3    H117594   5.346   2.013   3.069 -1.8979  1.4667 -0.4591
 5887TIP3    H217595   5.320   2.113   3.179  0.5019 -0.7726  2.2477
 5888TIP3   OH217596   4.447   2.050   2.702 -0.5873  0.2336  0.3564
 5888TIP3    H117597   4.362   2.071   2.663 -1.5323  0.4478  2.4577
 5888TIP3    H217598   4.428   1.980   2.764  0.8329  0.0776  0.6312
 5889TIP3   OH217599   7.335   1.491   3.215 -0.2502 -0.5706 -0.3363
 5889TIP3    H117600   7.350   1.518   3.124  2.4656 -1.2327 -0.1135
 5889TIP3    H217601   7.374   1.560   3.267  1.6212 -2.0454  0.2730
 5890TIP3   OH217602   4.857   0.693   4.176  0.0376  0.4794 -0.3559
 5890TIP3    H117603   4.904   0.683   4.258 -0.2204 -2.3676 -0.4979
 5890TIP3    H217604   4.770   0.726   4.201 -0.9251 -2.7946  0.8237
 5891TIP3   OH217605   0.082   7.621   3.532  0.1084  0.1007 -0.1745
 5891TIP3    H117606   0.033   7.539   3.523  0.0087 -0.0065  1.1654
 5891TIP3    H217607   0.014   7.688   3.544  0.2520  0.0611  0.9068
 5892TIP3   OH217608   5.318   0.551   5.710 -0.3390  0.1329 -0.2906
 5892TIP3    H117609   5.401   0.529   5.668 -0.5859  0.1770 -0.7932
 5892TIP3    H217610   5.290   0.468   5.750 -0.1553  0.0705 -0.2868
 5893TIP3   OH217611   4.245   1.059   5.126 -0.1394 -0.4749 -0.3069
 5893TIP3    H117612   4.311   1.026   5.065  0.2561  0.7179 -0.5324
 5893TIP3    H217613   4.262   1.153   5.132 -0.1166 -0.5769  1.6988
 5894TIP3   OH217614   2.530   1.750   5.092 -0.4948  0.3841 -0.1291
 5894TIP3    H117615   2.607   1.788   5.049 -0.7422  1.0708  0.0329
 5894TIP3    H217616   2.561   1.727   5.180 -0.0999 -0.6448 -0.5188
 5895TIP3   OH217617   5.834   0.172   5.123  1.0907 -0.0471  0.0829
 5895TIP3    H117618   5.866   0.257   5.093 -0.2135  0.7457  0.9073
 5895TIP3    H217619   5.759   0.153   5.066 -0.9952  1.1613  2.3546
 5896TIP3   OH217620   5.685   1.726   2.191 -0.1514  0.2117  0.4869
 5896TIP3    H117621   5.656   1.774   2.268 -0.0695 -0.2926  0.8355
 5896TIP3    H217622   5.771   1.692   2.214  0.0217  0.3495  0.0463
 5897TIP3   OH217623   4.955   1.164   5.757 -0.2663  0.4776 -0.3153
 5897TIP3    H117624   4.888   1.195   5.818 -0.3506 -0.8272  0.2680
 5897TIP3    H217625   5.038   1.191   5.797 -0.3717  0.6419 -0.2084
 5898TIP3   OH217626   8.073   7.520   3.804  0.6515 -0.1809 -0.2825
 5898TIP3    H117627   8.120   7.564   3.874  1.4103 -1.8297  0.2736
 5898TIP3    H217628   7.983   7.551   3.812  1.2380  1.4732 -0.1015
 5899TIP3   OH217629   4.706   1.082   4.992 -0.4179  0.5937  0.4010
 5899TIP3    H117630   4.629   1.031   4.966 -0.6554 -0.3887  2.8828
 5899TIP3    H217631   4.774   1.056   4.930 -1.8288  0.7608 -1.2383
 5900TIP3   OH217632   2.082   7.123   6.004  0.1846  0.0632 -0.4367
 5900TIP3    H117633   2.148   7.145   6.070 -1.5999 -1.2666  1.8394
 5900TIP3    H217634   2.097   7.030   5.986  0.1333  0.2220 -1.3087
 5901TIP3   OH217635   3.586   6.667   5.830  0.0209  0.0812  0.3927
 5901TIP3    H117636   3.493   6.688   5.829  0.2158  0.9366 -0.0691
 5901TIP3    H217637   3.602   6.629   5.743  0.4362  1.4198 -0.1208
 5902TIP3   OH217638   4.595   2.754   2.212  0.0350  0.3239  0.4286
 5902TIP3    H117639   4.643   2.823   2.257  0.0334  0.9679 -0.5362
 5902TIP3    H217640   4.565   2.696   2.282  0.8040  0.8086  1.1715
 5903TIP3   OH217641   6.361   0.652   5.620  0.0666 -0.2438 -0.2139
 5903TIP3    H117642   6.457   0.655   5.620  0.0658  0.1520 -1.1596
 5903TIP3    H217643   6.340   0.565   5.587  0.0989 -0.3064 -0.0702
 5904TIP3   OH217644   1.229   7.791   5.366 -0.0431 -0.0172  0.8171
 5904TIP3    H117645   1.187   7.859   5.419 -1.4926 -0.4107  0.2163
 5904TIP3    H217646   1.302   7.760   5.419 -0.5373  0.6821  1.9103
 5905TIP3   OH217647   1.712   6.918   4.302  0.4432  0.4676  0.2112
 5905TIP3    H117648   1.769   6.918   4.226 -0.5097  1.9419 -0.5490
 5905TIP3    H217649   1.751   6.982   4.361  0.8584 -0.2421  0.7087
 5906TIP3   OH217650   3.940   2.403   5.615  0.2744  0.6131 -0.4569
 5906TIP3    H117651   3.970   2.347   5.542 -0.8381  0.2479 -0.6574
 5906TIP3    H217652   3.862   2.447   5.580 -1.5165 -1.1209  1.1400
 5907TIP3   OH217653   0.910   7.628   3.063  0.0110  0.9564 -0.0986
 5907TIP3    H117654   0.952   7.677   3.133  0.8269  0.3017 -0.1179
 5907TIP3    H217655   0.827   7.673   3.047  0.1958  1.5819  0.7271
 5908TIP3   OH217656   2.378   7.922   3.941  0.3631  0.0661 -0.7953
 5908TIP3    H117657   2.296   7.873   3.954 -0.7597  2.1190  0.0173
 5908TIP3    H217658   2.425   7.911   4.024  0.3438 -0.0615 -0.8008
 5909TIP3   OH217659   7.667   1.667   4.153  0.0469  0.4998  0.1861
 5909TIP3    H117660   7.586   1.710   4.182  0.2870  0.2699  1.2296
 5909TIP3    H217661   7.731   1.738   4.149 -0.3950  0.8242 -1.4305
 5910TIP3   OH217662   5.036   1.675   6.423 -0.0442  0.7058  0.2808
 5910TIP3    H117663   5.113   1.663   6.366  0.5001  2.5747  0.5896
 5910TIP3    H217664   5.058   1.626   6.502 -0.3212 -0.9741 -0.6601
 5911TIP3   OH217665   4.591   0.127   5.509  0.2319  0.4142 -0.8443
 5911TIP3    H117666   4.556   0.212   5.533  1.1986  0.6749 -0.3110
 5911TIP3    H217667   4.553   0.066   5.572  1.2713  0.8022  0.1661
 5912TIP3   OH217668   5.869   1.961   4.757 -0.0129 -0.4940  0.1740
 5912TIP3    H117669   5.915   1.935   4.836  0.2002 -1.4310 -0.2505
 5912TIP3    H217670   5.795   1.900   4.750 -0.3280 -0.0913 -0.0744
 5913TIP3   OH217671   4.298   2.921   5.930 -0.3144 -0.3916 -0.1131
 5913TIP3    H117672   4.241   2.938   5.855 -0.1208 -1.2068 -0.4569
 5913TIP3    H217673   4.261   2.973   6.001  0.7104  2.0214 -1.2848
 5914TIP3   OH217674   5.147   2.042   3.875  0.5161  0.0617 -0.0436
 5914TIP3    H117675   5.223   2.017   3.822 -0.0503 -0.7438 -0.4809
 5914TIP3    H217676   5.124   1.962   3.922  0.9353  0.7341  1.3312
 5915TIP3   OH217677   2.675   7.279   3.422  0.4169  0.1287 -0.1538
 5915TIP3    H117678   2.716   7.361   3.396 -2.5517  2.1823  1.4086
 5915TIP3    H217679   2.645   7.294   3.512  0.4652 -2.9206  0.4322
 5916TIP3   OH217680   3.753   2.657   3.600 -0.4117  0.0630 -0.1264
 5916TIP3    H117681   3.837   2.698   3.582 -0.6422  0.2442 -0.8085
 5916TIP3    H217682   3.690   2.705   3.546 -0.7813 -0.7978 -0.4846
 5917TIP3   OH217683   5.806   1.631   3.573  0.9672  0.5037 -0.1472
 5917TIP3    H117684   5.828   1.577   3.649  0.2323 -0.5599 -0.6920
 5917TIP3    H217685   5.860   1.596   3.502 -0.6108 -0.5010 -0.8724
 5918TIP3   OH217686   2.174   0.726   4.411  0.3271  0.4547  0.1126
 5918TIP3    H117687   2.194   0.632   4.417 -0.3498  0.3107  0.1494
 5918TIP3    H217688   2.246   0.769   4.457  0.8175 -0.0330 -0.2071
 5919TIP3   OH217689   5.401   0.293   3.532  0.4070 -0.4193  0.5629
 5919TIP3    H117690   5.399   0.352   3.457  1.4262 -1.0426  0.0319
 5919TIP3    H217691   5.384   0.349   3.608  0.7705  0.4459  0.0044
 5920TIP3   OH217692   4.784   2.199   1.884 -0.1838 -0.3164 -0.1320
 5920TIP3    H117693   4.870   2.224   1.852 -0.4857  0.8575 -0.0764
 5920TIP3    H217694   4.794   2.195   1.979 -0.2483  0.0954 -0.1045
 5921TIP3   OH217695   4.350   3.226   3.621 -0.3119 -0.3921  0.3722
 5921TIP3    H117696   4.424   3.207   3.679  1.5390 -0.3515 -1.9288
 5921TIP3    H217697   4.333   3.320   3.633 -0.9228 -0.6747  1.9105
 5922TIP3   OH217698   5.990   1.350   6.671 -0.0189 -0.2755 -0.0357
 5922TIP3    H117699   5.971   1.355   6.765  0.6170  1.2003  0.0287
 5922TIP3    H217700   5.908   1.373   6.629  0.0559  0.3787  0.1735
 5923TIP3   OH217701   4.926   3.025   2.805 -0.1244  0.1323 -0.1803
 5923TIP3    H117702   4.944   2.937   2.772 -0.3112 -0.3989  1.1061
 5923TIP3    H217703   4.918   3.014   2.900  1.7446  1.8376  0.2045
 5924TIP3   OH217704   5.258   1.401   2.220 -0.5917 -0.3560  0.2766
 5924TIP3    H117705   5.298   1.391   2.134  1.3496 -1.1471  1.2477
 5924TIP3    H217706   5.224   1.314   2.241  0.1273 -0.4928  0.8837
 5925TIP3   OH217707   4.679   1.074   6.258 -0.0906  0.2541 -0.0558
 5925TIP3    H117708   4.620   1.149   6.267  1.4140  1.3710  0.7428
 5925TIP3    H217709   4.694   1.045   6.349  0.8533  0.1867 -0.2314
 5926TIP3   OH217710   6.085   1.692   5.107 -1.0251 -0.2998 -0.5916
 5926TIP3    H117711   6.100   1.742   5.026 -0.7515 -0.8614 -0.8908
 5926TIP3    H217712   5.995   1.712   5.131 -0.9975  0.1443 -0.8460
 5927TIP3   OH217713   4.235   1.720   2.601 -0.4714 -0.2591  0.0087
 5927TIP3    H117714   4.301   1.674   2.550  0.6488  1.8739 -0.5537
 5927TIP3    H217715   4.153   1.702   2.556 -0.1401 -2.1174  0.1233
 5928TIP3   OH217716   4.907   1.462   4.559 -0.7346 -0.0447  0.3716
 5928TIP3    H117717   4.941   1.405   4.628 -0.5348 -0.9899 -0.4849
 5928TIP3    H217718   4.949   1.430   4.479 -2.2946 -0.1156 -0.4519
 5929TIP3   OH217719   7.714   1.174   5.560 -0.1443  0.4269 -0.1802
 5929TIP3    H117720   7.672   1.258   5.538 -1.5397 -0.4276 -0.8406
 5929TIP3    H217721   7.699   1.119   5.484 -0.9254 -1.0384  1.0141
 5930TIP3   OH217722   2.375   7.734   4.816  0.1532  0.4158  0.1597
 5930TIP3    H117723   2.318   7.657   4.820 -0.2378  0.7721  1.6062
 5930TIP3    H217724   2.341   7.785   4.743 -1.8304  0.9615  1.4336
 5931TIP3   OH217725   4.938   0.206   3.606 -0.1482  0.3879  0.4653
 5931TIP3    H117726   4.911   0.176   3.519 -0.4405  0.1276  0.6430
 5931TIP3    H217727   4.937   0.126   3.660  2.2057  0.1359  0.1797
 5932TIP3   OH217728   5.177   2.013   2.439 -0.5028  0.4249  0.2951
 5932TIP3    H117729   5.117   1.961   2.493  0.0384  0.3905  0.8725
 5932TIP3    H217730   5.186   2.095   2.488 -1.4782  1.1366 -0.6873
 5933TIP3   OH217731   3.994   1.668   2.502 -0.0239  0.2967 -0.2491
 5933TIP3    H117732   3.971   1.638   2.414  0.9446  1.3271 -0.8599
 5933TIP3    H217733   3.911   1.665   2.550 -0.3607 -1.2763 -0.8787
 5934TIP3   OH217734   5.820   1.540   3.934  0.2651  0.2662  0.5028
 5934TIP3    H117735   5.884   1.473   3.956  1.1358  0.6720 -0.7309
 5934TIP3    H217736   5.863   1.623   3.956  0.1003  0.5325 -0.1516
 5935TIP3   OH217737   7.332   1.375   5.368 -0.4123  0.2286  0.3945
 5935TIP3    H117738   7.262   1.409   5.423 -1.1358 -1.0711  0.2985
 5935TIP3    H217739   7.287   1.340   5.291  0.6388  2.7192 -1.4410
 5936TIP3   OH217740   7.941   3.044   0.691 -0.4706  0.1455  0.2955
 5936TIP3    H117741   7.901   2.970   0.737 -0.7745  0.2613  0.2177
 5936TIP3    H217742   7.923   3.027   0.598 -0.2072  0.1213  0.2464
 5937TIP3   OH217743   1.973   5.998   4.615  0.6969 -0.6744 -0.5525
 5937TIP3    H117744   1.886   5.999   4.575 -0.5676  0.9409  2.1212
 5937TIP3    H217745   2.027   6.048   4.553 -0.8639  0.4566 -1.0505
 5938TIP3   OH217746   4.868   2.601   3.350  0.0325 -0.0515 -0.2943
 5938TIP3    H117747   4.820   2.519   3.359  0.8677 -0.3337  1.7784
 5938TIP3    H217748   4.948   2.588   3.402 -0.9072  2.9029  1.9946
 5939TIP3   OH217749   3.373   3.273   6.371  0.4637 -0.3421  0.1301
 5939TIP3    H117750   3.450   3.288   6.426 -0.5571 -0.0883  1.5189
 5939TIP3    H217751   3.370   3.178   6.361  0.1521 -0.4708  1.2936
 5940TIP3   OH217752   1.359   7.929   3.975 -0.0874  0.3103  0.2607
 5940TIP3    H117753   1.351   7.910   3.882  1.6258 -1.4441  0.4431
 5940TIP3    H217754   1.276   7.898   4.013  0.1038 -1.0041 -0.3717
 5941TIP3   OH217755   8.352   6.044   0.223  0.1392 -0.3968 -0.0120
 5941TIP3    H117756   8.284   6.095   0.268  0.6273 -1.0903  1.5363
 5941TIP3    H217757   8.328   6.049   0.130 -0.9549  0.9469  0.3273
 5942TIP3   OH217758   5.029   2.197   4.086 -0.1156  0.0501  0.3845
 5942TIP3    H117759   4.934   2.181   4.086  0.1057 -1.3090  0.5405
 5942TIP3    H217760   5.061   2.152   4.009  0.1713  2.1161 -0.7324
 5943TIP3   OH217761   1.421   7.257   6.327  0.1357 -0.1337 -0.0903
 5943TIP3    H117762   1.447   7.349   6.319 -1.5232  0.3824  0.2550
 5943TIP3    H217763   1.427   7.222   6.238 -0.0198  0.5246 -0.3630
 5944TIP3   OH217764   3.660   1.150   2.420 -0.2411  0.6855 -0.5980
 5944TIP3    H117765   3.659   1.195   2.505  1.9476  1.5837 -1.0076
 5944TIP3    H217766   3.621   1.212   2.359 -0.9262  0.4207 -0.4342
 5945TIP3   OH217767   4.872   2.018   1.700  0.5538  0.3507 -0.4232
 5945TIP3    H117768   4.961   1.992   1.726  0.6619  0.3780 -0.7609
 5945TIP3    H217769   4.841   2.073   1.771  0.2519 -0.8578  0.3859
 5946TIP3   OH217770   6.446   1.105   4.445 -0.3335  0.5244 -0.4129
 5946TIP3    H117771   6.352   1.094   4.455 -0.4887  2.2275  0.2590
 5946TIP3    H217772   6.479   1.114   4.535  0.2808  1.2755 -0.7043
 5947TIP3   OH217773   2.630   7.439   3.914 -0.5694  0.2136  0.0523
 5947TIP3    H117774   2.600   7.360   3.959  0.4517  0.0216  0.4047
 5947TIP3    H217775   2.723   7.444   3.935 -0.2453  0.5336 -1.4224
 5948TIP3   OH217776   2.422   1.803   5.504 -0.1195  0.5104  0.1037
 5948TIP3    H117777   2.407   1.864   5.575 -0.8689  0.3873  0.0512
 5948TIP3    H217778   2.343   1.749   5.501 -0.6476  1.3394 -1.6462
 5949TIP3   OH217779   4.271   7.698   3.906  0.0061 -0.0890  0.2284
 5949TIP3    H117780   4.203   7.635   3.933  0.1840 -0.1107  0.6298
 5949TIP3    H217781   4.351   7.666   3.948  0.0519  0.5254  0.6106
 5950TIP3   OH217782   5.889   2.857   4.919  0.0234 -0.4330  0.4855
 5950TIP3    H117783   5.953   2.894   4.980 -0.1140  0.7776 -0.1003
 5950TIP3    H217784   5.842   2.791   4.971 -0.4741  0.9815  1.8716
 5951TIP3   OH217785   2.483   7.662   3.975 -0.6929 -0.1897 -0.2487
 5951TIP3    H117786   2.518   7.577   3.946 -0.6595 -0.0732 -0.5492
 5951TIP3    H217787   2.526   7.726   3.918 -0.4950  0.0555  0.1709
 5952TIP3   OH217788   4.686   1.282   3.070  0.5022  0.0548 -0.4692
 5952TIP3    H117789   4.641   1.197   3.063  0.3658  0.2342 -1.7847
 5952TIP3    H217790   4.775   1.265   3.040  0.6682  0.2329 -0.0847
 5953TIP3   OH217791   3.653   0.314   5.860 -0.0994  0.6860  0.6985
 5953TIP3    H117792   3.615   0.347   5.779 -1.5408 -0.1315  1.0194
 5953TIP3    H217793   3.592   0.343   5.928  0.4817  0.3665  1.3610
 5954TIP3   OH217794   5.669   1.567   2.751 -0.2789 -0.1979  0.2564
 5954TIP3    H117795   5.603   1.635   2.763  0.8639  0.8341  0.9274
 5954TIP3    H217796   5.642   1.497   2.810  0.7782  1.4306  2.7538
 5955TIP3   OH217797   8.081   2.761   6.604 -0.1736  0.4669 -0.4956
 5955TIP3    H117798   8.029   2.731   6.678 -0.3413  1.1196 -0.3470
 5955TIP3    H217799   8.082   2.856   6.612  1.0302  0.4568 -0.5090
 5956TIP3   OH217800   7.231   0.266   5.545 -0.4548 -0.7416  0.0203
 5956TIP3    H117801   7.277   0.183   5.555 -0.7772 -1.0978 -1.2719
 5956TIP3    H217802   7.203   0.290   5.633 -1.1771 -2.4773  0.2765
 5957TIP3   OH217803   7.245   1.403   2.826 -0.3112  0.3777 -0.3470
 5957TIP3    H117804   7.254   1.473   2.890 -0.7348  0.4626 -0.3793
 5957TIP3    H217805   7.279   1.325   2.871 -2.3836  0.0417  0.6838
 5958TIP3   OH217806   8.290   1.628   3.543  0.3624 -0.3905  0.4268
 5958TIP3    H117807   8.301   1.626   3.638  0.2022 -0.0696  0.4547
 5958TIP3    H217808   8.301   1.720   3.520 -1.0291 -0.2359  0.3126
 5959TIP3   OH217809   5.591   0.385   5.079  0.5563 -0.2464 -0.7004
 5959TIP3    H117810   5.572   0.351   5.167  2.0221  0.1525 -0.2172
 5959TIP3    H217811   5.632   0.311   5.034  2.7856  0.5413  0.0116
 5960TIP3   OH217812   6.832   3.342   2.951 -0.0851  0.0318 -0.6575
 5960TIP3    H117813   6.880   3.330   3.033  0.7295 -1.6432 -1.3562
 5960TIP3    H217814   6.750   3.384   2.977 -0.7382 -2.3301  1.2995
 5961TIP3   OH217815   3.259   7.971   3.583 -0.8335  0.0319 -0.0046
 5961TIP3    H117816   3.204   7.911   3.632 -0.6741 -0.5385 -0.5201
 5961TIP3    H217817   3.339   7.922   3.565  0.8831  1.6504  2.8399
 5962TIP3   OH217818   6.701   2.228   4.575 -0.1178  0.0114  0.4522
 5962TIP3    H117819   6.689   2.203   4.483  0.0596 -0.3184  0.5183
 5962TIP3    H217820   6.664   2.316   4.581 -0.2052  0.0003  0.0826
 5963TIP3   OH217821   6.516   1.287   2.959 -0.3158 -0.1472  0.3633
 5963TIP3    H117822   6.475   1.294   3.044  0.1137  0.1148  0.5531
 5963TIP3    H217823   6.566   1.368   2.949  1.6162 -1.2344  0.9270
 5964TIP3   OH217824   4.966   3.138   3.628 -0.1687  0.4740  0.5237
 5964TIP3    H117825   5.003   3.162   3.543  0.0990  0.1272  0.5406
 5964TIP3    H217826   4.876   3.111   3.608 -0.2498  0.8364  0.4137
 5965TIP3   OH217827   5.397   7.120   4.340  0.1818 -0.5967 -0.0614
 5965TIP3    H117828   5.362   7.178   4.272  1.9372  0.2823 -0.2609
 5965TIP3    H217829   5.421   7.179   4.411  1.4799 -1.1258 -0.0482
 5966TIP3   OH217830   4.576   7.356   3.408 -0.3225 -0.1480  0.0414
 5966TIP3    H117831   4.602   7.264   3.418 -1.8423 -0.6203 -0.2538
 5966TIP3    H217832   4.592   7.375   3.316 -0.9601 -0.4198 -0.1266
 5967TIP3   OH217833   6.443   0.094   3.123 -0.5352 -0.1820  0.2473
 5967TIP3    H117834   6.506   0.075   3.193  0.4989  1.3934 -0.2334
 5967TIP3    H217835   6.360   0.060   3.156  0.0548  0.0108  1.9985
 5968TIP3   OH217836   7.534   0.459   4.092 -0.0736 -0.0813  0.4840
 5968TIP3    H117837   7.475   0.519   4.046  0.2005 -1.1062 -1.2395
 5968TIP3    H217838   7.569   0.403   4.023  2.4106  0.0696  1.5947
 5969TIP3   OH217839   6.044   7.780   2.872 -0.0031 -0.2716 -0.4002
 5969TIP3    H117840   6.060   7.730   2.793  1.2646 -0.0071 -0.3259
 5969TIP3    H217841   6.101   7.741   2.938  0.1484  0.5269 -0.0431
 5970TIP3   OH217842   5.543   2.469   3.739 -0.4924 -0.2445 -0.2384
 5970TIP3    H117843   5.462   2.427   3.766  0.8790 -1.7887  1.6415
 5970TIP3    H217844   5.578   2.507   3.820  0.7553  0.2444 -0.9887
 5971TIP3   OH217845   6.126   1.794   6.723  0.1083 -0.0303  0.5604
 5971TIP3    H117846   6.169   1.713   6.752  0.4258  0.4603  1.5051
 5971TIP3    H217847   6.033   1.771   6.718  0.2257 -0.5274  0.5804
 5972TIP3   OH217848   0.154   1.650   2.764 -0.6933  0.1329 -0.1679
 5972TIP3    H117849   0.076   1.596   2.775 -0.8864 -0.1676 -2.6339
 5972TIP3    H217850   0.200   1.610   2.690  1.8000  0.3264  1.2143
 5973TIP3   OH217851   3.368   1.164   1.502  0.5112 -0.8359  0.1647
 5973TIP3    H117852   3.385   1.259   1.496 -0.2259 -0.6487  1.0103
 5973TIP3    H217853   3.426   1.126   1.437 -0.4161  0.3502 -1.3941
 5974TIP3   OH217854   6.287   1.670   3.478  0.6022  0.0845 -0.1365
 5974TIP3    H117855   6.271   1.576   3.464 -0.1114  0.1446  0.2479
 5974TIP3    H217856   6.199   1.708   3.483  0.8778  0.5606  1.1526
 5975TIP3   OH217857   7.312   1.986   3.030  0.4814  0.2512  0.0768
 5975TIP3    H117858   7.245   1.995   2.962  0.4259  0.3313  0.1426
 5975TIP3    H217859   7.383   2.043   3.002  1.2487 -1.1455 -0.8835
 5976TIP3   OH217860   0.109   2.556   3.697  0.0985 -0.0433  0.0260
 5976TIP3    H117861   0.108   2.631   3.638  1.4297  0.4684  0.6298
 5976TIP3    H217862   0.198   2.555   3.733 -0.7837 -0.1620  2.2533
 5977TIP3   OH217863   6.519   1.647   3.613 -0.5902  0.4952  0.1060
 5977TIP3    H117864   6.442   1.686   3.571 -1.8345 -2.6373 -0.6959
 5977TIP3    H217865   6.482   1.592   3.682  0.9599 -0.9233 -0.1789
 5978TIP3   OH217866   7.351   1.498   3.964  0.2577 -0.4874 -0.0463
 5978TIP3    H117867   7.260   1.523   3.948  0.1096 -0.8108  0.2934
 5978TIP3    H217868   7.359   1.410   3.927 -0.1153 -1.2884  1.7155
 5979TIP3   OH217869   3.990   7.540   3.088  0.3972 -0.5237  0.0029
 5979TIP3    H117870   4.040   7.502   3.016  0.0368  0.5346 -0.8172
 5979TIP3    H217871   3.920   7.476   3.105 -0.1987 -0.2460 -1.3566
 5980TIP3   OH217872   6.870   1.381   4.279  0.0311  0.6919  0.1277
 5980TIP3    H117873   6.905   1.392   4.368  1.1125 -0.4501 -0.1489
 5980TIP3    H217874   6.806   1.310   4.287  1.6696 -0.8839 -0.3986
 5981TIP3   OH217875   5.585   2.197   2.173 -0.3904  0.5190  0.2659
 5981TIP3    H117876   5.652   2.131   2.184  1.0453  1.8201 -0.4957
 5981TIP3    H217877   5.524   2.160   2.109  0.8607  0.3037 -0.8001
 5982TIP3   OH217878   4.444   7.566   5.042 -0.0782  0.1022 -0.4640
 5982TIP3    H117879   4.359   7.580   5.084  0.1334 -2.7747  1.0763
 5982TIP3    H217880   4.502   7.543   5.115  1.4738 -0.1668 -1.7630
 5983TIP3   OH217881   7.732   1.175   6.230 -0.4801 -0.4618 -0.4292
 5983TIP3    H117882   7.686   1.126   6.299 -1.4393  0.2467 -0.5547
 5983TIP3    H217883   7.695   1.141   6.149  0.3137 -0.9619 -0.5810
 5984TIP3   OH217884   6.923   2.407   2.118 -0.3946 -0.8908  0.5072
 5984TIP3    H117885   6.967   2.440   2.196 -1.1711 -0.0607  0.5951
 5984TIP3    H217886   6.921   2.481   2.057  0.1746 -1.5201 -0.2889
 5985TIP3   OH217887   6.685   1.912   3.375 -0.2594 -0.1473  0.1204
 5985TIP3    H117888   6.707   2.005   3.379 -0.0417 -0.0882 -2.1411
 5985TIP3    H217889   6.759   1.868   3.418  0.9025  0.5411 -1.1577
 5986TIP3   OH217890   4.132   6.966   5.436 -0.0415  0.3288  0.1581
 5986TIP3    H117891   4.104   6.952   5.527  0.1764  1.0629  0.3415
 5986TIP3    H217892   4.058   7.013   5.396 -0.9267 -1.6364 -0.5531
 5987TIP3   OH217893   7.997   0.949   5.538  0.6095 -0.2173  0.2986
 5987TIP3    H117894   7.904   0.929   5.529  0.4188  0.4595  0.6927
 5987TIP3    H217895   8.026   0.895   5.611  0.4762 -0.2969  0.2922
 5988TIP3   OH217896   6.316   1.530   1.744 -0.3952  0.2955 -0.1143
 5988TIP3    H117897   6.331   1.586   1.667 -0.1094  0.1463 -0.1680
 5988TIP3    H217898   6.221   1.532   1.757 -0.6545 -1.1885 -1.6264
 5989TIP3   OH217899   1.777   4.573   0.943 -0.1400  0.5129  0.2651
 5989TIP3    H117900   1.716   4.508   0.978  1.4135 -1.4221 -0.5164
 5989TIP3    H217901   1.853   4.567   1.001  0.5009  0.7653 -0.5465
 5990TIP3   OH217902   7.021   0.049   3.611  0.0201 -0.0749  0.0153
 5990TIP3    H117903   7.060   0.032   3.696 -2.1161 -2.7793  0.5410
 5990TIP3    H217904   7.012  -0.038   3.571 -0.3248  1.0099 -2.3636
 5991TIP3   OH217905   6.354   1.200   3.182 -0.1380 -0.2071  0.6230
 5991TIP3    H117906   6.263   1.209   3.154 -0.1947  0.3630  0.9891
 5991TIP3    H217907   6.374   1.108   3.168 -0.6361 -0.2404  0.1254
 5992TIP3   OH217908   5.109   0.694   2.200 -0.3135  0.2198 -0.0757
 5992TIP3    H117909   5.065   0.761   2.149 -0.4021  0.4817  0.3415
 5992TIP3    H217910   5.104   0.725   2.290 -1.3769 -0.9187  0.2641
 5993TIP3   OH217911   7.565   4.012   4.484 -0.6137  0.2739 -0.2595
 5993TIP3    H117912   7.632   4.058   4.433  1.5960 -1.6634  0.8576
 5993TIP3    H217913   7.541   3.937   4.430  0.3713 -0.7377  0.6829
 5994TIP3   OH217914   7.309   1.284   4.631 -0.0582  0.2731 -0.2419
 5994TIP3    H117915   7.220   1.250   4.621  0.2052  0.2281 -2.8647
 5994TIP3    H217916   7.297   1.379   4.635 -0.3038  0.2112  0.6271
 5995TIP3   OH217917   2.445   7.912   4.188 -0.2649 -0.1426  0.0149
 5995TIP3    H117918   2.407   7.986   4.235 -0.4864  1.2820 -2.3165
 5995TIP3    H217919   2.428   7.836   4.245 -2.4552  1.1752  1.1977
 5996TIP3   OH217920   5.376   6.242   4.989  0.1537 -0.2268 -0.0876
 5996TIP3    H117921   5.314   6.305   5.024  0.4888  0.8569 -1.4003
 5996TIP3    H217922   5.321   6.173   4.951 -0.2352  0.1837 -0.2739
 5997TIP3   OH217923   5.826   2.244   6.108 -0.8989  0.5570  0.5073
 5997TIP3    H117924   5.910   2.265   6.066 -1.5334  0.7672 -0.6518
 5997TIP3    H217925   5.789   2.330   6.129 -1.2677  0.4850  0.1462
 5998TIP3   OH217926   7.836   1.901   4.262 -0.4123 -0.7829 -0.2374
 5998TIP3    H117927   7.811   1.973   4.320  2.2169 -0.1028  0.1349
 5998TIP3    H217928   7.833   1.823   4.318 -2.4002 -0.8554 -0.4156
 5999TIP3   OH217929   7.045   3.440   4.387 -0.6313 -0.2802 -0.2654
 5999TIP3    H117930   7.029   3.432   4.293 -1.8832 -0.5768 -0.0321
 5999TIP3    H217931   6.964   3.410   4.428 -0.6807  1.3280  0.8769
 6000TIP3   OH217932   6.395   2.748   3.395 -0.1381  0.1168  0.2161
 6000TIP3    H117933   6.309   2.716   3.367 -0.0712 -1.0932  1.3463
 6000TIP3    H217934   6.435   2.782   3.315 -1.6871  0.7557 -0.3077
 6001TIP3   OH217935   7.323   0.409   5.310  0.0495  0.1480  0.0072
 6001TIP3    H117936   7.326   0.339   5.375 -1.4178  0.1085  0.0310
 6001TIP3    H217937   7.230   0.424   5.294  0.3576  1.7890 -0.3265
 6002TIP3   OH217938   0.542   0.469   3.504  0.4905 -0.1701 -0.5305
 6002TIP3    H117939   0.621   0.456   3.557  0.0622  2.5117  0.8190
 6002TIP3    H217940   0.556   0.552   3.459 -1.0908 -0.2424 -1.2010
 6003TIP3   OH217941   4.132   7.033   5.935 -0.4268 -0.2976  0.0244
 6003TIP3    H117942   4.127   7.107   5.996  0.7823 -0.7066  0.6487
 6003TIP3    H217943   4.187   6.969   5.980 -0.0283 -0.8647 -1.2369
 6004TIP3   OH217944   4.786   7.830   4.005 -0.1651 -0.3251  0.3855
 6004TIP3    H117945   4.763   7.921   3.983  0.1000 -0.0340  1.2854
 6004TIP3    H217946   4.741   7.778   3.939 -1.5540  0.3714  0.7556
 6005TIP3   OH217947   4.339   6.401   5.072  0.4611 -0.0893  0.1549
 6005TIP3    H117948   4.370   6.445   5.151 -0.3767  0.2013  0.3256
 6005TIP3    H217949   4.414   6.351   5.041  0.8950  0.0764  0.9392
 6006TIP3   OH217950   6.414   2.308   6.299  0.2990 -0.3380  0.1248
 6006TIP3    H117951   6.508   2.299   6.281  0.6703  1.2710  1.1501
 6006TIP3    H217952   6.405   2.397   6.333 -1.4428 -0.8626  1.0803
 6007TIP3   OH217953   6.374   1.985   2.178 -0.2826 -0.3234  0.7690
 6007TIP3    H117954   6.415   1.931   2.246 -1.0282 -2.6629 -0.5901
 6007TIP3    H217955   6.282   1.987   2.202 -0.4905 -0.8625  0.0362
 6008TIP3   OH217956   7.124   0.051   3.864  0.1208 -0.4647  0.4592
 6008TIP3    H117957   7.184  -0.023   3.873  0.9556  0.0442 -0.7100
 6008TIP3    H217958   7.168   0.122   3.910 -0.8162 -0.7650  1.8317
 6009TIP3   OH217959   7.626   1.020   5.332 -0.5053  0.0527  0.1300
 6009TIP3    H117960   7.541   1.014   5.376  0.2462  2.0494  1.9434
 6009TIP3    H217961   7.604   1.026   5.239 -2.2818 -0.8865  0.4546
 6010TIP3   OH217962   7.507   0.800   2.833  0.4922 -0.0728  0.5278
 6010TIP3    H117963   7.436   0.809   2.896 -1.1865  0.6028 -1.3969
 6010TIP3    H217964   7.480   0.728   2.776 -1.2938  3.5366 -3.4431
 6011TIP3   OH217965   7.397   2.432   6.769 -0.2703  0.0769 -0.0558
 6011TIP3    H117966   7.402   2.528   6.763 -0.2716  0.0572 -0.3783
 6011TIP3    H217967   7.408   2.414   6.863  0.7289  0.3370 -0.1070
 6012TIP3   OH217968   5.323   1.468   4.273 -0.2304  0.1893 -0.2352
 6012TIP3    H117969   5.385   1.451   4.343 -0.9307 -0.7327  0.1755
 6012TIP3    H217970   5.376   1.470   4.193  0.8292  3.0514  0.4843
 6013TIP3   OH217971   1.215   1.411   2.995  0.1496  0.2208  0.5928
 6013TIP3    H117972   1.230   1.498   3.031  2.4859  0.8046 -1.6307
 6013TIP3    H217973   1.167   1.426   2.914  0.0861 -0.5897  0.4744
 6014TIP3   OH217974   6.126   2.960   5.083 -0.3614 -0.3815  0.0177
 6014TIP3    H117975   6.201   2.949   5.024 -1.0892 -1.9374 -0.6326
 6014TIP3    H217976   6.123   3.054   5.100  2.0085 -0.3500  0.4108
 6015TIP3   OH217977   6.232   1.285   6.871  0.5573  0.4746  0.8277
 6015TIP3    H117978   6.185   1.207   6.842  1.2799  0.0527  0.7720
 6015TIP3    H217979   6.323   1.256   6.880  1.0620  1.6330 -0.4258
 6016TIP3   OH217980   2.027   7.341   1.102 -0.3946 -0.0916 -0.0785
 6016TIP3    H117981   1.972   7.269   1.132  0.1942  0.0612  1.3922
 6016TIP3    H217982   2.113   7.301   1.087  0.5478  0.6897  2.9029
 6017TIP3   OH217983   8.383   2.421   4.225 -0.1051  0.6012  0.0730
 6017TIP3    H117984   8.475   2.393   4.227  0.0777  1.1598 -0.3651
 6017TIP3    H217985   8.344   2.379   4.301  0.0622 -1.1990 -0.8078
 6018TIP3   OH217986   6.127   2.700   4.562 -0.5118  0.2133  0.2019
 6018TIP3    H117987   6.039   2.736   4.580 -0.1282  1.8107 -1.0011
 6018TIP3    H217988   6.135   2.702   4.467  0.4479 -0.9005  0.2491
 6019TIP3   OH217989   7.636   1.211   4.247  0.4601 -0.3954 -0.3783
 6019TIP3    H117990   7.548   1.220   4.285  0.5549  0.3197 -0.3242
 6019TIP3    H217991   7.680   1.292   4.270  0.3998  0.2100 -2.3252
 6020TIP3   OH217992   6.662   0.746   2.968 -0.8575 -0.0486  0.1404
 6020TIP3    H117993   6.662   0.704   2.882  1.2002  1.0173 -0.4151
 6020TIP3    H217994   6.605   0.822   2.958 -0.1650  0.3932 -0.4498
 6021TIP3   OH217995   0.285   1.072   2.970  0.0682  0.2286 -0.1280
 6021TIP3    H117996   0.202   1.061   3.017  0.2585  0.7396  0.3386
 6021TIP3    H217997   0.352   1.056   3.037  0.3457  1.3589 -0.1281
 6022TIP3   OH217998   0.118   0.913   3.140 -0.0733 -0.1329  0.3811
 6022TIP3    H117999   0.192   0.855   3.158 -0.4796 -0.4551  1.0492
 6022TIP3    H218000   0.057   0.895   3.211  0.4982  2.2915  1.5246
 6023TIP3   OH218001   7.031   0.802   3.466  0.1277 -0.6384  0.4188
 6023TIP3    H118002   6.998   0.861   3.533  0.2427  0.1924 -0.2458
 6023TIP3    H218003   6.953   0.772   3.420  0.2336  1.1457 -1.0034
 6024TIP3   OH218004   7.216   0.901   4.171  0.0223 -0.2084  0.0923
 6024TIP3    H118005   7.154   0.893   4.098  1.2611 -2.7273 -0.7677
 6024TIP3    H218006   7.214   0.815   4.213  0.0427  0.9145  2.4770
 6025TIP3   OH218007   5.433   7.997   3.363  0.0744  0.3565  0.0692
 6025TIP3    H118008   5.457   8.048   3.441 -2.4508  0.8955  0.5480
 6025TIP3    H218009   5.411   7.911   3.397 -1.7886  0.8140  0.0995
 6026TIP3   OH218010   6.043   2.144   4.401  0.3519 -0.0659  0.5299
 6026TIP3    H118011   6.047   2.239   4.388  0.2517 -0.3467 -1.7257
 6026TIP3    H218012   6.104   2.127   4.472 -1.5498  1.9864  2.7219
 6027TIP3   OH218013   6.236   1.835   1.970 -0.4364 -0.3415 -0.3587
 6027TIP3    H118014   6.173   1.773   2.007  1.1464 -0.9360  1.4515
 6027TIP3    H218015   6.273   1.880   2.046 -1.3815  2.7051 -1.6122
 6028TIP3   OH218016   5.423   3.008   4.095 -0.1611  0.1183 -0.1460
 6028TIP3    H118017   5.417   3.056   4.177  0.0969 -1.6735  0.9384
 6028TIP3    H218018   5.342   2.956   4.092 -1.0500  1.5302 -1.9201
 6029TIP3   OH218019   5.602   1.214   4.073 -0.0921  0.5080 -0.4089
 6029TIP3    H118020   5.690   1.178   4.079 -0.2944  0.4199  2.3492
 6029TIP3    H218021   5.548   1.155   4.125 -1.7989  0.5919 -2.0155
 6030TIP3   OH218022   7.534   0.786   3.548  0.0089  0.0082 -0.0050
 6030TIP3    H118023   7.564   0.707   3.504 -1.6028 -0.2201 -0.7323
 6030TIP3    H218024   7.529   0.852   3.478  1.2760  0.7531  0.5823
 6031TIP3   OH218025   8.320   0.633   2.043  0.1554 -0.2996 -0.7673
 6031TIP3    H118026   8.345   0.598   1.958  0.5787 -2.0814  0.0640
 6031TIP3    H218027   8.226   0.617   2.049 -0.0055  0.4592 -1.1745
 6032TIP3   OH218028   6.856   1.376   4.655 -0.3152  0.2758  0.0615
 6032TIP3    H118029   6.832   1.400   4.745 -0.1847  0.2168  0.1126
 6032TIP3    H218030   6.938   1.327   4.665 -0.9090 -0.7392  0.0228
 6033TIP3   OH218031   8.362   3.049   2.938  0.0325  0.3107  0.3801
 6033TIP3    H118032   8.341   2.977   2.998 -0.7843  1.8465  1.9946
 6033TIP3    H218033   8.457   3.042   2.926  0.2092 -0.0736  1.8128
 6034TIP3   OH218034   5.782   1.565   3.090  0.2966  0.4499  0.3628
 6034TIP3    H118035   5.800   1.509   3.014 -0.6483  0.7289 -0.0823
 6034TIP3    H218036   5.795   1.508   3.166  0.0946 -0.1652 -0.0586
 6035TIP3   OH218037   6.776   0.208   4.809  0.6893 -0.9802 -0.1314
 6035TIP3    H118038   6.755   0.136   4.749  1.8019 -0.9017 -0.6382
 6035TIP3    H218039   6.850   0.175   4.860  1.8718  0.1557 -1.0601
 6036TIP3   OH218040   4.537   2.338   1.969 -0.0270 -0.2564 -0.2093
 6036TIP3    H118041   4.599   2.400   1.932 -0.1337 -0.3519 -0.5466
 6036TIP3    H218042   4.479   2.316   1.897 -0.5672 -0.0284  0.1557
 6037TIP3   OH218043   7.428   1.749   3.863 -0.3539  0.1299 -0.2053
 6037TIP3    H118044   7.388   1.674   3.907 -0.8424  0.7229  0.3730
 6037TIP3    H218045   7.504   1.713   3.818 -1.6743 -1.0772 -1.5266
 6038TIP3   OH218046   7.693   1.551   3.411 -0.6039 -0.0893  0.3933
 6038TIP3    H118047   7.728   1.481   3.465 -0.4649  1.0394  1.7826
 6038TIP3    H218048   7.734   1.538   3.325  0.9789 -0.4838  1.2046
 6039TIP3   OH218049   5.862   1.088   4.077  0.1257  0.6971 -0.4807
 6039TIP3    H118050   5.927   1.147   4.039 -0.7790  0.3281 -2.7193
 6039TIP3    H218051   5.863   1.108   4.170  2.1032  2.0024 -0.7366
 6040TIP3   OH218052   6.639   2.364   3.985  0.4363 -0.3189 -0.5620
 6040TIP3    H118053   6.623   2.379   4.078 -2.9979  0.3185 -1.1998
 6040TIP3    H218054   6.689   2.282   3.982 -2.4786 -2.2649  1.7104
 6041TIP3   OH218055   7.036   0.244   2.826 -0.0724 -0.4505 -0.2662
 6041TIP3    H118056   7.051   0.228   2.919 -0.7290  0.7951  0.0670
 6041TIP3    H218057   6.986   0.168   2.796 -0.2083 -0.6607  0.4991
 6042TIP3   OH218058   7.694   0.405   3.896  0.4352 -0.4929 -0.2516
 6042TIP3    H118059   7.663   0.495   3.905 -0.5229 -0.7874 -0.5821
 6042TIP3    H218060   7.789   0.412   3.896  0.3610  0.4843  0.0886
 6043TIP3   OH218061   6.195   2.940   3.087  0.2472  0.1609 -0.7289
 6043TIP3    H118062   6.269   2.943   3.026  0.8110  0.0961 -0.0565
 6043TIP3    H218063   6.215   2.867   3.146  0.7454  1.5348  0.8300
 6044TIP3   OH218064   7.112   1.579   3.880 -0.2849 -0.0091 -0.1035
 6044TIP3    H118065   7.058   1.595   3.958  0.6368 -1.0228  0.7683
 6044TIP3    H218066   7.059   1.521   3.825 -0.4274 -0.3372  0.3740
 6045TIP3   OH218067   6.391   2.627   2.693  0.1512  0.1193  0.2250
 6045TIP3    H118068   6.409   2.657   2.782  0.0456 -1.7017  0.8826
 6045TIP3    H218069   6.332   2.553   2.704 -1.4719  1.1041 -1.4791
 6046TIP3   OH218070   4.633   0.207   4.557  0.7695 -0.1904  0.2985
 6046TIP3    H118071   4.545   0.172   4.568  0.6862  0.1898  0.8728
 6046TIP3    H218072   4.691   0.132   4.568  0.5553 -0.2959  0.7125
 6047TIP3   OH218073   5.891   1.651   1.526  0.0258 -0.5221 -1.1088
 6047TIP3    H118074   5.908   1.601   1.606 -1.0619 -1.9114 -1.7302
 6047TIP3    H218075   5.871   1.739   1.558 -1.6464 -1.3606  0.2592
 6048TIP3   OH218076   6.671   2.362   2.855  0.5047 -0.9246 -0.4581
 6048TIP3    H118077   6.658   2.308   2.777  3.2693  0.0245 -1.6339
 6048TIP3    H218078   6.590   2.351   2.906 -0.1389 -3.8944 -2.0196
 6049TIP3   OH218079   5.895   2.273   3.075  0.4193 -0.4349 -0.1296
 6049TIP3    H118080   5.807   2.301   3.047  0.7830  0.4202 -0.4143
 6049TIP3    H218081   5.880   2.227   3.157 -0.6258 -2.6771 -1.5250
 6050TIP3   OH218082   7.229   1.914   3.938 -0.2308 -0.1792 -0.0373
 6050TIP3    H118083   7.169   1.859   3.988  1.1843 -0.5052  1.3302
 6050TIP3    H218084   7.308   1.860   3.927 -0.3682  0.0305 -2.2920
 6051TIP3   OH218085   0.588   0.364   4.845  0.4051 -0.4969 -0.0934
 6051TIP3    H118086   0.497   0.393   4.844  0.7553  0.6857  0.8840
 6051TIP3    H218087   0.637   0.443   4.870  1.3646 -2.0105  3.0268
 6052TIP3   OH218088   5.807   0.287   3.129 -0.1180  1.0875 -0.3346
 6052TIP3    H118089   5.841   0.332   3.206  1.6973 -1.5580  0.4690
 6052TIP3    H218090   5.712   0.282   3.143  0.2235  0.4473  1.8298
 6053TIP3   OH218091   7.597   1.913   0.899 -0.4730  0.1693  0.7563
 6053TIP3    H118092   7.525   1.866   0.942  0.7862 -1.3849  1.2216
 6053TIP3    H218093   7.655   1.843   0.868  0.1827  1.3675 -0.7684
 6054TIP3   OH218094   3.015   7.323   4.235 -0.5370  0.6149  0.6623
 6054TIP3    H118095   3.020   7.283   4.148  0.3159  1.0364  0.5175
 6054TIP3    H218096   2.930   7.368   4.235 -0.1614  1.3348 -0.2558
 6055TIP3   OH218097   6.701   2.424   4.883 -0.5688  0.1967 -0.1986
 6055TIP3    H118098   6.626   2.455   4.932  0.8006  0.7535  1.5876
 6055TIP3    H218099   6.726   2.497   4.826 -0.1032  0.7621  0.7305
 6056TIP3   OH218100   5.052   1.365   4.325 -0.5751  0.3862 -0.2663
 6056TIP3    H118101   5.013   1.320   4.250  0.8097  0.2357 -0.9088
 6056TIP3    H218102   5.141   1.386   4.297 -0.6585  2.0335  0.6477
 6057TIP3   OH218103   2.769   7.799   5.368  0.5021  0.0436  0.0918
 6057TIP3    H118104   2.788   7.855   5.443 -0.2246  2.3199 -1.3520
 6057TIP3    H218105   2.844   7.812   5.309  1.1716 -1.8876  0.4788
 6058TIP3   OH218106   7.267   3.436   6.554 -0.2336  0.1844  0.9074
 6058TIP3    H118107   7.179   3.458   6.521 -0.4584  0.1220  1.4555
 6058TIP3    H218108   7.264   3.341   6.567  1.2602 -0.4521 -2.9925
 6059TIP3   OH218109   5.714   2.641   5.071  0.3335  0.0333 -0.2245
 6059TIP3    H118110   5.629   2.683   5.061 -0.3401 -1.6067 -1.6261
 6059TIP3    H218111   5.737   2.655   5.163 -1.5381  0.3497  0.2099
 6060TIP3   OH218112   4.108   1.355   1.859 -0.0675  0.0923 -0.0922
 6060TIP3    H118113   4.183   1.411   1.840 -0.9141  0.9963 -0.7988
 6060TIP3    H218114   4.035   1.416   1.872 -1.4156 -0.8857 -2.7086
 6061TIP3   OH218115   3.534   7.867   3.583 -0.9848  0.2979  0.4691
 6061TIP3    H118116   3.599   7.937   3.596  0.8225 -1.2989  0.2939
 6061TIP3    H218117   3.518   7.833   3.671  0.5733 -1.1519  0.2282
 6062TIP3   OH218118   8.275   2.555   0.939 -0.1117 -0.2988  0.6349
 6062TIP3    H118119   8.335   2.516   0.875 -0.2266 -0.0717  0.3876
 6062TIP3    H218120   8.287   2.650   0.928 -0.8208 -0.2512  0.2940
 6063TIP3   OH218121   5.347   1.523   5.231 -0.6469  0.1041  0.2528
 6063TIP3    H118122   5.297   1.596   5.195  0.1387  0.4723 -0.0902
 6063TIP3    H218123   5.332   1.528   5.325  0.8074  1.7768  0.4221
 6064TIP3   OH218124   2.810   7.714   3.034  0.0030 -0.0496  0.0715
 6064TIP3    H118125   2.752   7.778   2.991 -0.0802 -0.8011 -0.9600
 6064TIP3    H218126   2.897   7.736   3.002  0.0722  0.0324  0.3189
 6065TIP3   OH218127   6.856   0.521   6.099 -0.1381 -0.6628  0.1776
 6065TIP3    H118128   6.806   0.567   6.032  2.0397 -0.9388 -1.6804
 6065TIP3    H218129   6.798   0.451   6.128 -0.8762 -0.9188 -1.8601
 6066TIP3   OH218130   2.632   7.739   2.596 -0.1103  0.3590  0.1580
 6066TIP3    H118131   2.653   7.814   2.541  1.4563  0.9183  1.4788
 6066TIP3    H218132   2.582   7.680   2.539  1.8372  0.7362 -1.9795
 6067TIP3   OH218133   7.970   0.846   4.678 -0.2970 -0.0126 -0.5899
 6067TIP3    H118134   7.876   0.842   4.659 -0.2389 -0.5296 -0.7490
 6067TIP3    H218135   8.012   0.798   4.607  0.0529 -0.2135 -0.2486
 6068TIP3   OH218136   4.309   0.621   5.154  0.1712 -0.5176  0.4919
 6068TIP3    H118137   4.215   0.617   5.170  0.2997 -0.8113  1.1673
 6068TIP3    H218138   4.334   0.711   5.177  0.3209 -0.8777  1.7743
 6069TIP3   OH218139   4.153   1.940   2.348  0.3622 -0.0172  0.0660
 6069TIP3    H118140   4.132   1.886   2.424  0.0265 -0.0941 -0.0801
 6069TIP3    H218141   4.216   1.888   2.298 -0.0272 -0.3233 -0.1210
 6070TIP3   OH218142   7.054   1.525   6.092  0.0114  0.2751 -0.3683
 6070TIP3    H118143   6.960   1.531   6.072  0.2038  1.6629 -0.9118
 6070TIP3    H218144   7.060   1.544   6.185 -0.2222  0.4107 -0.3803
 6071TIP3   OH218145   4.921   1.111   3.443  0.2991  0.0409 -0.7145
 6071TIP3    H118146   4.969   1.142   3.366  1.6727 -1.1941 -0.3690
 6071TIP3    H218147   4.929   1.181   3.507  2.5070 -0.5507 -0.3091
 6072TIP3   OH218148   7.321   0.644   1.912 -0.0560 -0.2617  0.6587
 6072TIP3    H118149   7.250   0.707   1.927  1.4417  1.2512  1.4638
 6072TIP3    H218150   7.379   0.688   1.850  0.5852 -1.1603  0.6225
 6073TIP3   OH218151   1.967   0.861   2.489  0.2753 -0.1806  0.4022
 6073TIP3    H118152   1.949   0.898   2.403 -1.6475 -0.4077  0.6862
 6073TIP3    H218153   2.001   0.773   2.470 -0.9043 -0.5364 -0.1188
 6074TIP3   OH218154   6.442   2.000   5.215  0.1217 -0.2215 -0.1524
 6074TIP3    H118155   6.363   2.053   5.225  1.3688  1.5382  0.8081
 6074TIP3    H218156   6.477   1.992   5.304  0.9696 -1.0511 -0.5475
 6075TIP3   OH218157   7.303   2.391   2.756  0.6522  0.3997 -0.0720
 6075TIP3    H118158   7.271   2.360   2.840  1.4359  0.5815  0.2890
 6075TIP3    H218159   7.376   2.449   2.777  2.1971 -1.1682 -0.9629
 6076TIP3   OH218160   7.894   0.519   6.301  0.5845 -0.7036  0.1666
 6076TIP3    H118161   7.912   0.577   6.227 -0.7174 -0.4434  0.0346
 6076TIP3    H218162   7.924   0.568   6.378 -0.7577  0.2939  0.0834
 6077TIP3   OH218163   3.126   4.977   0.083  0.0478  0.1512  0.0414
 6077TIP3    H118164   3.059   4.910   0.074 -0.5026  0.9403 -1.9450
 6077TIP3    H218165   3.079   5.060   0.077  1.4862  0.7712 -4.8603
 6078TIP3   OH218166   6.204   1.589   6.853  0.5731 -0.0540 -0.0100
 6078TIP3    H118167   6.160   1.618   6.933 -0.4767  0.4145 -0.7397
 6078TIP3    H218168   6.219   1.496   6.867 -0.7047 -0.2310  0.2323
 6079TIP3   OH218169   5.597   0.218   4.053 -0.3339 -0.0174  0.3004
 6079TIP3    H118170   5.553   0.133   4.051 -1.9079  0.7935 -2.1086
 6079TIP3    H218171   5.690   0.197   4.051 -0.6836 -1.6885  0.8842
 6080TIP3   OH218172  -0.022   0.560   5.137 -0.5564 -0.8605  0.7626
 6080TIP3    H118173   0.018   0.477   5.111  0.3292 -0.3844  0.5567
 6080TIP3    H218174   0.007   0.574   5.227  0.6365  0.0109  0.2521
 6081TIP3   OH218175   6.363   3.554   3.534 -0.0579  0.0748 -0.0053
 6081TIP3    H118176   6.330   3.567   3.446 -0.2344 -1.8105 -0.2378
 6081TIP3    H218177   6.285   3.541   3.588  0.0794  0.5629  0.3114
 6082TIP3   OH218178   6.396   1.775   2.793  0.1120  0.0276 -0.0136
 6082TIP3    H118179   6.361   1.832   2.862 -1.7440  0.1291 -0.9986
 6082TIP3    H218180   6.327   1.774   2.726  1.3790 -1.0227 -1.3295
 6083TIP3   OH218181   6.234   0.593   4.946  0.1132 -0.4304  0.3947
 6083TIP3    H118182   6.274   0.512   4.976  0.6258  0.0421  0.9895
 6083TIP3    H218183   6.180   0.622   5.019 -0.3638 -0.4288  0.0460
 6084TIP3   OH218184   7.624   2.129   5.064  0.4834 -0.1237 -0.2479
 6084TIP3    H118185   7.593   2.219   5.075  1.2235  0.1734 -0.5328
 6084TIP3    H218186   7.671   2.109   5.145 -1.0265 -0.8211  0.4750
 6085TIP3   OH218187   7.319   2.199   4.580 -0.0030  0.0195 -0.1968
 6085TIP3    H118188   7.344   2.174   4.669  0.3702  1.3895  0.0906
 6085TIP3    H218189   7.227   2.224   4.586 -0.0828 -0.2496 -0.2760
 6086TIP3   OH218190   8.250   2.907   5.710  0.1478 -0.0436  0.0054
 6086TIP3    H118191   8.236   2.961   5.632  1.0635  1.1588  0.6433
 6086TIP3    H218192   8.181   2.935   5.770  0.2858  0.0221  0.1337
 6087TIP3   OH218193   6.027   1.542   1.754  0.2548 -0.7825  0.0871
 6087TIP3    H118194   5.977   1.470   1.792 -0.6541 -0.8599 -1.1957
 6087TIP3    H218195   5.984   1.621   1.787 -1.4666 -0.8436 -1.8817
 6088TIP3   OH218196   4.223   7.118   2.986  0.2543  0.2130 -0.1758
 6088TIP3    H118197   4.156   7.159   2.932  1.0506 -1.1243 -2.2527
 6088TIP3    H218198   4.183   7.110   3.072 -1.4873  1.3022 -0.8600
 6089TIP3   OH218199   3.499   7.214   6.245  0.3854  0.5939  0.3909
 6089TIP3    H118200   3.582   7.170   6.265  0.4200 -0.3418 -1.6654
 6089TIP3    H218201   3.506   7.238   6.152 -1.7885  0.1265  0.0717
 6090TIP3   OH218202   5.328   2.964   4.667  0.8577  0.2638  0.4638
 6090TIP3    H118203   5.276   3.023   4.720 -0.1332  0.0279 -0.2368
 6090TIP3    H218204   5.274   2.945   4.590  1.8731 -0.1589 -0.1712
 6091TIP3   OH218205   0.820   0.715   5.663 -0.1689 -0.0110 -0.5092
 6091TIP3    H118206   0.806   0.621   5.658  0.0494  0.0702 -3.6585
 6091TIP3    H218207   0.915   0.725   5.663 -0.1942  0.2302 -0.6020
 6092TIP3   OH218208   6.079   1.234   2.526  0.4284 -0.0147 -0.3294
 6092TIP3    H118209   6.072   1.143   2.496 -1.6123 -0.0456  0.1761
 6092TIP3    H218210   6.075   1.286   2.446  2.9192 -0.3850 -0.7435
 6093TIP3   OH218211   7.163   3.047   2.841 -0.3225 -0.1793  0.0945
 6093TIP3    H118212   7.079   3.066   2.800 -0.8484  0.7094  1.5606
 6093TIP3    H218213   7.157   2.954   2.864  0.1242 -0.7903 -2.1323
 6094TIP3   OH218214   5.253   1.217   3.534 -0.2542 -0.0281 -0.6385
 6094TIP3    H118215   5.214   1.199   3.448 -0.4863 -1.3439 -0.2639
 6094TIP3    H218216   5.178   1.226   3.593 -0.0642  0.0348 -0.4050
 6095TIP3   OH218217   6.395   0.309   2.967  0.8346 -0.0152 -0.2995
 6095TIP3    H118218   6.413   0.220   2.999 -0.6631 -0.2761 -0.1431
 6095TIP3    H218219   6.395   0.363   3.046  0.6275 -0.0693 -0.2619
 6096TIP3   OH218220   7.889   0.856   5.168  0.1167 -0.0329  0.0668
 6096TIP3    H118221   7.905   0.773   5.212  0.9172  0.0578 -0.0431
 6096TIP3    H218222   7.960   0.863   5.104 -1.3370 -0.4395 -1.6462
 6097TIP3   OH218223   6.879   3.060   2.745 -0.2298  0.2964  0.4166
 6097TIP3    H118224   6.854   3.133   2.689 -0.1519 -1.3230 -1.8299
 6097TIP3    H218225   6.803   3.044   2.801 -0.6747  1.3437  0.1159
 6098TIP3   OH218226   8.183   0.023   4.598  0.1585 -0.2262 -0.5014
 6098TIP3    H118227   8.210   0.012   4.689 -1.2913  0.1369 -0.0168
 6098TIP3    H218228   8.262   0.005   4.548  0.9776 -0.4248  0.8259
 6099TIP3   OH218229   7.690   0.994   5.773  0.2797 -0.2836  0.4708
 6099TIP3    H118230   7.597   1.002   5.754  0.7097  0.8334 -1.3136
 6099TIP3    H218231   7.732   1.054   5.712  2.3253 -2.0969  0.0429
 6100TIP3   OH218232   5.886   1.830   3.946  0.2403 -0.1469 -0.6346
 6100TIP3    H118233   5.897   1.876   4.030 -1.4863 -1.3194  0.2495
 6100TIP3    H218234   5.867   1.900   3.883  2.6561  0.8692 -0.3082
 6101TIP3   OH218235   6.009   0.603   5.432 -0.2178 -0.6026 -0.0247
 6101TIP3    H118236   5.917   0.620   5.452  0.4020 -0.3119  2.8928
 6101TIP3    H218237   6.017   0.508   5.434 -0.9576 -0.7798 -2.9979
 6102TIP3   OH218238   5.069   7.805   3.972  0.7382 -0.2639  0.1907
 6102TIP3    H118239   5.091   7.725   4.019 -0.5733 -0.6506  0.1568
 6102TIP3    H218240   4.975   7.815   3.984  0.8906  1.2984  0.2264
 6103TIP3   OH218241   5.499   1.083   5.383 -0.7053  0.2041  0.1874
 6103TIP3    H118242   5.415   1.092   5.338 -1.1023  0.3114  0.9400
 6103TIP3    H218243   5.554   1.034   5.322 -1.1436  0.6029 -0.5277
 6104TIP3   OH218244   7.067   2.293   5.113 -0.1282  0.3398 -1.1664
 6104TIP3    H118245   7.161   2.297   5.131 -0.0439 -1.7797 -1.0151
 6104TIP3    H218246   7.061   2.242   5.032 -1.2118 -0.4265 -0.6036
 6105TIP3   OH218247   4.803   7.713   6.483 -0.2529  0.2890  0.2059
 6105TIP3    H118248   4.862   7.786   6.466 -1.1125  1.0780  0.6223
 6105TIP3    H218249   4.817   7.654   6.409 -0.0918  1.2149 -0.5095
 6106TIP3   OH218250   0.478   3.612   4.827  0.4233 -0.1721  0.2322
 6106TIP3    H118251   0.527   3.535   4.856 -0.8997 -1.5734 -1.1266
 6106TIP3    H218252   0.421   3.633   4.900 -0.2359 -1.3929  0.0926
 6107TIP3   OH218253   3.521   0.960   4.900  0.0301 -0.0059 -0.3246
 6107TIP3    H118254   3.439   0.996   4.865  0.3202  0.9583 -0.0389
 6107TIP3    H218255   3.540   0.885   4.843 -1.7362 -1.0604  0.4373
 6108TIP3   OH218256   7.283   2.730   3.614  0.0204 -0.4297  0.0087
 6108TIP3    H118257   7.357   2.694   3.663 -0.9501  0.0286  1.8381
 6108TIP3    H218258   7.294   2.825   3.619 -1.0053 -0.3431  0.8134
 6109TIP3   OH218259   6.408   2.220   3.274 -0.3748 -0.0590 -0.1871
 6109TIP3    H118260   6.321   2.206   3.312 -0.5651 -0.5516 -0.8031
 6109TIP3    H218261   6.443   2.132   3.262  0.5428  0.1495  0.8139
 6110TIP3   OH218262   4.933   0.888   2.091 -0.3330  0.2953  0.0372
 6110TIP3    H118263   5.004   0.946   2.063 -0.2116 -0.3762 -1.0720
 6110TIP3    H218264   4.867   0.947   2.126 -0.7418  1.2394 -2.2235
 6111TIP3   OH218265   7.709   0.320   4.979  0.2239 -0.2636 -0.2006
 6111TIP3    H118266   7.748   0.236   4.955  1.2941  0.0422  0.4633
 6111TIP3    H218267   7.641   0.298   5.043  0.3422 -0.6451 -0.2072
 6112TIP3   OH218268   5.769   0.947   3.728  0.1341  0.4912  0.3760
 6112TIP3    H118269   5.674   0.938   3.731  0.2504 -1.8113 -1.4015
 6112TIP3    H218270   5.785   1.012   3.659 -0.1543  1.1208  0.9008
 6113TIP3   OH218271   6.490   2.334   5.186  0.2037 -0.2744  0.2560
 6113TIP3    H118272   6.402   2.299   5.199  0.5491 -1.8296 -1.3136
 6113TIP3    H218273   6.477   2.419   5.145 -0.5533 -1.2721 -1.6344
 6114TIP3   OH218274   6.798   2.790   5.078  0.0367 -0.6508 -0.0656
 6114TIP3    H118275   6.752   2.778   5.161  0.4368  0.2696  0.2872
 6114TIP3    H218276   6.849   2.709   5.067  0.0733 -0.7244  0.6388
 6115TIP3   OH218277   4.937   1.695   2.787  0.4765  0.3021  0.2663
 6115TIP3    H118278   4.913   1.606   2.760  1.4441 -0.4932  1.9184
 6115TIP3    H218279   5.026   1.707   2.753  0.0074  0.9955 -0.7399
 6116TIP3   OH218280   5.238   7.614   1.901 -0.1261 -0.1680 -0.0812
 6116TIP3    H118281   5.228   7.557   1.825  0.4623 -1.0005  0.4580
 6116TIP3    H218282   5.228   7.555   1.976  1.7012  0.2042  0.4808
 6117TIP3   OH218283   8.172   3.370   0.885  0.0516  0.2607  0.4930
 6117TIP3    H118284   8.241   3.416   0.933 -0.7765  0.0963  1.8798
 6117TIP3    H218285   8.134   3.311   0.950  0.5715 -1.8135 -1.0592
 6118TIP3   OH218286   6.664   1.512   2.967  0.1331 -0.4056  0.0715
 6118TIP3    H118287   6.713   1.485   3.045  0.4033  1.0279  0.4097
 6118TIP3    H218288   6.644   1.604   2.982  2.1089  0.5261 -2.5199
 6119TIP3   OH218289   6.544   1.669   6.244  0.6949  0.5458  0.6344
 6119TIP3    H118290   6.462   1.703   6.206 -0.3303  0.2891  2.5511
 6119TIP3    H218291   6.556   1.584   6.203 -0.0902  0.5183  0.4531
 6120TIP3   OH218292   7.862   2.451   5.409  0.2582  0.3002  0.4243
 6120TIP3    H118293   7.952   2.418   5.417  0.3384  0.2967 -0.3861
 6120TIP3    H218294   7.838   2.478   5.497  0.8145 -0.3255  0.7724
 6121TIP3   OH218295   4.947   5.021   1.093 -0.2664  0.0433  0.0850
 6121TIP3    H118296   4.958   4.932   1.128 -0.7708  0.4403  1.2680
 6121TIP3    H218297   4.892   5.065   1.157 -0.7867  0.9429 -0.9689
 6122TIP3   OH218298   7.892   7.452   2.368  0.1062 -0.4669 -0.3489
 6122TIP3    H118299   7.843   7.376   2.335 -1.0775  0.0343  0.2065
 6122TIP3    H218300   7.825   7.506   2.411  1.0278  0.6290 -0.2758
 6123TIP3   OH218301   5.725   1.790   0.921 -0.0468 -0.1774  0.2708
 6123TIP3    H118302   5.731   1.723   0.853 -0.6894 -0.1503  0.1806
 6123TIP3    H218303   5.802   1.776   0.976  0.2059 -0.5220 -0.1696
 6124TIP3   OH218304   7.965   1.900   5.424  0.4768  0.0029 -0.3491
 6124TIP3    H118305   7.906   1.839   5.379 -0.6578  1.0453 -0.3039
 6124TIP3    H218306   8.043   1.848   5.442 -0.1742 -1.2330 -0.9729
 6125TIP3   OH218307   0.602   0.434   2.627  0.2783 -0.3272  0.0829
 6125TIP3    H118308   0.538   0.489   2.672 -0.3774 -0.6530 -0.4406
 6125TIP3    H218309   0.572   0.344   2.643  0.2143 -0.4585 -0.7291
 6126TIP3   OH218310   6.932   2.227   1.635  0.5273 -0.5752 -0.8132
 6126TIP3    H118311   6.840   2.252   1.645  0.9396  0.2739  1.1809
 6126TIP3    H218312   6.934   2.134   1.653  0.1490 -0.4723 -0.2260
 6127TIP3   OH218313   7.311   1.818   2.764  0.1776  0.3257  0.1657
 6127TIP3    H118314   7.378   1.884   2.743  2.0979 -1.7565 -0.5225
 6127TIP3    H218315   7.282   1.786   2.678  2.2581 -2.5831  0.4720
 6128TIP3   OH218316   0.629   0.220   2.924  0.0570  0.1983  0.1437
 6128TIP3    H118317   0.724   0.219   2.917  0.1305 -1.7861  1.0834
 6128TIP3    H218318   0.598   0.221   2.833  0.9735 -0.6950 -0.1913
 6129TIP3   OH218319   4.501   7.977   3.082 -0.4770 -0.1101 -0.0583
 6129TIP3    H118320   4.590   7.980   3.048 -1.0220 -1.2127 -1.6625
 6129TIP3    H218321   4.455   7.918   3.023 -2.8389  2.1673 -0.5983
 6130TIP3   OH218322   0.155   1.126   4.198  0.7766 -0.0284  0.4119
 6130TIP3    H118323   0.097   1.064   4.155  2.0708 -0.1424 -1.2120
 6130TIP3    H218324   0.130   1.212   4.163  1.1151  0.0029  0.2419
 6131TIP3   OH218325   5.944   7.932   3.757  0.1288  0.0484  0.1535
 6131TIP3    H118326   6.034   7.910   3.734  0.4023  1.4774 -0.2316
 6131TIP3    H218327   5.922   8.005   3.698 -1.5808 -0.8777 -0.3847
 6132TIP3   OH218328   6.725   3.837   4.592  0.2322  0.5216  0.3898
 6132TIP3    H118329   6.807   3.878   4.618 -0.8023  2.0886  1.2691
 6132TIP3    H218330   6.706   3.773   4.660  0.7678  0.0908  0.1350
 6133TIP3   OH218331   6.879   7.225   2.962 -0.0826 -0.5546 -0.2485
 6133TIP3    H118332   6.849   7.232   3.052 -1.9229  1.3998 -0.9539
 6133TIP3    H218333   6.813   7.170   2.919  0.7191 -1.3844 -0.4254
 6134TIP3   OH218334   0.128   1.880   3.673  0.2411  0.7460 -0.0152
 6134TIP3    H118335   0.124   1.823   3.596  1.5387  0.9708 -0.2640
 6134TIP3    H218336   0.218   1.870   3.705 -0.4290  0.2808  1.7582
 6135TIP3   OH218337   1.646   1.807   2.714  0.2474 -0.1429 -0.1143
 6135TIP3    H118338   1.556   1.772   2.716  0.4608 -0.7250 -0.7301
 6135TIP3    H218339   1.635   1.900   2.733 -0.4915 -0.2058 -0.1967
 6136TIP3   OH218340   0.104   4.465   0.473 -0.1879  0.1413  0.1009
 6136TIP3    H118341   0.148   4.531   0.526  0.3119 -0.3012  0.2406
 6136TIP3    H218342   0.173   4.404   0.447 -0.5831 -0.1370 -0.3163
 6137TIP3   OH218343   7.693   1.014   3.604  0.0118  0.4196  0.0467
 6137TIP3    H118344   7.643   0.933   3.621  0.2121  0.9290  3.3373
 6137TIP3    H218345   7.636   1.084   3.634  1.4576  1.2294  0.9406
 6138TIP3   OH218346   7.532   0.754   5.680  0.1806 -0.1438  0.5282
 6138TIP3    H118347   7.518   0.728   5.771  0.3618 -0.1197  0.5634
 6138TIP3    H218348   7.445   0.750   5.640 -0.2035  1.6339  1.1511
 6139TIP3   OH218349   3.128   7.504   4.663 -0.3316  0.1826 -0.4440
 6139TIP3    H118350   3.148   7.463   4.579 -0.7111 -1.3667  0.2101
 6139TIP3    H218351   3.035   7.486   4.676 -0.4426  1.0424 -0.0193
 6140TIP3   OH218352   4.082   7.331   1.431 -0.4885 -0.7259  0.7329
 6140TIP3    H118353   4.147   7.286   1.378  0.2390  1.0952  0.0431
 6140TIP3    H218354   3.999   7.317   1.384 -0.3089 -1.4759  0.6336
 6141TIP3   OH218355   6.797   1.642   3.688 -0.0937 -0.0160  0.2829
 6141TIP3    H118356   6.713   1.622   3.647  0.1928 -1.8617  0.5750
 6141TIP3    H218357   6.776   1.656   3.780 -0.2357  0.6465  0.1522
 6142TIP3   OH218358   0.180   0.504   3.030  0.3306  0.2384  0.2094
 6142TIP3    H118359   0.258   0.449   3.027 -0.7472 -1.3299  0.1729
 6142TIP3    H218360   0.107   0.444   3.016 -0.8846  1.7027  0.0177
 6143TIP3   OH218361   3.027   1.195   3.878 -0.5039  0.4586  0.0788
 6143TIP3    H118362   3.120   1.213   3.873 -0.0504 -1.5574  0.8693
 6143TIP3    H218363   3.000   1.229   3.963 -0.4648  0.9643 -0.1137
 6144TIP3   OH218364   8.327   2.396   5.078 -0.6747  0.2082 -0.1409
 6144TIP3    H118365   8.333   2.489   5.053  1.7671 -0.4787 -2.4568
 6144TIP3    H218366   8.404   2.356   5.037 -2.3214 -3.0793 -0.1838
 6145TIP3   OH218367   6.654   1.887   2.730  0.1749  0.6610 -0.2013
 6145TIP3    H118368   6.677   1.826   2.660  1.8024  0.7753  0.2246
 6145TIP3    H218369   6.567   1.859   2.758 -0.0411 -0.0509 -1.5404
 6146TIP3   OH218370   6.026   1.766   3.134  0.2174 -0.0813  0.5959
 6146TIP3    H118371   6.069   1.844   3.099 -0.5545 -0.0445 -0.2680
 6146TIP3    H218372   5.974   1.732   3.062 -0.9542 -0.3203  1.5333
 6147TIP3   OH218373   8.194   1.609   2.476  0.3260  0.2305 -0.5114
 6147TIP3    H118374   8.182   1.515   2.487  0.6207  0.2822  0.2407
 6147TIP3    H218375   8.105   1.644   2.467  0.1206  0.1150  1.0519
 6148TIP3   OH218376   8.119   1.168   2.974  0.1406  0.3935 -0.0223
 6148TIP3    H118377   8.033   1.146   3.009  1.1698 -0.3107  2.1034
 6148TIP3    H218378   8.120   1.264   2.970 -0.2863  0.4527  1.1315
 6149TIP3   OH218379   8.338   1.146   5.571 -0.4870  0.2102  0.3137
 6149TIP3    H118380   8.349   1.175   5.481  0.8746  0.3500  0.5254
 6149TIP3    H218381   8.384   1.063   5.576  0.5767  0.8389  1.2228
 6150TIP3   OH218382   1.224   1.545   2.653  0.3056 -0.5361  0.3172
 6150TIP3    H118383   1.150   1.488   2.674  0.3264 -0.2366  1.2391
 6150TIP3    H218384   1.258   1.511   2.570 -1.6411  0.1103 -0.7652
 6151TIP3   OH218385   7.501   2.485   2.163 -0.2954  0.3532  0.2932
 6151TIP3    H118386   7.493   2.448   2.074  1.1594 -0.4509  0.4685
 6151TIP3    H218387   7.427   2.545   2.171 -0.6882  0.1190 -1.3172
 6152TIP3   OH218388   8.280   3.288   3.657 -0.3628 -0.1032  0.5214
 6152TIP3    H118389   8.334   3.357   3.696  0.8190 -1.4325  1.2628
 6152TIP3    H218390   8.310   3.207   3.699 -0.3636 -1.3396 -1.7966
 6153TIP3   OH218391   1.559   0.452   3.263  0.4140  0.0376  0.3757
 6153TIP3    H118392   1.492   0.493   3.208  0.7174 -0.5261 -0.4211
 6153TIP3    H218393   1.552   0.497   3.347 -1.9169 -0.9731  0.7523
 6154TIP3   OH218394   1.338   0.886   3.965 -0.4146 -0.1592  0.4036
 6154TIP3    H118395   1.260   0.939   3.947  1.5943  2.0830 -2.1432
 6154TIP3    H218396   1.409   0.949   3.971  1.5102 -2.3117  0.7599
 6155TIP3   OH218397   8.342   0.981   6.855  0.0730  0.4942 -0.9093
 6155TIP3    H118398   8.309   0.903   6.899 -0.6555 -0.3604 -2.9273
 6155TIP3    H218399   8.411   0.948   6.797  0.2566  1.4499 -1.2373
 6156TIP3   OH218400   2.528   2.144   4.502  0.0648  0.6139 -0.1149
 6156TIP3    H118401   2.593   2.076   4.488  0.2587  0.5332  1.1508
 6156TIP3    H218402   2.491   2.160   4.415 -1.4954 -2.5862 -0.0898
 6157TIP3   OH218403   7.152   7.944   4.831  0.4780 -0.0689 -0.1034
 6157TIP3    H118404   7.093   7.936   4.906  0.4245 -0.7586 -0.2160
 6157TIP3    H218405   7.101   7.912   4.757  1.4694 -2.0112  0.0414
 6158TIP3   OH218406   0.619   2.716   5.788 -0.3877  0.9254 -0.2044
 6158TIP3    H118407   0.676   2.792   5.799 -1.4280  1.8442 -0.9778
 6158TIP3    H218408   0.619   2.700   5.694 -0.4032  0.1422 -0.0707
 6159TIP3   OH218409   0.168   0.634   5.708  0.2311 -0.0602 -0.4090
 6159TIP3    H118410   0.221   0.564   5.672  1.9548  2.4556 -2.9490
 6159TIP3    H218411   0.219   0.668   5.782  1.1680  0.9717 -1.5270
 6160TIP3   OH218412   5.851   7.868   2.648  0.1177 -0.0549  0.2320
 6160TIP3    H118413   5.928   7.882   2.594 -0.3086  2.2718  0.1644
 6160TIP3    H218414   5.880   7.808   2.717  1.5276 -0.4864 -0.7212
 6161TIP3   OH218415   2.263   5.653   0.074 -0.0156  0.1465  0.1299
 6161TIP3    H118416   2.282   5.746   0.064  0.4163  0.0126 -0.3284
 6161TIP3    H218417   2.310   5.611   0.002  0.1004 -0.4663  0.5599
 6162TIP3   OH218418   1.417   2.173   6.611 -0.1109 -0.1518  0.6350
 6162TIP3    H118419   1.399   2.255   6.658 -0.5280  0.9842 -1.4398
 6162TIP3    H218420   1.508   2.181   6.585 -0.1749 -0.3197  0.3687
 6163TIP3   OH218421   4.033   5.600   0.099 -0.1909 -0.2325 -0.7280
 6163TIP3    H118422   4.093   5.674   0.108 -0.7259  0.1581 -0.3071
 6163TIP3    H218423   4.038   5.555   0.184 -1.5603  0.6281 -0.1631
 6164TIP3   OH218424   0.431   1.729   5.458 -0.2345 -0.1175 -0.4090
 6164TIP3    H118425   0.363   1.662   5.455 -1.2660  0.7949  1.5094
 6164TIP3    H218426   0.384   1.810   5.476  1.1557  0.8768 -1.1706
 6165TIP3   OH218427   0.530   1.974   5.196  0.5719 -0.0827 -0.1237
 6165TIP3    H118428   0.486   2.021   5.267  3.1393  1.5981  0.4172
 6165TIP3    H218429   0.586   1.910   5.241  2.0280  0.8238 -0.6290
 6166TIP3   OH218430   0.094   2.141   5.721  0.2736  0.6611  0.0786
 6166TIP3    H118431   0.130   2.228   5.706  1.7795  0.0923  0.3624
 6166TIP3    H218432  -0.001   2.154   5.719  0.4698  2.6298  2.0503
 6167TIP3   OH218433   2.914   3.518   4.877 -0.2950 -0.0808 -0.5089
 6167TIP3    H118434   2.860   3.595   4.860 -1.0365 -0.2083  1.1545
 6167TIP3    H218435   2.857   3.444   4.858 -0.3387 -0.2181  0.1520
 6168TIP3   OH218436   8.218   1.328   6.718 -0.3377 -0.1250  0.4184
 6168TIP3    H118437   8.185   1.303   6.632 -2.0873 -0.3981  1.1605
 6168TIP3    H218438   8.309   1.296   6.719 -0.4521 -0.5219 -1.1404
 6169TIP3   OH218439   1.590   2.561   5.829  0.2157 -0.1449 -0.1719
 6169TIP3    H118440   1.536   2.488   5.798  1.2449 -0.7113 -0.6364
 6169TIP3    H218441   1.679   2.537   5.804  0.6201  1.0272  0.1478
 6170TIP3   OH218442  -0.004   1.639   3.832 -0.0104  0.0289 -0.0429
 6170TIP3    H118443  -0.036   1.665   3.919 -1.0483 -1.6543  0.0996
 6170TIP3    H218444   0.047   1.714   3.803 -2.0019  1.7953  0.8132
 6171TIP3   OH218445   2.410   2.336   5.979  0.4528  0.1783  0.2157
 6171TIP3    H118446   2.322   2.297   5.977  0.6569 -0.3336  1.0820
 6171TIP3    H218447   2.399   2.418   6.026  0.3371  0.3795 -0.1594
 6172TIP3   OH218448   4.877   7.985   5.517 -0.6932 -0.0052 -0.0038
 6172TIP3    H118449   4.958   8.006   5.564 -2.1417  0.9219  2.1221
 6172TIP3    H218450   4.887   7.893   5.493  2.0079  0.7161 -1.8914
 6173TIP3   OH218451   0.725   2.417   4.848 -0.6236  0.3157  0.1091
 6173TIP3    H118452   0.700   2.346   4.907  1.4250 -0.2283  0.3473
 6173TIP3    H218453   0.642   2.459   4.824 -1.5540 -0.1149  2.5114
 6174TIP3   OH218454   0.425   0.541   5.616 -0.4707  0.4680  0.1634
 6174TIP3    H118455   0.519   0.536   5.598 -0.7719 -0.2530 -1.2160
 6174TIP3    H218456   0.418   0.606   5.686  0.7878  2.6566 -1.6894
 6175TIP3   OH218457   3.136   1.643   3.475  0.3736  0.6353  0.8160
 6175TIP3    H118458   3.065   1.707   3.469  1.3307  1.4957 -2.4320
 6175TIP3    H218459   3.097   1.566   3.515 -1.8569  1.7969  0.9339
 6176TIP3   OH218460   1.482   3.906   6.631 -0.2181 -0.0447 -0.4209
 6176TIP3    H118461   1.459   3.974   6.568  0.9447  0.6519 -0.1181
 6176TIP3    H218462   1.468   3.947   6.717  0.1612 -0.2995 -0.2364
 6177TIP3   OH218463   1.792   2.459   6.515  0.7036 -0.1122  0.2484
 6177TIP3    H118464   1.811   2.524   6.583  0.9757  1.0820 -0.9558
 6177TIP3    H218465   1.861   2.471   6.451 -0.4081 -0.1959 -0.9779
 6178TIP3   OH218466   2.079   2.313   6.633  0.1110  0.4114  0.4928
 6178TIP3    H118467   2.010   2.271   6.683  0.5329 -1.0210 -0.0807
 6178TIP3    H218468   2.076   2.270   6.547  2.2339 -0.2980  0.7263
 6179TIP3   OH218469   0.269   0.509   6.450 -0.1058  0.1609 -0.1600
 6179TIP3    H118470   0.257   0.569   6.523 -0.8274  0.1301 -0.2470
 6179TIP3    H218471   0.355   0.530   6.415  0.1650  0.3015  0.5853
 6180TIP3   OH218472   1.721   2.845   4.571 -0.1671 -0.5025 -0.2373
 6180TIP3    H118473   1.644   2.891   4.604  1.5502  1.2291  1.5244
 6180TIP3    H218474   1.721   2.761   4.616 -0.1696  0.1255  0.9295
 6181TIP3   OH218475   0.496   1.404   6.397 -0.4663 -0.2155  0.5971
 6181TIP3    H118476   0.517   1.374   6.309 -0.1228 -0.1516  0.6566
 6181TIP3    H218477   0.504   1.326   6.451 -1.5471 -0.4402  0.4276
 6182TIP3   OH218478   7.990   0.771   0.633 -0.0817  0.0661  0.2542
 6182TIP3    H118479   7.996   0.866   0.644  1.7800  0.0657 -0.4857
 6182TIP3    H218480   7.930   0.742   0.701 -1.7356  1.9333 -0.3799
 6183TIP3   OH218481   2.428   4.096   6.117  0.1776  0.1966  0.1994
 6183TIP3    H118482   2.432   4.080   6.211 -0.1222  0.2392  0.2192
 6183TIP3    H218483   2.475   4.179   6.105  1.0446 -0.2836  0.1916
 6184TIP3   OH218484   8.209   0.288   4.551 -0.4532 -0.0564  0.7396
 6184TIP3    H118485   8.180   0.205   4.589 -0.7176 -0.2737  0.0495
 6184TIP3    H218486   8.266   0.326   4.619 -2.7714  0.6538  2.3386
 6185TIP3   OH218487   6.154   4.071   1.414 -0.1316  0.2674  1.4268
 6185TIP3    H118488   6.175   4.164   1.407  0.2153  0.1655  1.0928
 6185TIP3    H218489   6.237   4.027   1.395 -1.1687 -0.2184 -2.3286
 6186TIP3   OH218490   0.107   3.774   5.736  0.4253 -0.0046  0.3388
 6186TIP3    H118491   0.135   3.697   5.687 -1.0150 -0.0420 -0.4330
 6186TIP3    H218492   0.117   3.847   5.675 -0.4453  0.0859  0.3021
 6187TIP3   OH218493   0.088   1.202   5.707  0.4010  0.4485 -0.0869
 6187TIP3    H118494   0.033   1.127   5.682 -1.1164  0.8274  1.9609
 6187TIP3    H218495   0.025   1.269   5.733  1.7641  2.3903 -1.7166
 6188TIP3   OH218496   0.229   2.510   4.677  0.0600 -0.2258 -0.0132
 6188TIP3    H118497   0.293   2.439   4.682 -2.9621 -2.9783  1.2754
 6188TIP3    H218498   0.197   2.508   4.587  1.3729  0.8380 -0.5235
 6189TIP3   OH218499   8.430   3.454   5.119 -0.1546  0.9500 -0.0648
 6189TIP3    H118500   8.406   3.480   5.208  0.2155 -1.7984  0.8927
 6189TIP3    H218501   8.525   3.457   5.118 -0.1841  1.8166 -0.6509
 6190TIP3   OH218502   2.223   2.143   4.697  0.1400 -0.1687 -0.3156
 6190TIP3    H118503   2.160   2.071   4.686 -2.0709  1.3797  1.7127
 6190TIP3    H218504   2.215   2.167   4.790  1.2791  2.2924 -0.8216
 6191TIP3   OH218505   2.099   3.636   4.449  0.1346 -0.2656  0.6247
 6191TIP3    H118506   2.095   3.718   4.500  0.8462  0.3688 -0.3157
 6191TIP3    H218507   2.045   3.575   4.498 -0.8495  0.9257  1.0619
 6192TIP3   OH218508   1.332   2.400   6.743 -0.1775  0.1023  0.4374
 6192TIP3    H118509   1.250   2.429   6.783 -0.8295 -0.1513 -0.7007
 6192TIP3    H218510   1.385   2.480   6.736 -0.1584  0.1932  1.5462
 6193TIP3   OH218511   1.472   1.398   3.667  0.1202  0.3518  0.4507
 6193TIP3    H118512   1.422   1.476   3.690 -0.4490  0.5824 -1.4737
 6193TIP3    H218513   1.535   1.428   3.601  0.2871 -0.6954  0.1146
 6194TIP3   OH218514   0.190   3.450   4.545  0.3140 -0.4122 -0.1189
 6194TIP3    H118515   0.157   3.516   4.606  0.6985  0.0917 -0.4543
 6194TIP3    H218516   0.277   3.481   4.521  0.0201 -0.4092 -1.2085
 6195TIP3   OH218517   1.592   1.192   4.551 -0.9731  0.1621  0.5792
 6195TIP3    H118518   1.558   1.265   4.499 -1.5003  1.0583  2.1332
 6195TIP3    H218519   1.525   1.179   4.619  0.8647  0.7054  2.5580
 6196TIP3   OH218520   1.344   1.193   6.182 -0.3852  0.0180 -0.6072
 6196TIP3    H118521   1.407   1.171   6.252  0.3050 -0.3201 -1.3317
 6196TIP3    H218522   1.280   1.249   6.226 -0.7484 -1.3387  0.6452
 6197TIP3   OH218523   2.537   3.823   6.185 -1.0018  0.1532  0.4932
 6197TIP3    H118524   2.612   3.875   6.214 -0.9514 -0.3974  1.3601
 6197TIP3    H218525   2.506   3.868   6.106 -1.1139  1.6589  1.3765
 6198TIP3   OH218526   0.645   2.308   6.432 -1.0540 -0.1094  0.0794
 6198TIP3    H118527   0.661   2.327   6.524 -0.7302  0.2405 -0.0468
 6198TIP3    H218528   0.550   2.300   6.425 -1.0833 -0.0579  0.4293
 6199TIP3   OH218529   2.049   6.644   0.118  0.2558  0.2761  0.1045
 6199TIP3    H118530   2.001   6.580   0.066 -0.0191  1.2161 -0.8354
 6199TIP3    H218531   2.118   6.594   0.162 -1.0361 -0.9353  0.7666
 6200TIP3   OH218532   0.779   2.561   6.874 -0.8322 -0.3070 -0.0430
 6200TIP3    H118533   0.683   2.568   6.870 -0.7779 -0.4173 -2.0762
 6200TIP3    H218534   0.811   2.644   6.839 -0.1935 -0.3865  0.3476
 6201TIP3   OH218535   0.936   2.558   5.608  0.1673 -0.2074  0.3981
 6201TIP3    H118536   0.951   2.563   5.702  1.3809 -1.1126  0.2741
 6201TIP3    H218537   0.868   2.491   5.598 -2.3314  2.2005  0.8149
 6202TIP3   OH218538   0.554   2.915   5.463  0.0112 -0.0434 -0.8662
 6202TIP3    H118539   0.585   2.831   5.497 -1.5614 -1.3457 -2.5160
 6202TIP3    H218540   0.617   2.938   5.395 -2.2849 -2.5573 -4.0371
 6203TIP3   OH218541   6.542   8.000   4.765  0.0701  0.1249  0.6695
 6203TIP3    H118542   6.487   7.946   4.822 -0.7225  0.8037  0.5486
 6203TIP3    H218543   6.488   8.016   4.688  0.7643  0.0659  0.1645
 6204TIP3   OH218544   7.953   3.761   6.287  0.1678  0.4641  0.8442
 6204TIP3    H118545   8.007   3.698   6.334  1.0717  1.8157  1.6422
 6204TIP3    H218546   7.916   3.711   6.214 -0.8166 -1.5367  2.6494
 6205TIP3   OH218547   0.972   3.234   6.608 -0.4822  0.1152  0.9233
 6205TIP3    H118548   0.921   3.313   6.623 -1.0578 -0.0967  0.1112
 6205TIP3    H218549   1.047   3.263   6.556 -1.7179 -0.1809 -1.0872
 6206TIP3   OH218550   6.947   0.813   6.137  0.0436  0.2475  0.0985
 6206TIP3    H118551   6.983   0.897   6.111  0.9242 -0.0159  0.4532
 6206TIP3    H218552   6.998   0.787   6.213 -0.7771 -0.2204  0.5051
 6207TIP3   OH218553   0.341   1.146   5.591  0.3420 -0.6336  0.4772
 6207TIP3    H118554   0.396   1.091   5.647 -1.1010 -2.1078  0.4887
 6207TIP3    H218555   0.255   1.146   5.633  0.5660  2.5466  1.0592
 6208TIP3   OH218556   0.359   2.757   5.234 -0.2644 -0.1599 -0.0668
 6208TIP3    H118557   0.344   2.667   5.205  1.9030 -0.3758 -0.6190
 6208TIP3    H218558   0.443   2.780   5.195  0.8196  0.9288  2.8585
 6209TIP3   OH218559   2.059   1.616   3.786 -0.3867  0.2398 -0.4001
 6209TIP3    H118560   1.999   1.626   3.861 -0.6000  1.0403 -0.6707
 6209TIP3    H218561   2.124   1.685   3.799  0.7104 -0.8833  0.1033
 6210TIP3   OH218562   2.502   2.421   3.147 -0.1226  0.6061  0.0238
 6210TIP3    H118563   2.473   2.330   3.137  1.2521  0.2579 -0.8646
 6210TIP3    H218564   2.548   2.422   3.231 -0.3890  0.5525  0.1718
 6211TIP3   OH218565   1.546   1.113   5.734 -0.2952  0.3902  0.2998
 6211TIP3    H118566   1.640   1.126   5.735 -0.2837  0.2963  0.4988
 6211TIP3    H218567   1.512   1.180   5.795 -0.2349 -0.5211  1.3553
 6212TIP3   OH218568   6.781   1.589   5.089  0.2431 -0.0591  0.6460
 6212TIP3    H118569   6.762   1.618   4.999  2.2556  0.6306  0.4071
 6212TIP3    H218570   6.723   1.514   5.103  0.5386 -0.7415 -1.5723
 6213TIP3   OH218571   2.607   5.602   0.317  0.4771  1.5876  0.1827
 6213TIP3    H118572   2.513   5.586   0.329  0.6450  1.0255  0.8460
 6213TIP3    H218573   2.632   5.655   0.393  1.6213 -2.2509  2.6459
 6214TIP3   OH218574   3.706   5.386   0.375 -0.2649 -0.0211  0.6136
 6214TIP3    H118575   3.692   5.356   0.285 -2.4054  0.0559  0.9029
 6214TIP3    H218576   3.684   5.310   0.429 -2.1015  0.8986  1.1932
 6215TIP3   OH218577   0.827   4.374   6.906 -0.1754  0.3238  0.4890
 6215TIP3    H118578   0.877   4.429   6.845 -1.2396 -0.7704 -1.4198
 6215TIP3    H218579   0.746   4.424   6.921 -1.6408 -1.1189 -2.1235
 6216TIP3   OH218580   2.384   1.513   3.716 -0.0670 -0.1901 -0.0347
 6216TIP3    H118581   2.323   1.455   3.671 -2.9987  2.0137  0.9212
 6216TIP3    H218582   2.364   1.501   3.809  1.0367  0.4714  0.3030
 6217TIP3   OH218583   1.283   1.711   4.675 -0.2010 -0.0457 -0.0995
 6217TIP3    H118584   1.278   1.728   4.581  0.2279 -1.2047 -0.3414
 6217TIP3    H218585   1.313   1.620   4.681 -1.2792 -0.3253  1.1569
 6218TIP3   OH218586   8.314   0.190   4.046 -0.7211  0.3866 -0.4858
 6218TIP3    H118587   8.271   0.112   4.080 -0.5738  0.3544 -0.3764
 6218TIP3    H218588   8.386   0.156   3.993 -0.8797  0.4384 -0.7392
 6219TIP3   OH218589   1.246   3.497   6.266 -0.7029 -0.1928 -0.0617
 6219TIP3    H118590   1.298   3.570   6.233 -2.4938  1.0026 -0.3197
 6219TIP3    H218591   1.162   3.505   6.222 -0.3754 -3.4759 -1.4314
 6220TIP3   OH218592   0.607   2.084   5.613 -0.3521 -0.0971 -0.5181
 6220TIP3    H118593   0.620   1.989   5.615 -3.3198 -0.5364 -0.5100
 6220TIP3    H218594   0.591   2.105   5.521  1.7161  0.6438 -0.7429
 6221TIP3   OH218595   1.906   1.074   6.213  0.2739  0.1086 -0.0989
 6221TIP3    H118596   1.843   1.005   6.194  0.2004  0.5655 -1.5648
 6221TIP3    H218597   1.924   1.065   6.307 -0.3573 -1.3663 -0.1070
 6222TIP3   OH218598   2.037   2.548   6.352  0.0022 -0.8777  0.2625
 6222TIP3    H118599   2.101   2.559   6.422  0.1318 -0.6507  0.1087
 6222TIP3    H218600   2.043   2.628   6.301 -0.4626 -0.8206  0.2944
 6223TIP3   OH218601   2.006   2.291   4.619  0.3921  0.5513  0.2150
 6223TIP3    H118602   1.953   2.277   4.697 -1.6066  1.6150 -0.9151
 6223TIP3    H218603   2.088   2.245   4.637 -0.9763 -1.2948  1.9190
 6224TIP3   OH218604   0.565   1.701   4.298 -0.5069  0.3550  0.7059
 6224TIP3    H118605   0.612   1.621   4.273 -0.8533  0.1567  0.6909
 6224TIP3    H218606   0.576   1.759   4.223  0.8501  0.8077  1.2358
 6225TIP3   OH218607   4.107   3.983   5.594  0.2263 -0.1521 -0.1862
 6225TIP3    H118608   4.101   3.888   5.609  1.4744  0.1118  2.3127
 6225TIP3    H218609   4.200   4.000   5.587  0.0256  0.9432 -0.2451
 6226TIP3   OH218610   0.081   0.851   5.000 -0.3460  0.1160  0.1028
 6226TIP3    H118611   0.135   0.781   4.963  1.8950  2.1252 -0.5368
 6226TIP3    H218612  -0.002   0.845   4.953  1.0661  0.0979 -2.4549
 6227TIP3   OH218613   0.669   0.887   4.552  0.1459  0.1174  0.0003
 6227TIP3    H118614   0.732   0.901   4.482 -0.0571  0.5452 -0.1012
 6227TIP3    H218615   0.596   0.945   4.530 -0.4398 -0.6497 -0.0846
 6228TIP3   OH218616   6.039   5.214   1.197 -0.1814  0.5200 -0.0632
 6228TIP3    H118617   6.056   5.152   1.125 -0.5283  1.2036 -0.7407
 6228TIP3    H218618   6.127   5.241   1.225  0.0569 -1.8792  1.6773
 6229TIP3   OH218619   0.960   2.124   6.604 -0.3769 -0.6273 -0.2264
 6229TIP3    H118620   1.022   2.093   6.669 -0.6829 -0.4134  0.1712
 6229TIP3    H218621   0.890   2.166   6.655  0.1910  1.0013 -0.7626
 6230TIP3   OH218622   0.303   0.402   4.989  0.1177 -0.1096 -0.0535
 6230TIP3    H118623   0.220   0.376   5.030 -0.1423 -0.0313 -0.5168
 6230TIP3    H218624   0.294   0.496   4.973  0.3881 -0.0575  0.1082
 6231TIP3   OH218625   0.950   4.153   4.323 -0.1664 -0.8288  0.0700
 6231TIP3    H118626   0.993   4.216   4.266  0.6616 -0.1242  1.4353
 6231TIP3    H218627   0.856   4.166   4.308  0.0516 -1.2042 -1.6942
 6232TIP3   OH218628   0.327   1.739   4.413  0.0702 -0.1648 -0.5766
 6232TIP3    H118629   0.419   1.734   4.389  0.1511  0.6761 -0.4752
 6232TIP3    H218630   0.282   1.756   4.330 -0.0375 -0.9886 -0.6880
 6233TIP3   OH218631   1.092   3.424   6.481 -0.0694  0.0454  0.2875
 6233TIP3    H118632   1.104   3.503   6.534 -0.8902  0.5292 -0.2349
 6233TIP3    H218633   1.138   3.443   6.399 -0.9564  0.3185 -0.1575
 6234TIP3   OH218634   8.226   1.918   5.068  0.4606  0.5867  0.3196
 6234TIP3    H118635   8.252   1.983   5.003  1.6106  0.8841  1.0503
 6234TIP3    H218636   8.157   1.867   5.026  0.8748  1.0646 -0.9521
 6235TIP3   OH218637   8.433   1.757   4.921  0.0900  0.0870  0.4477
 6235TIP3    H118638   8.522   1.769   4.888  0.4328 -1.4218  0.7783
 6235TIP3    H218639   8.389   1.839   4.902  1.6123  0.9182  0.4336
 6236TIP3   OH218640   7.843   1.779   6.171  0.2461 -0.3498 -0.0778
 6236TIP3    H118641   7.814   1.785   6.262  0.1395 -0.0646 -0.1286
 6236TIP3    H218642   7.811   1.694   6.141 -0.6703  0.0268 -0.1780
 6237TIP3   OH218643   0.568   1.682   6.540 -0.4048  0.0625  0.6460
 6237TIP3    H118644   0.630   1.742   6.499 -1.3179  1.9721  1.9769
 6237TIP3    H218645   0.587   1.597   6.500  2.9102  0.6185  0.8980
 6238TIP3   OH218646   2.417   2.577   6.786 -0.0851 -0.1853  0.5480
 6238TIP3    H118647   2.375   2.513   6.727  0.3889 -0.4586  0.5002
 6238TIP3    H218648   2.460   2.639   6.727  1.8600 -1.4343  0.5806
 6239TIP3   OH218649   1.579   2.726   5.001  0.4690 -0.2325 -0.0418
 6239TIP3    H118650   1.650   2.683   5.049  0.4007  0.0728  0.3391
 6239TIP3    H218651   1.613   2.813   4.981 -0.4834  0.6050  1.8117
 6240TIP3   OH218652   7.564   1.281   3.639 -0.0961 -0.3513 -0.0294
 6240TIP3    H118653   7.524   1.352   3.588 -2.6860 -0.8236  1.2151
 6240TIP3    H218654   7.655   1.307   3.650 -0.0801  0.9350 -2.7928
 6241TIP3   OH218655   3.512   2.308   3.252  0.1081  0.6729  0.2085
 6241TIP3    H118656   3.599   2.296   3.290  0.3467 -0.2547 -0.5950
 6241TIP3    H218657   3.481   2.392   3.287  1.5686  1.2958  0.0316
 6242TIP3   OH218658   2.920   3.744   4.351 -0.3614  0.3495  0.2977
 6242TIP3    H118659   2.836   3.770   4.390 -0.0174  0.6904  0.8204
 6242TIP3    H218660   2.964   3.827   4.332 -0.3745  0.1837 -0.5068
 6243TIP3   OH218661   0.153   0.937   3.875  0.1793  0.1531  0.1180
 6243TIP3    H118662   0.081   0.997   3.896 -0.2894 -0.5894  0.6595
 6243TIP3    H218663   0.119   0.850   3.895  0.2622 -0.4661 -2.3107
 6244TIP3   OH218664   6.860   2.984   4.898  0.2662 -0.2788 -0.8813
 6244TIP3    H118665   6.863   2.907   4.955 -0.3903  0.0393 -0.4061
 6244TIP3    H218666   6.945   2.986   4.854  0.4559 -1.0052 -0.5420
 6245TIP3   OH218667   1.510   0.982   6.269 -0.3141  0.6411  0.3526
 6245TIP3    H118668   1.447   0.968   6.199  0.2145 -1.7740  0.3162
 6245TIP3    H218669   1.586   0.928   6.245  0.1328  0.2889  2.4298
 6246TIP3   OH218670   8.115   0.968   6.662  0.3123 -0.1445 -0.1451
 6246TIP3    H118671   8.106   1.044   6.604 -0.0150  0.0666  0.1746
 6246TIP3    H218672   8.191   0.989   6.717 -0.8674  0.7879  1.1710
 6247TIP3   OH218673   2.430   7.041   0.380  0.2302 -0.0086  0.2259
 6247TIP3    H118674   2.477   7.111   0.335  2.2777 -0.7510  1.1417
 6247TIP3    H218675   2.387   7.085   0.453 -1.8288  0.9366 -1.5044
 6248TIP3   OH218676   5.773   7.934   5.754  0.2706 -0.2834  0.2993
 6248TIP3    H118677   5.748   8.018   5.715  0.4923 -0.6513 -0.6483
 6248TIP3    H218678   5.858   7.951   5.795  0.4043 -0.0921 -0.0559
 6249TIP3   OH218679   0.943   1.518   6.247  0.4955 -0.0549 -0.0983
 6249TIP3    H118680   0.865   1.541   6.197 -0.8143  0.1036  1.9855
 6249TIP3    H218681   0.979   1.603   6.274  1.3550 -0.1311 -0.9703
 6250TIP3   OH218682   2.379   3.188   3.818  0.8651  0.1955 -0.3418
 6250TIP3    H118683   2.371   3.283   3.822  1.7063  0.2221  0.9496
 6250TIP3    H218684   2.348   3.165   3.731  1.0282  1.6908 -0.8050
 6251TIP3   OH218685   1.958   2.847   6.229 -0.0789  0.0478  0.4228
 6251TIP3    H118686   1.993   2.879   6.312  0.3371  0.6530  0.0145
 6251TIP3    H218687   1.981   2.914   6.165  0.1358 -0.7021 -0.2965
 6252TIP3   OH218688   2.902   0.564   2.903  0.4348 -0.0943 -0.1832
 6252TIP3    H118689   2.903   0.500   2.831 -0.7281  0.7291 -0.9373
 6252TIP3    H218690   2.834   0.532   2.962 -0.3956  0.6306 -0.7385
 6253TIP3   OH218691   0.295   2.991   4.980 -0.3323  0.4051  0.1035
 6253TIP3    H118692   0.300   2.920   4.915 -0.3895 -1.7853  2.4078
 6253TIP3    H218693   0.308   3.071   4.929 -1.0860 -1.1887 -2.7047
 6254TIP3   OH218694  -0.010   0.500   6.082 -0.0341 -0.5564 -0.7761
 6254TIP3    H118695  -0.053   0.491   6.167 -1.3391  1.6858 -1.1673
 6254TIP3    H218696   0.080   0.524   6.104 -0.7168  1.4111 -0.0077
 6255TIP3   OH218697   6.422   7.620   4.426  0.3793  0.0792 -0.6606
 6255TIP3    H118698   6.493   7.569   4.465 -0.1184 -0.3781 -0.3402
 6255TIP3    H218699   6.461   7.706   4.409  1.2698 -0.4561 -1.3558
 6256TIP3   OH218700   2.394   3.558   4.653  0.5133  0.1259 -0.4080
 6256TIP3    H118701   2.402   3.465   4.673  2.5230  0.4503  0.4759
 6256TIP3    H218702   2.314   3.586   4.699  1.1714 -0.6826  1.2810
 6257TIP3   OH218703   2.634   0.897   4.079  0.2861  0.0978 -0.4969
 6257TIP3    H118704   2.582   0.942   4.013 -0.3522  0.1838  0.0632
 6257TIP3    H218705   2.722   0.933   4.069 -0.3208  1.8611  0.2979
 6258TIP3   OH218706   3.056   1.788   4.715  0.0818  0.1355  0.1782
 6258TIP3    H118707   2.967   1.807   4.745 -0.3232 -1.2274 -0.1327
 6258TIP3    H218708   3.067   1.841   4.636 -0.2351  0.7640  0.5544
 6259TIP3   OH218709   1.383   2.034   4.674 -1.1149 -0.5330  0.1746
 6259TIP3    H118710   1.439   1.959   4.696  0.9343  1.1303  0.8236
 6259TIP3    H218711   1.422   2.072   4.596 -0.3877  1.5569  1.5129
 6260TIP3   OH218712   0.465   0.067   4.086  0.5192 -0.0775 -0.1204
 6260TIP3    H118713   0.475  -0.015   4.037 -0.4415 -0.1362 -0.2234
 6260TIP3    H218714   0.504   0.133   4.029  2.4579 -0.6350  0.5153
 6261TIP3   OH218715   0.139   0.057   2.039  0.3252  0.8253 -0.8484
 6261TIP3    H118716   0.076   0.076   1.968 -1.9546 -2.8866  0.0390
 6261TIP3    H218717   0.084   0.039   2.115  2.5160 -1.1940  0.3061
 6262TIP3   OH218718   2.235   2.884   6.538 -0.3169 -0.1076 -0.0529
 6262TIP3    H118719   2.148   2.904   6.503 -0.4821 -2.4996 -1.0670
 6262TIP3    H218720   2.234   2.790   6.554  1.7109  0.0173  1.0209
 6263TIP3   OH218721   2.072   1.326   3.348 -0.5586 -0.0183 -0.7418
 6263TIP3    H118722   2.011   1.346   3.277  0.0227 -0.4848 -1.3871
 6263TIP3    H218723   2.134   1.398   3.348 -2.0624  1.3199  1.0186
 6264TIP3   OH218724   8.074   3.464   5.265  0.2292 -0.0699 -0.1826
 6264TIP3    H118725   8.118   3.465   5.180  4.1213 -2.1218  1.7131
 6264TIP3    H218726   8.104   3.544   5.309 -2.0419  1.1646 -0.7562
 6265TIP3   OH218727   1.030   0.636   3.622  0.0349 -0.1955  0.2242
 6265TIP3    H118728   1.065   0.553   3.589 -1.0561 -0.2812 -0.7585
 6265TIP3    H218729   1.041   0.631   3.717 -0.9145 -1.8862  0.2588
 6266TIP3   OH218730   3.603   2.467   5.641 -0.1959  0.7086  0.0772
 6266TIP3    H118731   3.518   2.465   5.596  0.0550  0.4828 -0.3962
 6266TIP3    H218732   3.642   2.382   5.622 -0.9682 -0.2208  2.4757
 6267TIP3   OH218733   1.285   4.816   4.986 -0.1144  0.0774  0.2620
 6267TIP3    H118734   1.250   4.747   4.930 -0.5672 -1.6209  2.5219
 6267TIP3    H218735   1.376   4.791   5.001  0.8053  2.0219 -1.9237
 6268TIP3   OH218736   6.085   0.151   0.522  0.1242  0.0064 -0.2692
 6268TIP3    H118737   6.107   0.185   0.435  2.3788  0.2487  0.3766
 6268TIP3    H218738   6.111   0.059   0.518 -1.2510 -0.3906 -0.3479
 6269TIP3   OH218739   6.272   7.119   4.439  0.0884  0.1605  0.3768
 6269TIP3    H118740   6.254   7.026   4.425  0.4565  0.1763 -0.2574
 6269TIP3    H218741   6.294   7.125   4.532  0.5180 -0.4684  0.3231
 6270TIP3   OH218742   7.871   1.006   3.940 -0.2533  0.1251  0.2636
 6270TIP3    H118743   7.819   1.075   3.899 -0.0219  0.4555  0.5271
 6270TIP3    H218744   7.957   1.045   3.953  0.4286 -0.8185 -1.2864
 6271TIP3   OH218745   0.364   4.727   5.521 -0.0622 -0.4797  0.5405
 6271TIP3    H118746   0.402   4.704   5.436 -1.2526  0.0552 -0.1684
 6271TIP3    H218747   0.323   4.812   5.505 -2.5554 -1.5627  0.9259
 6272TIP3   OH218748   0.717   4.855   6.781 -0.3887  0.2985  1.0656
 6272TIP3    H118749   0.732   4.770   6.822 -2.5640 -0.7974 -0.3171
 6272TIP3    H218750   0.673   4.907   6.848  0.1895  0.0456  1.6390
 6273TIP3   OH218751   0.136   1.819   4.211  0.3257 -0.0154 -0.2627
 6273TIP3    H118752   0.061   1.777   4.170  1.0213 -0.4570 -1.1095
 6273TIP3    H218753   0.109   1.909   4.224 -1.3941 -0.8420  2.1131
 6274TIP3   OH218754   1.307   2.981   4.300  0.2149  0.5505  0.2973
 6274TIP3    H118755   1.285   3.033   4.222 -1.4130  0.6717  0.8224
 6274TIP3    H218756   1.374   3.032   4.345 -0.9177  1.8962  0.4758
 6275TIP3   OH218757   8.465   2.630   4.047 -0.0994  0.3758 -0.4649
 6275TIP3    H118758   8.426   2.583   4.120  0.8906 -3.0538 -2.0726
 6275TIP3    H218759   8.501   2.710   4.087 -0.9033 -0.6813  2.5000
 6276TIP3   OH218760   8.405   1.152   6.329  0.2835  0.1198 -0.1265
 6276TIP3    H118761   8.501   1.149   6.337  0.2226 -0.5240  0.4104
 6276TIP3    H218762   8.385   1.094   6.256  0.3797  1.1250 -0.9618
 6277TIP3   OH218763   7.865   3.008   5.207 -0.4083  0.3062 -0.8004
 6277TIP3    H118764   7.924   2.985   5.135 -1.5540 -0.0586 -1.6453
 6277TIP3    H218765   7.906   3.084   5.249  0.6920  0.0045 -1.3267
 6278TIP3   OH218766   0.855   2.348   5.431  0.5697 -0.0491 -0.2925
 6278TIP3    H118767   0.777   2.296   5.412 -0.5067  1.1380  0.7529
 6278TIP3    H218768   0.902   2.297   5.498  0.2058 -0.3246 -0.2460
 6279TIP3   OH218769   0.704   2.456   3.808 -0.3044 -0.1463 -0.0956
 6279TIP3    H118770   0.785   2.405   3.804  0.6570  1.4241 -1.6798
 6279TIP3    H218771   0.674   2.447   3.898  2.2086  0.0841  0.8088
 6280TIP3   OH218772   1.205   3.013   3.957 -0.1481 -0.2244  0.4411
 6280TIP3    H118773   1.259   2.952   3.907  0.3883  0.4903  0.1406
 6280TIP3    H218774   1.266   3.078   3.990 -0.6426 -0.1351  1.2063
 6281TIP3   OH218775   7.218   1.662   5.255  0.5022  0.0161  0.4445
 6281TIP3    H118776   7.168   1.611   5.319 -1.5873 -0.0976 -1.2310
 6281TIP3    H218777   7.186   1.751   5.265  0.6200  0.1087 -0.0104
 6282TIP3   OH218778   2.621   3.128   5.652 -0.1029  0.1591  0.4659
 6282TIP3    H118779   2.594   3.209   5.695 -1.0392 -0.3457  0.8508
 6282TIP3    H218780   2.717   3.132   5.650 -0.1432  1.3064  0.4031
 6283TIP3   OH218781   4.403   7.575   0.263 -0.3622 -0.3771 -0.5603
 6283TIP3    H118782   4.356   7.658   0.253 -0.6935 -0.4913  0.0086
 6283TIP3    H218783   4.336   7.513   0.293  0.5679 -0.0436  2.3308
 6284TIP3   OH218784   0.060   0.306   5.064  0.0809  0.3237  1.2559
 6284TIP3    H118785   0.056   0.264   5.150  0.9307  0.2183  1.2496
 6284TIP3    H218786   0.059   0.234   5.001  3.5005  0.1517  1.2924
 6285TIP3   OH218787   5.024   5.901   6.559  0.5623  0.0145 -0.2889
 6285TIP3    H118788   4.948   5.854   6.595 -1.5780  0.9083 -3.4123
 6285TIP3    H218789   5.039   5.972   6.621  1.0905 -2.1725  2.1982
 6286TIP3   OH218790   1.615   1.539   3.084  0.5810 -0.0480  0.3284
 6286TIP3    H118791   1.575   1.624   3.067 -0.8854 -0.7274  0.2591
 6286TIP3    H218792   1.597   1.488   3.005  1.0837 -0.5427  0.5297
 6287TIP3   OH218793   1.677   2.780   6.410 -0.1821 -0.3394 -0.6622
 6287TIP3    H118794   1.664   2.743   6.322  0.4970 -2.2372  0.0098
 6287TIP3    H218795   1.685   2.874   6.395  0.6273 -0.7020 -2.7244
 6288TIP3   OH218796   2.856   5.518   0.253 -0.3156  0.5823 -0.0982
 6288TIP3    H118797   2.775   5.558   0.285  0.2026  1.0522  0.6492
 6288TIP3    H218798   2.925   5.578   0.280  0.3003  0.0961 -0.5712
 6289TIP3   OH218799   2.921   2.968   5.873  0.2361 -0.1944  0.5055
 6289TIP3    H118800   2.863   3.027   5.920  1.3156  2.1425 -0.9565
 6289TIP3    H218801   2.922   3.002   5.783  1.4185 -2.0511 -0.2216
 6290TIP3   OH218802   7.793   1.114   4.842  0.2497  0.4544 -0.2354
 6290TIP3    H118803   7.887   1.103   4.828  0.8246  1.8411  2.2971
 6290TIP3    H218804   7.765   1.032   4.881  1.4504  1.8377  3.7607
 6291TIP3   OH218805   1.763   2.344   5.707  0.0620  0.0001 -0.2221
 6291TIP3    H118806   1.776   2.253   5.736  1.4996  0.1780 -0.2729
 6291TIP3    H218807   1.804   2.348   5.621 -0.7182  0.4959 -0.5729
 6292TIP3   OH218808   2.626   4.632   0.749  0.0649 -0.0339 -0.1662
 6292TIP3    H118809   2.686   4.647   0.676 -0.2263  1.0838 -0.1867
 6292TIP3    H218810   2.576   4.555   0.723 -0.9959  1.1829 -1.7974
 6293TIP3   OH218811   3.360   3.956   2.594 -0.3284  0.2031  0.0180
 6293TIP3    H118812   3.430   3.930   2.654 -0.5618  1.1473  0.7194
 6293TIP3    H218813   3.312   3.875   2.577  0.4065 -0.2794  0.2326
 6294TIP3   OH218814   1.685   3.251   4.982 -0.5456  0.1105 -0.4434
 6294TIP3    H118815   1.705   3.195   5.057 -0.5494  0.6015 -0.0748
 6294TIP3    H218816   1.604   3.295   5.006 -0.0153  1.0172 -0.3235
 6295TIP3   OH218817   4.706   3.629   6.848 -0.4065  0.1678 -0.1471
 6295TIP3    H118818   4.703   3.606   6.755 -1.3725  1.2661 -0.3959
 6295TIP3    H218819   4.792   3.599   6.877 -0.2093 -0.4425 -1.3304
 6296TIP3   OH218820   6.267   0.002   0.344 -0.2329 -0.1823 -0.1973
 6296TIP3    H118821   6.300  -0.039   0.264 -0.2612  1.9279 -1.3048
 6296TIP3    H218822   6.209   0.071   0.314  0.8208  1.5334  1.6084
 6297TIP3   OH218823   2.410   0.553   6.624 -0.2486 -0.4382 -0.0881
 6297TIP3    H118824   2.440   0.487   6.687 -0.3495  0.4415  0.8791
 6297TIP3    H218825   2.484   0.564   6.564 -0.2784 -1.5277 -0.3494
 6298TIP3   OH218826   0.300   4.413   3.125 -0.2323  0.3835  0.0624
 6298TIP3    H118827   0.394   4.429   3.133 -0.2235  0.6929 -0.6434
 6298TIP3    H218828   0.262   4.447   3.206  0.0780  1.6462 -0.3240
 6299TIP3   OH218829   1.373   0.413   4.079 -0.1088 -0.0515  0.4193
 6299TIP3    H118830   1.342   0.487   4.027 -1.0180 -1.7998 -1.6088
 6299TIP3    H218831   1.342   0.431   4.168 -0.8437  1.6801 -0.1690
 6300TIP3   OH218832   7.468   3.237   6.916  0.0924  0.5303  0.1577
 6300TIP3    H118833   7.533   3.286   6.866  1.4423 -0.2666  1.0760
 6300TIP3    H218834   7.442   3.296   6.987  0.0599  0.7278 -0.0196
 6301TIP3   OH218835   3.050   2.560   5.578  0.4336  0.7317  0.3851
 6301TIP3    H118836   3.102   2.598   5.508  0.4616  0.6780  0.3761
 6301TIP3    H218837   3.115   2.532   5.643  0.4635  0.0135  0.0545
 6302TIP3   OH218838   0.190   2.110   5.183  0.2760  0.3678  0.2029
 6302TIP3    H118839   0.200   2.181   5.246 -0.0128 -0.6515  1.4300
 6302TIP3    H218840   0.104   2.073   5.202  0.6966 -0.7372  0.0433
 6303TIP3   OH218841   3.483   3.617   4.581  0.1570  0.4640 -0.8288
 6303TIP3    H118842   3.405   3.599   4.632 -0.6276  1.8876 -1.4750
 6303TIP3    H218843   3.535   3.537   4.585 -1.4877 -0.6089 -0.6660
 6304TIP3   OH218844   3.466   4.853   6.425 -0.1367  0.4728 -0.2423
 6304TIP3    H118845   3.377   4.850   6.458  0.1391 -0.9149  0.4205
 6304TIP3    H218846   3.493   4.944   6.436 -1.6011  1.0035 -0.8473
 6305TIP3   OH218847   1.925   3.051   5.586 -0.4312 -0.7239  0.1101
 6305TIP3    H118848   1.952   3.135   5.551 -0.3234 -0.5792  0.5434
 6305TIP3    H218849   1.920   3.064   5.680  1.0331 -1.6077  0.3300
 6306TIP3   OH218850   8.420   3.975   5.876 -0.0855 -0.6853 -0.3079
 6306TIP3    H118851   8.492   4.023   5.833 -0.3221 -1.9206 -2.1298
 6306TIP3    H218852   8.343   4.029   5.862  0.6251  1.1954  2.5995
 6307TIP3   OH218853   2.331   2.974   2.786  0.4282  0.2451 -0.1899
 6307TIP3    H118854   2.404   3.035   2.793  1.7826 -1.4731  1.1296
 6307TIP3    H218855   2.312   2.969   2.692  0.6715  2.2063 -0.3655
 6308TIP3   OH218856   0.844   3.465   6.334 -0.1177  0.6156 -0.5634
 6308TIP3    H118857   0.774   3.485   6.395 -1.3057  0.5748 -1.8832
 6308TIP3    H218858   0.913   3.424   6.387 -1.2785  0.2496  0.6607
 6309TIP3   OH218859   1.853   1.737   6.353  0.1750  0.1510 -0.0053
 6309TIP3    H118860   1.759   1.754   6.346 -0.1627 -1.8090 -0.7317
 6309TIP3    H218861   1.894   1.817   6.321 -1.2638  0.7779 -0.3486
 6310TIP3   OH218862   1.662   2.053   5.445 -0.4157  0.0953 -0.6412
 6310TIP3    H118863   1.755   2.076   5.442 -0.8135  1.7711 -0.3026
 6310TIP3    H218864   1.652   1.987   5.376  0.3506  2.3832 -2.9984
 6311TIP3   OH218865   0.743   3.381   5.726 -0.5422  0.5742 -0.5997
 6311TIP3    H118866   0.735   3.313   5.659  0.4116 -1.1676  0.9971
 6311TIP3    H218867   0.678   3.447   5.701 -0.7609 -0.4201 -2.7636
 6312TIP3   OH218868   0.454   1.530   4.849  0.2740 -0.5583  0.2793
 6312TIP3    H118869   0.418   1.551   4.935  0.2076 -0.1085  0.1426
 6312TIP3    H218870   0.378   1.515   4.793  0.3303 -2.6016  0.7230
 6313TIP3   OH218871   3.132   2.525   6.055  0.2377  0.3686  0.2987
 6313TIP3    H118872   3.130   2.563   6.143  1.3836  1.5245 -0.1765
 6313TIP3    H218873   3.044   2.542   6.020  0.9608  3.2972 -0.2041
 6314TIP3   OH218874   1.929   3.793   4.986 -0.1057 -0.3063 -0.3841
 6314TIP3    H118875   2.018   3.804   4.951  0.1039 -2.7780 -0.6615
 6314TIP3    H218876   1.881   3.868   4.952  1.5434  0.3678 -1.2968
 6315TIP3   OH218877   3.979   7.061   0.245  0.3240 -0.0166  0.2785
 6315TIP3    H118878   4.072   7.085   0.254  0.0793 -0.0294  2.9984
 6315TIP3    H218879   3.980   6.981   0.192  1.5816  2.1231 -3.1207
 6316TIP3   OH218880   2.136   1.160   4.265  0.0316  0.3435  0.3458
 6316TIP3    H118881   2.141   1.248   4.302 -0.2453 -0.4830  2.4245
 6316TIP3    H218882   2.045   1.149   4.239  0.3147  1.0766 -0.9933
 6317TIP3   OH218883   5.042   1.682   5.517 -0.8715 -0.1862  0.1788
 6317TIP3    H118884   5.007   1.768   5.539 -1.7575 -1.0980  2.4916
 6317TIP3    H218885   4.967   1.631   5.488 -0.3149 -0.1495 -1.3940
 6318TIP3   OH218886   0.467   2.051   6.067 -0.2320  0.4482  0.2375
 6318TIP3    H118887   0.441   2.062   5.976 -1.7341  1.6437  0.7985
 6318TIP3    H218888   0.505   2.136   6.092  1.1926 -0.2235  0.4035
 6319TIP3   OH218889   3.924   0.494   5.629  0.7061 -0.4863 -0.5420
 6319TIP3    H118890   3.933   0.584   5.660  0.5784 -0.5852 -0.2216
 6319TIP3    H218891   3.976   0.491   5.549 -1.5448  0.6141 -2.0781
 6320TIP3   OH218892   0.854   2.994   6.555 -0.1621  0.0329 -0.1947
 6320TIP3    H118893   0.784   3.041   6.600  0.7745  1.4711 -0.1919
 6320TIP3    H218894   0.933   3.046   6.573  0.8176 -1.2962 -0.5901
 6321TIP3   OH218895   0.748   3.443   6.593 -0.4141  0.1897  0.9257
 6321TIP3    H118896   0.777   3.480   6.676  0.6022  0.4177  0.4773
 6321TIP3    H218897   0.675   3.386   6.617 -1.5847  1.9582  1.7079
 6322TIP3   OH218898   2.662   1.153   3.578 -0.1572 -0.4775  0.3967
 6322TIP3    H118899   2.583   1.186   3.535  1.6366  2.6676 -0.7080
 6322TIP3    H218900   2.658   1.188   3.667 -0.7135 -1.5655  0.8060
 6323TIP3   OH218901   1.473   2.501   4.513  0.0785 -0.0012  0.3004
 6323TIP3    H118902   1.461   2.551   4.593 -1.3231  0.2910 -0.0753
 6323TIP3    H218903   1.392   2.515   4.464 -0.5588 -2.9707  0.3924
 6324TIP3   OH218904   4.689   5.728   0.521 -0.2915 -0.2019  0.3166
 6324TIP3    H118905   4.762   5.761   0.468  0.4674 -0.9265  0.8937
 6324TIP3    H218906   4.610   5.761   0.477  0.4056  1.4213  0.2341
 6325TIP3   OH218907   1.914   5.425   5.642 -0.4021  0.9373  0.5665
 6325TIP3    H118908   1.872   5.441   5.558 -1.2884  1.0597  1.0326
 6325TIP3    H218909   1.856   5.365   5.688  1.4812 -1.4436 -0.0110
 6326TIP3   OH218910   0.366   3.261   5.119 -0.3525 -0.1708  0.3675
 6326TIP3    H118911   0.357   3.201   5.193 -2.8731  0.6499  0.7766
 6326TIP3    H218912   0.379   3.347   5.159 -1.2905  0.2098 -0.1282
 6327TIP3   OH218913   3.314   7.571   0.018  0.2253 -0.3316  0.3414
 6327TIP3    H118914   3.231   7.538   0.053  0.8886 -1.6674  0.7032
 6327TIP3    H218915   3.367   7.492   0.005  1.5538  0.5384  0.4119
 6328TIP3   OH218916   2.619   0.684   5.823  0.5520  0.0202 -0.3314
 6328TIP3    H118917   2.546   0.743   5.842 -0.4703 -0.6026 -2.2068
 6328TIP3    H218918   2.630   0.633   5.904 -0.3521  0.8579  0.3349
 6329TIP3   OH218919   7.441   2.934   5.391  0.3169 -0.9599  0.0768
 6329TIP3    H118920   7.443   3.004   5.457  0.6028 -1.3616  0.4949
 6329TIP3    H218921   7.447   2.853   5.441 -0.7876 -1.3129 -0.3616
 6330TIP3   OH218922   0.458   4.194   6.815 -0.3299  0.8219  0.0002
 6330TIP3    H118923   0.418   4.121   6.862  1.1657 -0.1989 -0.2930
 6330TIP3    H218924   0.549   4.168   6.801  0.1905  2.6595 -0.2675
 6331TIP3   OH218925   2.774   1.132   4.413 -0.3207 -0.1359  0.0772
 6331TIP3    H118926   2.698   1.132   4.355 -0.0127 -1.2354 -0.3555
 6331TIP3    H218927   2.848   1.153   4.355 -0.0732 -0.7830  0.1546
 6332TIP3   OH218928   0.626   2.755   5.107  0.3579  0.6339 -0.6547
 6332TIP3    H118929   0.634   2.687   5.174 -2.1184  0.0376 -0.9249
 6332TIP3    H218930   0.696   2.817   5.128  1.8880 -1.3595  0.3171
 6333TIP3   OH218931   0.612   1.917   4.668 -0.3593  0.2431 -0.5684
 6333TIP3    H118932   0.611   1.825   4.645 -0.0303  0.5899 -2.0192
 6333TIP3    H218933   0.697   1.931   4.709  0.9925  0.5950 -3.3766
 6334TIP3   OH218934   7.885   2.471   4.373  0.4912 -0.0874  0.7311
 6334TIP3    H118935   7.867   2.470   4.467 -0.0724  1.3188  0.6512
 6334TIP3    H218936   7.957   2.534   4.363  0.2332  0.1152  0.1587
 6335TIP3   OH218937   1.314   1.370   5.339  0.0345 -0.4151 -0.4460
 6335TIP3    H118938   1.247   1.405   5.399  0.1796  0.3169 -0.7001
 6335TIP3    H218939   1.279   1.286   5.310 -0.0138 -0.8038  0.7160
 6336TIP3   OH218940   8.008   1.791   4.920  0.0922 -0.4174  0.2998
 6336TIP3    H118941   7.941   1.858   4.903 -0.6368 -0.6271  2.2864
 6336TIP3    H218942   7.959   1.716   4.954  0.9579 -1.8144 -1.4259
 6337TIP3   OH218943   1.555   2.577   6.802  0.0180 -0.0400  0.4525
 6337TIP3    H118944   1.550   2.649   6.740 -1.9076 -0.9165 -0.4573
 6337TIP3    H218945   1.643   2.540   6.790  0.6969  1.5933  0.3221
 6338TIP3   OH218946   8.138   2.100   4.629  0.3845  0.2482 -0.5008
 6338TIP3    H118947   8.113   2.008   4.634 -0.7137  0.5977  0.6598
 6338TIP3    H218948   8.055   2.147   4.621  0.9771  1.1015 -1.8099
 6339TIP3   OH218949   4.204   2.094   5.733  0.1647  0.5459 -0.0144
 6339TIP3    H118950   4.113   2.119   5.719  0.1903 -0.1230 -1.4886
 6339TIP3    H218951   4.212   2.082   5.828 -0.6446  2.9983  0.3943
 6340TIP3   OH218952   0.279   0.408   3.531 -0.8669 -0.2855 -0.3285
 6340TIP3    H118953   0.222   0.461   3.476  1.1706 -0.1678 -2.4238
 6340TIP3    H218954   0.368   0.438   3.510 -0.0348  0.4876  3.8062
 6341TIP3   OH218955   7.351   5.701   0.118 -0.0006  0.1095  0.3700
 6341TIP3    H118956   7.275   5.661   0.161  1.3903 -1.0326  1.8103
 6341TIP3    H218957   7.366   5.647   0.041 -0.4216  0.1293  0.2700
 6342TIP3   OH218958   1.904   1.675   2.701 -0.7276 -0.1448  0.8912
 6342TIP3    H118959   1.817   1.714   2.714 -1.0957 -0.7657  0.3504
 6342TIP3    H218960   1.890   1.609   2.632  1.0883  2.8666 -2.5151
 6343TIP3   OH218961   7.734   0.855   5.510 -0.9221  0.2846  0.3057
 6343TIP3    H118962   7.679   0.896   5.443 -0.7337  2.6032  1.5197
 6343TIP3    H218963   7.673   0.807   5.566 -1.5056  1.3873  0.6140
 6344TIP3   OH218964   7.560   0.875   6.761 -0.7165 -0.1026 -0.1443
 6344TIP3    H118965   7.554   0.801   6.702  0.4063 -0.3593  0.0442
 6344TIP3    H218966   7.653   0.881   6.783 -1.0559  0.2164  1.2910
 6345TIP3   OH218967   7.618   1.324   4.684 -0.7281 -0.2732 -0.1562
 6345TIP3    H118968   7.547   1.302   4.623  0.0887  0.0871 -1.2394
 6345TIP3    H218969   7.588   1.289   4.768 -1.9583 -0.5884 -0.7092
 6346TIP3   OH218970   1.770   3.128   5.196  0.6610  0.5251  0.6289
 6346TIP3    H118971   1.835   3.057   5.197 -0.6282 -0.6738  0.3727
 6346TIP3    H218972   1.745   3.138   5.288  0.2006  0.0582  0.5522
 6347TIP3   OH218973   1.076   3.086   3.736 -0.1201 -0.2327  0.5340
 6347TIP3    H118974   1.011   3.029   3.777 -1.9960  2.9473  2.2460
 6347TIP3    H218975   1.156   3.072   3.786 -0.7663 -0.8219  1.4240
 6348TIP3   OH218976   3.338   3.135   4.593  0.4418 -0.9215  0.1174
 6348TIP3    H118977   3.272   3.100   4.653 -0.7003 -0.7987 -1.0352
 6348TIP3    H218978   3.291   3.204   4.545  2.1089  0.8882  1.0237
 6349TIP3   OH218979   0.244   1.060   0.061 -0.4960 -0.6625 -0.1694
 6349TIP3    H118980   0.277   1.149   0.074  0.5920 -1.4519  3.0148
 6349TIP3    H218981   0.279   1.034  -0.025  0.3633  1.4673 -0.4965
 6350TIP3   OH218982   3.723   1.896   5.631  0.7132  0.7658  0.1415
 6350TIP3    H118983   3.717   1.896   5.536  0.1187 -1.5028  0.1705
 6350TIP3    H218984   3.762   1.812   5.653  0.6063  1.1618  1.9187
 6351TIP3   OH218985   2.348   2.211   4.300 -0.2387 -0.0779 -0.0900
 6351TIP3    H118986   2.314   2.260   4.225 -0.5995 -2.0293 -1.2421
 6351TIP3    H218987   2.334   2.269   4.375 -0.6486  1.5680 -1.3961
 6352TIP3   OH218988   2.682   2.600   4.077 -0.2121  0.0313  0.0355
 6352TIP3    H118989   2.657   2.632   4.164 -2.0767 -0.9399 -0.1314
 6352TIP3    H218990   2.753   2.659   4.050 -0.5451  1.2038  1.6248
 6353TIP3   OH218991   3.860   3.591   6.330  0.5855  0.3779  0.5664
 6353TIP3    H118992   3.876   3.539   6.251  2.6163 -0.6082  1.5962
 6353TIP3    H218993   3.776   3.558   6.363  0.0579  0.3225 -0.7738
 6354TIP3   OH218994   1.669   4.291   4.834  0.1092  0.3193 -0.2053
 6354TIP3    H118995   1.713   4.357   4.888 -0.3385  0.5146 -0.0750
 6354TIP3    H218996   1.678   4.324   4.744  0.1727  0.3922 -0.1726
 6355TIP3   OH218997   7.029   3.264   5.499  0.0327 -0.2726 -0.3506
 6355TIP3    H118998   6.983   3.348   5.494 -3.8728 -2.3288 -1.4868
 6355TIP3    H218999   7.008   3.231   5.587  0.4893 -0.6490 -0.3791
 6356TIP3   OH219000   3.232   3.476   6.891  0.3648  0.1324  0.3290
 6356TIP3    H119001   3.174   3.543   6.927  1.2613 -0.3055  2.7150
 6356TIP3    H219002   3.203   3.395   6.933  0.8055 -0.5764 -0.7233
 6357TIP3   OH219003   2.785   3.592   4.053 -0.3241  0.4146  0.4388
 6357TIP3    H119004   2.806   3.616   4.144 -0.2922  2.6761 -0.1459
 6357TIP3    H219005   2.690   3.583   4.053 -0.3458  0.6356  0.6261
 6358TIP3   OH219006   2.107   3.802   5.320 -0.1954  0.3226  0.0146
 6358TIP3    H119007   2.116   3.891   5.287  1.6941  0.1502 -0.0133
 6358TIP3    H219008   2.172   3.752   5.271  0.4141 -0.5739  1.7158
 6359TIP3   OH219009   5.049   1.926   4.840 -0.1362 -0.2733  0.1121
 6359TIP3    H119010   5.098   1.979   4.903 -0.3527  0.7992 -0.6067
 6359TIP3    H219011   5.038   1.983   4.764  0.6600 -1.7525 -1.1515
 6360TIP3   OH219012   4.419   2.951   2.586  0.2107 -0.7205 -0.0592
 6360TIP3    H119013   4.470   2.953   2.667  2.2662 -0.8355 -1.3335
 6360TIP3    H219014   4.358   2.878   2.598 -0.7175  0.3706  2.0879
 6361TIP3   OH219015   0.256   1.704   6.325  0.4514 -0.1104  0.0058
 6361TIP3    H119016   0.278   1.612   6.339  2.5475  0.5343  1.2800
 6361TIP3    H219017   0.188   1.723   6.389  1.0289 -0.4267  0.7193
 6362TIP3   OH219018   1.758   1.076   5.073 -0.0555 -0.8250 -0.0942
 6362TIP3    H119019   1.781   1.169   5.063  1.3925 -1.0373  1.1364
 6362TIP3    H219020   1.673   1.068   5.030 -0.5035  1.2189  0.3468
 6363TIP3   OH219021   4.007   1.657   4.839 -0.1537  0.7500 -0.5634
 6363TIP3    H119022   3.917   1.634   4.861 -0.0817 -0.0394 -1.0641
 6363TIP3    H219023   4.048   1.573   4.815  0.8329  1.0327  0.0912
 6364TIP3   OH219024   2.291   4.167   5.877  0.0780  0.0009  0.1412
 6364TIP3    H119025   2.312   4.154   5.969 -1.0655 -0.8288  0.2895
 6364TIP3    H219026   2.221   4.105   5.859  0.1444  0.3054 -1.2377
 6365TIP3   OH219027   1.250   2.346   6.065 -0.0210 -0.1169 -0.0510
 6365TIP3    H119028   1.209   2.344   6.151  2.8952 -0.7331  1.3992
 6365TIP3    H219029   1.248   2.255   6.036  1.8783 -0.4762  0.8499
 6366TIP3   OH219030   4.223   0.885   5.640  0.1578 -0.4722  0.0164
 6366TIP3    H119031   4.298   0.924   5.595 -0.3831  0.8110  0.2133
 6366TIP3    H219032   4.251   0.879   5.731  0.2781 -0.6333 -0.0311
 6367TIP3   OH219033   4.460   0.978   3.835  0.5146 -0.2166 -0.4249
 6367TIP3    H119034   4.533   1.038   3.850  1.1437 -0.7980 -1.0953
 6367TIP3    H219035   4.485   0.898   3.881  0.0629 -0.2438 -0.2269
 6368TIP3   OH219036   3.604   2.629   4.996 -0.5407  0.1166  0.2721
 6368TIP3    H119037   3.633   2.538   5.003  2.0552  0.6816 -2.1805
 6368TIP3    H219038   3.633   2.670   5.077  0.8290 -0.5782  0.1414
 6369TIP3   OH219039   3.257   0.970   4.751 -0.0520 -0.0477 -0.1838
 6369TIP3    H119040   3.162   0.957   4.751 -0.0467 -0.2661  1.6903
 6369TIP3    H219041   3.273   1.031   4.679 -1.5918 -0.1514 -0.6356
 6370TIP3   OH219042   1.367   2.609   4.743 -0.3510  0.5524 -0.0111
 6370TIP3    H119043   1.337   2.675   4.806 -0.0579  0.9922 -0.3238
 6370TIP3    H219044   1.298   2.543   4.744  0.2896 -0.1222  1.7535
 6371TIP3   OH219045   3.148   4.364   5.926  0.0844  0.3315  0.3481
 6371TIP3    H119046   3.061   4.332   5.901 -0.3431  1.5743  0.2099
 6371TIP3    H219047   3.206   4.290   5.910 -0.7477 -0.0819 -0.8195
 6372TIP3   OH219048   7.985   2.819   6.341  0.0565  0.0500  0.1803
 6372TIP3    H119049   7.947   2.735   6.314 -0.1128  0.1890 -0.0056
 6372TIP3    H219050   8.042   2.796   6.415  0.0775 -0.2430  0.0758
 6373TIP3   OH219051   2.999   2.980   4.538 -0.1925 -0.2197 -0.3534
 6373TIP3    H119052   2.965   3.069   4.528 -0.1636 -0.1534  0.1491
 6373TIP3    H219053   3.023   2.954   4.449 -0.0261  0.3455 -0.4795
 6374TIP3   OH219054   1.249   1.516   6.563 -0.8511  0.4878  0.0055
 6374TIP3    H119055   1.288   1.542   6.647  0.5421  0.0046 -0.4649
 6374TIP3    H219056   1.158   1.496   6.584 -1.0534  2.3460  1.0048
 6375TIP3   OH219057   1.965   1.009   6.477 -0.3706  0.1336  0.3138
 6375TIP3    H119058   1.982   1.103   6.482  0.1437  0.0508  0.1221
 6375TIP3    H219059   2.012   0.972   6.552  0.6999 -0.1503 -0.4849
 6376TIP3   OH219060   2.713   3.327   2.809  0.5202 -0.1789 -0.4781
 6376TIP3    H119061   2.668   3.370   2.735  1.0749  0.0912 -0.6597
 6376TIP3    H219062   2.715   3.394   2.877 -1.4281 -0.9480  0.3648
 6377TIP3   OH219063   3.348   2.184   3.860 -0.1557  0.4632  0.4411
 6377TIP3    H119064   3.263   2.220   3.837  0.3098  0.3305 -1.5849
 6377TIP3    H219065   3.399   2.259   3.891 -0.3130  0.9269 -0.4193
 6378TIP3   OH219066   5.721   2.648   5.378 -0.1234 -0.0492 -0.0330
 6378TIP3    H119067   5.627   2.660   5.395 -0.3351  1.2571 -1.9503
 6378TIP3    H219068   5.759   2.734   5.393  0.6071 -0.3241 -0.3019
 6379TIP3   OH219069   3.227   1.581   2.737 -0.4280 -0.0123  0.0267
 6379TIP3    H119070   3.266   1.544   2.658 -3.1901 -0.3825 -1.1997
 6379TIP3    H219071   3.234   1.676   2.724  1.3147 -0.0538  0.4893
 6380TIP3   OH219072   1.293   1.479   5.667 -0.2581 -0.2170 -0.2552
 6380TIP3    H119073   1.226   1.544   5.645  0.2928  1.2478  2.1498
 6380TIP3    H219074   1.250   1.419   5.727 -0.0121 -0.5218 -0.3821
 6381TIP3   OH219075   4.717   1.858   3.679 -0.2737  0.4246  0.3436
 6381TIP3    H119076   4.810   1.852   3.700 -0.2881  1.3782  0.7254
 6381TIP3    H219077   4.682   1.772   3.701  0.4671  0.1503  0.4634
 6382TIP3   OH219078   2.325   1.847   4.519  0.4828 -0.5145 -0.3240
 6382TIP3    H119079   2.377   1.790   4.576 -0.1648  0.7677  1.5963
 6382TIP3    H219080   2.320   1.930   4.567 -1.7286 -0.0195 -1.3583
 6383TIP3   OH219081   3.616   0.964   6.074 -0.4743  0.2758 -0.0298
 6383TIP3    H119082   3.525   0.959   6.044  0.2141  0.7881 -2.3555
 6383TIP3    H219083   3.651   0.876   6.058 -0.5151  0.1365  0.6638
 6384TIP3   OH219084   4.195   2.113   4.410  0.0486 -0.7197 -0.4592
 6384TIP3    H119085   4.233   2.140   4.326 -0.2320 -1.1264 -0.7140
 6384TIP3    H219086   4.271   2.107   4.468 -0.0003  1.9283 -0.0278
 6385TIP3   OH219087   3.485   1.154   3.052 -0.6886  0.4401  0.2689
 6385TIP3    H119088   3.537   1.220   3.099 -1.1371  1.9770 -1.3071
 6385TIP3    H219089   3.400   1.196   3.040 -0.5319  0.1708 -2.0327
 6386TIP3   OH219090   3.388   3.364   4.184  0.0484  0.3786  0.3872
 6386TIP3    H119091   3.386   3.372   4.088  2.9447 -0.0902  0.2454
 6386TIP3    H219092   3.402   3.453   4.215  0.8844  0.2864  0.2825
 6387TIP3   OH219093   6.662   7.552   0.787 -0.3861  0.4856 -0.0979
 6387TIP3    H119094   6.583   7.507   0.757 -0.7204 -0.1489  1.6641
 6387TIP3    H219095   6.709   7.575   0.707 -1.7589 -0.2110 -1.1217
 6388TIP3   OH219096   3.520   2.988   5.197  0.6337  0.3605  0.1915
 6388TIP3    H119097   3.551   3.056   5.256  1.5112  0.1626 -0.0228
 6388TIP3    H219098   3.470   3.035   5.130  1.6310  0.8572 -0.2161
 6389TIP3   OH219099   2.854   3.767   3.371 -0.0509 -0.2508 -0.3070
 6389TIP3    H119100   2.902   3.848   3.352  0.1425 -0.1604  0.5553
 6389TIP3    H219101   2.919   3.709   3.412 -0.0824 -0.9989 -1.2976
 6390TIP3   OH219102   0.405   4.117   5.465 -0.5068  1.1863 -0.1948
 6390TIP3    H119103   0.403   4.132   5.560 -1.8837 -0.9441  0.1664
 6390TIP3    H219104   0.370   4.028   5.455 -0.3896  1.4002 -2.7102
 6391TIP3   OH219105   3.063   3.299   5.671 -0.9094  0.1394  0.4433
 6391TIP3    H119106   3.126   3.227   5.671 -1.4320 -0.3225  0.6917
 6391TIP3    H219107   3.087   3.352   5.747  0.4653  1.1102 -0.6502
 6392TIP3   OH219108   3.083   3.544   4.449  0.1452  0.0458  0.1028
 6392TIP3    H119109   3.066   3.452   4.430  1.7534 -0.1466 -0.5175
 6392TIP3    H219110   2.998   3.587   4.441 -0.5805 -1.3501  0.1922
 6393TIP3   OH219111   2.381   3.299   2.564  0.5225 -0.1076 -0.2970
 6393TIP3    H119112   2.301   3.292   2.615  1.0293  1.2674  0.7354
 6393TIP3    H219113   2.360   3.261   2.479 -1.5607  1.2828 -0.4196
 6394TIP3   OH219114   3.663   1.138   5.501  0.2855 -0.3048 -0.8141
 6394TIP3    H119115   3.735   1.143   5.564 -1.9239  2.8941  1.5894
 6394TIP3    H219116   3.595   1.089   5.546  0.4410 -2.3114 -2.6553
 6395TIP3   OH219117   3.789   2.779   2.896 -0.1680  0.5376  0.0623
 6395TIP3    H119118   3.854   2.759   2.829 -1.7501  0.5436 -1.5304
 6395TIP3    H219119   3.813   2.724   2.970  1.6318  0.5410 -0.5046
 6396TIP3   OH219120   1.192   1.823   5.227  0.0176  0.0376 -0.4209
 6396TIP3    H119121   1.145   1.907   5.227 -0.0761 -0.0047  0.7581
 6396TIP3    H219122   1.191   1.796   5.136 -0.2358  1.1675 -0.7723
 6397TIP3   OH219123   1.725   1.498   6.231 -0.6862  0.6386 -0.0765
 6397TIP3    H119124   1.666   1.452   6.291  0.5249  0.4296  0.9679
 6397TIP3    H219125   1.764   1.568   6.283 -1.5536  2.0940 -1.3242
 6398TIP3   OH219126   5.515   1.620   5.559  0.7927 -0.3861  0.1963
 6398TIP3    H119127   5.527   1.591   5.650  0.7453  1.7495  0.9102
 6398TIP3    H219128   5.428   1.589   5.536  1.0009 -1.3797  0.7049
 6399TIP3   OH219129   3.389   2.765   4.197 -0.3213 -0.1480 -0.2201
 6399TIP3    H119130   3.469   2.756   4.248 -0.3235 -0.2959 -0.2438
 6399TIP3    H219131   3.382   2.859   4.180 -0.5483 -0.0487  0.4150
 6400TIP3   OH219132   2.761   2.723   2.415 -0.3600 -0.2266 -0.0838
 6400TIP3    H119133   2.675   2.693   2.387 -0.5591 -0.5270  0.8377
 6400TIP3    H219134   2.816   2.716   2.336 -1.1217 -0.2217 -0.6176
 6401TIP3   OH219135   3.680   3.684   4.857  0.0033 -0.2417 -0.1297
 6401TIP3    H119136   3.657   3.628   4.783  0.5471 -2.0201  1.0175
 6401TIP3    H219137   3.740   3.631   4.910  0.4924  1.4096  1.0220
 6402TIP3   OH219138   2.423   3.949   4.267  0.4342  0.2381  0.2097
 6402TIP3    H119139   2.342   3.926   4.313  1.2789 -0.8202  1.2105
 6402TIP3    H219140   2.414   3.909   4.181  0.5661 -1.2783  0.8803
 6403TIP3   OH219141   3.936   1.091   3.798 -0.1666  0.3595 -0.5676
 6403TIP3    H119142   3.930   1.001   3.766 -0.8085 -0.1414  0.9000
 6403TIP3    H219143   4.026   1.099   3.831  0.0226  0.3954 -1.0886
 6404TIP3   OH219144   6.800   5.677   0.833 -0.4609  0.6919  0.4574
 6404TIP3    H119145   6.876   5.701   0.886 -1.6863  0.7330  2.2543
 6404TIP3    H219146   6.776   5.758   0.787 -0.1943  1.0027  0.8647
 6405TIP3   OH219147   3.043   2.939   5.418 -0.5276 -0.5822 -0.3200
 6405TIP3    H119148   3.093   2.867   5.456 -0.8930 -0.9373 -0.5080
 6405TIP3    H219149   3.065   2.938   5.325  0.1811  0.1357 -0.1651
 6406TIP3   OH219150   5.021   4.576   0.782 -0.4514  0.5739  0.3629
 6406TIP3    H119151   5.109   4.612   0.771 -1.3216  2.4580 -0.6574
 6406TIP3    H219152   4.963   4.651   0.771 -2.3822 -1.2430 -2.5717
 6407TIP3   OH219153   3.703   3.043   6.559 -0.2761 -0.2075 -0.3623
 6407TIP3    H119154   3.751   3.114   6.602  1.5592 -1.4959 -0.2204
 6407TIP3    H219155   3.683   2.982   6.631 -0.3095 -0.6551 -0.7499
 6408TIP3   OH219156   4.824   2.713   4.607  0.2109 -0.3231 -0.1839
 6408TIP3    H119157   4.806   2.777   4.538  0.0273  0.5738  0.6931
 6408TIP3    H219158   4.740   2.697   4.648  0.0944 -1.7770 -0.9268
 6409TIP3   OH219159   4.190   3.091   2.958 -0.3305  0.4624  0.1922
 6409TIP3    H119160   4.135   3.145   2.901 -0.5362  0.2559  0.1949
 6409TIP3    H219161   4.227   3.152   3.021  0.1688  0.7542 -0.3715
 6410TIP3   OH219162   1.685   2.301   4.646 -0.2362  0.2128  0.6367
 6410TIP3    H119163   1.661   2.287   4.737  1.9425  0.8281  1.3263
 6410TIP3    H219164   1.660   2.391   4.627 -1.2853 -0.1224  0.4324
 6411TIP3   OH219165   1.382   3.159   4.088  0.1172  0.9110 -0.1932
 6411TIP3    H119166   1.466   3.141   4.131  0.3558 -0.6511 -1.2464
 6411TIP3    H219167   1.377   3.255   4.084  1.4720  1.0296  0.6070
 6412TIP3   OH219168   4.104   1.921   4.656  0.3485 -0.3322 -0.3086
 6412TIP3    H119169   4.040   1.852   4.641  0.0434 -0.3914  1.2045
 6412TIP3    H219170   4.178   1.877   4.697  0.5393  0.0712 -0.2162
 6413TIP3   OH219171   2.918   1.080   3.111  0.2300 -0.6169  0.1369
 6413TIP3    H119172   3.012   1.084   3.131 -0.1711 -0.9462  2.2481
 6413TIP3    H219173   2.880   1.031   3.184 -1.7359  0.4459 -0.1310
 6414TIP3   OH219174   5.036   3.671   6.662 -0.1446 -0.4243 -0.2753
 6414TIP3    H119175   5.050   3.705   6.751  2.3489 -0.8179 -0.4821
 6414TIP3    H219176   5.118   3.627   6.640 -1.1889 -1.4364 -2.3121
 6415TIP3   OH219177   4.606   1.342   4.982 -0.2347 -1.2180  0.3699
 6415TIP3    H119178   4.652   1.258   4.978 -1.3043 -1.7648 -0.5132
 6415TIP3    H219179   4.619   1.380   4.895  0.2146 -0.4774  0.7549
 6416TIP3   OH219180   2.249   3.503   5.780  0.4450  0.2344  0.2185
 6416TIP3    H119181   2.282   3.549   5.702  1.7299  0.8663  1.1254
 6416TIP3    H219182   2.327   3.470   5.823 -0.4064 -1.9375  0.1459
 6417TIP3   OH219183   2.909   2.741   3.997  0.1401 -0.2139 -0.0474
 6417TIP3    H119184   2.911   2.793   3.917 -1.9285 -1.0017 -0.6214
 6417TIP3    H219185   2.967   2.788   4.057  0.6816  1.0925 -1.5601
 6418TIP3   OH219186   3.679   1.908   5.374 -0.1444  0.5101 -0.1104
 6418TIP3    H119187   3.683   1.994   5.331 -1.6100  0.6242 -0.0529
 6418TIP3    H219188   3.663   1.847   5.302  3.5078 -0.0546 -0.4958
 6419TIP3   OH219189   0.795   3.473   6.867 -0.2552 -0.3084  0.3549
 6419TIP3    H119190   0.835   3.392   6.901 -2.1684 -0.2113  2.9813
 6419TIP3    H219191   0.862   3.540   6.879  0.4916 -1.0474  0.3467
 6420TIP3   OH219192   1.015   1.709   6.024 -0.4119  0.1866  0.3084
 6420TIP3    H119193   1.020   1.803   6.040 -2.2598  0.1385  1.3218
 6420TIP3    H219194   0.967   1.700   5.942  0.0324  0.1246  0.0512
 6421TIP3   OH219195   2.821   2.063   4.825  0.9545  0.1305 -0.2164
 6421TIP3    H119196   2.762   2.131   4.857  1.5374 -0.2251  1.7223
 6421TIP3    H219197   2.907   2.106   4.820  0.7352  0.3946 -2.1306
 6422TIP3   OH219198   2.801   2.771   5.396 -0.1664 -0.3167  0.1337
 6422TIP3    H119199   2.868   2.838   5.410 -0.4545  0.0814 -0.3730
 6422TIP3    H219200   2.779   2.740   5.484  0.3293 -0.1062  0.3350
 6423TIP3   OH219201   3.231   2.673   5.386 -0.2386  0.6215  0.0231
 6423TIP3    H119202   3.269   2.627   5.312  0.4900  0.2431  0.6284
 6423TIP3    H219203   3.306   2.703   5.438 -0.7416  0.7102  0.7180
 6424TIP3   OH219204   2.224   2.195   4.972 -0.3959  0.8497 -0.0990
 6424TIP3    H119205   2.270   2.238   5.044 -1.6060 -0.1047  1.2453
 6424TIP3    H219206   2.248   2.103   4.980 -0.2794  0.7765 -1.1354
 6425TIP3   OH219207   2.597   1.011   5.030  0.3540  0.1979 -0.1797
 6425TIP3    H119208   2.672   0.979   4.980  1.2648 -1.5918  2.1729
 6425TIP3    H219209   2.554   0.931   5.061 -0.8878  1.2268  0.7944
 6426TIP3   OH219210   2.496   1.324   5.454  0.3758 -0.6757 -0.5760
 6426TIP3    H119211   2.572   1.341   5.510 -0.1947 -0.1656  0.0548
 6426TIP3    H219212   2.514   1.239   5.414  2.7356  0.8095 -2.8662
 6427TIP3   OH219213   3.422   4.084   6.592 -0.1765  0.5121  0.3304
 6427TIP3    H119214   3.354   4.122   6.648 -0.5557  0.7870 -0.3103
 6427TIP3    H219215   3.379   4.071   6.507 -0.0004 -1.1684  0.4789
 6428TIP3   OH219216   2.302   2.140   3.889  0.0707  0.3198 -0.0142
 6428TIP3    H119217   2.383   2.148   3.940 -0.4315  3.2330  0.3904
 6428TIP3    H219218   2.245   2.085   3.943  1.2380 -0.5989  0.3314
 6429TIP3   OH219219   1.301   0.973   4.760  0.2107 -0.3578  0.1246
 6429TIP3    H119220   1.284   0.892   4.713 -1.7074  0.4751 -0.6897
 6429TIP3    H219221   1.214   1.003   4.788  0.8849  1.4169  0.3930
 6430TIP3   OH219222   4.399   1.574   5.683 -0.4701 -0.0027 -0.1719
 6430TIP3    H119223   4.322   1.629   5.668 -1.5914 -1.0677  1.5014
 6430TIP3    H219224   4.471   1.636   5.694 -0.6575  0.9706 -3.7561
 6431TIP3   OH219225   1.509   2.277   6.935 -0.2399  0.5419 -0.1381
 6431TIP3    H119226   1.530   2.351   6.992  0.2937  0.0881  0.2599
 6431TIP3    H219227   1.441   2.311   6.877 -0.9945  0.9245  0.9424
 6432TIP3   OH219228   3.274   3.705   5.550 -0.3728 -0.3429  0.5825
 6432TIP3    H119229   3.346   3.757   5.584 -0.7077  0.8753 -0.5305
 6432TIP3    H219230   3.200   3.725   5.608 -0.0166 -1.0092  1.2667
 6433TIP3   OH219231   4.140   2.554   3.353 -0.3129  1.1117 -0.8457
 6433TIP3    H119232   4.044   2.555   3.355 -0.3054  1.0556 -0.5217
 6433TIP3    H219233   4.161   2.520   3.266 -0.5872  1.8234 -1.1997
 6434TIP3   OH219234   2.621   2.732   4.316 -0.2894  0.4707 -0.2116
 6434TIP3    H119235   2.612   2.639   4.334  1.4580  0.4147  0.4219
 6434TIP3    H219236   2.531   2.764   4.312 -0.9328 -1.4075 -1.3771
 6435TIP3   OH219237   3.690   2.583   4.381  0.3355 -0.4474 -0.2071
 6435TIP3    H119238   3.654   2.670   4.399 -0.4474 -0.6994 -0.5333
 6435TIP3    H219239   3.783   2.598   4.367 -0.0237  0.5188 -1.5900
 6436TIP3   OH219240   2.775   2.367   3.623  0.2723  0.0815  0.2468
 6436TIP3    H119241   2.844   2.320   3.670  0.2351  0.1209  0.3407
 6436TIP3    H219242   2.727   2.414   3.691 -1.0595 -1.4851  0.4272
 6437TIP3   OH219243   4.523   2.052   3.025 -0.0337 -0.3063  0.3410
 6437TIP3    H119244   4.574   1.982   3.066 -0.1057 -0.0156  0.9426
 6437TIP3    H219245   4.531   2.037   2.931  0.6152 -0.6431  0.4527
 6438TIP3   OH219246   2.890   4.260   5.339 -0.7255 -0.0710  0.5219
 6438TIP3    H119247   2.909   4.350   5.366 -1.4873 -0.1273  1.2629
 6438TIP3    H219248   2.813   4.267   5.283  1.1309  0.0955 -2.0944
 6439TIP3   OH219249   0.816   0.120   0.243 -0.4514 -0.6719  0.6862
 6439TIP3    H119250   0.876   0.070   0.187 -0.3322 -1.6103  1.6396
 6439TIP3    H219251   0.853   0.113   0.331 -0.1895  1.4973  0.7683
 6440TIP3   OH219252   4.320   1.599   3.172  0.0493  0.0096  0.6535
 6440TIP3    H119253   4.278   1.677   3.135  0.7804 -0.2606 -0.7835
 6440TIP3    H219254   4.257   1.529   3.157 -1.0044  0.4326  2.7453
 6441TIP3   OH219255   2.918   2.096   4.105 -0.0825 -0.0699 -0.6872
 6441TIP3    H119256   2.915   2.187   4.133 -0.3386 -0.4098  0.4127
 6441TIP3    H219257   2.863   2.093   4.026 -1.2220  0.4524  0.0728
 6442TIP3   OH219258   4.420   2.111   3.534  0.0924 -0.0025  0.0423
 6442TIP3    H119259   4.402   2.045   3.600  0.6730  0.6903  0.9011
 6442TIP3    H219260   4.439   2.191   3.583 -0.9075  0.8999 -0.9869
 6443TIP3   OH219261   5.486   0.984   4.673  0.1009 -0.4103 -0.7580
 6443TIP3    H119262   5.451   0.895   4.680  1.0745 -1.0172 -3.2216
 6443TIP3    H219263   5.570   0.980   4.719  0.2669 -0.8377 -1.0946
 6444TIP3   OH219264   2.608   2.831   4.741  0.0496  0.5164  0.6420
 6444TIP3    H119265   2.553   2.765   4.700  1.3129 -0.6798  0.8347
 6444TIP3    H219266   2.550   2.877   4.801 -0.9162 -0.2147  0.2782
 6445TIP3   OH219267   1.394   3.034   5.552 -0.1586 -0.1194  0.2058
 6445TIP3    H119268   1.460   3.079   5.500  1.4515 -1.5128  0.9727
 6445TIP3    H219269   1.332   3.102   5.578  1.2306  1.3002 -0.1539
 6446TIP3   OH219270   1.898   1.961   4.095  0.1009  0.4405 -0.4774
 6446TIP3    H119271   1.878   1.888   4.153 -1.4301  2.0940  1.1314
 6446TIP3    H219272   1.860   1.937   4.011 -1.7098  0.0405  0.4440
 6447TIP3   OH219273   4.463   0.948   6.516 -0.7570  0.1654 -0.4259
 6447TIP3    H119274   4.559   0.944   6.509 -0.6365  1.2803  0.5097
 6447TIP3    H219275   4.446   0.935   6.610 -1.5167  0.2324 -0.5566
 6448TIP3   OH219276   3.676   2.626   3.874 -0.1224  0.2240 -0.2059
 6448TIP3    H119277   3.686   2.685   3.800 -1.3783 -0.3051 -0.8010
 6448TIP3    H219278   3.748   2.649   3.933 -1.0622  2.8934 -0.0628
 6449TIP3   OH219279   0.816   1.980   5.391  0.0909 -0.4966 -0.1242
 6449TIP3    H119280   0.829   2.043   5.320  1.7768  0.1397  0.7129
 6449TIP3    H219281   0.795   1.898   5.347 -1.7676  0.5567 -1.2495
 6450TIP3   OH219282   2.365   1.958   5.766  0.5361 -0.0276  0.4953
 6450TIP3    H119283   2.455   1.991   5.755  0.3139 -0.1850 -2.1459
 6450TIP3    H219284   2.366   1.914   5.851  2.9713 -0.0138  0.5112
 6451TIP3   OH219285   4.460   1.583   4.477 -0.7751 -0.1306  0.2874
 6451TIP3    H119286   4.418   1.553   4.557  0.8899 -0.8276  0.9184
 6451TIP3    H219287   4.420   1.668   4.459 -0.1712  0.7018  2.6580
 6452TIP3   OH219288   3.380   2.336   4.661  0.4172 -0.3642  0.0143
 6452TIP3    H119289   3.322   2.262   4.644 -0.6842  0.3304  0.6394
 6452TIP3    H219290   3.382   2.343   4.757 -0.7544  1.3479 -0.0516
 6453TIP3   OH219291   3.183   1.944   4.216 -0.5711  0.4643  0.1611
 6453TIP3    H119292   3.092   1.937   4.186  0.4293 -0.9118 -2.8462
 6453TIP3    H219293   3.225   2.002   4.151  1.0510 -0.2628  0.5287
 6454TIP3   OH219294   4.731   4.593   0.461  0.1140 -1.2573  0.0989
 6454TIP3    H119295   4.717   4.647   0.540 -1.4872 -0.0524 -0.9750
 6454TIP3    H219296   4.657   4.615   0.404  2.4538 -0.3740 -2.6911
 6455TIP3   OH219297   3.618   1.723   5.180 -0.5699  0.1686 -0.1285
 6455TIP3    H119298   3.543   1.673   5.149 -0.4210  0.2611 -0.6470
 6455TIP3    H219299   3.682   1.658   5.207 -0.5446  0.0854 -0.3919
 6456TIP3   OH219300   1.261   2.787   4.961 -0.1005 -0.5408 -1.1417
 6456TIP3    H119301   1.295   2.844   5.029 -0.5878  0.2199 -1.5306
 6456TIP3    H219302   1.215   2.717   5.008  3.5759 -2.6609 -0.5260
 6457TIP3   OH219303   4.810   1.886   6.267 -0.1036  0.0410 -0.3514
 6457TIP3    H119304   4.716   1.903   6.255  0.2233  0.8113 -1.8839
 6457TIP3    H219305   4.813   1.799   6.308 -1.5233  0.4627  0.6780
 6458TIP3   OH219306   2.049   1.214   3.911  0.3217 -0.0964  0.2025
 6458TIP3    H119307   1.964   1.193   3.948  0.7719 -0.9932  0.7402
 6458TIP3    H219308   2.111   1.159   3.959  1.3216  1.2187  0.4843
 6459TIP3   OH219309   2.499   3.711   0.855 -0.2805  0.4626  0.3293
 6459TIP3    H119310   2.530   3.778   0.916  1.0923 -0.9951  1.2715
 6459TIP3    H219311   2.525   3.628   0.895  0.3505 -0.5469 -2.0716
 6460TIP3   OH219312   4.407   1.225   5.777  0.2087 -0.1925  0.4235
 6460TIP3    H119313   4.388   1.262   5.691 -0.6320  0.9415  1.0869
 6460TIP3    H219314   4.329   1.245   5.830  0.5293 -1.2575  1.3260
 6461TIP3   OH219315   1.973   0.774   6.293 -0.7877  0.1100 -0.0056
 6461TIP3    H119316   1.966   0.836   6.366 -2.4529  2.2310 -1.8767
 6461TIP3    H219317   2.060   0.791   6.256  0.0417 -0.9374  1.4057
 6462TIP3   OH219318   1.756   1.779   4.247 -0.0406 -0.5082 -0.0074
 6462TIP3    H119319   1.676   1.828   4.268  0.1146 -0.1459 -0.2553
 6462TIP3    H219320   1.797   1.764   4.332  0.7970  1.3224 -0.0609
 6463TIP3   OH219321   3.553   2.788   4.472 -0.1313 -0.3308 -0.6140
 6463TIP3    H119322   3.459   2.785   4.455 -0.4945  1.0955  0.9106
 6463TIP3    H219323   3.577   2.880   4.458  1.0017 -0.6527 -0.8395
 6464TIP3   OH219324   7.739   4.989   1.069  0.6396  0.1589  0.2665
 6464TIP3    H119325   7.832   4.975   1.089  0.7782 -0.7770 -0.9906
 6464TIP3    H219326   7.738   5.019   0.978 -0.3918 -1.2709 -0.2088
 6465TIP3   OH219327   3.164   1.686   5.776 -0.3340  0.0529  0.0643
 6465TIP3    H119328   3.212   1.609   5.805  0.4164  0.2312 -0.6917
 6465TIP3    H219329   3.205   1.759   5.822  0.7726  0.3201 -1.3159
 6466TIP3   OH219330   1.908   3.120   4.100 -0.3289 -0.1007 -0.2268
 6466TIP3    H119331   1.863   3.186   4.048 -0.8198 -0.4408 -0.2302
 6466TIP3    H219332   1.875   3.036   4.067 -1.4225 -0.2993  1.3356
 6467TIP3   OH219333   4.205   0.760   1.796 -0.0903 -0.8243  0.4365
 6467TIP3    H119334   4.301   0.764   1.801 -0.0815 -2.1690  1.4770
 6467TIP3    H219335   4.181   0.692   1.858 -1.6666 -1.2028 -0.5787
 6468TIP3   OH219336   2.378   3.780   6.758  0.0139 -0.2312 -0.3764
 6468TIP3    H119337   2.420   3.787   6.672  0.3003  2.0628 -0.0698
 6468TIP3    H219338   2.449   3.754   6.817  0.0881 -0.5171 -0.5867
 6469TIP3   OH219339   3.054   3.971   4.254 -0.7546 -0.1271 -0.7092
 6469TIP3    H119340   3.095   3.892   4.219 -0.7372 -0.6722  0.4981
 6469TIP3    H219341   3.119   4.040   4.240  0.0380 -0.7230 -0.0019
 6470TIP3   OH219342   3.302   1.634   4.222  0.7002 -0.0637 -0.1966
 6470TIP3    H119343   3.262   1.721   4.216  0.4786 -0.3551 -3.3202
 6470TIP3    H219344   3.394   1.652   4.239  0.4090  0.7138  0.6802
 6471TIP3   OH219345   1.353   0.648   5.266 -0.0569 -0.1025  0.3985
 6471TIP3    H119346   1.270   0.622   5.305 -0.6052 -0.5888 -1.0707
 6471TIP3    H219347   1.386   0.568   5.225  0.8763  0.2199  0.5077
 6472TIP3   OH219348   3.052   0.981   4.443  0.0446  0.0290 -0.3677
 6472TIP3    H119349   3.058   0.929   4.363  0.7083  0.4051 -0.5736
 6472TIP3    H219350   3.024   0.920   4.510 -1.9263  0.0185 -1.1829
 6473TIP3   OH219351   4.350   1.303   5.062  0.0976 -0.4242  0.0805
 6473TIP3    H119352   4.330   1.395   5.041 -0.4726 -0.7150 -0.6701
 6473TIP3    H219353   4.444   1.295   5.045  0.0922 -0.0494 -0.1429
 6474TIP3   OH219354   2.442   2.727   2.240  0.5815  0.3713  0.4519
 6474TIP3    H119355   2.372   2.693   2.296  0.4721  0.6733  0.5000
 6474TIP3    H219356   2.441   2.669   2.164 -0.8332  1.3706 -0.3072
 6475TIP3   OH219357   3.755   7.426   0.665 -0.7431 -0.0397  0.1066
 6475TIP3    H119358   3.799   7.419   0.580 -1.1924  0.4906 -0.1762
 6475TIP3    H219359   3.706   7.508   0.659 -2.4303 -1.0233  0.0997
 6476TIP3   OH219360   7.825   2.063   4.005 -0.4674 -0.4782  0.1031
 6476TIP3    H119361   7.824   2.011   4.086  2.9555  0.5592  0.8987
 6476TIP3    H219362   7.902   2.032   3.958  0.0254  1.9302 -0.7321
 6477TIP3   OH219363   4.677   0.951   5.693 -0.4514 -0.1533 -0.0803
 6477TIP3    H119364   4.652   1.002   5.770 -1.4884 -0.7667  0.0023
 6477TIP3    H219365   4.770   0.971   5.680 -0.4103  0.4028  0.9818
 6478TIP3   OH219366   4.261   1.514   4.255  0.4526 -0.1845  0.0604
 6478TIP3    H119367   4.308   1.456   4.196  0.5316  0.0264 -0.0830
 6478TIP3    H219368   4.315   1.594   4.260  0.5851 -0.3029  0.6260
 6479TIP3   OH219369   2.622   1.061   4.627  0.0932  0.4392 -0.2769
 6479TIP3    H119370   2.664   1.070   4.542 -3.1981  0.4982 -1.9375
 6479TIP3    H219371   2.601   1.150   4.653 -0.1323  0.3121 -0.0190
 6480TIP3   OH219372   4.994   6.641   0.219  0.3777  0.3098 -0.2712
 6480TIP3    H119373   4.912   6.593   0.220  0.6897 -0.2513 -0.8312
 6480TIP3    H219374   5.041   6.611   0.296  0.0797  0.5915  0.0200
 6481TIP3   OH219375   1.575   2.215   3.764  0.1099 -0.6622  0.1168
 6481TIP3    H119376   1.625   2.280   3.812  1.5184  0.3093 -2.5400
 6481TIP3    H219377   1.590   2.133   3.811  1.6506  0.1939  1.1643
 6482TIP3   OH219378   3.276   3.984   4.981 -0.0877  0.0207  0.1374
 6482TIP3    H119379   3.293   3.981   5.075 -2.7615 -1.1148  0.6344
 6482TIP3    H219380   3.351   3.939   4.942  0.6565 -0.2221  1.7925
 6483TIP3   OH219381   1.153   1.308   5.924 -0.1429 -0.4363  0.0687
 6483TIP3    H119382   1.088   1.368   5.885  0.3304 -0.3300 -0.5654
 6483TIP3    H219383   1.122   1.221   5.899 -0.8761 -0.4678  1.0565
 6484TIP3   OH219384   3.684   1.271   4.084  0.0141 -0.1901 -0.0659
 6484TIP3    H119385   3.633   1.219   4.023  1.2449 -0.9644 -0.4590
 6484TIP3    H219386   3.758   1.304   4.032 -0.4645  1.5330  0.3025
 6485TIP3   OH219387   2.982   2.507   3.904  0.6499  0.2718 -0.8445
 6485TIP3    H119388   2.974   2.463   3.989  0.5382 -1.5153 -1.7604
 6485TIP3    H219389   2.941   2.592   3.918  0.1695 -0.1927  0.7525
 6486TIP3   OH219390   3.349   1.222   5.058  0.1978  0.4626  0.0610
 6486TIP3    H119391   3.355   1.241   4.964  0.1462  0.1249 -0.0138
 6486TIP3    H219392   3.271   1.270   5.087 -0.1818  0.0205 -0.2129
 6487TIP3   OH219393   3.862   2.668   5.303  0.0784 -0.2354 -0.1780
 6487TIP3    H119394   3.902   2.751   5.277  0.5272 -1.1516 -2.5020
 6487TIP3    H219395   3.768   2.686   5.302  0.2318  0.6578  0.8085
 6488TIP3   OH219396   2.494   2.574   5.077 -0.4190 -0.5782 -0.6656
 6488TIP3    H119397   2.443   2.512   5.025 -0.1602 -0.8302 -0.6166
 6488TIP3    H219398   2.429   2.617   5.133 -0.5797 -0.8852 -0.6168
 6489TIP3   OH219399   5.860   7.646   0.055  0.6166  0.0788  0.1731
 6489TIP3    H119400   5.853   7.690   0.139  2.5939  0.3613  0.2264
 6489TIP3    H219401   5.861   7.717  -0.010  3.3931  0.1647  0.2329
 6490TIP3   OH219402   5.568   3.578   5.133 -0.2779  0.1251  0.1092
 6490TIP3    H119403   5.552   3.624   5.216  0.5903  1.3374 -0.3901
 6490TIP3    H219404   5.546   3.487   5.152 -2.8979  0.8897  0.8372
 6491TIP3   OH219405   2.134   1.652   4.520  0.0391 -0.1941 -0.2895
 6491TIP3    H119406   2.094   1.666   4.434 -0.2505 -0.6191 -0.2243
 6491TIP3    H219407   2.193   1.726   4.531 -1.4716  0.9988  0.0338
 6492TIP3   OH219408   4.606   5.756   0.100  0.0126 -0.1237 -0.0588
 6492TIP3    H119409   4.662   5.834   0.101  0.8795 -0.6740 -2.2833
 6492TIP3    H219410   4.647   5.699   0.035 -1.8548 -1.5120 -0.0290
 6493TIP3   OH219411   4.642   3.388   5.533 -0.0147 -0.1017  0.2163
 6493TIP3    H119412   4.707   3.453   5.558  0.6901 -0.7611  0.1304
 6493TIP3    H219413   4.675   3.306   5.570 -0.0870 -0.6866 -0.9870
 6494TIP3   OH219414   6.483   0.627   0.405  0.0484  0.4275  0.4123
 6494TIP3    H119415   6.550   0.694   0.389  2.5548 -1.2038  3.4254
 6494TIP3    H219416   6.517   0.548   0.363 -0.9135  0.0495  0.3343
 6495TIP3   OH219417   4.032   0.707   4.402 -0.0842  0.7546  0.0005
 6495TIP3    H119418   4.045   0.802   4.404 -0.2443  0.7704  0.4530
 6495TIP3    H219419   3.937   0.696   4.409 -0.1476  0.5845 -1.0073
 6496TIP3   OH219420   0.408   2.817   5.926  0.4974 -0.2231  0.7664
 6496TIP3    H119421   0.494   2.782   5.901  0.3724 -0.5098  0.7305
 6496TIP3    H219422   0.405   2.904   5.888  0.7324 -0.2535  0.6795
 6497TIP3   OH219423   3.196   2.537   4.601 -0.2398  0.4992 -0.1601
 6497TIP3    H119424   3.267   2.474   4.611 -1.4058 -0.9094 -0.5028
 6497TIP3    H219425   3.189   2.550   4.507 -2.3092 -1.6424 -0.3678
 6498TIP3   OH219426   2.439   3.299   4.132  0.4222 -0.0136  0.1787
 6498TIP3    H119427   2.456   3.294   4.226 -0.2817  0.8849  0.3544
 6498TIP3    H219428   2.344   3.302   4.124  0.4388 -0.8884 -0.6115
 6499TIP3   OH219429   3.965   2.775   3.207  0.0868 -0.3923 -0.1452
 6499TIP3    H119430   4.011   2.696   3.236  0.0178 -1.3263 -2.4766
 6499TIP3    H219431   4.027   2.818   3.149 -0.0363  1.0733  0.7985
 6500TIP3   OH219432   4.559   6.315   1.046 -0.1452  0.1548  0.3187
 6500TIP3    H119433   4.613   6.306   1.125  2.2797  0.5229 -1.2512
 6500TIP3    H219434   4.551   6.410   1.035  0.7955  0.1152 -0.7189
 6501TIP3   OH219435   1.867   2.413   5.978  0.3229  0.1509  0.7768
 6501TIP3    H119436   1.866   2.507   5.993  1.8058  0.4622 -0.8073
 6501TIP3    H219437   1.856   2.404   5.883  1.2958 -1.2137  0.7723
 6502TIP3   OH219438   7.249   4.339   0.512  0.0345 -0.1521  0.4932
 6502TIP3    H119439   7.207   4.425   0.502 -0.7140 -0.6152 -0.4016
 6502TIP3    H219440   7.242   4.319   0.605  1.2777  1.2942  0.9210
 6503TIP3   OH219441   2.945   3.632   6.104 -0.0089 -0.3601 -0.2954
 6503TIP3    H119442   3.008   3.703   6.090  0.1736 -0.3157  0.7619
 6503TIP3    H219443   2.974   3.588   6.183 -1.9528  0.4055  0.9007
 6504TIP3   OH219444   3.580   1.991   4.306 -0.0511 -0.2450  0.4139
 6504TIP3    H119445   3.660   1.984   4.253  0.5396  0.1003  1.2469
 6504TIP3    H219446   3.563   2.084   4.312 -1.3883 -0.3712 -1.0137
 6505TIP3   OH219447   0.692   2.364   4.504 -0.1879 -0.0790 -0.2817
 6505TIP3    H119448   0.787   2.377   4.499 -0.0549 -0.9482 -0.0979
 6505TIP3    H219449   0.671   2.316   4.423 -0.8074  2.0629 -1.4204
 6506TIP3   OH219450   1.816   1.110   2.523 -0.1925 -0.1567  0.2949
 6506TIP3    H119451   1.884   1.081   2.463  0.3694  1.8232 -0.0548
 6506TIP3    H219452   1.778   1.029   2.558  1.2122 -1.2828 -0.7611
 6507TIP3   OH219453   3.243   4.003   5.536  0.2205 -0.2740  0.0282
 6507TIP3    H119454   3.195   3.938   5.587  0.8950 -0.4654  0.4314
 6507TIP3    H219455   3.282   4.061   5.602  0.9828 -0.4423 -0.2615
 6508TIP3   OH219456   1.970   2.888   4.230  0.4478 -0.2339  0.3112
 6508TIP3    H119457   2.003   2.885   4.320  1.5106 -2.0346 -0.1222
 6508TIP3    H219458   1.933   2.976   4.221 -0.0429 -0.1728  2.6427
 6509TIP3   OH219459   4.071   4.528   6.162  0.0132 -0.7005 -0.2812
 6509TIP3    H119460   3.986   4.568   6.145 -0.5571 -1.8929 -0.3440
 6509TIP3    H219461   4.051   4.453   6.219  1.2064 -0.1067  0.9289
 6510TIP3   OH219462   5.169   3.001   5.340  0.2890  0.0342 -0.0271
 6510TIP3    H119463   5.123   3.085   5.335 -0.0593 -0.0000  2.1586
 6510TIP3    H219464   5.210   3.002   5.426  0.5717 -1.8881 -0.1316
 6511TIP3   OH219465   3.590   3.035   5.530 -0.4852  0.4050 -0.2393
 6511TIP3    H119466   3.603   3.082   5.612  0.3721 -0.8684  0.3771
 6511TIP3    H219467   3.672   3.046   5.482 -0.3251 -0.3659 -0.1439
 6512TIP3   OH219468   4.126   4.359   4.818 -0.0775 -0.0456  0.5389
 6512TIP3    H119469   4.047   4.332   4.770 -0.8646  0.9708  1.2398
 6512TIP3    H219470   4.122   4.311   4.900  0.2578 -0.3164  0.3973
 6513TIP3   OH219471   2.979   4.123   3.848  0.1943  0.6875  0.1105
 6513TIP3    H119472   2.905   4.062   3.847  0.8280 -0.2098  2.8944
 6513TIP3    H219473   3.055   4.068   3.868  0.9272  2.2191  1.6601
 6514TIP3   OH219474   4.392   2.276   4.283  0.1358  0.0822  0.1747
 6514TIP3    H119475   4.484   2.255   4.301  0.1686 -0.9990 -1.1723
 6514TIP3    H219476   4.388   2.283   4.188 -1.1535  0.2906  0.2442
 6515TIP3   OH219477   1.246   3.587   3.845 -0.3436 -0.2207 -0.0260
 6515TIP3    H119478   1.168   3.618   3.890  0.7297  0.5786  1.3136
 6515TIP3    H219479   1.293   3.667   3.821  0.3041 -0.7070 -0.3930
 6516TIP3   OH219480   8.101   6.297   0.052  0.1678 -0.0272 -0.2808
 6516TIP3    H119481   8.170   6.343   0.004  1.1587 -0.9163  0.2872
 6516TIP3    H219482   8.028   6.360   0.054 -0.4352 -0.4467 -4.1317
 6517TIP3   OH219483   3.140   2.141   5.060 -0.0241  0.0747  0.0580
 6517TIP3    H119484   3.176   2.103   5.139 -1.1967 -0.7989  0.1891
 6517TIP3    H219485   3.059   2.184   5.089 -1.0842 -1.2826 -0.8607
 6518TIP3   OH219486   2.592   1.075   5.755  0.2639 -1.0506  0.5100
 6518TIP3    H119487   2.685   1.082   5.776  0.1907  0.6406  0.3885
 6518TIP3    H219488   2.589   1.027   5.673  1.0580 -0.8979  0.3909
 6519TIP3   OH219489   4.865   2.068   3.221 -0.3331  0.5439 -0.3463
 6519TIP3    H119490   4.813   2.110   3.290  0.6551  0.3632  0.5133
 6519TIP3    H219491   4.849   1.975   3.232  2.1541  0.2894  1.5719
 6520TIP3   OH219492   4.180   2.994   3.853 -0.0791  0.0273 -0.3341
 6520TIP3    H119493   4.129   3.034   3.782 -0.9322 -0.6750 -0.1254
 6520TIP3    H219494   4.263   3.041   3.852 -0.5871  0.9268 -0.9327
 6521TIP3   OH219495   2.180   1.696   5.598 -0.0326 -0.1180  0.0049
 6521TIP3    H119496   2.215   1.622   5.648  0.8055 -0.0510 -0.4584
 6521TIP3    H219497   2.165   1.764   5.663  0.9636 -0.0592  0.1848
 6522TIP3   OH219498   3.049   1.363   5.428 -0.5582 -0.1420 -0.0244
 6522TIP3    H119499   3.039   1.268   5.438 -1.1567 -0.0374  0.3863
 6522TIP3    H219500   2.961   1.394   5.406 -0.2752  0.2624 -0.5931
 6523TIP3   OH219501   4.845   1.446   6.218  0.0160  0.7674 -0.4569
 6523TIP3    H119502   4.786   1.406   6.283  1.1513 -1.2247 -0.5871
 6523TIP3    H219503   4.838   1.540   6.234 -2.3595  0.5196  0.2484
 6524TIP3   OH219504   4.198   2.457   6.623  0.5113 -0.0676 -0.1169
 6524TIP3    H119505   4.139   2.383   6.610  2.6776 -1.6093 -1.3111
 6524TIP3    H219506   4.157   2.508   6.693 -2.1330 -1.1949 -0.7855
 6525TIP3   OH219507   2.436   2.003   5.288  0.4292  0.0105 -0.3210
 6525TIP3    H119508   2.529   2.023   5.275  0.2735  0.6872 -0.3867
 6525TIP3    H219509   2.436   1.918   5.333  1.0833  0.1326 -0.0916
 6526TIP3   OH219510   6.552   5.478   0.414  0.5493 -0.5167 -0.6348
 6526TIP3    H119511   6.462   5.477   0.380 -0.2053 -2.1150  1.3016
 6526TIP3    H219512   6.607   5.474   0.337 -1.0725 -0.7005 -1.8097
 6527TIP3   OH219513   3.696   2.327   3.514 -0.3152 -0.1552 -0.2494
 6527TIP3    H119514   3.612   2.299   3.549 -0.6396  0.3940 -0.5819
 6527TIP3    H219515   3.734   2.248   3.475 -0.9065 -0.2868 -0.5547
 6528TIP3   OH219516   2.893   1.038   5.421 -0.7741 -0.1371 -0.0065
 6528TIP3    H119517   2.801   1.018   5.440 -0.7255 -1.8077 -1.4608
 6528TIP3    H219518   2.892   1.074   5.332 -0.1882  1.3758  0.5658
 6529TIP3   OH219519   2.918   2.727   6.080 -0.0549 -0.5463  0.0403
 6529TIP3    H119520   2.839   2.673   6.080 -0.3663 -0.1028 -0.1119
 6529TIP3    H219521   2.901   2.793   6.012  0.5822 -0.6454 -0.2201
 6530TIP3   OH219522   3.216   0.263   4.459  0.3256 -0.0203  0.3076
 6530TIP3    H119523   3.187   0.283   4.370  0.6537 -1.2447 -0.0809
 6530TIP3    H219524   3.312   0.260   4.453  0.3141 -1.0538  0.4857
 6531TIP3   OH219525   0.075   2.346   4.951 -0.2265 -0.4536 -0.1490
 6531TIP3    H119526   0.116   2.406   4.890 -0.8489 -0.2844 -0.4078
 6531TIP3    H219527   0.075   2.261   4.906  1.5435 -0.8794  0.6091
 6532TIP3   OH219528   3.629   3.044   4.373  0.3163 -0.3160 -0.1944
 6532TIP3    H119529   3.706   3.098   4.354  0.2767  0.2992  1.3162
 6532TIP3    H219530   3.557   3.107   4.380 -0.5460 -0.9731 -2.6107
 6533TIP3   OH219531   6.065   5.848   0.035  0.2328 -0.3601  0.0960
 6533TIP3    H119532   6.112   5.860   0.117  0.6275 -1.7526  0.0878
 6533TIP3    H219533   6.107   5.908  -0.026 -0.8000  1.5190  1.1760
 6534TIP3   OH219534   8.423   0.292   0.209  0.1225 -0.0180 -0.2871
 6534TIP3    H119535   8.360   0.321   0.275  0.5714  2.0074 -0.7130
 6534TIP3    H219536   8.377   0.223   0.161 -1.3991  0.7016  0.0906
 6535TIP3   OH219537   1.730   2.004   4.574 -0.9450 -0.3480  0.0462
 6535TIP3    H119538   1.636   1.989   4.578 -0.7069 -1.9201  0.1956
 6535TIP3    H219539   1.741   2.098   4.589 -2.2548 -0.6627  3.2814
 6536TIP3   OH219540   1.811   4.458   5.220  0.5729  0.2030 -0.4008
 6536TIP3    H119541   1.861   4.538   5.237 -0.3567  0.6552  0.2476
 6536TIP3    H219542   1.793   4.461   5.126  0.4556  0.8140 -0.3640
 6537TIP3   OH219543   4.081   2.383   4.196 -0.0013 -0.0147  0.7204
 6537TIP3    H119544   4.063   2.339   4.279  1.5980 -0.6713  0.7363
 6537TIP3    H219545   4.173   2.363   4.178 -0.1643  0.6394 -0.8964
 6538TIP3   OH219546   3.577   1.931   4.962 -0.2768 -0.8199 -0.5396
 6538TIP3    H119547   3.566   1.840   4.991  1.6493 -1.3894 -1.5075
 6538TIP3    H219548   3.580   1.982   5.043 -0.7256 -1.6865  0.0315
 6539TIP3   OH219549   7.255   1.253   0.661 -0.3169  0.2585 -0.2498
 6539TIP3    H119550   7.214   1.173   0.627  1.5082 -0.8280  0.0219
 6539TIP3    H219551   7.228   1.257   0.753  0.0644 -0.3877 -0.1035
 6540TIP3   OH219552   0.285   3.261   4.312 -0.6513  0.1807 -0.2444
 6540TIP3    H119553   0.241   3.320   4.374  1.4490  1.4805  0.0376
 6540TIP3    H219554   0.376   3.260   4.341 -0.2695 -1.6618 -1.4632
 6541TIP3   OH219555   3.605   3.378   5.073 -0.1978  0.3640 -0.0400
 6541TIP3    H119556   3.561   3.463   5.076  0.0350  0.4383  1.5831
 6541TIP3    H219557   3.679   3.391   5.013  0.5968  1.6713  1.2092
 6542TIP3   OH219558   2.812   3.181   5.999  0.8503 -0.1203  0.0325
 6542TIP3    H119559   2.847   3.191   6.087 -0.4570  0.2302  0.5149
 6542TIP3    H219560   2.791   3.270   5.971  0.6107 -0.3045 -0.3776
 6543TIP3   OH219561   3.756   3.679   3.985  0.0162  0.0549  0.7996
 6543TIP3    H119562   3.705   3.752   4.019 -1.2292 -0.5045  0.1643
 6543TIP3    H219563   3.847   3.700   4.007 -0.2582  2.1120  0.0078
 6544TIP3   OH219564   2.202   3.367   4.962  0.3261  0.4809  0.2087
 6544TIP3    H119565   2.124   3.320   4.992  0.9363 -0.6458  0.0623
 6544TIP3    H219566   2.168   3.451   4.929 -0.7351  0.2985  0.8093
 6545TIP3   OH219567   2.648   3.399   5.725  0.0426  0.5878  0.2896
 6545TIP3    H119568   2.675   3.460   5.656 -1.3499  2.4175  1.3046
 6545TIP3    H219569   2.688   3.433   5.805  0.0600 -0.3945  0.7039
 6546TIP3   OH219570   1.494   2.310   2.068 -0.5031 -0.1512  0.0759
 6546TIP3    H119571   1.406   2.339   2.043  0.0939 -0.5232 -2.6263
 6546TIP3    H219572   1.524   2.258   1.993  2.2425  0.4642  0.6967
 6547TIP3   OH219573   4.056   3.859   6.037 -0.5641 -0.4113 -0.4787
 6547TIP3    H119574   4.117   3.849   5.963 -0.9546 -0.4506 -0.7977
 6547TIP3    H219575   4.029   3.950   6.033  2.2157  0.6069  1.8249
 6548TIP3   OH219576   0.740   3.890   5.399 -0.3060 -0.0282  0.2647
 6548TIP3    H119577   0.712   3.871   5.488  0.4345  1.3920  0.8014
 6548TIP3    H219578   0.797   3.817   5.375 -1.4323 -1.0085  0.5132
 6549TIP3   OH219579   4.711   0.067   4.213 -0.4773  0.1533  0.3528
 6549TIP3    H119580   4.654  -0.010   4.215  0.9394 -0.9293  0.1443
 6549TIP3    H219581   4.794   0.036   4.249 -0.5036  2.1410  2.1882
 6550TIP3   OH219582   3.866   0.572   6.166 -0.0763 -0.0833  0.5137
 6550TIP3    H119583   3.813   0.602   6.092  0.3245 -0.6614 -0.0164
 6550TIP3    H219584   3.882   0.480   6.148 -0.5559 -0.3966  1.6763
 6551TIP3   OH219585   3.321   1.337   5.641  0.0435  0.2945 -0.4829
 6551TIP3    H119586   3.230   1.350   5.614  0.7004 -0.0374 -2.9978
 6551TIP3    H219587   3.356   1.276   5.577  2.1690  0.7536  0.2133
 6552TIP3   OH219588   4.212   0.925   4.890 -0.8129 -0.1300  0.1313
 6552TIP3    H119589   4.173   0.842   4.862 -0.1270 -0.1696 -0.7164
 6552TIP3    H219590   4.139   0.973   4.929 -1.5462 -0.5206 -0.7336
 6553TIP3   OH219591   0.313   1.536   5.641 -0.4709  0.8178  1.1287
 6553TIP3    H119592   0.294   1.452   5.600  1.1927  1.3934 -0.8926
 6553TIP3    H219593   0.230   1.584   5.639 -0.3415  0.9862 -1.9901
 6554TIP3   OH219594   2.299   1.451   4.679  0.7186  0.2101 -0.2795
 6554TIP3    H119595   2.322   1.499   4.759 -1.6293 -0.0590  0.5808
 6554TIP3    H219596   2.254   1.516   4.624  1.5565  0.1624 -1.0423
 6555TIP3   OH219597   7.775   2.132   2.451  0.0150  0.2063 -0.1712
 6555TIP3    H119598   7.764   2.126   2.546  0.1621 -0.8346 -0.2239
 6555TIP3    H219599   7.718   2.205   2.426  0.3592  0.8145  0.7783
 6556TIP3   OH219600   2.156   1.444   2.528 -0.0438 -0.2447 -0.3416
 6556TIP3    H119601   2.145   1.423   2.621  1.4431 -1.4985 -0.4398
 6556TIP3    H219602   2.246   1.476   2.521 -0.9923  2.4501 -0.9010
 6557TIP3   OH219603   2.380   4.272   5.380 -0.1599 -0.0146 -0.7464
 6557TIP3    H119604   2.434   4.196   5.402  2.2325  1.3976 -1.5923
 6557TIP3    H219605   2.365   4.316   5.464  1.8575  0.7621 -0.7665
 6558TIP3   OH219606   4.561   2.598   3.556  0.8374 -0.2057 -0.0747
 6558TIP3    H119607   4.656   2.594   3.543  0.6087 -2.0479 -1.4002
 6558TIP3    H219608   4.524   2.569   3.473 -0.8888 -0.1164  0.6416
 6559TIP3   OH219609   2.332   3.902   3.525  0.4634 -0.0472  0.0389
 6559TIP3    H119610   2.270   3.881   3.456  0.8892 -2.1382  0.2676
 6559TIP3    H219611   2.389   3.970   3.487 -0.6465  0.3781 -0.8802
 6560TIP3   OH219612   6.731   7.879   2.208  0.0004  0.7183  0.2397
 6560TIP3    H119613   6.798   7.930   2.164 -1.1615  0.9121 -1.3272
 6560TIP3    H219614   6.685   7.833   2.138  0.0372 -1.2786  1.5014
 6561TIP3   OH219615   3.900   1.653   5.653 -0.2154  0.5708 -0.2026
 6561TIP3    H119616   3.967   1.610   5.707 -1.4243  1.2351  1.8704
 6561TIP3    H219617   3.869   1.584   5.594  2.2672  0.2411 -1.2054
 6562TIP3   OH219618   1.962   5.015   3.807  0.0609 -0.0621  0.1213
 6562TIP3    H119619   1.978   5.096   3.855  2.0787 -0.2694 -0.1801
 6562TIP3    H219620   2.031   5.012   3.741 -1.1062 -1.1082 -1.0853
 6563TIP3   OH219621   4.617   1.744   5.750  0.4586  0.1645  0.1920
 6563TIP3    H119622   4.674   1.669   5.766  0.0771  0.1836  1.7641
 6563TIP3    H219623   4.627   1.798   5.829 -0.0889  1.2255 -0.4601
 6564TIP3   OH219624   5.128   2.400   6.385  0.1388 -0.1331 -0.2264
 6564TIP3    H119625   5.197   2.358   6.332 -0.5401 -2.0887  0.4304
 6564TIP3    H219626   5.073   2.445   6.320 -0.6098 -2.3965 -1.1933
 6565TIP3   OH219627   5.531   2.236   5.463  0.4402 -0.0382 -0.0089
 6565TIP3    H119628   5.618   2.271   5.482 -0.3110  2.6385 -1.2493
 6565TIP3    H219629   5.492   2.300   5.403 -2.2183 -1.4314  0.1609
 6566TIP3   OH219630   2.641   3.362   4.748  0.0726  0.1509  0.2578
 6566TIP3    H119631   2.559   3.351   4.699  0.1068  0.6085  0.1005
 6566TIP3    H219632   2.615   3.352   4.840 -0.3939  1.5985  0.2976
 6567TIP3   OH219633   4.240   2.041   3.053  0.0864 -0.0142  0.1144
 6567TIP3    H119634   4.218   1.982   2.981  1.3363 -0.7389  0.3040
 6567TIP3    H219635   4.335   2.030   3.065 -0.0306  0.4373  1.5539
 6568TIP3   OH219636   4.998   3.507   3.264  0.2796 -0.3007 -0.4951
 6568TIP3    H119637   5.054   3.513   3.186 -0.3744  0.7597 -0.8917
 6568TIP3    H219638   5.013   3.589   3.310  1.9258 -1.6186  1.3840
 6569TIP3   OH219639   5.111   2.141   4.377  0.4554  0.1396 -0.4750
 6569TIP3    H119640   5.105   2.046   4.387 -0.6267  0.1755 -0.7859
 6569TIP3    H219641   5.089   2.157   4.286  0.9595  0.6742 -0.5100
 6570TIP3   OH219642   3.567   1.177   6.232  0.0249  0.1330 -0.5241
 6570TIP3    H119643   3.586   1.094   6.187  0.8272  0.5644 -0.9832
 6570TIP3    H219644   3.642   1.190   6.290  0.5723  1.2294 -1.4613
 6571TIP3   OH219645   3.879   3.734   5.455 -0.0282 -0.1403  0.2936
 6571TIP3    H119646   3.802   3.785   5.481 -0.7695 -1.6718  1.2570
 6571TIP3    H219647   3.861   3.707   5.365 -0.9311 -1.0201  0.7267
 6572TIP3   OH219648   6.162   2.415   3.404  0.2379  0.1191  0.4112
 6572TIP3    H119649   6.165   2.492   3.460 -0.9417  1.3441 -1.1482
 6572TIP3    H219650   6.161   2.341   3.464 -0.8668  1.4042  2.0000
 6573TIP3   OH219651   3.428   0.475   3.351 -0.1024  0.7992 -0.3293
 6573TIP3    H119652   3.467   0.469   3.438 -0.6999 -2.2895 -0.2011
 6573TIP3    H219653   3.333   0.472   3.367 -0.2058 -0.4615 -1.0822
 6574TIP3   OH219654   7.916   0.660   5.389  0.2980 -0.0300  0.5218
 6574TIP3    H119655   7.857   0.734   5.403  0.1138 -0.3689  1.5495
 6574TIP3    H219656   8.003   0.694   5.411  0.5849  0.6303 -1.5217
 6575TIP3   OH219657   4.856   1.411   3.525 -0.3170 -0.3900  0.1141
 6575TIP3    H119658   4.786   1.412   3.460 -0.7505 -1.8532  0.5306
 6575TIP3    H219659   4.911   1.486   3.503 -0.9320 -0.3708 -1.4119
 6576TIP3   OH219660   3.208   0.248   4.055  0.0160 -0.4813 -0.1625
 6576TIP3    H119661   3.185   0.158   4.031  0.3882 -0.7005  0.2783
 6576TIP3    H219662   3.272   0.275   3.990  0.9283 -1.0270  0.4907
 6577TIP3   OH219663   5.060   1.352   4.843 -0.2894 -0.1769 -0.0823
 6577TIP3    H119664   5.147   1.358   4.803 -0.5260  0.8750 -0.4557
 6577TIP3    H219665   5.077   1.331   4.935  0.3823  0.7070  0.0030
 6578TIP3   OH219666   4.992   1.718   4.611  0.3743  0.0189 -0.5468
 6578TIP3    H119667   4.999   1.624   4.595  1.3012 -0.3556  1.9406
 6578TIP3    H219668   5.047   1.734   4.688  0.6776  2.6901 -1.2543
 6579TIP3   OH219669   3.630   1.663   6.094 -0.1345  0.2900  0.5468
 6579TIP3    H119670   3.554   1.717   6.115  0.3306  0.6253  1.4144
 6579TIP3    H219671   3.594   1.583   6.055 -0.7895  1.5435 -1.4778
 6580TIP3   OH219672   5.517   0.705   3.695  1.3758 -0.3901  0.1805
 6580TIP3    H119673   5.508   0.657   3.612  1.2906 -2.2046  1.2056
 6580TIP3    H219674   5.499   0.639   3.762 -2.7156  1.9671  1.5607
 6581TIP3   OH219675   2.678   1.091   6.165  0.4658  0.1288  0.4573
 6581TIP3    H119676   2.641   1.043   6.239  0.9861  0.3484  0.8603
 6581TIP3    H219677   2.607   1.149   6.136 -0.3452 -1.2575 -0.3696
 6582TIP3   OH219678   4.555   2.298   3.174 -0.2648  0.4466  0.4207
 6582TIP3    H119679   4.561   2.226   3.111  0.9804 -0.1817  1.2418
 6582TIP3    H219680   4.462   2.300   3.198 -0.5146 -0.1474 -0.4686
 6583TIP3   OH219681   4.989   3.294   5.320  0.0799  0.3915  0.4101
 6583TIP3    H119682   4.898   3.267   5.308 -0.1618  0.5544  1.7911
 6583TIP3    H219683   5.005   3.285   5.414  1.3001  0.9647  0.2749
 6584TIP3   OH219684   2.911   1.301   6.328 -0.4722 -0.7234 -0.5386
 6584TIP3    H119685   2.989   1.317   6.275 -0.0538 -0.8712  0.0234
 6584TIP3    H219686   2.856   1.378   6.315  1.1015  0.7795  1.4180
 6585TIP3   OH219687   7.696   2.656   5.506 -0.0707  0.3690 -0.0915
 6585TIP3    H119688   7.775   2.632   5.555 -0.5209 -0.4754  0.2420
 6585TIP3    H219689   7.727   2.681   5.420  0.4799 -0.9154 -0.2788
 6586TIP3   OH219690   4.408   0.666   5.727  0.2529 -0.1303 -0.0920
 6586TIP3    H119691   4.385   0.575   5.747  1.3034 -1.1900 -3.5242
 6586TIP3    H219692   4.377   0.680   5.638 -0.9502  3.2884  0.7781
 6587TIP3   OH219693   4.408   3.236   6.079  0.1256 -0.0985  0.1253
 6587TIP3    H119694   4.442   3.301   6.140 -1.3908 -0.0180  0.9031
 6587TIP3    H219695   4.362   3.173   6.134  0.5500 -1.1780 -0.7395
 6588TIP3   OH219696   4.456   3.050   4.014 -0.1790 -0.2047  0.6204
 6588TIP3    H119697   4.401   3.088   4.082  0.5999  0.9831  0.6029
 6588TIP3    H219698   4.442   2.955   4.022 -1.6362  0.0387  1.0897
 6589TIP3   OH219699   6.457   1.360   5.420 -0.3546 -0.4901  0.3781
 6589TIP3    H119700   6.368   1.392   5.402 -0.2265 -0.7695 -0.7644
 6589TIP3    H219701   6.499   1.434   5.464 -0.3810  0.5844 -1.3361
 6590TIP3   OH219702   3.353   1.393   2.512 -0.1526  0.3947 -0.2264
 6590TIP3    H119703   3.309   1.336   2.450 -0.5718 -0.3695  0.7661
 6590TIP3    H219704   3.442   1.359   2.518 -0.1965  0.2893 -0.1800
 6591TIP3   OH219705   5.810   4.327   4.413  0.0129  0.4591 -0.7801
 6591TIP3    H119706   5.885   4.283   4.454 -1.0894 -0.5689  0.1846
 6591TIP3    H219707   5.742   4.259   4.409 -0.5800  1.1154 -2.4677
 6592TIP3   OH219708   7.049   3.343   3.593  0.4795  0.4472  0.0611
 6592TIP3    H119709   7.095   3.381   3.667  2.0431  0.4415 -0.8948
 6592TIP3    H219710   7.111   3.348   3.520 -0.5454 -0.7738 -0.9252
 6593TIP3   OH219711   4.293   3.843   5.791 -0.2452 -0.0429  0.1766
 6593TIP3    H119712   4.368   3.784   5.790  0.8600  1.3087 -1.7316
 6593TIP3    H219713   4.225   3.797   5.742  0.0604 -0.4050  0.0889
 6594TIP3   OH219714   3.611   0.895   4.499  0.3600 -0.4247 -0.8466
 6594TIP3    H119715   3.522   0.867   4.521  0.6606  0.4289  1.6456
 6594TIP3    H219716   3.651   0.819   4.456 -1.8521 -0.4880 -2.8913
 6595TIP3   OH219717   4.239   3.013   4.566  0.0113  0.3037  0.2847
 6595TIP3    H119718   4.193   3.021   4.649 -0.1974  0.9794  0.1006
 6595TIP3    H219719   4.310   3.077   4.572  0.2242  0.0867  0.0926
 6596TIP3   OH219720   6.335   1.766   6.061  0.1821 -0.7368  0.3443
 6596TIP3    H119721   6.405   1.787   6.000 -1.1637 -0.8429 -1.2836
 6596TIP3    H219722   6.292   1.690   6.022 -0.1451 -1.3639  1.8980
 6597TIP3   OH219723   4.010   0.752   4.779  0.0484  0.7019 -0.1887
 6597TIP3    H119724   3.943   0.819   4.769 -0.9298 -0.3643 -0.9331
 6597TIP3    H219725   3.961   0.669   4.780  1.3739 -0.1231 -1.3185
 6598TIP3   OH219726   7.204   6.366   0.057  0.2886 -0.1031  0.1798
 6598TIP3    H119727   7.129   6.337   0.005  0.2108  2.4574 -1.2048
 6598TIP3    H219728   7.165   6.402   0.137  0.2347 -1.1475  0.6419
 6599TIP3   OH219729   5.497   1.283   3.778 -0.0876 -0.5268 -0.0891
 6599TIP3    H119730   5.543   1.265   3.859  1.9233 -0.1343 -1.1187
 6599TIP3    H219731   5.469   1.197   3.746 -0.2139 -0.7499  0.6241
 6600TIP3   OH219732   5.235   2.810   4.094  0.2563 -0.1374 -0.0506
 6600TIP3    H119733   5.200   2.772   4.175 -2.0150  0.6686 -0.6174
 6600TIP3    H219734   5.183   2.770   4.025  1.3478  0.1339 -1.0309
 6601TIP3   OH219735   3.408   2.364   4.929 -0.2820 -0.2257 -1.1280
 6601TIP3    H119736   3.375   2.305   4.997 -2.6805  1.4550 -0.7712
 6601TIP3    H219737   3.503   2.360   4.939 -0.5337 -1.0388  1.4593
 6602TIP3   OH219738   5.020   0.830   5.140  0.1613 -0.5119  0.4821
 6602TIP3    H119739   4.975   0.779   5.206 -2.1480  0.7842 -0.0176
 6602TIP3    H219740   5.006   0.921   5.166  1.2030 -0.0449 -0.5216
 6603TIP3   OH219741   3.121   2.926   4.070 -0.3933  0.4980  0.1108
 6603TIP3    H119742   3.090   2.999   4.017  1.3240 -0.1690 -1.8890
 6603TIP3    H219743   3.213   2.946   4.086  0.2484 -1.4586 -0.9399
 6604TIP3   OH219744   6.925   1.270   4.010 -0.3714 -0.2196 -0.4304
 6604TIP3    H119745   6.927   1.325   3.931 -2.5268  0.6458  0.0837
 6604TIP3    H219746   6.923   1.333   4.082 -0.5339 -0.9935  0.2364
 6605TIP3   OH219747   3.774   3.930   4.742  0.6977 -0.0894  0.2182
 6605TIP3    H119748   3.727   3.936   4.659 -1.8395  2.2668  1.7264
 6605TIP3    H219749   3.780   3.836   4.760  1.9289 -0.6705 -2.9032
 6606TIP3   OH219750   7.723   3.948   4.732  0.7341 -0.0072  0.1653
 6606TIP3    H119751   7.775   3.871   4.708  1.4755  0.6026 -0.1848
 6606TIP3    H219752   7.670   3.966   4.654  0.6077 -0.1219  0.2245
 6607TIP3   OH219753   4.419   1.267   4.546 -0.0680  0.2791  0.0696
 6607TIP3    H119754   4.439   1.348   4.498 -0.6058  1.2626  1.4473
 6607TIP3    H219755   4.458   1.197   4.494 -0.1225  1.3712 -1.4663
 6608TIP3   OH219756   3.443   1.065   3.776  0.6006  0.1075 -0.0218
 6608TIP3    H119757   3.527   1.053   3.818  0.2327  1.5528  1.1888
 6608TIP3    H219758   3.458   1.041   3.684  2.1636 -0.2254  0.3094
 6609TIP3   OH219759   2.873   2.830   4.757 -0.3337 -0.1485 -0.0682
 6609TIP3    H119760   2.777   2.840   4.761 -0.1520  2.3421 -1.0010
 6609TIP3    H219761   2.906   2.920   4.754  2.0097 -0.9990 -0.4712
 6610TIP3   OH219762   5.936   3.368   2.894 -0.9261 -0.3442  0.3403
 6610TIP3    H119763   5.842   3.380   2.885 -0.6032  0.9032 -1.5357
 6610TIP3    H219764   5.975   3.427   2.829  1.0980 -1.8484  0.1175
 6611TIP3   OH219765   5.033   2.478   4.116  0.2975 -0.1472 -0.2636
 6611TIP3    H119766   4.987   2.472   4.200  0.8034  1.0807  0.1099
 6611TIP3    H219767   5.063   2.388   4.100  1.0213 -0.2146  1.3478
 6612TIP3   OH219768   5.590   4.109   3.685  0.5916  0.2367  0.0116
 6612TIP3    H119769   5.568   4.028   3.640  0.7283  0.5862 -0.7005
 6612TIP3    H219770   5.627   4.165   3.616  1.0500  0.6805  0.6169
 6613TIP3   OH219771   3.712   4.197   4.879 -0.4073  0.1063 -0.1321
 6613TIP3    H119772   3.749   4.266   4.824  0.0961 -0.6624 -0.7645
 6613TIP3    H219773   3.745   4.115   4.841  0.1679 -0.4259  1.4459
 6614TIP3   OH219774   4.966   1.903   2.572  0.3574 -0.0447  0.7215
 6614TIP3    H119775   4.878   1.940   2.570  0.2852 -0.1589  1.4189
 6614TIP3    H219776   4.962   1.836   2.640  0.5401 -1.2176 -0.4106
 6615TIP3   OH219777   5.846   3.654   4.543  0.5678  0.2495 -0.0104
 6615TIP3    H119778   5.876   3.740   4.573  1.1372  0.3103 -0.7466
 6615TIP3    H219779   5.913   3.593   4.575  1.2748  0.3341 -1.2854
 6616TIP3   OH219780   4.342   3.891   3.370 -0.1576 -0.2333  0.1715
 6616TIP3    H119781   4.300   3.805   3.382 -0.5776 -0.1833 -0.8929
 6616TIP3    H219782   4.348   3.901   3.275  0.0487  0.8415  0.3010
 6617TIP3   OH219783   3.730   2.336   2.226  0.2921  0.2303  0.1298
 6617TIP3    H119784   3.683   2.385   2.294 -1.6835 -1.2946 -0.0832
 6617TIP3    H219785   3.662   2.283   2.185  0.9459  2.8559 -4.6705
 6618TIP3   OH219786   5.923   4.307   4.136 -0.1103 -0.5516  0.0245
 6618TIP3    H119787   5.905   4.347   4.051 -1.0733 -2.3149 -0.6311
 6618TIP3    H219788   5.840   4.314   4.183 -0.0137 -0.9352  0.2522
 6619TIP3   OH219789   6.020   0.331   5.390 -0.0419  0.5440 -0.6218
 6619TIP3    H119790   6.040   0.333   5.297  0.6275 -2.7075 -0.6132
 6619TIP3    H219791   5.941   0.278   5.398  0.3442  0.1274  0.7116
 6620TIP3   OH219792   4.208   2.860   3.105  0.7127  0.1804 -0.0928
 6620TIP3    H119793   4.215   2.944   3.059 -0.8944 -0.8756 -2.3551
 6620TIP3    H219794   4.288   2.855   3.158  1.2752  2.7083 -0.6419
 6621TIP3   OH219795   5.505   1.847   2.400  0.3729  0.5747  0.2652
 6621TIP3    H119796   5.455   1.915   2.353  1.1017  0.3376 -0.8792
 6621TIP3    H219797   5.446   1.772   2.401  0.3992  0.5383 -0.4092
 6622TIP3   OH219798   3.864   0.734   6.625 -0.0119  0.4332  0.2517
 6622TIP3    H119799   3.789   0.735   6.566 -0.7470 -1.4218  1.1172
 6622TIP3    H219800   3.914   0.657   6.599  1.2807  1.3013  0.0975
 6623TIP3   OH219801   4.026   2.162   4.610 -0.0841  0.0938  0.2283
 6623TIP3    H119802   4.044   2.072   4.637  1.7464  1.0945  2.4945
 6623TIP3    H219803   4.075   2.173   4.529  1.1139 -0.4191  0.8733
 6624TIP3   OH219804   4.565   3.158   4.787 -0.5396 -0.3213 -0.3508
 6624TIP3    H119805   4.581   3.112   4.869  0.3636 -0.5863 -0.6677
 6624TIP3    H219806   4.645   3.143   4.735 -1.5533 -1.1197 -1.7164
 6625TIP3   OH219807   0.999   3.376   2.917 -0.3856 -0.1512 -0.1931
 6625TIP3    H119808   1.042   3.291   2.918  0.7385  0.4147 -0.4144
 6625TIP3    H219809   0.961   3.384   2.830  1.1687  0.3912 -0.8409
 6626TIP3   OH219810   0.627   2.281   5.304 -0.0576 -0.5064  0.2640
 6626TIP3    H119811   0.623   2.294   5.209  1.9497 -1.6713  0.0029
 6626TIP3    H219812   0.581   2.199   5.319  1.8301 -1.6480 -0.0232
 6627TIP3   OH219813   7.072   1.053   5.984 -0.6185 -0.3584 -0.1135
 6627TIP3    H119814   7.042   1.066   6.074  1.4028  0.7940  0.4158
 6627TIP3    H219815   7.150   0.999   5.993  2.6034  3.9822 -0.6966
 6628TIP3   OH219816   3.801   1.909   1.723 -0.1992  0.9358  0.4640
 6628TIP3    H119817   3.771   1.959   1.647 -1.8844 -0.6588  0.0413
 6628TIP3    H219818   3.874   1.857   1.690 -0.9064  0.2719 -0.0747
 6629TIP3   OH219819   7.162   3.722   5.878 -0.0767 -0.2728  0.3860
 6629TIP3    H119820   7.116   3.679   5.950  2.1174 -1.1700  1.2957
 6629TIP3    H219821   7.215   3.790   5.921  1.8022 -1.2835 -0.2767
 6630TIP3   OH219822   3.714   0.522   4.029  0.5705 -0.1566  0.0626
 6630TIP3    H119823   3.657   0.448   4.051  0.0259  0.1773 -0.2330
 6630TIP3    H219824   3.732   0.564   4.114  0.2957 -0.2027  0.1459
 6631TIP3   OH219825   5.273   1.043   5.244 -0.1841  1.2216 -0.0913
 6631TIP3    H119826   5.245   1.054   5.153  0.6231  2.2498 -0.2253
 6631TIP3    H219827   5.214   1.100   5.294  0.8821  2.4915 -0.2463
 6632TIP3   OH219828   4.237   1.733   3.587 -0.1756 -0.3908 -0.3784
 6632TIP3    H119829   4.307   1.683   3.628 -1.1946  0.2668  2.2714
 6632TIP3    H219830   4.158   1.708   3.636 -1.5420  0.0491 -2.2880
 6633TIP3   OH219831   1.832   7.847   3.754 -0.0720 -0.6333 -0.2299
 6633TIP3    H119832   1.804   7.857   3.844  0.2141  2.0150 -0.3987
 6633TIP3    H219833   1.756   7.875   3.702  0.6799  0.4585 -0.7594
 6634TIP3   OH219834   1.876   0.675   5.528  0.9576  0.0177 -0.0877
 6634TIP3    H119835   1.785   0.704   5.526  0.6370 -0.8874  1.0689
 6634TIP3    H219836   1.927   0.756   5.538  0.1973  0.3935  0.8250
 6635TIP3   OH219837   4.377   1.545   3.864  0.0448  0.2842 -0.2439
 6635TIP3    H119838   4.380   1.470   3.924 -0.7753  1.2436  1.0168
 6635TIP3    H219839   4.467   1.574   3.857  0.1043  0.3635  0.7823
 6636TIP3   OH219840   6.490   0.917   4.263 -0.1950 -0.1412  0.1862
 6636TIP3    H119841   6.460   0.961   4.343  2.2142  1.8115  0.0544
 6636TIP3    H219842   6.458   0.827   4.272  0.1871 -0.0063  3.4163
 6637TIP3   OH219843   4.451   1.897   6.780 -0.1725  0.1102 -0.5741
 6637TIP3    H119844   4.405   1.958   6.722 -0.2221  1.1371  0.5280
 6637TIP3    H219845   4.450   1.814   6.732 -0.3231  0.9004 -1.9823
 6638TIP3   OH219846   3.042   2.206   4.804  0.6193  0.6847 -0.2423
 6638TIP3    H119847   3.089   2.185   4.723 -0.2299 -1.8512 -0.1366
 6638TIP3    H219848   3.102   2.180   4.874  0.1421 -0.0260 -0.0925
 6639TIP3   OH219849   5.127   4.308   4.553  0.4338 -0.3503 -0.0093
 6639TIP3    H119850   5.085   4.222   4.544 -0.1542 -0.0177 -0.4610
 6639TIP3    H219851   5.055   4.371   4.544  1.0316  0.2247 -0.8749
 6640TIP3   OH219852   4.645   1.847   3.163 -0.0932  0.2958 -0.3493
 6640TIP3    H119853   4.622   1.754   3.156  0.0727  0.1112  1.3466
 6640TIP3    H219854   4.597   1.878   3.239  2.1711  0.8593  0.8909
 6641TIP3   OH219855   4.634   2.675   3.227 -0.0246  0.0329  0.3565
 6641TIP3    H119856   4.638   2.623   3.147  0.3886  0.3862  0.1497
 6641TIP3    H219857   4.717   2.658   3.271 -0.5064 -0.6561  1.0258
 6642TIP3   OH219858   5.761   1.576   4.865 -0.1216  0.6870 -0.2906
 6642TIP3    H119859   5.740   1.596   4.956 -0.0951  1.8704 -0.5328
 6642TIP3    H219860   5.834   1.634   4.844 -0.5630  0.9118 -1.2622
 6643TIP3   OH219861   3.205   3.284   4.400 -0.2732  0.1634  0.7214
 6643TIP3    H119862   3.131   3.243   4.354 -0.9283  1.9088  0.1555
 6643TIP3    H219863   3.271   3.297   4.332 -0.7230  1.5366  0.5287
 6644TIP3   OH219864   3.803   1.447   5.503  0.1640  0.1701 -0.2162
 6644TIP3    H119865   3.812   1.364   5.550  0.4139  0.1546 -0.2896
 6644TIP3    H219866   3.710   1.451   5.479  0.0966  0.0396  0.0212
 6645TIP3   OH219867   4.133   3.141   4.333 -0.2197 -0.1793 -0.5692
 6645TIP3    H119868   4.147   3.110   4.422  0.5645 -1.6194 -1.1768
 6645TIP3    H219869   4.173   3.228   4.331 -0.7834  0.1100  0.6454
 6646TIP3   OH219870   0.752   7.152   3.492  0.3944  0.0776  0.5314
 6646TIP3    H119871   0.728   7.180   3.403 -0.0926 -2.0175 -0.0300
 6646TIP3    H219872   0.846   7.135   3.486  0.0443 -1.7372 -0.0704
 6647TIP3   OH219873   5.341   3.057   3.831  0.0144  0.1204  0.1233
 6647TIP3    H119874   5.382   3.083   3.914 -0.5368 -0.3072  0.5337
 6647TIP3    H219875   5.253   3.029   3.856 -0.1156 -0.1087 -0.5984
 6648TIP3   OH219876   3.167   2.530   3.418 -0.3580 -0.0950  0.1878
 6648TIP3    H119877   3.161   2.579   3.500  1.9705  3.0998 -1.4384
 6648TIP3    H219878   3.082   2.546   3.375 -0.5633  0.4332  0.7825
 6649TIP3   OH219879   4.719   2.876   3.477 -0.0762  0.0028  0.4004
 6649TIP3    H119880   4.751   2.809   3.417 -2.5737  0.5052 -1.5777
 6649TIP3    H219881   4.627   2.855   3.491  0.0005  0.9476  2.6760
 6650TIP3   OH219882   1.963   1.569   5.021  0.5854  0.5841 -0.0225
 6650TIP3    H119883   1.931   1.578   4.931  1.4130  0.8162 -0.2894
 6650TIP3    H219884   1.913   1.634   5.071  0.6617  0.9640 -0.4452
 6651TIP3   OH219885   4.586   3.695   4.413 -0.4368 -0.0736  0.0888
 6651TIP3    H119886   4.559   3.703   4.322  0.2299  1.0695 -0.0148
 6651TIP3    H219887   4.585   3.785   4.446  1.0208 -0.2831  0.7132
 6652TIP3   OH219888   3.651   1.332   3.203 -0.0556  0.3054 -0.2655
 6652TIP3    H119889   3.634   1.303   3.292 -0.7552  2.3069  0.2784
 6652TIP3    H219890   3.722   1.275   3.172 -1.8562 -2.4505  0.4564
 6653TIP3   OH219891   4.924   1.908   5.605  0.2741 -0.2640 -0.5072
 6653TIP3    H119892   4.841   1.866   5.582  0.1484 -0.0747 -0.3990
 6653TIP3    H219893   4.904   1.960   5.683  0.0009  1.4099 -1.6720
 6654TIP3   OH219894   3.931   1.174   4.641 -0.9629  0.4190  0.0133
 6654TIP3    H119895   3.903   1.261   4.668  1.7667  1.1392  0.6394
 6654TIP3    H219896   4.020   1.166   4.675 -1.3831 -2.8576  0.4985
 6655TIP3   OH219897   5.457   3.269   5.079  0.1650  0.2316  0.3192
 6655TIP3    H119898   5.405   3.284   5.158 -0.8193 -0.1782 -0.2489
 6655TIP3    H219899   5.393   3.250   5.011  1.0883 -1.3087 -0.1558
 6656TIP3   OH219900   4.011   3.401   3.475 -0.3546 -0.2503  0.1044
 6656TIP3    H119901   3.951   3.330   3.496 -0.0554 -0.9634 -1.4112
 6656TIP3    H219902   3.964   3.480   3.501 -1.4636 -0.8736  0.0359
 6657TIP3   OH219903   5.592   3.534   3.443  0.1500  0.6550  0.1057
 6657TIP3    H119904   5.563   3.444   3.430 -1.2040  1.0742  0.0757
 6657TIP3    H219905   5.548   3.562   3.524  0.6278  1.2550  0.1656
 6658TIP3   OH219906   4.691   1.519   4.396  0.0001 -0.0311  0.6027
 6658TIP3    H119907   4.609   1.545   4.439 -0.3091 -2.0679  1.3073
 6658TIP3    H219908   4.758   1.530   4.463  0.2561  1.3407  0.1219
 6659TIP3   OH219909   1.304   7.818   3.725 -0.4491 -0.0823  0.5324
 6659TIP3    H119910   1.246   7.884   3.686  1.3160  0.4025 -1.4275
 6659TIP3    H219911   1.308   7.748   3.660  0.3746 -0.5566  1.0821
 6660TIP3   OH219912   5.522   0.609   3.422 -0.1539 -1.2434  0.4288
 6660TIP3    H119913   5.533   0.637   3.331  0.3658 -1.7248  0.3443
 6660TIP3    H219914   5.427   0.601   3.432 -0.1776 -2.1337 -0.3656
 6661TIP3   OH219915   4.256   2.386   2.707 -0.0051 -0.5517 -0.2907
 6661TIP3    H119916   4.318   2.416   2.774 -0.7816 -0.6034  0.4678
 6661TIP3    H219917   4.272   2.292   2.700  0.1229 -0.5359 -0.2112
 6662TIP3   OH219918   6.887   6.211   0.253  0.4153  0.3316 -0.0956
 6662TIP3    H119919   6.900   6.222   0.347 -2.2046  1.8214  0.1618
 6662TIP3    H219920   6.858   6.297   0.223  3.7460  0.6052 -2.7825
 6663TIP3   OH219921   6.282   4.310   5.163 -0.2668  0.0431  0.3448
 6663TIP3    H119922   6.257   4.240   5.224  0.8046 -0.7130 -0.0609
 6663TIP3    H219923   6.224   4.383   5.185  0.8363  0.1640  2.9946
 6664TIP3   OH219924   5.967   4.578   4.396 -0.0246 -0.6209  0.3050
 6664TIP3    H119925   6.045   4.524   4.408 -0.0713 -0.7899 -0.1250
 6664TIP3    H219926   5.894   4.516   4.400 -0.0985 -0.5449  0.1282
 6665TIP3   OH219927   3.617   2.279   4.201 -0.1036  0.4361 -0.1029
 6665TIP3    H119928   3.529   2.303   4.173 -0.1487 -0.5632 -0.8424
 6665TIP3    H219929   3.674   2.315   4.133 -0.1692 -1.5020 -1.1945
 6666TIP3   OH219930   4.422   1.084   4.125 -0.1676 -0.1662 -0.3948
 6666TIP3    H119931   4.353   1.018   4.127  0.9648 -1.4014 -0.7461
 6666TIP3    H219932   4.465   1.076   4.210 -0.9672  1.1716  0.1458
 6667TIP3   OH219933   6.384   1.024   5.448  0.4160 -0.0058 -0.1573
 6667TIP3    H119934   6.302   1.020   5.398  0.6599  1.1749 -0.6758
 6667TIP3    H219935   6.359   0.998   5.537 -0.5487  0.4692 -0.2799
 6668TIP3   OH219936   6.842   3.500   2.717 -0.9081 -0.0910 -0.4796
 6668TIP3    H119937   6.759   3.548   2.710 -0.8498  0.5450  2.3004
 6668TIP3    H219938   6.824   3.433   2.783  0.7639  0.0532  0.1411
 6669TIP3   OH219939   3.434   1.921   3.911  0.0950 -0.1565  0.2656
 6669TIP3    H119940   3.453   1.871   3.831  1.8645 -0.2157  0.6983
 6669TIP3    H219941   3.415   2.010   3.880  2.9892  0.3862 -0.1105
 6670TIP3   OH219942   5.916   2.440   4.999 -0.0894 -0.2969  0.2574
 6670TIP3    H119943   5.957   2.440   4.913  0.9772 -0.0857  0.7501
 6670TIP3    H219944   5.885   2.529   5.012 -0.3665 -0.3625  0.0367
 6671TIP3   OH219945   4.410   1.362   4.099 -0.4203 -0.3600  0.0532
 6671TIP3    H119946   4.396   1.269   4.081 -0.9705 -0.3606  0.4725
 6671TIP3    H219947   4.500   1.367   4.131  0.3910 -0.4403 -2.1020
 6672TIP3   OH219948   5.070   3.281   3.423 -0.2658 -0.1293 -0.4419
 6672TIP3    H119949   5.015   3.349   3.386  1.7777  1.2901 -0.9383
 6672TIP3    H219950   5.090   3.223   3.350 -0.7726 -0.4492 -0.3345
 6673TIP3   OH219951   4.982   3.835   4.263  0.6758  0.4653 -0.2975
 6673TIP3    H119952   4.922   3.798   4.199 -1.1903  0.3304  1.4773
 6673TIP3    H219953   5.030   3.760   4.297  0.7121  0.3628 -0.5729
 6674TIP3   OH219954   3.484   1.847   4.516 -0.1925  0.0967 -0.1293
 6674TIP3    H119955   3.556   1.871   4.574 -0.4026  0.7996 -0.1551
 6674TIP3    H219956   3.508   1.885   4.431 -0.8521  0.7963 -0.0053
 6675TIP3   OH219957   4.462   1.536   5.370  0.5590 -0.5487  0.2761
 6675TIP3    H119958   4.440   1.625   5.396  1.9453 -0.2346  0.4421
 6675TIP3    H219959   4.388   1.507   5.316  0.4613  0.9948 -0.4387
 6676TIP3   OH219960   2.751   3.880   2.969 -0.3816  0.3453  0.4101
 6676TIP3    H119961   2.722   3.811   3.029 -0.0958 -0.2290 -0.1063
 6676TIP3    H219962   2.820   3.926   3.017  0.5188 -0.7133  0.1816
 6677TIP3   OH219963   4.451   1.802   2.801  0.1766 -0.3258  0.1358
 6677TIP3    H119964   4.465   1.716   2.840 -0.0768 -0.6546 -0.5073
 6677TIP3    H219965   4.376   1.791   2.744  0.5626  0.1626 -0.4717
 6678TIP3   OH219966   4.084   3.174   3.675 -0.0732 -0.1652  0.1520
 6678TIP3    H119967   4.161   3.194   3.622 -0.4546 -0.0521 -0.3614
 6678TIP3    H219968   4.049   3.260   3.699  0.6714 -0.2027  1.4344
 6679TIP3   OH219969   4.374   0.933   3.583  0.4572 -0.2007  0.2153
 6679TIP3    H119970   4.403   1.005   3.527 -0.5523 -0.0436 -0.1234
 6679TIP3    H219971   4.407   0.954   3.670  0.5527  0.4379  0.0236
 6680TIP3   OH219972   3.854   1.122   2.056 -0.0100  0.1400  0.4845
 6680TIP3    H119973   3.823   1.058   2.120 -3.5901  0.6278 -0.6289
 6680TIP3    H219974   3.880   1.198   2.109 -0.6132 -0.3640  1.5285
 6681TIP3   OH219975   6.032   3.392   4.152 -0.2555  0.2097  0.2966
 6681TIP3    H119976   6.007   3.480   4.180 -2.7654  0.3338 -2.1290
 6681TIP3    H219977   5.957   3.337   4.175 -0.5161 -0.4825 -2.1170
 6682TIP3   OH219978   3.001   0.702   5.769 -0.7212  0.2049 -0.3202
 6682TIP3    H119979   2.979   0.610   5.757  3.3909 -0.6938 -1.7170
 6682TIP3    H219980   3.025   0.733   5.681  1.9185  1.4481  0.7682
 6683TIP3   OH219981   3.495   3.629   5.137 -0.3919 -0.6182 -0.0323
 6683TIP3    H119982   3.415   3.577   5.145  0.0737 -1.3332  0.0184
 6683TIP3    H219983   3.480   3.705   5.193 -0.9459 -0.8603  0.1522
 6684TIP3   OH219984   5.569   2.940   4.794 -0.2235 -0.0022  0.0357
 6684TIP3    H119985   5.564   2.845   4.809  0.4444 -0.3239 -1.6793
 6684TIP3    H219986   5.480   2.965   4.770 -0.2211 -0.3624 -0.3681
 6685TIP3   OH219987   2.896   4.675   4.018 -0.6109  0.1871 -0.3012
 6685TIP3    H119988   2.805   4.705   4.013 -0.3375  0.9076 -1.3316
 6685TIP3    H219989   2.917   4.649   3.928 -0.1571 -1.0740  0.1630
 6686TIP3   OH219990   5.324   2.109   0.867 -0.4775 -0.1008  0.0957
 6686TIP3    H119991   5.376   2.036   0.902  2.9148  1.6864 -0.9716
 6686TIP3    H219992   5.353   2.185   0.917  1.2920  1.7243 -3.5013
 6687TIP3   OH219993   3.980   0.762   5.635  0.1852 -0.1784 -0.1256
 6687TIP3    H119994   3.940   0.794   5.554 -0.4072 -0.6236 -0.0115
 6687TIP3    H219995   4.062   0.811   5.642 -0.2099  0.5430 -0.5077
 6688TIP3   OH219996   6.077   2.590   2.920 -0.5281  0.0389  0.1847
 6688TIP3    H119997   6.053   2.619   2.832  0.8449  0.4890 -0.0467
 6688TIP3    H219998   5.997   2.604   2.971 -2.0807 -2.4293 -1.4699
 6689TIP3   OH219999   0.494   1.982   0.264  0.0280  0.2018 -0.1865
 6689TIP3    H120000   0.450   2.068   0.266 -1.0884 -0.3534 -0.1893
 6689TIP3    H220001   0.473   1.943   0.349 -2.1840 -1.3768 -1.4090
 6690TIP3   OH220002   4.585   3.566   4.788  0.0428  0.7280 -0.1476
 6690TIP3    H120003   4.583   3.590   4.881 -0.6398 -1.6879  0.4727
 6690TIP3    H220004   4.519   3.623   4.748 -1.3699  0.1339  1.2658
 6691TIP3   OH220005   4.179   2.422   3.778 -0.1290  0.2558  0.5030
 6691TIP3    H120006   4.196   2.516   3.768 -0.2888  0.2085 -0.2350
 6691TIP3    H220007   4.084   2.414   3.769  0.0692 -0.2010 -1.3258
 6692TIP3   OH220008   3.509   3.063   5.893  0.4543 -0.2489  0.1528
 6692TIP3    H120009   3.593   3.082   5.851  0.8115 -1.0327  0.5066
 6692TIP3    H220010   3.446   3.116   5.844  0.9930 -0.4772 -0.8043
 6693TIP3   OH220011   3.470   3.617   4.299  0.3822 -0.2543 -0.3049
 6693TIP3    H120012   3.550   3.572   4.272 -0.0983 -0.9906 -0.5251
 6693TIP3    H220013   3.484   3.637   4.392  1.1386  0.3180 -0.5417
 6694TIP3   OH220014   5.337   2.163   4.554 -0.3777  0.3238  0.2822
 6694TIP3    H120015   5.360   2.157   4.647  0.3273  1.4934  0.1964
 6694TIP3    H220016   5.242   2.153   4.552 -0.4873  1.0878  1.2156
 6695TIP3   OH220017   4.736   1.610   5.471 -0.1584  0.0781 -0.1093
 6695TIP3    H120018   4.672   1.567   5.415 -1.5679  1.8520  0.0886
 6695TIP3    H220019   4.695   1.694   5.495  1.5595  0.5487  1.3236
 6696TIP3   OH220020   3.832   2.209   5.943 -0.8280 -0.1125  0.1386
 6696TIP3    H120021   3.855   2.172   5.858 -1.1299 -0.9961  0.4410
 6696TIP3    H220022   3.737   2.204   5.947 -0.8520  0.4282  0.3009
 6697TIP3   OH220023   3.530   3.895   5.261 -0.0711  0.4733  0.4965
 6697TIP3    H120024   3.574   3.978   5.240  0.6740 -0.7314 -2.9243
 6697TIP3    H220025   3.438   3.911   5.237  0.3661 -0.1745 -1.6840
 6698TIP3   OH220026   5.274   3.295   5.279  0.4171  0.2946 -0.0131
 6698TIP3    H120027   5.179   3.310   5.279  0.2056 -0.9523 -0.0135
 6698TIP3    H220028   5.310   3.368   5.330 -0.6561  0.1179  1.0405
 6699TIP3   OH220029   4.448   3.200   4.545  0.2065  0.7980  0.4951
 6699TIP3    H120030   4.480   3.196   4.635 -0.8939 -1.3160  0.8148
 6699TIP3    H220031   4.410   3.288   4.537 -0.7956  0.5791  2.4901
 6700TIP3   OH220032   5.027   1.868   0.557 -0.3186 -0.1431  0.0426
 6700TIP3    H120033   5.111   1.878   0.513  0.4954 -0.2612  1.5328
 6700TIP3    H220034   5.016   1.773   0.567  0.5780 -0.0617  2.0692
 6701TIP3   OH220035   4.552   1.063   4.391 -0.5928 -0.3133  0.4872
 6701TIP3    H120036   4.639   1.101   4.396 -0.5099 -0.5388  0.8037
 6701TIP3    H220037   4.566   0.969   4.406 -0.9497 -0.2739  1.0549
 6702TIP3   OH220038   5.635   1.518   1.775  0.1915 -0.1103  0.1686
 6702TIP3    H120039   5.590   1.554   1.852 -0.2331  1.0463 -0.6183
 6702TIP3    H220040   5.688   1.590   1.742  0.2393 -0.5550 -0.7334
 6703TIP3   OH220041   5.295   3.825   5.255  0.5440 -0.6342  0.1346
 6703TIP3    H120042   5.231   3.826   5.183  0.1718 -1.7632  0.4460
 6703TIP3    H220043   5.252   3.873   5.326  0.7753  0.1813 -0.2592
 6704TIP3   OH220044   6.006   3.146   2.738 -0.3396 -0.5428  0.0491
 6704TIP3    H120045   6.102   3.142   2.735 -0.2839 -0.0607  1.0544
 6704TIP3    H220046   5.986   3.203   2.812 -1.4135 -1.0355  0.1557
 6705TIP3   OH220047   4.892   1.467   3.908  0.2298  0.6215  0.5767
 6705TIP3    H120048   4.952   1.410   3.957  1.0731  0.0080 -1.1143
 6705TIP3    H220049   4.948   1.511   3.845 -0.6551  2.3048  0.9364
 6706TIP3   OH220050   4.180   2.850   4.349  0.4804  0.6606  0.3563
 6706TIP3    H120051   4.137   2.911   4.288 -0.8076  0.1184  0.7110
 6706TIP3    H220052   4.192   2.901   4.429  0.7256  0.8959  0.1683
 6707TIP3   OH220053   3.875   2.828   4.842  0.3644 -0.5073 -0.2743
 6707TIP3    H120054   3.852   2.736   4.828  0.9619 -0.9118  1.2564
 6707TIP3    H220055   3.963   2.825   4.880 -0.3229  0.6069  1.4569
 6708TIP3   OH220056   4.830   1.909   3.954 -0.0519 -0.9040 -0.1675
 6708TIP3    H120057   4.916   1.874   3.977  0.9017  1.0313 -0.7301
 6708TIP3    H220058   4.834   1.924   3.860 -0.4475  0.6426  0.0443
 6709TIP3   OH220059   5.823   1.340   3.285  0.6938 -0.4392 -0.4334
 6709TIP3    H120060   5.732   1.329   3.255  1.0759  0.1775 -1.8721
 6709TIP3    H220061   5.839   1.263   3.340 -1.0133 -0.0456  0.6359
 6710TIP3   OH220062   5.139   0.963   4.443 -0.1397  0.3490 -0.0373
 6710TIP3    H120063   5.109   0.928   4.527 -4.6861  3.0223 -0.3781
 6710TIP3    H220064   5.136   0.889   4.384 -0.6121 -0.7043  1.2798
 6711TIP3   OH220065   6.328   1.549   5.871  0.1034  0.2521 -0.0871
 6711TIP3    H120066   6.311   1.456   5.854 -1.2231 -0.0692  2.7046
 6711TIP3    H220067   6.303   1.594   5.790 -5.0059 -1.2167  0.5423
 6712TIP3   OH220068   0.272   7.348   4.146 -0.1372 -0.0204 -0.0699
 6712TIP3    H120069   0.360   7.368   4.115  0.6318 -0.8517  1.5273
 6712TIP3    H220070   0.265   7.253   4.138 -0.4796 -0.0780  0.8259
 6713TIP3   OH220071   5.275   0.775   4.270 -0.1861 -0.2282 -0.6123
 6713TIP3    H120072   5.311   0.701   4.222  1.6577  0.7186 -0.7274
 6713TIP3    H220073   5.273   0.746   4.362  0.0408 -0.5927 -0.7227
 6714TIP3   OH220074   4.573   3.637   5.053  0.1907  0.5902  0.5058
 6714TIP3    H120075   4.600   3.601   5.137 -0.6148 -2.0902 -0.3147
 6714TIP3    H220076   4.505   3.700   5.074 -0.1363 -0.1990  1.8710
 6715TIP3   OH220077   1.531   7.874   4.178  0.3104 -0.0892 -0.4724
 6715TIP3    H120078   1.500   7.944   4.236  0.1251 -0.2239 -0.4112
 6715TIP3    H220079   1.485   7.889   4.096 -0.2906 -0.5817 -0.2291
 6716TIP3   OH220080   7.800   6.605   2.244 -0.1802 -0.2641  0.4569
 6716TIP3    H120081   7.722   6.585   2.193  1.1242 -1.6021 -1.0510
 6716TIP3    H220082   7.771   6.602   2.335 -2.3594  1.4181 -0.1542
 6717TIP3   OH220083   3.623   2.410   4.593  0.1337  0.1455  0.2315
 6717TIP3    H120084   3.537   2.370   4.587  0.2124 -0.3548  2.0785
 6717TIP3    H220085   3.632   2.461   4.512 -2.5652  1.5946  0.7965
 6718TIP3   OH220086   5.293   3.466   3.536  0.2518  0.4244  0.0356
 6718TIP3    H120087   5.229   3.401   3.505  1.2622 -0.9751  0.8267
 6718TIP3    H220088   5.336   3.424   3.611  1.4476  1.7162  0.0998
 6719TIP3   OH220089   4.073   3.695   5.653 -0.2687 -0.3481  0.1917
 6719TIP3    H120090   4.007   3.706   5.584  0.1110 -2.2837 -0.5109
 6719TIP3    H220091   4.111   3.609   5.636  2.0595  0.5114  0.9273
 6720TIP3   OH220092   3.126   3.327   4.922  0.3172 -0.7010 -0.4021
 6720TIP3    H120093   3.063   3.399   4.920  0.2922 -0.7143 -0.0635
 6720TIP3    H220094   3.211   3.370   4.916  0.2873 -0.6678 -0.6011
 6721TIP3   OH220095   5.107   2.601   2.171 -0.0321 -0.7550  0.0741
 6721TIP3    H120096   5.036   2.665   2.169  0.1620 -0.5295  0.3585
 6721TIP3    H220097   5.135   2.593   2.080  0.3319 -0.0036  0.1178
 6722TIP3   OH220098   4.329   3.931   4.093  0.4638 -0.1319  0.2248
 6722TIP3    H120099   4.377   4.002   4.050  0.8389 -0.6283 -0.1813
 6722TIP3    H220100   4.244   3.929   4.050  0.9727 -0.8779 -0.7686
 6723TIP3   OH220101   3.026   3.616   5.124  0.1974 -0.7700  0.0516
 6723TIP3    H120102   3.121   3.610   5.118  0.2481  1.4544 -2.3753
 6723TIP3    H220103   2.994   3.583   5.040 -0.9358  1.5504 -0.4872
 6724TIP3   OH220104   4.553   3.293   5.269 -0.1268 -0.4164  0.3732
 6724TIP3    H120105   4.629   3.285   5.211 -0.0969 -0.2519  0.3874
 6724TIP3    H220106   4.589   3.327   5.351 -0.4016  0.9555 -0.0578
 6725TIP3   OH220107   6.951   3.456   4.753  0.1720  0.6221  0.1699
 6725TIP3    H120108   6.908   3.411   4.680 -0.6609 -1.8277  2.0925
 6725TIP3    H220109   7.001   3.388   4.798  1.1094  2.1860  1.5881
 6726TIP3   OH220110   7.018   3.205   3.946  0.4014  0.0746  0.6058
 6726TIP3    H120111   7.090   3.250   3.903  0.3387 -0.7538 -0.3900
 6726TIP3    H220112   6.984   3.268   4.009  1.1276  0.9499  0.1264
 6727TIP3   OH220113   5.487   5.472   4.395  0.4161 -0.1003 -0.1962
 6727TIP3    H120114   5.564   5.510   4.437 -0.5868  0.0267  1.6131
 6727TIP3    H220115   5.481   5.383   4.432  0.2756 -0.4562 -1.0754
 6728TIP3   OH220116   5.286   0.863   3.504  0.7730  0.7780  0.5166
 6728TIP3    H120117   5.323   0.829   3.423  1.3735  1.1292  0.6415
 6728TIP3    H220118   5.192   0.870   3.487  0.5114 -1.7435  0.7701
 6729TIP3   OH220119   4.660   3.143   3.599 -0.0667 -0.0338 -0.4704
 6729TIP3    H120120   4.683   3.063   3.551 -1.9102 -1.6783  1.2452
 6729TIP3    H220121   4.668   3.118   3.691 -2.6941  1.1176  0.1102
 6730TIP3   OH220122   4.236   0.583   3.400  0.3251 -0.1853  0.0957
 6730TIP3    H120123   4.198   0.656   3.449  0.3447 -0.6864  0.8513
 6730TIP3    H220124   4.286   0.533   3.465  0.1831 -0.9643 -0.3920
 6731TIP3   OH220125   2.874   2.495   5.262  0.4357  0.0986 -0.1557
 6731TIP3    H120126   2.890   2.560   5.330 -1.4907  2.3133 -1.7608
 6731TIP3    H220127   2.784   2.467   5.275  0.6808 -0.9434 -0.5952
 6732TIP3   OH220128   4.871   2.376   2.736 -0.2553  0.8903  0.2213
 6732TIP3    H120129   4.795   2.326   2.766  0.1198 -0.5119 -1.1160
 6732TIP3    H220130   4.861   2.380   2.641  1.3619  0.6706  0.0306
 6733TIP3   OH220131   6.144   3.237   5.086  0.5733  0.2010 -0.1556
 6733TIP3    H120132   6.118   3.326   5.109  0.5257  0.2471 -0.3908
 6733TIP3    H220133   6.232   3.228   5.123  0.8434  0.5702 -0.7089
 6734TIP3   OH220134   4.221   2.952   4.850  0.0517 -0.2182 -0.2001
 6734TIP3    H120135   4.312   2.924   4.863  0.6085  1.1376 -1.0432
 6734TIP3    H220136   4.172   2.909   4.920  1.5036 -0.1937  0.8453
 6735TIP3   OH220137   5.999   2.962   3.445  0.0673  0.0755  0.0782
 6735TIP3    H120138   5.918   2.944   3.398  0.1815 -0.3891  0.0671
 6735TIP3    H220139   6.059   2.996   3.378  0.7229 -1.9745 -0.4204
 6736TIP3   OH220140   4.887   2.336   4.928 -0.4736 -0.6537  0.2344
 6736TIP3    H120141   4.819   2.395   4.961 -1.2103  0.1388 -2.5573
 6736TIP3    H220142   4.912   2.373   4.843  1.5302 -2.4493 -0.0147
 6737TIP3   OH220143   6.655   2.275   1.702 -0.4434  0.3071 -0.5191
 6737TIP3    H120144   6.615   2.203   1.653 -0.5440 -0.3117  0.4543
 6737TIP3    H220145   6.665   2.241   1.790  0.5200  1.1138 -0.3048
 6738TIP3   OH220146   4.200   1.388   3.734  0.1810 -0.5995  0.1335
 6738TIP3    H120147   4.122   1.425   3.693  1.2809  1.0284 -0.5161
 6738TIP3    H220148   4.230   1.456   3.794  1.0109 -1.2828  0.5003
 6739TIP3   OH220149   2.000   5.717   0.182 -0.0637 -0.5143  0.3720
 6739TIP3    H120150   2.054   5.790   0.212  0.7671  0.3790 -3.1126
 6739TIP3    H220151   2.059   5.666   0.127 -1.4366 -2.3097  0.5327
 6740TIP3   OH220152   6.208   0.968   2.932 -0.0923  0.3436 -0.1954
 6740TIP3    H120153   6.189   0.890   2.881 -1.8057  1.3742 -1.1795
 6740TIP3    H220154   6.244   1.031   2.869  1.0546  0.4463  0.5390
 6741TIP3   OH220155   4.976   0.860   6.226 -0.0638  0.4363  0.2154
 6741TIP3    H120156   5.043   0.793   6.242 -1.4979 -0.4335  2.7509
 6741TIP3    H220157   4.962   0.901   6.311 -1.2225  2.0857 -0.7457
 6742TIP3   OH220158   2.024   2.665   4.652 -0.2171 -0.6808  0.7527
 6742TIP3    H120159   1.983   2.589   4.610  0.6180 -0.6236 -0.1700
 6742TIP3    H220160   1.961   2.691   4.719 -1.3795 -1.0380 -0.1702
 6743TIP3   OH220161   6.940   1.959   4.653  0.3361  0.5015 -0.2267
 6743TIP3    H120162   6.927   1.865   4.657 -1.1221  0.7662  2.2371
 6743TIP3    H220163   7.002   1.978   4.723  0.4201  1.4274 -0.5377
 6744TIP3   OH220164   4.868   2.612   1.034 -0.2862  0.1651  0.3268
 6744TIP3    H120165   4.779   2.583   1.013 -0.1722 -1.0843  1.4931
 6744TIP3    H220166   4.860   2.707   1.044 -1.6173 -0.0051  1.0229
 6745TIP3   OH220167   3.423   0.261   4.893 -0.2503 -0.3174  0.4821
 6745TIP3    H120168   3.384   0.202   4.957  0.9424 -2.0878 -0.3710
 6745TIP3    H220169   3.351   0.283   4.833 -1.0036  0.1182  1.5379
 6746TIP3   OH220170   4.819   4.323   3.130  0.7553 -0.0363  0.1962
 6746TIP3    H120171   4.901   4.368   3.110  0.4168  1.6196  2.2714
 6746TIP3    H220172   4.842   4.258   3.196  0.4571  0.3146  0.6555
 6747TIP3   OH220173   3.674   1.226   4.964  0.1465 -0.4844 -0.1304
 6747TIP3    H120174   3.595   1.254   4.918  0.1865 -0.5951 -0.2694
 6747TIP3    H220175   3.653   1.140   4.999 -0.3851  0.2327  1.3405
 6748TIP3   OH220176   4.747   3.855   6.539 -0.0051  0.2720 -0.5787
 6748TIP3    H120177   4.766   3.945   6.563  2.6510 -0.5157  0.3667
 6748TIP3    H220178   4.670   3.862   6.482 -1.2677  2.8915  1.3511
 6749TIP3   OH220179   4.576   4.228   3.393 -0.5287  0.1995 -0.2547
 6749TIP3    H120180   4.563   4.138   3.422  2.6360 -0.0554  0.4856
 6749TIP3    H220181   4.582   4.222   3.298  0.8008 -0.5200 -0.1288
 6750TIP3   OH220182   5.427   2.933   6.259 -0.0927  0.6358  0.2760
 6750TIP3    H120183   5.355   2.948   6.198  0.4356  2.3557  0.0477
 6750TIP3    H220184   5.480   2.865   6.218 -0.5203  0.7797 -0.5143
 6751TIP3   OH220185   5.700   5.238   4.206 -0.0973 -0.1792  0.4543
 6751TIP3    H120186   5.607   5.227   4.224 -0.3248  0.7168 -0.1318
 6751TIP3    H220187   5.712   5.196   4.120 -0.0404  0.0521  0.3495
 6752TIP3   OH220188   5.723   0.764   5.429  0.0009  0.0887 -0.5416
 6752TIP3    H120189   5.707   0.733   5.340  0.3772  0.4913 -0.7479
 6752TIP3    H220190   5.677   0.701   5.485  1.3143 -1.2201 -0.9221
 6753TIP3   OH220191   2.339   3.549   4.346 -0.0297 -0.5375 -0.2703
 6753TIP3    H120192   2.366   3.473   4.397 -1.7234 -0.1895  1.2182
 6753TIP3    H220193   2.245   3.558   4.364  0.1864  2.0759 -0.1517
 6754TIP3   OH220194   2.586   3.766   4.608  0.0023 -0.4381  0.2165
 6754TIP3    H120195   2.520   3.698   4.604 -0.1976 -0.3444  1.6806
 6754TIP3    H220196   2.541   3.841   4.647  0.6026  0.0734 -0.0609
 6755TIP3   OH220197   5.049   2.354   2.343 -0.4134 -0.2947 -0.0987
 6755TIP3    H120198   5.080   2.416   2.277 -0.1505  0.2398  0.5243
 6755TIP3    H220199   5.128   2.324   2.387 -0.4850 -1.4617 -0.7142
 6756TIP3   OH220200   4.467   3.346   3.997 -0.3341  0.2381 -0.1638
 6756TIP3    H120201   4.456   3.339   4.092  1.3781 -0.5298 -0.0030
 6756TIP3    H220202   4.443   3.260   3.964 -0.1493  0.2506 -0.3337
 6757TIP3   OH220203   5.535   3.863   4.384 -0.6081  0.0289 -0.2522
 6757TIP3    H120204   5.571   3.949   4.405 -0.4329 -0.3282  0.9634
 6757TIP3    H220205   5.610   3.812   4.353 -0.6234  0.1688 -0.5200
 6758TIP3   OH220206   3.860   2.873   4.282  0.0992  0.1475  0.4902
 6758TIP3    H120207   3.784   2.931   4.280 -0.2082 -0.2731 -0.1558
 6758TIP3    H220208   3.890   2.876   4.373 -0.3835  0.7036  0.6373
 6759TIP3   OH220209   4.323   3.422   5.282  0.4900  0.7652 -0.2499
 6759TIP3    H120210   4.274   3.360   5.227 -0.1151 -0.5002  1.6825
 6759TIP3    H220211   4.414   3.394   5.274  0.2125 -0.3993  0.6470
 6760TIP3   OH220212   1.310   1.141   0.051 -0.0239 -0.3196  0.6458
 6760TIP3    H120213   1.312   1.235   0.068  1.3716 -0.1133 -0.5967
 6760TIP3    H220214   1.395   1.109   0.081 -0.7213 -1.3034  1.6257
 6761TIP3   OH220215   3.964   4.110   6.061  0.2757  0.0131 -0.0825
 6761TIP3    H120216   4.008   4.195   6.057  0.2717  0.0621  0.7483
 6761TIP3    H220217   3.872   4.132   6.072  0.2550 -0.0951 -0.0467
 6762TIP3   OH220218   4.243   0.334   3.254  0.7150  0.5273  0.4214
 6762TIP3    H120219   4.222   0.412   3.203 -2.5569 -0.3050  0.4164
 6762TIP3    H220220   4.213   0.355   3.343 -0.5680 -0.8737  0.3306
 6763TIP3   OH220221   4.752   1.523   2.645  0.2163 -0.0345 -0.0923
 6763TIP3    H120222   4.761   1.435   2.609 -0.4368 -0.1149 -0.0505
 6763TIP3    H220223   4.766   1.581   2.571  0.5162 -0.1690 -0.1451
 6764TIP3   OH220224   5.678   0.186   4.914 -0.1875  0.4815 -0.0754
 6764TIP3    H120225   5.665   0.236   4.833 -0.7255  0.4139 -0.0316
 6764TIP3    H220226   5.751   0.128   4.894  0.7595  1.6217  0.0342
 6765TIP3   OH220227   3.858   0.818   5.381  0.1132  0.6989  0.3243
 6765TIP3    H120228   3.906   0.862   5.312  0.9849 -0.2867  0.2948
 6765TIP3    H220229   3.808   0.750   5.336 -0.8697  1.3265  0.4303
 6766TIP3   OH220230   5.705   2.565   3.301  0.3476  0.3900  0.1050
 6766TIP3    H120231   5.628   2.523   3.262  1.0644 -1.1626  0.3345
 6766TIP3    H220232   5.773   2.557   3.235  0.9391 -0.2418  0.7913
 6767TIP3   OH220233   8.438   7.847   4.329 -0.5592  0.0046 -0.3907
 6767TIP3    H120234   8.510   7.870   4.388  0.2841  0.0837 -1.4537
 6767TIP3    H220235   8.444   7.910   4.258 -0.4678 -1.2207 -1.4801
 6768TIP3   OH220236   3.784   5.038   3.685  0.4357 -0.0605  0.3740
 6768TIP3    H120237   3.852   4.999   3.740  0.5241 -2.2716 -1.2389
 6768TIP3    H220238   3.811   5.017   3.596 -0.5932  2.0196 -0.4483
 6769TIP3   OH220239   5.237   1.763   3.307 -0.0346 -0.3849  0.0618
 6769TIP3    H120240   5.329   1.742   3.290 -0.2165 -2.1114  1.1177
 6769TIP3    H220241   5.240   1.825   3.380  0.3616  0.8464 -0.9899
 6770TIP3   OH220242   5.310   1.817   4.618 -0.8298 -0.0056 -0.2454
 6770TIP3    H120243   5.326   1.902   4.657  0.6927 -0.6571  0.5524
 6770TIP3    H220244   5.334   1.753   4.686 -0.1603 -1.1005 -1.4808
 6771TIP3   OH220245   4.750   2.703   5.292  0.5869  0.3971  0.6377
 6771TIP3    H120246   4.675   2.645   5.303  1.1143  0.0822  2.8540
 6771TIP3    H220247   4.712   2.788   5.269 -0.2476 -0.5225 -1.4970
 6772TIP3   OH220248   5.005   3.887   3.713  0.2330 -0.3071 -0.4392
 6772TIP3    H120249   5.091   3.874   3.673  0.3682  0.2259 -0.3251
 6772TIP3    H220250   4.976   3.972   3.680 -0.1246 -0.3553 -0.2521
 6773TIP3   OH220251   3.413   1.875   6.198 -0.7089 -0.1858 -0.4397
 6773TIP3    H120252   3.364   1.938   6.251  1.2093  0.2802  0.8233
 6773TIP3    H220253   3.367   1.873   6.115 -1.9318  1.4428  0.1721
 6774TIP3   OH220254   7.346   7.428   0.582  0.0205  0.1484  0.3537
 6774TIP3    H120255   7.399   7.398   0.508  0.7477 -0.6172  1.1871
 6774TIP3    H220256   7.387   7.510   0.609  0.6238 -0.2957  0.8115
 6775TIP3   OH220257   2.875   5.027   5.869 -0.4492 -0.1820  0.0869
 6775TIP3    H120258   2.800   4.980   5.832 -0.5274 -0.2945  0.3846
 6775TIP3    H220259   2.921   4.962   5.921 -1.7621  0.5898  2.2661
 6776TIP3   OH220260   6.427   2.556   5.024  0.1657 -0.5852  0.1200
 6776TIP3    H120261   6.354   2.593   5.074  1.6973 -0.0229  1.9794
 6776TIP3    H220262   6.419   2.597   4.938 -1.8296 -0.6966  0.2177
 6777TIP3   OH220263   6.430   1.730   3.943  0.1057  0.4531 -0.4964
 6777TIP3    H120264   6.357   1.766   3.893 -0.5757  1.2175  1.0208
 6777TIP3    H220265   6.392   1.659   3.995  0.7388 -0.1109 -0.7878
 6778TIP3   OH220266   5.753   3.510   2.531 -0.4647 -0.7209  0.0299
 6778TIP3    H120267   5.712   3.565   2.597  0.5337  1.7551 -1.3562
 6778TIP3    H220268   5.701   3.523   2.452  0.5614 -0.7377 -0.6608
 6779TIP3   OH220269   2.220   7.351   0.290  0.0326  0.4866  0.1327
 6779TIP3    H120270   2.284   7.295   0.247 -0.7415 -0.6186  0.4045
 6779TIP3    H220271   2.218   7.321   0.381 -2.3607 -0.9023 -0.3227
 6780TIP3   OH220272   8.459   6.383   2.123  0.1457  0.8223 -0.2265
 6780TIP3    H120273   8.378   6.435   2.121  0.2827  1.0335 -0.2480
 6780TIP3    H220274   8.484   6.381   2.215  0.0709  0.6860 -0.2092
 6781TIP3   OH220275   6.377   1.385   3.754 -0.1810  0.0239 -0.3477
 6781TIP3    H120276   6.295   1.337   3.740  0.3837 -0.6747 -1.2705
 6781TIP3    H220277   6.358   1.442   3.829 -1.1972 -0.8415  0.0719
 6782TIP3   OH220278   5.136   3.603   5.487  0.3273  0.3168 -0.3559
 6782TIP3    H120279   5.108   3.694   5.486  2.4004  1.1001  3.0475
 6782TIP3    H220280   5.215   3.601   5.433 -1.1176 -0.0510 -2.5288
 6783TIP3   OH220281   5.278   0.320   4.126  0.4490  0.2915  0.0930
 6783TIP3    H120282   5.203   0.261   4.118 -0.1668  0.7302  2.4564
 6783TIP3    H220283   5.341   0.272   4.180  2.0312 -0.1777 -2.0767
 6784TIP3   OH220284   4.451   3.666   3.114  0.0883 -0.0395 -0.4432
 6784TIP3    H120285   4.525   3.690   3.057 -0.1379 -0.4391 -0.9037
 6784TIP3    H220286   4.401   3.748   3.123  0.1242  0.0256 -0.8201
 6785TIP3   OH220287   6.641   2.692   3.551 -0.3603  0.1172 -0.1915
 6785TIP3    H120288   6.552   2.693   3.517 -1.3462  2.2079  2.3352
 6785TIP3    H220289   6.679   2.775   3.523  0.4353 -0.2651 -0.2750
 6786TIP3   OH220290   0.386   3.584   3.358  0.5852  0.8962  0.1203
 6786TIP3    H120291   0.409   3.507   3.306  1.3745  0.0613  1.6783
 6786TIP3    H220292   0.291   3.581   3.366  0.6526 -0.1659  0.5443
 6787TIP3   OH220293   6.347   2.292   3.951 -0.0951  0.2703  0.1646
 6787TIP3    H120294   6.363   2.288   3.856  0.5356  1.1083  0.2285
 6787TIP3    H220295   6.421   2.341   3.985 -0.0006 -0.5631  1.1799
 6788TIP3   OH220296   4.472   1.370   3.616  0.1661  0.8084  0.3341
 6788TIP3    H120297   4.383   1.376   3.650 -0.1913  0.0896 -0.4661
 6788TIP3    H220298   4.473   1.429   3.540 -0.2929 -0.9212 -1.0426
 6789TIP3   OH220299   6.351   1.231   3.466  0.2982 -0.2082 -0.4374
 6789TIP3    H120300   6.270   1.276   3.491  0.5379 -0.1338  0.2313
 6789TIP3    H220301   6.354   1.237   3.371  0.1001  0.7958 -0.3833
 6790TIP3   OH220302   6.726   1.994   2.975 -0.3551 -0.6504 -0.5977
 6790TIP3    H120303   6.806   1.943   2.989  0.9919  1.1151 -1.6442
 6790TIP3    H220304   6.693   1.964   2.890 -1.6189 -2.3611  0.4426
 6791TIP3   OH220305   6.216   3.116   3.905 -0.0133  0.2319 -0.3649
 6791TIP3    H120306   6.218   3.127   4.000 -2.3326 -1.0985 -0.1294
 6791TIP3    H220307   6.254   3.030   3.889 -0.4004  0.0937 -0.5618
 6792TIP3   OH220308   0.330   1.024   5.049  0.4419 -0.5181 -0.1053
 6792TIP3    H120309   0.260   0.963   5.072 -0.0234  0.3555  0.8196
 6792TIP3    H220310   0.297   1.072   4.974  0.0568 -0.1340  0.3057
 6793TIP3   OH220311   6.915   3.508   5.754  0.2269  0.6902 -0.3364
 6793TIP3    H120312   6.866   3.543   5.828  0.5183  0.3770  0.0039
 6793TIP3    H220313   6.962   3.433   5.789 -0.1494  0.1386 -0.9857
 6794TIP3   OH220314   5.962   3.631   5.614  0.5705 -0.6388 -0.4055
 6794TIP3    H120315   5.902   3.699   5.583 -0.3432  0.0685  2.7936
 6794TIP3    H220316   6.046   3.652   5.574 -0.1764  1.2021 -1.0410
 6795TIP3   OH220317   4.487   4.102   3.964 -0.3497  0.3303  0.0315
 6795TIP3    H120318   4.459   4.183   4.006 -1.3918 -0.2145  0.4200
 6795TIP3    H220319   4.576   4.087   3.997 -0.3011  1.1016  0.2598
 6796TIP3   OH220320   7.641   2.460   4.935  0.4655 -0.0489  0.3580
 6796TIP3    H120321   7.688   2.491   5.012  0.4035 -0.4496  0.5616
 6796TIP3    H220322   7.552   2.492   4.947  0.4465 -0.1444  0.4736
 6797TIP3   OH220323   5.580   0.460   2.119  0.5771 -0.0235  0.5217
 6797TIP3    H120324   5.490   0.439   2.094  1.4647 -0.7958 -2.1229
 6797TIP3    H220325   5.592   0.551   2.091  0.9679 -0.2646 -0.0855
 6798TIP3   OH220326   6.786   3.648   5.972 -0.3337  0.0113  0.4681
 6798TIP3    H120327   6.744   3.688   6.048 -0.5643 -0.5888  0.6557
 6798TIP3    H220328   6.878   3.637   5.997 -0.2712  0.4047  0.4203
 6799TIP3   OH220329   4.169   3.616   4.226  0.0140  0.0042 -0.4216
 6799TIP3    H120330   4.202   3.659   4.305  1.2431  0.2544 -1.0666
 6799TIP3    H220331   4.115   3.682   4.184 -0.2022  0.0503 -0.0788
 6800TIP3   OH220332   4.199   2.186   5.070  0.2889 -0.2040 -0.1738
 6800TIP3    H120333   4.272   2.125   5.079  0.1391 -0.3128  0.3032
 6800TIP3    H220334   4.185   2.193   4.975  1.8699  0.9591 -0.3430
 6801TIP3   OH220335   7.236   2.379   6.313  0.1114 -0.1034  0.1342
 6801TIP3    H120336   7.190   2.323   6.375 -0.4643 -0.5030 -0.6426
 6801TIP3    H220337   7.167   2.433   6.274  0.5551  0.5935  0.3072
 6802TIP3   OH220338   6.778   1.350   6.325  0.5904  0.8124  0.4410
 6802TIP3    H120339   6.872   1.351   6.343  0.9098  0.2495 -1.0551
 6802TIP3    H220340   6.749   1.439   6.341  1.5785  1.2213  0.0048
 6803TIP3   OH220341   5.331   3.693   2.976  0.5392  0.4506 -0.1153
 6803TIP3    H120342   5.400   3.675   3.039  0.7696 -1.6993 -0.9441
 6803TIP3    H220343   5.254   3.648   3.010 -0.0495  1.4854 -0.0352
 6804TIP3   OH220344   7.033   2.871   1.642 -0.3412  0.0188  0.0078
 6804TIP3    H120345   7.002   2.786   1.672 -1.9576 -0.0112 -1.6908
 6804TIP3    H220346   7.044   2.922   1.723 -0.9248 -1.2700  0.9226
 6805TIP3   OH220347   6.705   2.207   5.065  0.1336 -0.5501  0.2290
 6805TIP3    H120348   6.720   2.274   4.998  0.6516 -2.0725 -1.2246
 6805TIP3    H220349   6.610   2.204   5.075  0.0227 -0.6192 -0.7811
 6806TIP3   OH220350   6.720   4.079   3.590  0.2738 -0.5525 -0.1571
 6806TIP3    H120351   6.637   4.105   3.629  0.4787 -0.8411  0.4870
 6806TIP3    H220352   6.756   4.014   3.651  1.5186  0.4151  0.1670
 6807TIP3   OH220353   5.069   8.020   5.188 -0.1455  0.3184  0.1528
 6807TIP3    H120354   5.122   7.946   5.157  0.3688  1.2039 -1.0913
 6807TIP3    H220355   5.032   8.058   5.109 -1.6831  0.4502  0.9240
 6808TIP3   OH220356   6.537   3.116   2.904  0.2455  0.1810 -0.0270
 6808TIP3    H120357   6.620   3.072   2.921  0.6288  0.2474 -1.6531
 6808TIP3    H220358   6.501   3.134   2.991  1.2077 -1.2006  0.6767
 6809TIP3   OH220359   5.576   3.853   3.587 -0.6831  0.5589 -0.1087
 6809TIP3    H120360   5.671   3.851   3.595 -0.7038  1.8110  0.5480
 6809TIP3    H220361   5.547   3.774   3.632  0.1821 -1.3883 -2.8145
 6810TIP3   OH220362   5.653   1.382   4.708 -0.2101  0.2406  0.2644
 6810TIP3    H120363   5.689   1.455   4.758 -2.2975  1.7678 -0.3853
 6810TIP3    H220364   5.613   1.325   4.774  2.5019 -0.9883  0.8926
 6811TIP3   OH220365   5.724   3.701   4.184  0.5754  0.6456  0.3965
 6811TIP3    H120366   5.788   3.743   4.126  0.0941 -1.1956 -1.5389
 6811TIP3    H220367   5.650   3.681   4.126 -0.6414  0.3439  2.0445
 6812TIP3   OH220368   6.320   2.023   4.028  0.1240 -0.1599  0.6852
 6812TIP3    H120369   6.316   2.118   4.031 -2.1186 -0.2244  0.2882
 6812TIP3    H220370   6.300   2.001   3.937  0.4709 -1.0284  0.8091
 6813TIP3   OH220371   5.015   4.748   4.138 -0.0071 -0.3045  0.5958
 6813TIP3    H120372   5.037   4.758   4.231 -2.4585 -0.6631  1.2627
 6813TIP3    H220373   5.006   4.654   4.126 -2.6101 -0.1121  0.7546
 6814TIP3   OH220374   5.398   1.771   3.798  0.3857  0.3574 -0.4083
 6814TIP3    H120375   5.458   1.701   3.824  0.8878  0.5588 -1.0359
 6814TIP3    H220376   5.445   1.852   3.818  0.0388  0.5191 -0.2380
 6815TIP3   OH220377   6.626   2.476   2.150  0.5897  0.7037 -0.0715
 6815TIP3    H120378   6.708   2.432   2.173  0.1080  0.5538  1.4168
 6815TIP3    H220379   6.651   2.567   2.137  1.3332  0.2938 -1.6651
 6816TIP3   OH220380   1.676   6.099   0.302  0.2494 -0.6149  0.2693
 6816TIP3    H120381   1.697   6.039   0.231  0.8986 -1.0745  0.8347
 6816TIP3    H220382   1.759   6.144   0.320 -0.1936  0.3258 -0.0401
 6817TIP3   OH220383   5.492   3.188   4.580  0.8404  0.0399  0.2469
 6817TIP3    H120384   5.432   3.118   4.606 -0.7294  0.8060 -1.2469
 6817TIP3    H220385   5.512   3.234   4.662 -1.9287  0.8091  0.5375
 6818TIP3   OH220386   5.659   5.576   5.378  0.2855  0.2805 -0.0665
 6818TIP3    H120387   5.707   5.575   5.460  1.2267 -0.0500 -0.6132
 6818TIP3    H220388   5.586   5.514   5.392  0.8422 -0.3036  0.2805
 6819TIP3   OH220389   8.100   0.355   3.086 -0.8457  0.0230 -0.5928
 6819TIP3    H120390   8.077   0.268   3.118 -2.4576  1.1888  1.6533
 6819TIP3    H220391   8.104   0.409   3.165  1.1149  1.7817 -1.8365
 6820TIP3   OH220392   5.486   2.739   3.191  0.4726 -0.7768 -0.1894
 6820TIP3    H120393   5.538   2.719   3.113  1.0184  1.9127 -0.5356
 6820TIP3    H220394   5.500   2.663   3.248  1.8780 -1.7362 -1.7514
 6821TIP3   OH220395   5.883   4.286   0.741 -0.3796  0.5909  0.0520
 6821TIP3    H120396   5.909   4.194   0.748  0.7707  0.8773 -0.4956
 6821TIP3    H220397   5.949   4.334   0.791 -1.1364  1.1024  0.5766
 6822TIP3   OH220398   5.140   4.872   6.037  0.2723 -0.3078 -0.4215
 6822TIP3    H120399   5.079   4.869   5.964  1.2856  1.6210 -1.4116
 6822TIP3    H220400   5.223   4.839   6.001  0.7097  0.3903 -0.0781
 6823TIP3   OH220401   7.154   3.377   6.154 -0.2768  0.4538 -0.5040
 6823TIP3    H120402   7.238   3.401   6.194 -0.9678  2.3565 -0.1138
 6823TIP3    H220403   7.127   3.298   6.200 -0.5355  1.9883  2.0979
 6824TIP3   OH220404   7.322   2.529   5.715 -0.1280  0.1284 -0.4710
 6824TIP3    H120405   7.310   2.620   5.740 -0.5255 -0.1824  0.5284
 6824TIP3    H220406   7.403   2.503   5.759  0.5433  0.2850 -1.5960
 6825TIP3   OH220407   6.195   2.095   4.615  0.2585 -0.0818  0.3364
 6825TIP3    H120408   6.267   2.133   4.565  0.6030  0.8491  1.5099
 6825TIP3    H220409   6.237   2.045   4.686 -0.2030  2.3621  2.4221
 6826TIP3   OH220410   0.362   2.992   3.620  0.2019  0.1106  0.3384
 6826TIP3    H120411   0.324   3.080   3.620 -1.6867 -0.6815  0.6492
 6826TIP3    H220412   0.406   2.985   3.535 -1.1012  0.7493 -0.4108
 6827TIP3   OH220413   6.845   0.821   2.464 -0.0672 -0.0751 -0.0070
 6827TIP3    H120414   6.796   0.892   2.422  1.3195  0.7499 -0.2769
 6827TIP3    H220415   6.843   0.842   2.558  0.2340  0.2699 -0.0746
 6828TIP3   OH220416   4.866   3.147   4.031 -0.1821  0.3790  0.3996
 6828TIP3    H120417   4.897   3.213   3.969 -2.3994  3.5607  2.5138
 6828TIP3    H220418   4.945   3.113   4.072  1.2207 -0.7837 -3.1288
 6829TIP3   OH220419   5.924   2.790   3.062 -0.5568  0.1232 -0.0262
 6829TIP3    H120420   6.001   2.741   3.090 -0.5987  0.9621  1.6161
 6829TIP3    H220421   5.953   2.837   2.984  0.5280  0.2448  0.4385
 6830TIP3   OH220422   7.501   2.993   3.088 -0.1429 -0.0696 -0.0965
 6830TIP3    H120423   7.452   3.016   3.167 -0.2572  0.4426 -0.3108
 6830TIP3    H220424   7.489   3.069   3.030 -1.6517 -1.2221 -1.3520
 6831TIP3   OH220425   6.840   1.560   5.925  0.1910 -0.4018  0.1684
 6831TIP3    H120426   6.760   1.589   5.881  0.2208 -2.2883 -1.2124
 6831TIP3    H220427   6.841   1.465   5.912  2.6079 -0.4152  0.2645
 6832TIP3   OH220428   6.920   2.962   1.339  0.2396  0.2229  0.2605
 6832TIP3    H120429   6.991   2.904   1.312  1.5698  1.4751  0.9747
 6832TIP3    H220430   6.945   2.992   1.426  1.1937  4.2526 -1.2609
 6833TIP3   OH220431   0.759   7.527   0.232 -0.4511 -0.1502  0.3261
 6833TIP3    H120432   0.719   7.542   0.146 -1.3069 -0.1406  0.7276
 6833TIP3    H220433   0.689   7.540   0.294 -0.4722 -2.6518  0.8919
 6834TIP3   OH220434   1.591   0.936   3.218  0.3875  0.7723  0.1227
 6834TIP3    H120435   1.604   1.027   3.248 -3.0431  1.4771 -0.3923
 6834TIP3    H220436   1.613   0.883   3.295  4.2062  1.8521 -0.0866
 6835TIP3   OH220437   5.136   2.668   2.914  0.5150 -0.4317 -0.1411
 6835TIP3    H120438   5.047   2.675   2.946  0.4369 -1.9982  0.0172
 6835TIP3    H220439   5.129   2.680   2.819  0.1681 -0.2838 -0.0957
 6836TIP3   OH220440   6.773   4.716   3.566  0.3860 -0.2603  0.1944
 6836TIP3    H120441   6.733   4.786   3.513  2.2945  0.4862 -0.3031
 6836TIP3    H220442   6.757   4.743   3.657  0.5926  0.5274  0.0026
 6837TIP3   OH220443   3.921   1.747   3.409  0.1378  0.4525  0.6940
 6837TIP3    H120444   3.957   1.695   3.337  0.2285 -0.1578  1.1750
 6837TIP3    H220445   3.980   1.822   3.416  0.3377  0.3273  0.3742
 6838TIP3   OH220446   7.617   2.246   4.025  0.4759  0.1059 -0.3742
 6838TIP3    H120447   7.544   2.217   4.080  2.4359  0.9197  2.6930
 6838TIP3    H220448   7.675   2.170   4.020  0.6863  0.2859 -0.7145
 6839TIP3   OH220449   6.419   1.437   4.852  0.6210  0.1559  0.3985
 6839TIP3    H120450   6.347   1.389   4.894  0.0474  0.4431 -0.2389
 6839TIP3    H220451   6.437   1.387   4.772  1.6365 -0.3278  0.9200
 6840TIP3   OH220452   5.691   2.195   2.833  0.5775  0.1357 -0.3815
 6840TIP3    H120453   5.748   2.203   2.756  2.0478  2.1856  0.8589
 6840TIP3    H220454   5.642   2.278   2.834 -0.6152 -0.5677 -0.0220
 6841TIP3   OH220455   8.011   3.051   2.577  0.2436 -0.0627  0.5183
 6841TIP3    H120456   8.069   3.063   2.652  3.0116  0.4090 -1.6261
 6841TIP3    H220457   8.000   3.139   2.540 -0.1898 -0.4536 -0.3027
 6842TIP3   OH220458   5.614   1.767   3.200 -0.0760  0.2503  0.6591
 6842TIP3    H120459   5.675   1.699   3.172 -2.1655 -0.5340 -2.2544
 6842TIP3    H220460   5.605   1.825   3.124 -1.1675  1.6664  1.8396
 6843TIP3   OH220461   6.427   3.039   4.678 -0.3333 -0.2511 -0.6540
 6843TIP3    H120462   6.412   3.121   4.725 -0.9471 -0.2277 -0.8930
 6843TIP3    H220463   6.392   2.971   4.737  0.4330 -0.3749 -0.3266
 6844TIP3   OH220464   4.422   3.247   2.785  0.1400  0.2350  0.3213
 6844TIP3    H120465   4.470   3.170   2.817 -0.3262 -0.1345  0.1478
 6844TIP3    H220466   4.476   3.322   2.810  0.2408 -0.1067  1.1501
 6845TIP3   OH220467   6.313   1.524   2.880  0.2236 -0.1302 -0.1634
 6845TIP3    H120468   6.326   1.472   2.801 -0.1136  1.0660 -1.0222
 6845TIP3    H220469   6.333   1.614   2.853  3.1425 -0.0684  1.8663
 6846TIP3   OH220470   7.798   0.524   5.914  0.8865 -0.0541  0.1016
 6846TIP3    H120471   7.722   0.471   5.889  1.0348 -0.6825  0.9703
 6846TIP3    H220472   7.762   0.609   5.939  0.5154 -0.1916  0.0308
 6847TIP3   OH220473   4.598   2.020   5.248  0.4621 -0.4958 -0.6079
 6847TIP3    H120474   4.521   2.002   5.194  0.3340 -0.1571 -0.5442
 6847TIP3    H220475   4.654   2.075   5.193  0.3026 -0.0962 -0.3813
 6848TIP3   OH220476   7.103   3.015   4.765  0.1011  0.4529 -0.8711
 6848TIP3    H120477   7.090   2.971   4.681  1.3289  0.1517 -0.9248
 6848TIP3    H220478   7.188   2.982   4.796  1.5838  3.5720 -1.3908
 6849TIP3   OH220479   0.519   0.927   6.731  0.0838 -0.0809  0.1291
 6849TIP3    H120480   0.428   0.951   6.714 -0.9150 -4.0168 -0.6667
 6849TIP3    H220481   0.517   0.880   6.814  1.7803  1.6978  1.2171
 6850TIP3   OH220482   7.084   2.582   6.182  0.2185 -0.0583 -0.2205
 6850TIP3    H120483   7.019   2.648   6.206 -0.0536 -0.4348  0.0813
 6850TIP3    H220484   7.052   2.547   6.098 -1.0538 -1.6413  0.8876
 6851TIP3   OH220485   7.854   5.209   5.095 -0.3498 -0.2385  0.0187
 6851TIP3    H120486   7.898   5.248   5.170  2.6586 -1.4742 -1.0379
 6851TIP3    H220487   7.845   5.281   5.032 -0.2681  0.1201  0.4179
 6852TIP3   OH220488   6.116   2.879   4.094 -0.4356 -0.0887 -0.3254
 6852TIP3    H120489   6.194   2.873   4.040 -1.8739 -0.7399 -2.3800
 6852TIP3    H220490   6.123   2.965   4.137  0.4526  0.7009 -2.0050
 6853TIP3   OH220491   7.252   4.028   4.209 -0.5465 -0.4754 -0.0296
 6853TIP3    H120492   7.167   3.989   4.188 -1.4979  0.7523  1.4097
 6853TIP3    H220493   7.267   4.091   4.139 -0.1116 -1.7178 -1.0812
 6854TIP3   OH220494   6.093   2.738   2.334 -0.3427  0.1370 -0.8039
 6854TIP3    H120495   6.174   2.701   2.301  0.1795  0.2114  0.3838
 6854TIP3    H220496   6.099   2.832   2.313  0.1596  0.2505 -0.1468
 6855TIP3   OH220497   6.851   2.776   2.299  0.9248  0.3418 -0.5453
 6855TIP3    H120498   6.854   2.809   2.209 -0.7158 -1.0680 -1.1571
 6855TIP3    H220499   6.837   2.853   2.353  1.4950  1.1500 -1.5434
 6856TIP3   OH220500   4.670   3.644   3.677  0.2258 -0.0140  0.4556
 6856TIP3    H120501   4.697   3.593   3.754  4.2389  3.0767  1.2122
 6856TIP3    H220502   4.628   3.722   3.714  0.6789  0.7007 -0.5240
 6857TIP3   OH220503   1.174   5.790   0.269  0.1341  0.4890  0.0733
 6857TIP3    H120504   1.230   5.859   0.234 -1.7252  1.2440 -1.5210
 6857TIP3    H220505   1.110   5.836   0.324 -1.0345  0.0622 -0.8991
 6858TIP3   OH220506   5.399   3.342   2.817 -0.2619 -0.0615 -0.6466
 6858TIP3    H120507   5.334   3.273   2.811 -1.4590  0.7689  1.8303
 6858TIP3    H220508   5.397   3.386   2.732  0.2618 -2.7794 -2.1271
 6859TIP3   OH220509   5.707   0.518   5.580  0.0386 -0.4063  0.1379
 6859TIP3    H120510   5.699   0.463   5.502  2.1958  0.4156 -0.7008
 6859TIP3    H220511   5.703   0.456   5.653  2.1356 -1.6702 -0.7739
 6860TIP3   OH220512   8.266   3.015   3.749 -0.0412  0.0771  0.2769
 6860TIP3    H120513   8.269   2.954   3.822  0.7125  0.6899  0.7679
 6860TIP3    H220514   8.334   2.984   3.689 -0.4208 -0.2203 -0.0005
 6861TIP3   OH220515   5.525   1.439   4.472  0.2319 -0.0747 -0.0076
 6861TIP3    H120516   5.559   1.408   4.556  1.3253  0.9853 -0.0518
 6861TIP3    H220517   5.539   1.533   4.473  2.0439 -0.2726 -2.1579
 6862TIP3   OH220518   4.994   1.796   3.703 -0.2055 -1.0625  0.3014
 6862TIP3    H120519   5.056   1.828   3.638  0.4806 -0.5734  1.1951
 6862TIP3    H220520   5.039   1.723   3.745  0.1279 -0.1213  1.5841
 6863TIP3   OH220521   6.681   1.734   3.140  0.0753 -0.2508 -0.1738
 6863TIP3    H120522   6.667   1.676   3.216 -0.3255 -0.2710 -0.2621
 6863TIP3    H220523   6.650   1.820   3.170 -0.2725 -0.3014 -0.3779
 6864TIP3   OH220524   5.883   4.308   3.123 -0.4231  1.0017 -0.2884
 6864TIP3    H120525   5.974   4.303   3.093 -0.4170  1.9943 -0.4754
 6864TIP3    H220526   5.833   4.327   3.043 -0.4783  3.0829  0.2084
 6865TIP3   OH220527   0.073   2.929   5.379 -0.2650 -0.5036 -0.0258
 6865TIP3    H120528   0.019   3.000   5.414 -0.9319 -1.4307  0.8459
 6865TIP3    H220529   0.068   2.860   5.445 -0.2263 -1.6565 -1.2092
 6866TIP3   OH220530   7.050   1.671   4.575 -0.3277  0.2757 -0.0883
 6866TIP3    H120531   6.955   1.665   4.564 -0.2148 -1.1073 -0.3907
 6866TIP3    H220532   7.078   1.735   4.509 -0.7915 -0.9776 -1.5415
 6867TIP3   OH220533   7.673   2.421   3.818 -0.9339  0.2445  0.0117
 6867TIP3    H120534   7.649   2.366   3.893  0.6655 -1.7819 -0.9015
 6867TIP3    H220535   7.756   2.461   3.842 -2.1292  2.3913  0.7020
 6868TIP3   OH220536   6.183   3.141   3.557  0.4211  0.0854 -0.1847
 6868TIP3    H120537   6.196   3.163   3.465 -0.1688 -0.5234 -0.4131
 6868TIP3    H220538   6.101   3.092   3.559  0.1276  0.6177  0.7500
 6869TIP3   OH220539   5.048   3.513   2.755  0.2023 -0.9932  0.0448
 6869TIP3    H120540   5.034   3.420   2.740  0.1811 -0.9422 -0.2557
 6869TIP3    H220541   4.984   3.556   2.698  0.3805 -0.7915 -0.0013
 6870TIP3   OH220542   0.434   7.592   6.881 -0.2383  0.2383  0.0335
 6870TIP3    H120543   0.343   7.566   6.896 -0.6950  2.6260  1.8547
 6870TIP3    H220544   0.428   7.685   6.857  1.6519  0.1370 -0.8841
 6871TIP3   OH220545   6.649   3.205   3.679 -0.0990  0.2734 -0.2049
 6871TIP3    H120546   6.705   3.280   3.696 -1.4859  1.2757  0.0650
 6871TIP3    H220547   6.633   3.207   3.585  0.4316 -0.0876 -0.3003
 6872TIP3   OH220548   5.276   3.349   2.509  0.2618  0.3217  0.3648
 6872TIP3    H120549   5.187   3.318   2.527  0.5227  1.3221  3.8378
 6872TIP3    H220550   5.266   3.443   2.493  0.3472 -0.1349 -2.6044
 6873TIP3   OH220551   6.168   1.695   3.803 -0.4355 -0.0074  0.0123
 6873TIP3    H120552   6.090   1.698   3.858 -0.0038  2.1161  0.5275
 6873TIP3    H220553   6.160   1.770   3.745  0.1019 -1.1014 -1.5262
 6874TIP3   OH220554   5.711   4.123   2.698 -0.6042  0.1414  0.2926
 6874TIP3    H120555   5.700   4.070   2.619  0.3679  2.3169 -1.3531
 6874TIP3    H220556   5.665   4.205   2.678  1.5082  1.5600  1.1219
 6875TIP3   OH220557   6.286   2.486   4.508 -0.6669 -0.4338  0.8005
 6875TIP3    H120558   6.237   2.559   4.545 -0.9788  0.1012 -0.6285
 6875TIP3    H220559   6.229   2.450   4.441  0.2814 -0.7493  0.1458
 6876TIP3   OH220560   5.243   2.909   2.971  0.1643 -0.0500  0.0628
 6876TIP3    H120561   5.263   2.913   3.065  0.7784  0.2290 -0.0749
 6876TIP3    H220562   5.207   2.822   2.957 -0.0732 -0.0356  0.5879
 6877TIP3   OH220563   7.945   5.076   3.565 -0.2091 -0.5570 -0.0709
 6877TIP3    H120564   7.930   5.040   3.652  1.2434  1.5028  1.0712
 6877TIP3    H220565   7.906   5.163   3.568  0.7106 -0.0930 -1.1679
 6878TIP3   OH220566   4.801   0.691   4.960  0.1164 -0.0680 -0.1662
 6878TIP3    H120567   4.837   0.607   4.931  1.1556  0.0450  0.7491
 6878TIP3    H220568   4.738   0.668   5.028 -0.4838 -0.1758 -0.7543
 6879TIP3   OH220569   0.848   7.817   0.245 -0.1218  0.3404 -0.0502
 6879TIP3    H120570   0.813   7.729   0.261 -1.0209  0.8878  0.9926
 6879TIP3    H220571   0.881   7.813   0.155 -0.9983 -0.7976 -0.3363
 6880TIP3   OH220572   6.227   3.875   2.299 -0.1927  0.7114  0.2588
 6880TIP3    H120573   6.188   3.894   2.385  0.0773  0.5666  0.4134
 6880TIP3    H220574   6.156   3.833   2.250 -0.2211  0.4079  0.5536
 6881TIP3   OH220575   6.737   4.306   4.544 -0.1338 -0.2269  0.0265
 6881TIP3    H120576   6.776   4.247   4.608 -1.3194  0.9088  1.8294
 6881TIP3    H220577   6.652   4.266   4.524 -0.1358 -0.1166 -0.1930
 6882TIP3   OH220578   7.043   1.934   2.489  0.2208  0.2068  0.5384
 6882TIP3    H120579   7.121   1.880   2.489  1.5037  2.0038  0.4797
 6882TIP3    H220580   7.072   2.019   2.523 -0.8313  2.0303 -2.7823
 6883TIP3   OH220581   6.326   3.008   1.485 -0.5368  0.3186  0.2479
 6883TIP3    H120582   6.293   3.014   1.395  0.9448  0.9652 -0.2596
 6883TIP3    H220583   6.416   3.038   1.480  0.0166 -1.0205  1.7018
 6884TIP3   OH220584   4.480   2.582   5.281 -0.5060  0.3261 -0.7190
 6884TIP3    H120585   4.468   2.665   5.327 -0.3340  0.0660 -0.2093
 6884TIP3    H220586   4.406   2.528   5.308 -0.6867  0.3541 -1.1501
 6885TIP3   OH220587   7.606   0.726   4.318  0.2160 -0.1585 -0.1665
 6885TIP3    H120588   7.662   0.751   4.244  0.8299  0.0055  0.3492
 6885TIP3    H220589   7.533   0.788   4.315  1.0958  0.9140  0.3648
 6886TIP3   OH220590   6.988   2.522   2.374  0.2912  0.7978  0.1563
 6886TIP3    H120591   6.946   2.488   2.453 -1.4448  2.6854  0.0930
 6886TIP3    H220592   6.964   2.615   2.373  1.8504  1.2008 -1.6059
 6887TIP3   OH220593   5.556   2.443   0.829 -0.5149 -0.1135  0.2344
 6887TIP3    H120594   5.502   2.506   0.782  0.6171  2.3201  2.0738
 6887TIP3    H220595   5.618   2.410   0.764 -1.2953  0.4735 -0.8095
 6888TIP3   OH220596   7.363   2.736   3.892 -0.6658  0.2695  0.0428
 6888TIP3    H120597   7.353   2.645   3.866 -0.6198  0.1009  0.6004
 6888TIP3    H220598   7.302   2.746   3.966 -0.5941  0.6599  0.0485
 6889TIP3   OH220599   5.607   2.662   4.386 -0.0493  0.2705 -0.1173
 6889TIP3    H120600   5.660   2.684   4.463  1.0059  0.7254 -0.9525
 6889TIP3    H220601   5.609   2.742   4.333 -2.1344  0.5148  0.1424
 6890TIP3   OH220602   6.818   1.684   1.037  0.0431 -0.4040 -0.6566
 6890TIP3    H120603   6.899   1.733   1.051 -0.8884  1.0518 -0.2581
 6890TIP3    H220604   6.762   1.709   1.110  0.4026 -3.9536  0.9176
 6891TIP3   OH220605   5.808   2.162   3.314  0.1191  0.3678 -0.0432
 6891TIP3    H120606   5.816   2.070   3.336 -1.4825 -0.1009 -1.2506
 6891TIP3    H220607   5.838   2.209   3.392  2.0858 -1.1488  0.1432
 6892TIP3   OH220608   6.551   1.486   4.245  0.5842 -0.8135  0.0367
 6892TIP3    H120609   6.486   1.497   4.314  0.2091 -0.8582 -0.3071
 6892TIP3    H220610   6.601   1.408   4.270  1.5655  0.1508  1.1401
 6893TIP3   OH220611   0.287   3.314   3.536  0.4893 -0.1118  0.1791
 6893TIP3    H120612   0.203   3.358   3.550  0.3872  0.2397 -1.4074
 6893TIP3    H220613   0.275   3.265   3.455  1.8343 -0.0022 -0.0976
 6894TIP3   OH220614   7.023   2.408   2.617 -0.4442 -0.2422 -1.0651
 6894TIP3    H120615   7.043   2.315   2.628  0.8770  0.0702 -0.7037
 6894TIP3    H220616   7.108   2.449   2.601 -1.0210  0.9009 -1.2785
 6895TIP3   OH220617   4.880   0.701   5.639  0.0040  0.0136  0.7990
 6895TIP3    H120618   4.904   0.687   5.731  1.2680 -0.1030  0.4636
 6895TIP3    H220619   4.914   0.788   5.619 -1.1499  0.4550  0.7164
 6896TIP3   OH220620   5.173   2.200   3.214 -0.1081  0.4515  0.4365
 6896TIP3    H120621   5.078   2.189   3.212 -0.5062  3.4749 -0.8981
 6896TIP3    H220622   5.190   2.266   3.147  2.8902  0.3224  1.0125
 6897TIP3   OH220623   5.074   3.317   1.291 -0.3454 -0.0547 -0.5342
 6897TIP3    H120624   5.020   3.302   1.214  0.3723 -0.3320 -0.9831
 6897TIP3    H220625   5.162   3.335   1.257  0.1955 -1.1631  0.2431
 6898TIP3   OH220626   6.076   2.053   3.163  0.4352  0.7016 -0.4052
 6898TIP3    H120627   6.098   2.108   3.238 -1.2219  1.6028 -0.5614
 6898TIP3    H220628   6.005   2.099   3.119  0.7549 -0.2993 -1.9980
 6899TIP3   OH220629   5.078   2.718   5.296  0.0043  0.5125  0.7809
 6899TIP3    H120630   4.986   2.744   5.292 -0.2559 -0.5030 -0.2203
 6899TIP3    H220631   5.123   2.794   5.332 -1.1986  1.0921  1.0962
 6900TIP3   OH220632   6.388   3.614   5.529 -0.2120 -0.1719 -0.3007
 6900TIP3    H120633   6.420   3.562   5.456 -1.8415  0.9904 -1.8971
 6900TIP3    H220634   6.382   3.553   5.602 -0.8794 -1.9256 -1.7982
 6901TIP3   OH220635   5.837   2.724   4.589  0.0902 -0.1978 -0.2258
 6901TIP3    H120636   5.819   2.634   4.618  1.4338 -0.2373  0.5131
 6901TIP3    H220637   5.824   2.777   4.667  2.4278 -0.1426  0.1622
 6902TIP3   OH220638   7.111   4.807   1.167 -0.6644 -0.0915 -0.9529
 6902TIP3    H120639   7.144   4.788   1.079 -0.1525 -1.6033 -0.4555
 6902TIP3    H220640   7.139   4.732   1.219 -1.3188  0.6019  0.4130
 6903TIP3   OH220641   5.506   1.535   6.897 -0.0509 -0.3240 -0.2435
 6903TIP3    H120642   5.519   1.626   6.923 -0.2280 -0.6456  1.0402
 6903TIP3    H220643   5.538   1.484   6.972 -0.4473 -1.3012 -0.7215
 6904TIP3   OH220644   7.407   4.930   6.847 -0.7153 -0.1706 -0.0696
 6904TIP3    H120645   7.476   4.899   6.907  0.1601  0.8408 -0.5403
 6904TIP3    H220646   7.454   4.981   6.782 -2.1467  2.4008  0.8624
 6905TIP3   OH220647   4.171   1.758   5.674 -0.8034 -0.5204  0.6040
 6905TIP3    H120648   4.099   1.769   5.612  0.4339  1.1268 -0.5796
 6905TIP3    H220649   4.140   1.800   5.754 -0.8324  0.9987 -0.1855
 6906TIP3   OH220650   0.637   2.135   3.631  0.6360 -0.5082 -0.5060
 6906TIP3    H120651   0.633   2.070   3.561  0.8414  1.4270 -2.3694
 6906TIP3    H220652   0.653   2.084   3.710  3.0056 -2.5335 -2.2192
 6907TIP3   OH220653   7.194   4.157   6.026 -0.3677  0.0888 -0.5090
 6907TIP3    H120654   7.246   4.158   5.945 -1.1573  0.7426 -1.0143
 6907TIP3    H220655   7.184   4.064   6.046  1.0332 -0.0509 -0.3773
 6908TIP3   OH220656   7.173   1.832   3.549 -0.0966 -0.2366 -0.5170
 6908TIP3    H120657   7.209   1.847   3.462 -0.8765 -0.1357 -0.8313
 6908TIP3    H220658   7.222   1.891   3.606  1.2482 -1.1805 -0.6866
 6909TIP3   OH220659   6.064   1.127   3.105 -0.8588  0.1837 -0.2707
 6909TIP3    H120660   6.107   1.063   3.048  0.6463  1.9944 -1.2166
 6909TIP3    H220661   5.982   1.149   3.061 -1.0978 -0.6169 -0.2370
 6910TIP3   OH220662   7.857   1.840   6.765 -0.1182  0.1431  0.1180
 6910TIP3    H120663   7.769   1.847   6.802  0.1619  2.0332  0.4674
 6910TIP3    H220664   7.910   1.900   6.817  1.3680 -0.8944 -0.1706
 6911TIP3   OH220665   6.551   1.982   5.475 -0.2282  0.4456  0.5640
 6911TIP3    H120666   6.478   1.945   5.524  0.8755 -1.1632  1.0123
 6911TIP3    H220667   6.585   2.052   5.531  1.3564 -1.7187  2.3731
 6912TIP3   OH220668   0.214   6.180   1.213  0.4254  0.1697  0.1689
 6912TIP3    H120669   0.169   6.234   1.278  1.2384  1.4912 -0.3371
 6912TIP3    H220670   0.269   6.120   1.265 -0.2775  0.0149  0.7284
 6913TIP3   OH220671   6.535   2.828   2.571 -0.2346  0.0685 -0.3606
 6913TIP3    H120672   6.501   2.912   2.601 -2.7331 -0.6175 -1.1347
 6913TIP3    H220673   6.467   2.764   2.594  0.8060 -1.4725 -1.4058
 6914TIP3   OH220674   3.234   7.812   6.111  0.4705 -0.1776 -0.1507
 6914TIP3    H120675   3.268   7.882   6.167 -0.1482  0.3118 -0.3833
 6914TIP3    H220676   3.213   7.741   6.171 -2.6432  1.2853  0.5580
 6915TIP3   OH220677   6.417   2.769   0.923  0.3012 -0.9623  0.2816
 6915TIP3    H120678   6.357   2.704   0.888  0.1439 -0.9515  0.5329
 6915TIP3    H220679   6.462   2.803   0.846 -0.3076 -0.6769  0.0488
 6916TIP3   OH220680   5.679   3.101   5.056  0.2121  0.1687 -0.5653
 6916TIP3    H120681   5.663   3.035   4.988 -0.0064 -2.0572  1.5903
 6916TIP3    H220682   5.607   3.163   5.045  0.3817  0.0683 -2.5860
 6917TIP3   OH220683   7.018   2.471   5.750 -0.1302  0.0422 -0.3162
 6917TIP3    H120684   7.006   2.490   5.657 -1.8265 -0.0925 -0.1421
 6917TIP3    H220685   7.110   2.493   5.768  0.3541 -0.4175 -2.1288
 6918TIP3   OH220686   6.782   4.002   4.234  0.2290 -0.4133 -0.9456
 6918TIP3    H120687   6.862   3.985   4.283  0.7051 -0.6959 -1.8035
 6918TIP3    H220688   6.719   3.940   4.269  0.5338 -0.5486 -0.6291
 6919TIP3   OH220689   0.175   1.109   3.642 -0.1089  0.3394 -0.0842
 6919TIP3    H120690   0.258   1.156   3.632  0.6240 -0.8844  0.0874
 6919TIP3    H220691   0.173   1.085   3.735 -0.4182 -0.0547 -0.1941
 6920TIP3   OH220692   7.892   3.224   4.108 -0.7613  0.2422 -0.2082
 6920TIP3    H120693   7.936   3.230   4.023 -0.8160  1.1439 -0.1677
 6920TIP3    H220694   7.805   3.188   4.088  0.0225 -1.6960 -0.2707
 6921TIP3   OH220695   6.036   1.591   4.810 -0.5610 -0.1943  0.4257
 6921TIP3    H120696   6.113   1.629   4.853 -1.0952  0.1241  1.1214
 6921TIP3    H220697   6.060   1.586   4.717  0.2862 -0.0823  0.6290
 6922TIP3   OH220698   6.907   0.582   4.803 -0.4375 -0.3328 -0.5207
 6922TIP3    H120699   6.956   0.641   4.746  1.6713 -3.0253 -1.5848
 6922TIP3    H220700   6.845   0.538   4.744 -0.2283 -1.0253 -0.2372
 6923TIP3   OH220701   6.790   1.951   4.337 -0.2645  0.0153  0.1526
 6923TIP3    H120702   6.843   1.904   4.401  2.1329 -0.0904 -1.7942
 6923TIP3    H220703   6.756   1.883   4.279  0.3720  0.3538 -0.6375
 6924TIP3   OH220704   6.346   1.501   4.050  0.2685  0.4465 -0.3590
 6924TIP3    H120705   6.403   1.505   4.126  0.1338 -0.4166 -0.2084
 6924TIP3    H220706   6.298   1.419   4.059 -0.2350  0.6555 -1.0267
 6925TIP3   OH220707   1.615   1.026   6.760  0.5207  0.1574 -0.0578
 6925TIP3    H120708   1.528   1.066   6.760  0.5741  0.3071 -1.2846
 6925TIP3    H220709   1.603   0.941   6.801  0.2245  1.0609  1.7471
 6926TIP3   OH220710   5.057   2.516   3.535 -0.1027 -0.4252 -0.0860
 6926TIP3    H120711   5.152   2.515   3.522 -0.0524 -0.0820  0.2529
 6926TIP3    H220712   5.041   2.447   3.599 -0.1617 -0.9663 -0.6824
 6927TIP3   OH220713   6.898   2.195   2.903  0.2168  0.3215 -0.0711
 6927TIP3    H120714   6.844   2.272   2.889 -0.6432 -0.2677 -0.0653
 6927TIP3    H220715   6.839   2.132   2.946  0.0487 -1.3464 -2.6124
 6928TIP3   OH220716   5.358   7.734   5.394 -0.5686 -0.3227 -0.2759
 6928TIP3    H120717   5.327   7.777   5.314  0.3443 -0.4134 -0.6860
 6928TIP3    H220718   5.445   7.771   5.408 -0.0954 -1.4541 -0.1895
 6929TIP3   OH220719   6.517   4.407   2.474  0.1062 -0.6135 -0.0156
 6929TIP3    H120720   6.595   4.411   2.529  0.9034 -0.9824 -1.0869
 6929TIP3    H220721   6.488   4.316   2.479  1.5492 -1.2356 -2.0024
 6930TIP3   OH220722   5.482   4.312   1.811  0.2578 -0.2147  0.1261
 6930TIP3    H120723   5.430   4.247   1.763 -0.3267  0.5407 -0.2882
 6930TIP3    H220724   5.562   4.320   1.760  0.8445 -1.4575  0.8201
 6931TIP3   OH220725   4.738   2.480   5.898  0.2889  0.2168  0.1357
 6931TIP3    H120726   4.727   2.481   5.803  2.3526 -3.0079 -0.1925
 6931TIP3    H220727   4.658   2.438   5.931  0.9404 -1.5057 -0.4405
 6932TIP3   OH220728   5.988   2.836   3.742  0.0411 -0.2822  0.0652
 6932TIP3    H120729   5.995   2.855   3.649 -0.7747  0.9257  0.2338
 6932TIP3    H220730   5.990   2.922   3.784  2.3355 -0.9283  1.3087
 6933TIP3   OH220731   8.449   5.471   2.875 -0.2641 -0.4859  0.3936
 6933TIP3    H120732   8.358   5.494   2.893  0.0185  0.6428  0.3603
 6933TIP3    H220733   8.463   5.496   2.784 -0.0584 -1.1278  0.2415
 6934TIP3   OH220734   8.321   3.866   3.949 -0.4784 -0.2092 -0.3949
 6934TIP3    H120735   8.240   3.823   3.923 -0.2665 -1.7083  1.2599
 6934TIP3    H220736   8.312   3.879   4.044  1.9125 -2.0154  0.1259
 6935TIP3   OH220737   6.334   2.895   4.897  0.6187  0.3513 -0.3093
 6935TIP3    H120738   6.417   2.921   4.936  0.7256 -1.6684  0.8505
 6935TIP3    H220739   6.349   2.806   4.866 -1.2334 -0.1706  0.2643
 6936TIP3   OH220740   6.985   2.103   3.144 -0.4967  0.2239 -0.0732
 6936TIP3    H120741   7.039   2.030   3.113 -1.4180 -0.7175  0.5219
 6936TIP3    H220742   6.964   2.152   3.065 -1.4147 -1.1981 -0.7293
 6937TIP3   OH220743   5.656   3.695   5.374 -0.0602 -1.1538 -0.2190
 6937TIP3    H120744   5.727   3.746   5.412 -0.5963 -1.2996  1.0051
 6937TIP3    H220745   5.591   3.688   5.444 -1.4564 -0.6910 -1.4281
 6938TIP3   OH220746   7.474   2.492   4.150 -0.0118  0.3430  0.3326
 6938TIP3    H120747   7.429   2.442   4.082 -0.1498 -0.4813  1.0244
 6938TIP3    H220748   7.564   2.501   4.117 -0.0275 -0.2175  0.1349
 6939TIP3   OH220749   6.950   4.967   4.739  0.2762  0.3759 -0.1645
 6939TIP3    H120750   6.901   4.923   4.809  1.3173  0.2725  0.5164
 6939TIP3    H220751   6.899   5.046   4.719 -2.6610 -2.0354 -2.7373
 6940TIP3   OH220752   7.291   2.941   1.527 -0.2436  0.4634 -0.5161
 6940TIP3    H120753   7.228   2.885   1.572  1.8354 -1.7328 -0.2464
 6940TIP3    H220754   7.319   3.004   1.594 -2.3231  1.6652 -0.7253
 6941TIP3   OH220755   5.890   1.950   2.660  0.4680  0.0052  0.0359
 6941TIP3    H120756   5.919   2.021   2.603 -1.1414  1.0106  0.4292
 6941TIP3    H220757   5.854   1.884   2.601  0.8830  0.0329 -0.2521
 6942TIP3   OH220758   7.344   1.257   4.146  0.0358  0.0732 -0.5499
 6942TIP3    H120759   7.329   1.349   4.127  0.6617 -0.1846 -2.3515
 6942TIP3    H220760   7.361   1.217   4.061 -0.7723 -1.8092  0.1418
 6943TIP3   OH220761   4.923   2.505   4.366  0.0782 -0.2875  0.1067
 6943TIP3    H120762   4.847   2.447   4.372  0.0869 -0.2352  0.6871
 6943TIP3    H220763   4.886   2.593   4.367  0.1283 -0.2667  0.1235
 6944TIP3   OH220764   7.959   3.242   5.306 -0.0913 -0.0273 -0.0675
 6944TIP3    H120765   8.021   3.307   5.272 -1.3752  0.4322 -1.5422
 6944TIP3    H220766   7.907   3.290   5.371  0.7490 -0.2961  0.8281
 6945TIP3   OH220767   6.218   1.238   4.094  0.5240  0.0483  0.0508
 6945TIP3    H120768   6.310   1.217   4.081  0.7262  0.8441  0.1449
 6945TIP3    H220769   6.189   1.181   4.165  0.5945 -1.1356 -0.8465
 6946TIP3   OH220770   6.344   1.644   3.138 -0.5468  0.1053  0.5112
 6946TIP3    H120771   6.278   1.578   3.161 -1.1683  0.5295 -0.0469
 6946TIP3    H220772   6.389   1.607   3.062  1.4786 -1.2773  2.3204
 6947TIP3   OH220773   5.864   2.241   4.008  0.1065 -0.3251  0.2167
 6947TIP3    H120774   5.940   2.289   4.041  0.4178 -0.3583 -0.4457
 6947TIP3    H220775   5.798   2.250   4.077  0.6898 -0.2425  0.7678
 6948TIP3   OH220776   8.071   2.053   3.891 -0.7802  0.0143  0.5036
 6948TIP3    H120777   8.133   2.113   3.932 -2.1966  0.5017  1.9729
 6948TIP3    H220778   8.059   2.087   3.802 -0.4485  1.0495  0.8505
 6949TIP3   OH220779   7.503   1.822   4.521  0.0689 -0.8386 -0.5707
 6949TIP3    H120780   7.469   1.792   4.606  0.6278  0.7632  0.2283
 6949TIP3    H220781   7.553   1.901   4.541  0.9535 -0.9366 -2.2834
 6950TIP3   OH220782   5.652   2.985   2.618 -0.1879 -0.0415  0.3001
 6950TIP3    H120783   5.624   3.073   2.592  0.7266 -0.0689 -0.8066
 6950TIP3    H220784   5.696   2.950   2.541  0.5716 -0.9915  1.1520
 6951TIP3   OH220785   6.714   1.310   4.921 -0.5989  0.1829 -0.1921
 6951TIP3    H120786   6.649   1.310   4.991 -1.5140 -2.2765 -0.9661
 6951TIP3    H220787   6.786   1.257   4.955  0.1123  1.1783 -0.1252
 6952TIP3   OH220788   6.804   1.010   4.939 -0.3107  0.3917 -0.4327
 6952TIP3    H120789   6.790   1.013   5.033 -0.1868 -0.1114 -0.3973
 6952TIP3    H220790   6.741   0.945   4.907 -0.8171  1.0522 -0.7844
 6953TIP3   OH220791   7.099   1.894   4.443 -0.2423  0.4157 -0.0591
 6953TIP3    H120792   7.073   1.948   4.518 -2.2262  1.0123 -1.1308
 6953TIP3    H220793   7.168   1.944   4.399 -0.8947  1.3032 -0.0878
 6954TIP3   OH220794   4.845   3.242   6.172 -0.1864  0.3092 -0.4017
 6954TIP3    H120795   4.903   3.317   6.188 -0.4643  0.5995 -0.7435
 6954TIP3    H220796   4.903   3.176   6.132  0.6254 -0.6253  2.2359
 6955TIP3   OH220797   7.946   3.951   5.703  0.1140 -0.1218 -0.3603
 6955TIP3    H120798   7.985   3.889   5.765 -1.5367  0.6803  1.5659
 6955TIP3    H220799   7.858   3.966   5.738  0.0345  2.3091 -1.5112
 6956TIP3   OH220800   7.210   3.074   5.284  0.4268  0.2587  0.6168
 6956TIP3    H120801   7.155   3.109   5.354  0.3782  0.7799  0.3228
 6956TIP3    H220802   7.277   3.022   5.329  1.2689  1.7682  1.1602
 6957TIP3   OH220803   5.044   0.644   3.633 -0.0180  0.0329 -0.4804
 6957TIP3    H120804   5.026   0.711   3.566 -0.0871  0.7575  0.2537
 6957TIP3    H220805   5.038   0.561   3.586 -2.9095  0.3625 -0.7939
 6958TIP3   OH220806   6.341   3.181   1.758 -0.7812 -0.6722 -0.8805
 6958TIP3    H120807   6.319   3.097   1.718 -0.3531 -0.6470 -1.1729
 6958TIP3    H220808   6.293   3.245   1.707 -0.1938 -0.6351 -1.3978
 6959TIP3   OH220809   4.478   0.633   6.333 -0.0073  0.1053 -0.4716
 6959TIP3    H120810   4.409   0.582   6.290 -1.5302  1.4051  0.3729
 6959TIP3    H220811   4.503   0.699   6.269 -1.2100  1.0948  0.0647
 6960TIP3   OH220812   6.027   2.586   3.900 -0.1091  0.2083 -0.6921
 6960TIP3    H120813   5.935   2.585   3.875  0.1119 -1.0913 -1.4596
 6960TIP3    H220814   6.054   2.678   3.887 -1.9295  1.1513  1.9781
 6961TIP3   OH220815   6.269   3.307   2.988 -0.1885  0.2176 -0.5045
 6961TIP3    H120816   6.294   3.265   2.906  1.0426 -0.6734  0.3216
 6961TIP3    H220817   6.186   3.350   2.968  0.1172  0.0380 -2.2254
 6962TIP3   OH220818   5.915   3.914   4.514  0.2361 -0.6828 -0.9604
 6962TIP3    H120819   5.887   3.948   4.430 -0.6749  1.2557  0.0827
 6962TIP3    H220820   5.879   3.976   4.578  0.3864 -2.4433  0.8848
 6963TIP3   OH220821   6.562   4.555   4.118 -0.4903 -0.3268 -0.4173
 6963TIP3    H120822   6.597   4.639   4.149  3.5301 -2.0532 -0.0398
 6963TIP3    H220823   6.496   4.531   4.184  0.3106  1.2020  0.9833
 6964TIP3   OH220824   8.251   0.446   5.243  0.0965  0.4167  0.2960
 6964TIP3    H120825   8.226   0.538   5.257 -0.1858  0.3937 -0.0335
 6964TIP3    H220826   8.331   0.451   5.190  0.0819  0.4738  0.2790
 6965TIP3   OH220827   6.680   2.195   5.682 -0.0057 -0.7891 -0.6295
 6965TIP3    H120828   6.615   2.177   5.749  0.9558 -0.6989  0.3352
 6965TIP3    H220829   6.677   2.290   5.670  0.5338 -0.6766  0.0413
 6966TIP3   OH220830   4.974   3.246   3.056  0.5379 -0.2666 -0.1730
 6966TIP3    H120831   5.055   3.210   3.091 -0.9668 -1.6892  1.9713
 6966TIP3    H220832   4.914   3.171   3.050 -0.7201  0.7996 -1.4634
 6967TIP3   OH220833   6.155   2.591   3.623 -0.1104 -0.1996  0.3453
 6967TIP3    H120834   6.094   2.570   3.693  0.6263  0.6393  1.2577
 6967TIP3    H220835   6.232   2.626   3.668  0.3011  0.5057 -0.8838
 6968TIP3   OH220836   6.243   3.690   3.956 -0.5058  0.1005  0.1101
 6968TIP3    H120837   6.300   3.691   3.879 -1.1231 -1.4478 -0.3877
 6968TIP3    H220838   6.178   3.759   3.939  1.2213  1.8955  0.7028
 6969TIP3   OH220839   8.340   5.777   5.266 -0.2680 -0.3078 -0.0775
 6969TIP3    H120840   8.276   5.804   5.201 -0.6748  0.4990  0.6448
 6969TIP3    H220841   8.401   5.722   5.218 -0.6075  0.2097 -1.1181
 6970TIP3   OH220842   5.982   3.901   2.180 -0.1361 -0.0533 -0.0943
 6970TIP3    H120843   5.935   3.841   2.236  0.1084  0.9074  1.1709
 6970TIP3    H220844   5.920   3.972   2.162  0.0856  0.1018 -0.2613
 6971TIP3   OH220845   5.371   3.575   5.333 -0.3407  0.2481 -0.7040
 6971TIP3    H120846   5.412   3.604   5.415  1.5472 -1.2580 -1.0969
 6971TIP3    H220847   5.349   3.657   5.288 -0.4578  1.0859  0.8343
 6972TIP3   OH220848   4.728   1.270   2.552 -0.2639 -0.4708 -0.3807
 6972TIP3    H120849   4.746   1.213   2.627 -0.2355 -0.6284 -0.5073
 6972TIP3    H220850   4.635   1.259   2.535 -0.3588 -0.1076 -0.0990
 6973TIP3   OH220851   7.160   2.522   3.211  0.1496  0.4290  0.4271
 6973TIP3    H120852   7.078   2.490   3.246  0.6875 -2.0185 -0.4703
 6973TIP3    H220853   7.223   2.512   3.283 -0.1904  1.7216  0.9120
 6974TIP3   OH220854   7.467   0.673   5.943  0.0309  0.1376 -0.2092
 6974TIP3    H120855   7.436   0.585   5.923 -2.2954  0.9613 -0.4364
 6974TIP3    H220856   7.533   0.660   6.011  0.8985 -1.8996 -1.4069
 6975TIP3   OH220857   7.702   0.570   4.899  0.1318 -0.2836 -0.5279
 6975TIP3    H120858   7.623   0.576   4.847  1.6297 -0.2916 -2.8910
 6975TIP3    H220859   7.712   0.477   4.918 -0.4831 -0.2646 -0.1101
 6976TIP3   OH220860   7.356   2.678   3.010 -0.7110 -0.0396  0.2498
 6976TIP3    H120861   7.313   2.593   2.995 -0.7595 -0.0716  0.5672
 6976TIP3    H220862   7.295   2.742   2.975 -0.6380 -0.1410 -0.0673
 6977TIP3   OH220863   6.088   2.400   4.320  0.5819  0.2166 -0.4134
 6977TIP3    H120864   6.015   2.461   4.327 -0.9421 -1.7005  0.8295
 6977TIP3    H220865   6.098   2.384   4.227 -0.9040  0.1155 -0.5509
 6978TIP3   OH220866   6.668   2.034   5.982 -0.4818  0.4817 -0.3928
 6978TIP3    H120867   6.751   2.082   5.986 -0.1278 -0.0867 -0.8922
 6978TIP3    H220868   6.649   2.013   6.074 -1.0803  2.2988 -0.0738
 6979TIP3   OH220869   8.393   1.706   5.201  0.4963 -0.3452 -0.3717
 6979TIP3    H120870   8.390   1.704   5.105 -1.0671  1.7549 -0.3873
 6979TIP3    H220871   8.315   1.660   5.229  0.4037 -0.0334 -0.1130
 6980TIP3   OH220872   6.344   2.636   2.966  0.0390 -0.0595 -0.6167
 6980TIP3    H120873   6.378   2.555   3.003 -1.0499  0.4054  1.4645
 6980TIP3    H220874   6.254   2.615   2.940  0.6679 -0.2784 -2.7221
 6981TIP3   OH220875   4.473   2.334   2.461  0.1282 -0.4143 -0.2953
 6981TIP3    H120876   4.531   2.282   2.405 -0.1571 -0.2970 -0.7010
 6981TIP3    H220877   4.390   2.286   2.460  0.0337 -0.2529 -0.2156
 6982TIP3   OH220878   5.700   2.579   3.954 -0.4165  0.8356 -0.2613
 6982TIP3    H120879   5.656   2.532   4.025  0.5940 -0.3312 -0.3852
 6982TIP3    H220880   5.751   2.647   3.998 -1.5130  1.5265 -0.0446
 6983TIP3   OH220881   3.721   0.345   1.842 -0.0193 -0.1410  0.2215
 6983TIP3    H120882   3.676   0.276   1.891  1.0162 -1.2751 -0.3908
 6983TIP3    H220883   3.701   0.326   1.750  0.5103  0.2003  0.0325
 6984TIP3   OH220884   7.709   1.641   1.879  0.1470  0.1532  0.2265
 6984TIP3    H120885   7.788   1.695   1.876  0.9522 -1.0204 -0.1762
 6984TIP3    H220886   7.674   1.655   1.967  1.2933  0.0091  0.7137
 6985TIP3   OH220887   6.457   4.143   2.442 -0.1302  0.0970 -0.1918
 6985TIP3    H120888   6.377   4.111   2.485 -0.5818  1.3590 -0.0820
 6985TIP3    H220889   6.446   4.117   2.350 -0.6863  0.2958 -0.1842
 6986TIP3   OH220890   6.786   4.068   5.568  0.1283  0.3936  0.0278
 6986TIP3    H120891   6.768   3.988   5.618  0.9910 -0.8662 -1.6308
 6986TIP3    H220892   6.710   4.124   5.584 -0.0358 -0.3435  2.0054
 6987TIP3   OH220893   6.650   1.353   3.733  0.2032  0.2051  0.1968
 6987TIP3    H120894   6.669   1.298   3.808  2.4060  0.9342  0.2013
 6987TIP3    H220895   6.555   1.362   3.734 -0.0449 -2.1780  1.1719
 6988TIP3   OH220896   5.509   3.294   3.298 -0.1116 -0.2980 -0.6189
 6988TIP3    H120897   5.535   3.284   3.206  0.4348 -2.3218 -0.2783
 6988TIP3    H220898   5.532   3.210   3.338  0.9881  1.0686  1.6969
 6989TIP3   OH220899   5.056   7.611   5.369  0.2688  0.3566 -0.2202
 6989TIP3    H120900   5.061   7.516   5.360 -0.8912  0.1049  1.6258
 6989TIP3    H220901   5.029   7.641   5.282 -2.9347 -1.3357  0.1107
 6990TIP3   OH220902   7.842   4.387   5.551  0.3747 -0.0830  0.2654
 6990TIP3    H120903   7.863   4.456   5.614  1.0349 -0.9496  0.9986
 6990TIP3    H220904   7.904   4.400   5.480 -1.8762  2.3547 -1.3385
 6991TIP3   OH220905   5.768   2.216   5.123 -0.0756  0.4841 -0.2169
 6991TIP3    H120906   5.811   2.286   5.074  0.9844  0.4599  0.6745
 6991TIP3    H220907   5.740   2.258   5.205 -3.1498  0.9093 -1.4128
 6992TIP3   OH220908   6.237   3.292   5.457 -0.5350 -0.2585 -0.0282
 6992TIP3    H120909   6.328   3.304   5.481 -0.9321 -0.4082  1.5737
 6992TIP3    H220910   6.229   3.198   5.438  0.1384  0.1122 -2.3740
 6993TIP3   OH220911   6.291   1.372   2.639 -0.1870 -0.2030 -0.3783
 6993TIP3    H120912   6.342   1.367   2.558  0.9961 -2.7467  0.4659
 6993TIP3    H220913   6.201   1.352   2.613 -0.1719  0.9296 -1.3419
 6994TIP3   OH220914   6.089   1.536   4.052 -0.0630 -0.7928  0.6116
 6994TIP3    H120915   6.182   1.524   4.070  0.2544  1.2756  0.5086
 6994TIP3    H220916   6.056   1.586   4.126 -0.1807  2.0235 -1.2673
 6995TIP3   OH220917   0.068   1.374   4.113 -0.7257 -0.4519  0.5677
 6995TIP3    H120918   0.015   1.392   4.191 -0.5628 -0.2235  0.6256
 6995TIP3    H220919   0.130   1.447   4.109 -0.2599 -0.8394  0.6325
 6996TIP3   OH220920   1.474   3.377   1.090  0.0153 -0.2429 -0.1626
 6996TIP3    H120921   1.407   3.426   1.042 -0.8521 -1.2933 -0.0536
 6996TIP3    H220922   1.478   3.292   1.046 -1.4730 -1.5657  2.1333
 6997TIP3   OH220923   8.148   2.341   5.343  0.0568  0.2846  0.1462
 6997TIP3    H120924   8.162   2.247   5.327 -0.6291 -0.0237  1.3292
 6997TIP3    H220925   8.174   2.383   5.261  2.1237 -0.7893  0.2103
 6998TIP3   OH220926   8.210   2.287   4.020 -0.2165 -0.2186  0.1361
 6998TIP3    H120927   8.285   2.295   3.961  0.4918 -1.4826  0.8410
 6998TIP3    H220928   8.237   2.331   4.100  0.0281 -1.2509  0.6228
 6999TIP3   OH220929   1.030   2.476   3.587  0.5161  0.4294  0.0361
 6999TIP3    H120930   1.103   2.417   3.605  0.3035  0.5154  1.2187
 6999TIP3    H220931   0.971   2.425   3.531  0.7737 -0.1584  0.2934
 7000TIP3   OH220932   6.533   3.403   2.492 -0.6338 -0.4807 -0.2710
 7000TIP3    H120933   6.438   3.389   2.492 -0.8091  0.6318  0.0770
 7000TIP3    H220934   6.559   3.387   2.583 -0.5409 -0.4697 -0.2962
 7001TIP3   OH220935   7.943   1.289   5.922  0.0543 -0.3991 -0.4840
 7001TIP3    H120936   7.960   1.292   5.827  0.5526 -0.9766 -0.4189
 7001TIP3    H220937   7.902   1.204   5.936 -1.7531  0.4700 -0.4480
 7002TIP3   OH220938   7.091   3.032   3.576 -0.2264  0.1418 -0.1824
 7002TIP3    H120939   7.089   3.126   3.559 -1.6396  0.2077  0.2434
 7002TIP3    H220940   7.167   3.019   3.632  0.5320  0.8931 -1.0240
 7003TIP3   OH220941   6.960   2.684   2.033 -0.5091  0.5373 -0.4052
 7003TIP3    H120942   6.865   2.678   2.023 -0.3140  0.9593 -2.6609
 7003TIP3    H220943   6.979   2.778   2.031 -0.2635  0.6115  2.5792
 7004TIP3   OH220944   7.047   2.183   4.855 -0.2719  0.3901  0.1182
 7004TIP3    H120945   6.957   2.201   4.829 -0.0772  0.7458 -0.3160
 7004TIP3    H220946   7.101   2.229   4.790  0.2229  1.9262  1.5903
 7005TIP3   OH220947   8.038   1.302   4.998 -0.2129  0.4313 -0.0742
 7005TIP3    H120948   8.055   1.220   4.952  0.7726  0.5124  0.1501
 7005TIP3    H220949   7.942   1.305   5.006 -0.4335  0.6352 -2.5095
 7006TIP3   OH220950   0.967   3.772   5.001 -0.4513 -0.0894  0.5682
 7006TIP3    H120951   0.880   3.782   4.962 -1.1448 -2.0761  1.4855
 7006TIP3    H220952   0.977   3.848   5.058 -0.9834  0.8918 -0.6477
 7007TIP3   OH220953   0.947   6.222   0.224  0.0348  0.2711 -0.8256
 7007TIP3    H120954   0.869   6.218   0.279  0.1653  1.8970 -0.4828
 7007TIP3    H220955   0.941   6.146   0.167  0.0017 -1.5963  1.5807
 7008TIP3   OH220956   7.532   2.652   3.693 -0.1476 -0.4574  0.2279
 7008TIP3    H120957   7.529   2.558   3.710  0.6143 -0.7956 -1.3982
 7008TIP3    H220958   7.536   2.692   3.780 -1.5804 -1.8636  0.9799
 7009TIP3   OH220959   1.118   3.679   3.468  0.3977  0.6427 -0.3671
 7009TIP3    H120960   1.059   3.679   3.392 -0.7716  0.9136  0.5344
 7009TIP3    H220961   1.128   3.771   3.491  0.4735  0.5341  0.0382
 7010TIP3   OH220962   7.402   3.176   2.843  0.3477 -0.1607  0.3885
 7010TIP3    H120963   7.325   3.124   2.863  0.8620 -1.4030 -0.7529
 7010TIP3    H220964   7.368   3.259   2.810 -0.4818  0.1975  2.1231
 7011TIP3   OH220965   0.322   2.539   4.182 -0.2750 -0.5807  0.0039
 7011TIP3    H120966   0.307   2.577   4.269  0.7420  0.2207 -0.1658
 7011TIP3    H220967   0.274   2.596   4.122 -0.7378 -0.9671  0.0020
 7012TIP3   OH220968   6.395   3.346   3.706  0.1339  0.4740 -0.3657
 7012TIP3    H120969   6.479   3.306   3.728 -0.0683 -0.7635 -1.7929
 7012TIP3    H220970   6.413   3.397   3.628 -0.3242  0.6409 -0.3634
 7013TIP3   OH220971   6.596   3.462   3.011  0.2071  0.6218 -0.0079
 7013TIP3    H120972   6.503   3.450   3.030 -0.4532  3.2158 -1.3115
 7013TIP3    H220973   6.618   3.546   3.050  2.5070 -0.7492  1.8203
 7014TIP3   OH220974   0.280   2.383   5.636  0.1854  0.3278 -0.3106
 7014TIP3    H120975   0.240   2.460   5.596 -2.3357 -0.6325  0.2650
 7014TIP3    H220976   0.330   2.417   5.710 -0.4650  1.4778 -0.3851
 7015TIP3   OH220977   0.793   3.778   4.026 -0.3101  0.1848 -0.2656
 7015TIP3    H120978   0.735   3.715   3.983 -0.3839  1.1141 -1.5510
 7015TIP3    H220979   0.752   3.863   4.011  0.9414  0.7705 -0.4943
 7016TIP3   OH220980   7.674   2.861   3.508 -0.3676  0.1436  0.0220
 7016TIP3    H120981   7.744   2.902   3.458 -0.4208 -1.7730 -1.6813
 7016TIP3    H220982   7.613   2.933   3.527  2.3827  1.9898  2.2203
 7017TIP3   OH220983   7.513   3.986   5.608  0.0892  0.4092 -0.4124
 7017TIP3    H120984   7.557   4.069   5.589  1.2926  0.0421  0.7044
 7017TIP3    H220985   7.580   3.919   5.593 -0.6819 -0.3115 -0.6740
 7018TIP3   OH220986   7.196   3.577   4.821  0.1398 -0.2009 -0.8684
 7018TIP3    H120987   7.111   3.557   4.781  0.5410  0.0575 -1.8665
 7018TIP3    H220988   7.251   3.502   4.799 -0.1020 -0.8354  0.6292
 7019TIP3   OH220989   6.436   2.306   3.683 -0.2693 -0.4402  0.3436
 7019TIP3    H120990   6.524   2.268   3.685 -0.4606 -0.8989  0.1237
 7019TIP3    H220991   6.432   2.355   3.602  0.1590  0.4896  0.8817
 7020TIP3   OH220992   0.396   1.007   4.739 -0.8308  0.4858  0.1122
 7020TIP3    H120993   0.357   1.082   4.784 -0.5748  0.2917  0.6664
 7020TIP3    H220994   0.364   1.013   4.649 -0.2659  1.6510 -0.0244
 7021TIP3   OH220995   0.241   0.286   2.423 -0.3572 -0.5029 -0.2634
 7021TIP3    H120996   0.153   0.251   2.432 -0.0340 -0.6515  2.5898
 7021TIP3    H220997   0.239   0.369   2.471  0.0640  1.3459 -3.3101
 7022TIP3   OH220998   8.155   1.812   4.685  0.5917 -0.8743 -0.1243
 7022TIP3    H120999   8.119   1.795   4.772 -0.8450 -0.9112 -0.7193
 7022TIP3    H221000   8.143   1.729   4.638  0.6648 -0.6205 -0.5917
 7023TIP3   OH221001   0.484   0.885   2.273  0.2642 -0.0843 -0.2463
 7023TIP3    H121002   0.414   0.851   2.329 -0.5611  0.2596 -1.0504
 7023TIP3    H221003   0.537   0.808   2.251 -0.9713 -0.6922 -1.1868
 7024TIP3   OH221004   6.961   2.397   3.371 -0.3154 -0.0903 -0.5242
 7024TIP3    H121005   6.973   2.362   3.459  0.9503  0.3511 -0.5037
 7024TIP3    H221006   6.874   2.437   3.372  0.0941  0.7978  0.8221
 7025TIP3   OH221007   8.111   1.129   5.309  0.1675  0.1746  0.5440
 7025TIP3    H121008   8.018   1.141   5.288  0.6256 -0.0834 -1.7522
 7025TIP3    H221009   8.114   1.046   5.358 -0.6869 -0.3888 -0.3402
 7026TIP3   OH221010   0.441   2.505   5.828 -0.2614  0.5080 -0.1627
 7026TIP3    H121011   0.487   2.578   5.786 -0.7201  1.0866  0.3427
 7026TIP3    H221012   0.455   2.518   5.922 -3.0839  1.8094  0.1317
 7027TIP3   OH221013   6.211   3.792   3.650  0.0944  0.0687 -0.0034
 7027TIP3    H121014   6.220   3.778   3.555  0.1029  0.4965 -0.0633
 7027TIP3    H221015   6.159   3.871   3.658  1.3522  0.8777  0.3499
 7028TIP3   OH221016   8.273   4.248   3.246  0.2749 -0.1872  0.0939
 7028TIP3    H121017   8.334   4.276   3.178 -0.2629  2.0831  0.4992
 7028TIP3    H221018   8.235   4.167   3.212  1.7881 -0.3684 -1.2092
 7029TIP3   OH221019   8.288   1.400   3.404 -0.6295 -0.2495 -0.4714
 7029TIP3    H121020   8.280   1.438   3.317 -0.3977  0.6701 -0.0994
 7029TIP3    H221021   8.332   1.467   3.456 -0.9865 -0.6886  0.4174
 7030TIP3   OH221022   7.091   3.114   2.194 -0.2829  0.0294 -0.2185
 7030TIP3    H121023   7.151   3.043   2.216  0.6717  1.3965  1.8224
 7030TIP3    H221024   7.144   3.176   2.144 -0.1321  0.9434  1.0480
 7031TIP3   OH221025   8.409   1.973   3.794  0.1399  0.4131  0.7944
 7031TIP3    H121026   8.501   1.954   3.775  0.4512 -0.5788  3.0396
 7031TIP3    H221027   8.409   2.063   3.824  0.2352  0.7155 -0.1067
 7032TIP3   OH221028   8.021   2.852   4.482 -0.6009 -0.0363  0.0912
 7032TIP3    H121029   8.002   2.914   4.411 -1.2968  0.1880  0.4691
 7032TIP3    H221030   7.954   2.785   4.474  1.1869 -1.7190 -1.4175
 7033TIP3   OH221031   8.384   2.182   6.245 -0.2435 -0.2713  0.3284
 7033TIP3    H121032   8.397   2.096   6.284  0.2728 -1.3471 -2.1342
 7033TIP3    H221033   8.291   2.184   6.220 -0.1727 -0.2582  0.0591
 7034TIP3   OH221034   6.827   2.844   4.461 -0.0236  0.5448 -0.5589
 7034TIP3    H121035   6.806   2.805   4.376 -1.3070  0.8825 -0.4122
 7034TIP3    H221036   6.917   2.817   4.479 -0.2612 -0.7787 -1.3258
 7035TIP3   OH221037   0.364   3.741   2.100  0.1991  0.1225  0.3272
 7035TIP3    H121038   0.329   3.753   2.012  0.7980 -0.3219  0.0279
 7035TIP3    H221039   0.328   3.656   2.128  1.2110 -0.4522 -0.0741
 7036TIP3   OH221040   7.207   3.347   3.299 -0.1931 -0.3091 -0.2013
 7036TIP3    H121041   7.275   3.414   3.293 -0.6199 -0.0667 -3.8649
 7036TIP3    H221042   7.247   3.269   3.259 -1.3781 -0.7445 -0.5579
 7037TIP3   OH221043   8.308   4.411   4.647  0.2350 -0.8850 -0.2192
 7037TIP3    H121044   8.331   4.499   4.619  0.2047 -0.4871  0.9813
 7037TIP3    H221045   8.368   4.354   4.600  2.0209 -0.0388  0.9957
 7038TIP3   OH221046   7.726   1.941   4.873  0.2815 -0.3782  0.3843
 7038TIP3    H121047   7.698   1.869   4.930  1.9831  0.1901  2.0180
 7038TIP3    H221048   7.672   2.015   4.901 -0.8808 -0.8033 -0.7176
 7039TIP3   OH221049   6.562   3.439   3.381 -0.5234 -0.4893 -0.3891
 7039TIP3    H121050   6.517   3.486   3.451 -1.1326  0.5687 -1.4631
 7039TIP3    H221051   6.494   3.423   3.315  0.4830  0.4964 -1.7110
 7040TIP3   OH221052   0.230   2.303   3.287 -0.0562  0.2209 -0.2988
 7040TIP3    H121053   0.251   2.359   3.212 -1.6133  0.1618 -0.7779
 7040TIP3    H221054   0.165   2.353   3.336  1.3649  0.5107  1.3227
 7041TIP3   OH221055   1.068   2.737   4.383  0.6331 -0.2293  0.1769
 7041TIP3    H121056   1.052   2.780   4.299 -0.9778 -0.0897  0.5405
 7041TIP3    H221057   1.072   2.808   4.447  1.3541 -0.3721  0.2920
 7042TIP3   OH221058   7.128   2.786   1.295 -0.8266  0.1604  0.0991
 7042TIP3    H121059   7.105   2.701   1.332 -0.6739 -0.3963 -1.0895
 7042TIP3    H221060   7.222   2.781   1.279 -0.9003  0.3962 -0.3974
 7043TIP3   OH221061   7.246   1.655   5.651  0.8441 -0.2354 -0.2969
 7043TIP3    H121062   7.251   1.629   5.743 -0.5772  1.0113  0.1677
 7043TIP3    H221063   7.215   1.576   5.605 -0.7202 -0.2031  0.6631
 7044TIP3   OH221064   8.273   3.622   3.326 -0.0876 -0.0815  0.7645
 7044TIP3    H121065   8.195   3.567   3.315 -1.0715  1.2677  0.8905
 7044TIP3    H221066   8.318   3.617   3.242 -0.3525 -0.8062  0.6615
 7045TIP3   OH221067   6.340   2.866   3.937 -0.1657 -0.1105  0.1376
 7045TIP3    H121068   6.331   2.815   3.857 -0.4614 -0.8316  0.6252
 7045TIP3    H221069   6.415   2.923   3.921 -0.1163 -0.3705 -0.5804
 7046TIP3   OH221070   6.615   4.063   3.231  0.6100  0.0323 -0.0132
 7046TIP3    H121071   6.694   4.097   3.189  1.7305 -0.8599  1.3093
 7046TIP3    H221072   6.580   4.000   3.168  1.9244 -0.8290  0.1024
 7047TIP3   OH221073   1.140   3.193   5.325  0.5574  0.1051  0.8156
 7047TIP3    H121074   1.206   3.264   5.324  1.2693 -0.5502  0.7919
 7047TIP3    H221075   1.141   3.162   5.415 -0.1940  0.5273  0.9689
 7048TIP3   OH221076   8.117   2.345   1.650  0.1887 -0.3409 -0.3044
 7048TIP3    H121077   8.184   2.324   1.715  0.8366  0.3004 -0.7680
 7048TIP3    H221078   8.092   2.261   1.612  0.1032 -0.6743  0.4772
 7049TIP3   OH221079   1.341   1.666   3.756 -0.9501 -0.1159  0.3442
 7049TIP3    H121080   1.308   1.721   3.685  0.1821  0.2959  0.1304
 7049TIP3    H221081   1.262   1.624   3.792 -1.8036  1.4676  0.3677
 7050TIP3   OH221082   6.219   2.141   1.956 -0.3493 -0.0691 -0.4699
 7050TIP3    H121083   6.314   2.153   1.960 -0.3165 -0.6404  0.7541
 7050TIP3    H221084   6.208   2.046   1.943 -0.7736 -0.4279  2.1793
 7051TIP3   OH221085   7.481   1.508   4.454  0.5400  0.5434 -0.1295
 7051TIP3    H121086   7.436   1.563   4.390 -0.7646 -0.7606 -0.3745
 7051TIP3    H221087   7.473   1.555   4.537  0.9164  1.5218 -0.6406
 7052TIP3   OH221088   0.263   1.492   3.736  0.3415 -0.7035 -0.6096
 7052TIP3    H121089   0.180   1.527   3.704  0.3469  0.0471  0.2053
 7052TIP3    H221090   0.263   1.401   3.707 -0.2162 -0.3803 -1.6721
 7053TIP3   OH221091   5.675   3.966   3.914  0.4156  0.2254  0.4146
 7053TIP3    H121092   5.682   4.022   3.991  1.4365  0.4387  0.1760
 7053TIP3    H221093   5.658   4.027   3.842  0.1258  0.0876  0.3653
 7054TIP3   OH221094   7.053   2.568   6.858 -0.4601  0.2303 -0.2964
 7054TIP3    H121095   7.055   2.535   6.948 -0.0648 -0.5088 -0.5735
 7054TIP3    H221096   7.063   2.490   6.804  1.9376  0.9541 -0.9441
 7055TIP3   OH221097   7.505   4.977   3.938  0.0655 -0.0357 -0.2147
 7055TIP3    H121098   7.457   5.053   3.905  1.2417 -0.3126 -2.6242
 7055TIP3    H221099   7.597   5.002   3.932  0.4422 -1.4679 -0.5520
 7056TIP3   OH221100   1.167   3.136   2.924  0.1984 -0.0007  0.1533
 7056TIP3    H121101   1.133   3.095   2.845  0.1228 -0.1196  0.2471
 7056TIP3    H221102   1.124   3.089   2.996  1.3685 -0.8594  0.2907
 7057TIP3   OH221103   5.962   3.231   2.226 -0.2388 -0.4530 -1.0662
 7057TIP3    H121104   5.904   3.172   2.274 -1.5604  0.5344 -1.4090
 7057TIP3    H221105   5.915   3.249   2.144 -0.0621  1.4074 -0.7732
 7058TIP3   OH221106   7.781   3.633   1.332  0.1155  0.7176 -0.4069
 7058TIP3    H121107   7.865   3.672   1.310  0.3159 -0.5135 -1.8367
 7058TIP3    H221108   7.802   3.547   1.369 -0.3907  1.4491  1.6752
 7059TIP3   OH221109   1.511   1.896   3.776  0.0521  0.5196  0.0725
 7059TIP3    H121110   1.470   1.810   3.788 -1.1789  1.0960  0.0389
 7059TIP3    H221111   1.438   1.955   3.759  0.9670  1.4414 -0.6661
 7060TIP3   OH221112   8.230   5.822   4.483 -0.1149  0.6364 -0.2338
 7060TIP3    H121113   8.174   5.886   4.438 -0.2175 -0.0890 -1.1477
 7060TIP3    H221114   8.169   5.754   4.512  0.1251  0.4612 -0.1453
 7061TIP3   OH221115  -0.015   0.917   5.597  0.1110 -0.2628  0.4880
 7061TIP3    H121116   0.074   0.901   5.567  0.6559  0.6083  1.6067
 7061TIP3    H221117  -0.050   0.830   5.617  0.4809 -0.6589 -0.5682
 7062TIP3   OH221118   7.468   2.785   4.201 -0.1997 -0.1677 -0.0233
 7062TIP3    H121119   7.489   2.693   4.182 -1.5923 -0.6457  0.6679
 7062TIP3    H221120   7.383   2.798   4.161 -0.0506  0.8055 -0.0220
 7063TIP3   OH221121   7.700   2.974   2.531 -0.1110 -0.5021  0.3216
 7063TIP3    H121122   7.779   3.027   2.540  0.2982 -1.2010  0.9168
 7063TIP3    H221123   7.714   2.923   2.451 -0.1956 -0.2315  0.1344
 7064TIP3   OH221124   0.328   1.582   2.153 -0.0217  0.3048  0.2691
 7064TIP3    H121125   0.234   1.599   2.139 -0.3559 -1.6723 -0.0056
 7064TIP3    H221126   0.344   1.610   2.243 -0.5983  1.7758 -0.0690
 7065TIP3   OH221127   6.900   7.500   2.463  0.3258 -0.0131  0.1381
 7065TIP3    H121128   6.831   7.566   2.455  0.3494 -0.0400 -0.3419
 7065TIP3    H221129   6.894   7.468   2.553 -2.2761 -2.2129 -0.7593
 7066TIP3   OH221130  -0.031   2.966   3.576  0.1808  0.1866 -0.5696
 7066TIP3    H121131   0.057   2.949   3.610 -0.0320  1.5382  0.7044
 7066TIP3    H221132  -0.017   3.001   3.488  0.9676  1.5549  0.0949
 7067TIP3   OH221133   6.812   4.366   2.536  0.2620  0.2162 -0.5969
 7067TIP3    H121134   6.850   4.284   2.503  0.6350  0.3313 -0.4509
 7067TIP3    H221135   6.765   4.340   2.615  2.1258  0.4774  0.6242
 7068TIP3   OH221136   5.445   2.353   2.828 -0.1115  0.3757  0.1221
 7068TIP3    H121137   5.396   2.272   2.842 -1.7848  1.6070  1.5642
 7068TIP3    H221138   5.448   2.394   2.914  0.9106  1.7505 -0.5607
 7069TIP3   OH221139   6.456   1.008   4.941  0.1703  0.4032  0.5331
 7069TIP3    H121140   6.453   0.912   4.936 -4.5238  0.3987  1.7738
 7069TIP3    H221141   6.477   1.026   5.033 -1.0225  0.5681  0.7740
 7070TIP3   OH221142   8.194   3.137   2.747 -0.2703  0.5172  0.3414
 7070TIP3    H121143   8.253   3.166   2.678  0.2513 -1.0526  0.1030
 7070TIP3    H221144   8.252   3.106   2.817 -0.8018  0.6228  0.8421
 7071TIP3   OH221145   0.574   1.126   2.380 -0.1926 -0.6135  0.0649
 7071TIP3    H121146   0.538   1.127   2.468  0.5853  0.7146  0.3828
 7071TIP3    H221147   0.568   1.035   2.352 -1.9255 -0.7608  0.8676
 7072TIP3   OH221148   6.778   3.596   3.367 -0.7927 -0.2015  0.2754
 7072TIP3    H121149   6.751   3.682   3.400 -0.2720 -0.6111  1.8508
 7072TIP3    H221150   6.698   3.543   3.371 -1.1932  0.2998 -1.0222
 7073TIP3   OH221151   6.060   4.608   3.294  0.4269 -0.0273  0.8256
 7073TIP3    H121152   6.109   4.542   3.342 -1.8360 -1.8085  0.7498
 7073TIP3    H221153   5.998   4.644   3.358  0.0861  0.3909  0.2678
 7074TIP3   OH221154   7.618   1.468   3.016 -0.2138  1.0287 -0.2905
 7074TIP3    H121155   7.638   1.561   3.024  0.6407  0.8542 -0.3487
 7074TIP3    H221156   7.611   1.453   2.922  4.7174  0.0301 -0.6568
 7075TIP3   OH221157   7.201   1.183   5.794 -0.0009  0.4087 -0.0202
 7075TIP3    H121158   7.150   1.156   5.871  0.7895  1.1941  0.7888
 7075TIP3    H221159   7.139   1.234   5.741 -0.3052  0.6387  0.5482
 7076TIP3   OH221160   8.368   1.138   3.121 -0.0167  0.2279  0.7455
 7076TIP3    H121161   8.275   1.145   3.098  0.1553  0.0481 -0.0351
 7076TIP3    H221162   8.399   1.062   3.071  0.9349  1.2782 -0.3095
 7077TIP3   OH221163   1.808   5.733   0.869 -0.3142 -0.5232  0.6113
 7077TIP3    H121164   1.870   5.780   0.925  1.2812  0.6773 -2.0933
 7077TIP3    H221165   1.805   5.644   0.906  1.4160 -0.0246  2.0173
 7078TIP3   OH221166   6.045   1.550   0.601 -0.4381 -0.1220 -0.2028
 7078TIP3    H121167   6.100   1.472   0.594 -3.0727 -1.9153 -1.9771
 7078TIP3    H221168   6.044   1.571   0.694  0.4530 -2.1144  0.2758
 7079TIP3   OH221169   5.493   1.531   3.296 -0.6438  0.2708  0.2226
 7079TIP3    H121170   5.461   1.515   3.385 -1.7514  2.4297  0.2513
 7079TIP3    H221171   5.548   1.609   3.304 -0.7559  0.4878 -0.9836
 7080TIP3   OH221172   0.671   3.100   4.225  0.2176  0.0753 -0.0860
 7080TIP3    H121173   0.647   3.163   4.157  2.1305 -0.8141 -1.6402
 7080TIP3    H221174   0.676   3.016   4.179  0.7838 -0.6700  1.3107
 7081TIP3   OH221175   1.864   7.961   0.121  0.5359 -0.3322  0.1778
 7081TIP3    H121176   1.781   7.998   0.152 -0.2626  1.0951 -3.3929
 7081TIP3    H221177   1.915   8.037   0.094  1.8569 -1.3958 -0.3383
 7082TIP3   OH221178   7.268   3.997   6.727  0.1926  0.7244  1.0213
 7082TIP3    H121179   7.264   4.036   6.640 -1.2220 -1.5876 -0.0167
 7082TIP3    H221180   7.176   3.992   6.755  0.5881  0.8925  2.3928
 7083TIP3   OH221181   5.720   3.092   4.444  0.5548 -0.0003  0.4158
 7083TIP3    H121182   5.765   3.053   4.519 -0.2619 -0.4026  0.7024
 7083TIP3    H221183   5.634   3.117   4.478  0.1607 -0.2454 -0.3978
 7084TIP3   OH221184   7.746   5.836   3.384 -0.0312 -0.1175 -0.6687
 7084TIP3    H121185   7.677   5.902   3.383  0.1023  0.0367 -2.7671
 7084TIP3    H221186   7.726   5.779   3.310  0.0656 -2.2425  0.8948
 7085TIP3   OH221187   8.134   4.998   3.140  0.7590  0.1558 -0.4369
 7085TIP3    H121188   8.091   5.036   3.063 -2.5678 -2.3056  0.1014
 7085TIP3    H221189   8.099   5.048   3.213 -0.3619 -1.1019 -0.0948
 7086TIP3   OH221190   0.961   0.979   4.687  0.6018  0.0630  0.0681
 7086TIP3    H121191   0.985   0.953   4.776 -0.8878  1.2208  0.8378
 7086TIP3    H221192   0.866   0.989   4.690  0.3425 -1.3349 -2.0512
 7087TIP3   OH221193   7.422   3.467   2.467 -0.0367  0.1090 -0.4425
 7087TIP3    H121194   7.464   3.384   2.442  0.3626  0.1046  0.2147
 7087TIP3    H221195   7.336   3.464   2.426 -0.3511 -1.0077  0.2518
 7088TIP3   OH221196   5.963   2.075   5.538  0.2309 -0.5622 -0.3896
 7088TIP3    H121197   5.999   2.163   5.529 -1.9022  0.4959  1.1418
 7088TIP3    H221198   6.012   2.037   5.611  0.6085 -0.3789 -0.5425
 7089TIP3   OH221199   1.497   4.872   3.871  0.0891  0.1098 -0.3648
 7089TIP3    H121200   1.563   4.832   3.814  0.8252  0.2151  0.4048
 7089TIP3    H221201   1.417   4.821   3.854  0.0206  0.7991 -2.2357
 7090TIP3   OH221202   7.188   2.699   4.810 -0.0522  0.3887  0.3065
 7090TIP3    H121203   7.261   2.700   4.872  0.7097  1.2415 -0.5910
 7090TIP3    H221204   7.141   2.780   4.827  1.5321  1.7979 -1.8185
 7091TIP3   OH221205   8.189   2.632   4.750 -0.0809 -0.1379  0.0763
 7091TIP3    H121206   8.163   2.630   4.658 -0.5871 -0.5197  0.2194
 7091TIP3    H221207   8.130   2.568   4.792 -1.3951  1.6699  1.0548
 7092TIP3   OH221208   7.097   0.613   4.482 -0.3394 -0.0325  0.3586
 7092TIP3    H121209   7.046   0.534   4.502 -1.4408  0.7392  0.6534
 7092TIP3    H221210   7.098   0.662   4.564  1.2911 -0.2504  0.4858
 7093TIP3   OH221211   8.160   3.575   4.397 -0.1652  0.0848 -0.4557
 7093TIP3    H121212   8.237   3.612   4.440 -0.9334  0.2701  0.7615
 7093TIP3    H221213   8.086   3.606   4.449 -0.9152 -2.0212 -0.2258
 7094TIP3   OH221214   0.294   2.191   2.212 -0.4685  0.7803 -0.4639
 7094TIP3    H121215   0.247   2.263   2.170 -0.7160 -0.4217 -2.2924
 7094TIP3    H221216   0.231   2.120   2.217 -0.3429  0.7791  1.6881
 7095TIP3   OH221217   0.309   1.456   4.355 -0.0759 -0.1013 -0.3413
 7095TIP3    H121218   0.390   1.475   4.307  0.0439  0.5594  0.1185
 7095TIP3    H221219   0.278   1.541   4.385 -1.5796 -0.2275 -1.5075
 7096TIP3   OH221220   1.047   0.534   2.888  0.2385  0.1940  0.1449
 7096TIP3    H121221   0.956   0.528   2.915  0.5794 -0.9088  1.0617
 7096TIP3    H221222   1.095   0.559   2.967  0.5742  2.0660 -0.6223
 7097TIP3   OH221223   7.243   3.866   2.971 -0.5261 -0.4489  0.7270
 7097TIP3    H121224   7.237   3.881   2.877 -0.4180  0.7448  0.8992
 7097TIP3    H221225   7.174   3.921   3.008 -0.6722 -1.0346  1.3333
 7098TIP3   OH221226   2.255   3.196   5.591 -0.0534  0.7806 -0.1263
 7098TIP3    H121227   2.166   3.231   5.593 -0.2148  0.4345 -0.8005
 7098TIP3    H221228   2.248   3.111   5.634 -0.7544 -0.7236 -3.0691
 7099TIP3   OH221229   1.190   1.908   6.225 -0.5182 -0.4491  0.5626
 7099TIP3    H121230   1.173   1.988   6.273  0.1955 -1.1144  1.9255
 7099TIP3    H221231   1.122   1.847   6.255  1.4094 -1.6447  2.5784
 7100TIP3   OH221232   7.431   5.775   4.967  0.2247  0.5064  0.2489
 7100TIP3    H121233   7.342   5.792   4.937 -0.0381  0.6848  1.1248
 7100TIP3    H221234   7.486   5.835   4.917  0.0955 -1.0461 -1.8076
 7101TIP3   OH221235   0.297   4.950   5.373 -0.1321 -0.1295 -0.3378
 7101TIP3    H121236   0.241   4.882   5.338 -0.4437  0.8681 -1.8206
 7101TIP3    H221237   0.362   4.966   5.305 -1.0654  2.2097 -0.7433
 7102TIP3   OH221238   0.517   5.208   5.759 -0.5705 -0.0604 -0.6382
 7102TIP3    H121239   0.582   5.139   5.778  1.5470  1.4409 -2.1769
 7102TIP3    H221240   0.457   5.167   5.697 -1.0814 -1.4499  0.7378
 7103TIP3   OH221241   6.901   1.836   6.175  0.3065 -0.2022 -0.1103
 7103TIP3    H121242   6.930   1.816   6.086  2.0910 -0.4382  0.4929
 7103TIP3    H221243   6.910   1.931   6.182 -0.4049 -0.1152 -0.3713
 7104TIP3   OH221244   2.909   5.501   6.435  0.6848 -0.0206 -0.1387
 7104TIP3    H121245   3.003   5.504   6.455  0.9534  2.4103 -1.5135
 7104TIP3    H221246   2.905   5.495   6.340 -0.5704 -1.8702  0.0188
 7105TIP3   OH221247   2.006   3.703   3.769 -0.2613  0.3039  0.3633
 7105TIP3    H121248   1.912   3.688   3.760 -0.0096 -0.5655 -0.9182
 7105TIP3    H221249   2.037   3.715   3.679  1.0383 -0.5892  0.6732
 7106TIP3   OH221250   8.031   3.756   5.302  0.5004  0.1456  0.1353
 7106TIP3    H121251   7.985   3.751   5.218  0.7626  0.3682 -0.0233
 7106TIP3    H221252   7.974   3.711   5.364  0.7535 -0.8934 -0.3633
 7107TIP3   OH221253   0.698   1.986   4.405 -0.0030  0.1882 -0.0531
 7107TIP3    H121254   0.650   1.903   4.400  0.5833 -0.3233  2.1133
 7107TIP3    H221255   0.685   2.015   4.495  1.6042  1.3609 -0.1856
 7108TIP3   OH221256   1.556   4.324   5.840 -0.4781  0.0746 -0.0407
 7108TIP3    H121257   1.462   4.341   5.847 -0.9688 -1.6043 -1.9240
 7108TIP3    H221258   1.568   4.293   5.750  1.5740 -1.4874  0.7253
 7109TIP3   OH221259   0.446   3.486   4.483  0.3497 -0.0144  0.1471
 7109TIP3    H121260   0.491   3.528   4.557  2.0551  0.0512 -0.9001
 7109TIP3    H221261   0.505   3.415   4.457 -0.3638 -0.2040 -0.9929
 7110TIP3   OH221262   0.267   3.726   6.318 -0.3246 -0.9035  0.2717
 7110TIP3    H121263   0.319   3.650   6.344  1.2043  0.7098  2.0592
 7110TIP3    H221264   0.244   3.769   6.400 -1.5011  0.3713 -0.6947
 7111TIP3   OH221265   8.220   1.589   4.242  0.2108 -0.2955 -0.0907
 7111TIP3    H121266   8.133   1.599   4.282  0.1540 -0.6830 -0.1172
 7111TIP3    H221267   8.263   1.521   4.294 -0.2350 -1.5437 -1.3004
 7112TIP3   OH221268   0.607   5.199   5.424 -0.2126 -0.4682  0.3120
 7112TIP3    H121269   0.637   5.146   5.350 -2.0875 -1.8199  0.4783
 7112TIP3    H221270   0.662   5.172   5.497  0.6794 -0.1758 -0.2430
 7113TIP3   OH221271   0.653   4.601   6.900 -0.0794 -0.3798  0.4215
 7113TIP3    H121272   0.572   4.564   6.867  0.7284 -0.4660 -1.5033
 7113TIP3    H221273   0.639   4.609   6.995 -1.9121 -1.3933  0.2504
 7114TIP3   OH221274   8.227   4.564   4.404 -0.4196 -0.4739  0.1019
 7114TIP3    H121275   8.244   4.653   4.375 -0.7132  0.3032  2.2138
 7114TIP3    H221276   8.219   4.513   4.323  0.9228  1.1751 -1.0967
 7115TIP3   OH221277   7.645   5.610   6.351 -0.0295  0.1748 -0.2921
 7115TIP3    H121278   7.678   5.520   6.354  0.8801  0.4288 -1.9171
 7115TIP3    H221279   7.711   5.660   6.399  0.8114  0.3378 -1.5806
 7116TIP3   OH221280   0.529   4.991   6.323  0.5238  0.5017 -0.0817
 7116TIP3    H121281   0.494   5.070   6.280 -0.2464 -0.3625 -1.0672
 7116TIP3    H221282   0.562   5.023   6.407 -0.1654  1.8108 -0.2843
 7117TIP3   OH221283   6.264   0.993   0.031  0.0040  0.2705 -0.7576
 7117TIP3    H121284   6.317   1.018   0.106  0.2337  1.3421 -1.2695
 7117TIP3    H221285   6.239   1.076  -0.010 -0.7373 -0.2755 -1.4403
 7118TIP3   OH221286   0.356   3.701   5.466 -0.6931  0.1901  0.6740
 7118TIP3    H121287   0.388   3.778   5.420  0.4010 -0.4882  0.2941
 7118TIP3    H221288   0.262   3.698   5.446 -0.7072  1.3113  0.5502
 7119TIP3   OH221289   1.097   4.713   5.897 -0.1534  0.3672 -0.1503
 7119TIP3    H121290   1.190   4.725   5.919 -0.0922 -0.5400  0.1093
 7119TIP3    H221291   1.098   4.666   5.814 -0.3765 -0.4406  0.2988
 7120TIP3   OH221292   0.422   4.193   4.577 -0.1520 -0.5694 -0.6473
 7120TIP3    H121293   0.470   4.142   4.642 -1.8121  1.2458  2.0968
 7120TIP3    H221294   0.336   4.151   4.571 -0.6134  0.3265 -0.3436
 7121TIP3   OH221295   1.416   4.701   6.587  0.3436 -0.3339 -0.0450
 7121TIP3    H121296   1.376   4.789   6.584  1.3522  0.1323  0.1247
 7121TIP3    H221297   1.426   4.676   6.496  0.2118 -0.2024 -0.0961
 7122TIP3   OH221298   8.024   5.907   6.555 -0.1069 -0.1238  0.4809
 7122TIP3    H121299   8.043   5.932   6.645  1.6958  0.3083  0.0059
 7122TIP3    H221300   8.110   5.886   6.518 -0.9070 -0.9836 -0.9330
 7123TIP3   OH221301   0.812   4.339   5.961  0.2493 -0.2892  0.6312
 7123TIP3    H121302   0.887   4.389   5.992 -0.4140  0.2936  1.3318
 7123TIP3    H221303   0.780   4.293   6.039  0.9093 -1.8949 -0.0204
 7124TIP3   OH221304   2.227   4.530   4.833 -0.3504 -0.2678  0.3143
 7124TIP3    H121305   2.236   4.622   4.805  0.2742 -0.9158 -1.7567
 7124TIP3    H221306   2.313   4.507   4.867  0.2151 -0.7341 -1.3468
 7125TIP3   OH221307   0.297   2.196   3.915 -0.1261 -0.5004 -0.2444
 7125TIP3    H121308   0.250   2.162   3.839 -1.8252  0.2444  0.4336
 7125TIP3    H221309   0.306   2.290   3.898 -1.6465 -0.0975  1.0176
 7126TIP3   OH221310   1.887   0.055   2.566 -0.4476 -0.5249 -0.5556
 7126TIP3    H121311   1.802   0.049   2.521  0.3115 -0.5368 -2.0104
 7126TIP3    H221312   1.949   0.077   2.497  0.6875 -0.1394  0.5700
 7127TIP3   OH221313   2.155   3.565   4.792  0.4325  0.0616 -0.2627
 7127TIP3    H121314   2.082   3.536   4.737 -1.4627 -0.3967  2.3504
 7127TIP3    H221315   2.129   3.652   4.822  0.7225 -0.3027  1.0787
 7128TIP3   OH221316   1.690   4.917   5.062  0.3596 -0.4093 -0.1687
 7128TIP3    H121317   1.636   4.844   5.094  1.2812 -1.2506 -0.5061
 7128TIP3    H221318   1.671   4.989   5.122 -0.7967 -0.8299 -0.0177
 7129TIP3   OH221319   3.688   5.338   6.658  0.3038 -0.6182  0.0101
 7129TIP3    H121320   3.691   5.423   6.615 -0.8704 -0.4671  0.1965
 7129TIP3    H221321   3.780   5.313   6.669  0.6385  0.1103 -1.0486
 7130TIP3   OH221322   7.597   4.254   5.578  0.6182  0.0815 -0.7782
 7130TIP3    H121323   7.681   4.297   5.594 -0.3289  1.8000 -0.4040
 7130TIP3    H221324   7.573   4.281   5.489 -0.0833  0.4918 -0.4628
 7131TIP3   OH221325   3.303   4.757   4.794  0.1876 -0.4109 -0.6393
 7131TIP3    H121326   3.385   4.770   4.747 -0.8480  0.7706 -2.1855
 7131TIP3    H221327   3.253   4.697   4.739 -0.2229 -0.6373 -0.0242
 7132TIP3   OH221328   2.795   3.848   5.663 -0.7065  0.6062  0.4763
 7132TIP3    H121329   2.788   3.929   5.612  1.4075  0.5816  0.0944
 7132TIP3    H221330   2.753   3.868   5.746 -1.0528  1.7849  0.0343
 7133TIP3   OH221331   7.008   1.082   0.524  0.2354  0.3641  0.4887
 7133TIP3    H121332   6.934   1.122   0.570 -0.2460 -1.4835  1.3744
 7133TIP3    H221333   7.000   0.988   0.542  1.4401 -0.1340 -1.3686
 7134TIP3   OH221334   6.519   4.125   4.453  0.0159 -0.3169  0.1980
 7134TIP3    H121335   6.586   4.058   4.466  1.9082  1.5327  0.2388
 7134TIP3    H221336   6.472   4.128   4.537  1.1077 -0.3063  0.8098
 7135TIP3   OH221337   0.248   3.205   3.880 -0.1897 -0.8393  0.2084
 7135TIP3    H121338   0.311   3.253   3.827 -2.0928  0.4140 -0.9808
 7135TIP3    H221339   0.172   3.263   3.887 -1.9011 -2.9817  0.1199
 7136TIP3   OH221340   7.831   2.394   5.994 -0.2482  0.2794  0.1397
 7136TIP3    H121341   7.853   2.339   5.919 -0.4937  1.7312 -1.0160
 7136TIP3    H221342   7.800   2.332   6.060  0.9748 -1.1244 -0.5630
 7137TIP3   OH221343   0.888   5.158   4.277  0.0436  0.2881  0.0159
 7137TIP3    H121344   0.818   5.217   4.250 -1.2317 -1.4465 -0.5997
 7137TIP3    H221345   0.965   5.214   4.289 -0.6718  1.8023 -2.3183
 7138TIP3   OH221346   1.186   6.217   5.122  0.0700  0.0758  0.2134
 7138TIP3    H121347   1.131   6.165   5.065  1.3336  0.0680 -1.0241
 7138TIP3    H221348   1.153   6.306   5.113 -0.0879 -0.0156 -0.1134
 7139TIP3   OH221349   2.771   5.590   4.155 -0.0838  0.5337  0.0041
 7139TIP3    H121350   2.711   5.580   4.228 -1.5691 -0.5633 -1.3206
 7139TIP3    H221351   2.856   5.607   4.195 -0.8436 -0.2288  1.9722
 7140TIP3   OH221352   8.343   3.153   6.183 -0.5530  0.0481  0.5986
 7140TIP3    H121353   8.321   3.242   6.210 -5.2734 -0.4300 -1.0442
 7140TIP3    H221354   8.289   3.096   6.239 -2.5366 -1.3656 -2.5551
 7141TIP3   OH221355   3.347   4.836   6.021 -0.3832  0.6151 -0.0383
 7141TIP3    H121356   3.418   4.879   5.974  1.3198 -0.9763  1.0206
 7141TIP3    H221357   3.321   4.763   5.964  0.4758 -0.2433  0.6565
 7142TIP3   OH221358   6.894   5.547   4.765  0.0599  0.1397  0.2794
 7142TIP3    H121359   6.869   5.635   4.738 -1.3668 -0.7658 -1.4542
 7142TIP3    H221360   6.965   5.560   4.828  1.3901  2.4442 -1.6326
 7143TIP3   OH221361   6.868   1.360   0.455 -0.2123  0.1602  0.1729
 7143TIP3    H121362   6.915   1.437   0.488  0.7844 -0.2221 -0.3216
 7143TIP3    H221363   6.855   1.305   0.532  0.0689  0.3133  0.3317
 7144TIP3   OH221364   0.224   3.215   4.683 -0.0064  0.0477 -0.7162
 7144TIP3    H121365   0.220   3.294   4.629  2.0611 -0.5051 -1.7289
 7144TIP3    H221366   0.281   3.239   4.756 -1.2166  0.1861  0.1936
 7145TIP3   OH221367   8.442   4.680   4.566  0.3991  0.2034 -0.1917
 7145TIP3    H121368   8.381   4.628   4.514 -0.9483  2.0873 -0.5385
 7145TIP3    H221369   8.510   4.708   4.505  0.8326 -0.6916 -0.1198
 7146TIP3   OH221370   1.931   4.411   6.021 -0.2598 -0.2909 -0.3229
 7146TIP3    H121371   1.938   4.330   5.970  1.3974 -2.0069  2.4954
 7146TIP3    H221372   1.850   4.402   6.071 -1.0399  0.6491 -1.4010
 7147TIP3   OH221373   2.031   7.226   6.873  0.2709 -0.3620 -0.5800
 7147TIP3    H121374   1.954   7.238   6.928  1.2849  0.8308  0.6332
 7147TIP3    H221375   2.041   7.310   6.827  1.5478 -0.0403  0.2365
 7148TIP3   OH221376   7.784   1.537   5.971 -0.2768 -0.5311  0.1584
 7148TIP3    H121377   7.816   1.562   5.884 -1.8494 -0.5755 -0.4471
 7148TIP3    H221378   7.842   1.465   5.998  1.9444  1.2878  0.3368
 7149TIP3   OH221379   0.691   4.840   4.715 -0.1073  0.2825  0.4477
 7149TIP3    H121380   0.685   4.909   4.649 -1.4762 -1.1410 -0.9725
 7149TIP3    H221381   0.625   4.863   4.780  0.1491  0.8441  0.5110
 7150TIP3   OH221382   1.730   1.421   3.523 -0.1284 -0.1095 -0.9126
 7150TIP3    H121383   1.799   1.475   3.562 -0.8099 -0.2827  0.5460
 7150TIP3    H221384   1.686   1.480   3.461 -0.7815  0.9839  0.5653
 7151TIP3   OH221385   7.962   5.152   4.743  0.7611  0.8492 -0.3986
 7151TIP3    H121386   7.968   5.115   4.831  2.0569  3.1844  0.5417
 7151TIP3    H221387   8.026   5.103   4.691 -0.5171 -1.0158 -0.2442
 7152TIP3   OH221388   5.133  -0.001   0.122  0.6312  1.0285  0.4976
 7152TIP3    H121389   5.173   0.086   0.119 -1.1472  1.8965  1.3231
 7152TIP3    H221390   5.075  -0.003   0.046  2.7347 -0.5004 -1.1169
 7153TIP3   OH221391   8.356   4.287   5.772  0.8368  0.2368 -0.2442
 7153TIP3    H121392   8.284   4.245   5.724  0.4893  0.3666  0.1642
 7153TIP3    H221393   8.435   4.255   5.728  0.5161  0.5673 -1.0896
 7154TIP3   OH221394   0.789   0.535   6.810 -0.3545  0.5247 -0.5376
 7154TIP3    H121395   0.818   0.501   6.895 -1.4655  1.4381  0.2133
 7154TIP3    H221396   0.837   0.617   6.800 -0.7021  0.7354 -0.4899
 7155TIP3   OH221397   0.462   1.041   4.445  0.0976 -0.0967  0.0941
 7155TIP3    H121398   0.384   1.014   4.396 -1.5225 -2.1904  3.6561
 7155TIP3    H221399   0.444   1.133   4.467 -1.3490 -0.5408  0.8329
 7156TIP3   OH221400   0.473   4.662   5.248 -0.1521 -0.1260  0.4009
 7156TIP3    H121401   0.475   4.742   5.195 -1.7757  0.8790  1.7599
 7156TIP3    H221402   0.447   4.593   5.187  1.4867  0.3322 -0.8414
 7157TIP3   OH221403   1.038   2.649   5.085 -0.2424 -0.2196 -0.1168
 7157TIP3    H121404   1.037   2.583   5.154 -1.1868  0.1249  0.2053
 7157TIP3    H221405   1.003   2.603   5.008  0.8563 -0.6173 -0.3851
 7158TIP3   OH221406   7.897   2.190   4.860  0.1973  0.3686  0.0751
 7158TIP3    H121407   7.882   2.141   4.941 -0.8078  0.2927 -0.1626
 7158TIP3    H221408   7.991   2.212   4.863  0.1967  0.2426  1.1864
 7159TIP3   OH221409   8.021   2.502   3.766 -0.1744  0.0216  0.0064
 7159TIP3    H121410   8.108   2.517   3.804 -1.9463  1.4289  3.7722
 7159TIP3    H221411   7.983   2.433   3.820 -1.0197 -1.3823 -2.3240
 7160TIP3   OH221412   0.389   2.251   6.360  0.2103 -0.1436 -0.1348
 7160TIP3    H121413   0.341   2.172   6.384 -1.5049  0.5512 -1.1758
 7160TIP3    H221414   0.322   2.317   6.348  1.6910  1.7037  1.4945
 7161TIP3   OH221415   8.220   1.374   6.258 -0.3512 -0.3013  0.0170
 7161TIP3    H121416   8.290   1.310   6.252 -0.4031 -0.3041 -0.5686
 7161TIP3    H221417   8.203   1.382   6.352 -0.3485 -1.1424  0.0938
 7162TIP3   OH221418   1.185   5.129   4.357 -0.1336  0.5706  0.4560
 7162TIP3    H121419   1.263   5.184   4.356  0.4346 -0.2243 -1.9172
 7162TIP3    H221420   1.191   5.077   4.277 -2.7725  0.0357  0.5617
 7163TIP3   OH221421   7.125   4.569   5.423  0.0909  0.1927 -0.1092
 7163TIP3    H121422   7.153   4.660   5.429  0.8475  0.0130 -0.7701
 7163TIP3    H221423   7.069   4.556   5.498  0.8936  0.8892  0.6212
 7164TIP3   OH221424   0.099   3.999   5.347 -0.2463 -0.0159  0.7306
 7164TIP3    H121425   0.144   3.993   5.262  0.2166  0.5566  0.9292
 7164TIP3    H221426   0.064   3.911   5.362  0.4718 -0.3690  0.3832
 7165TIP3   OH221427   8.179   3.353   3.947  0.1386 -0.4167 -0.0383
 7165TIP3    H121428   8.273   3.339   3.941  0.2460  0.5909 -0.9483
 7165TIP3    H221429   8.140   3.276   3.905  0.6122  0.1593 -1.5691
 7166TIP3   OH221430   0.656   4.704   4.089 -0.0196 -0.0053  0.3134
 7166TIP3    H121431   0.622   4.718   4.177  1.9277  0.0677  1.0722
 7166TIP3    H221432   0.712   4.626   4.097  0.5810  0.3146 -0.7346
 7167TIP3   OH221433   8.149   3.464   5.597 -0.1962 -0.2255 -0.6263
 7167TIP3    H121434   8.209   3.475   5.523 -0.4099 -2.7024 -1.1949
 7167TIP3    H221435   8.084   3.400   5.567  0.3744 -2.1829  2.0984
 7168TIP3   OH221436   0.099   5.454   6.760 -0.3596  0.4037 -0.0476
 7168TIP3    H121437   0.080   5.397   6.835  1.0510  0.6081  0.4987
 7168TIP3    H221438   0.060   5.409   6.685 -2.2806  0.4747  0.8795
 7169TIP3   OH221439   0.199   5.356   5.884 -0.2607 -0.1939  0.5655
 7169TIP3    H121440   0.111   5.385   5.907 -1.0498 -1.1442 -1.1460
 7169TIP3    H221441   0.238   5.431   5.838 -1.4460 -0.9296 -1.7347
 7170TIP3   OH221442   2.247   3.046   5.923  0.3075 -0.3019  0.1776
 7170TIP3    H121443   2.316   3.049   5.990  1.6147  0.6092 -1.1656
 7170TIP3    H221444   2.285   2.992   5.853 -0.6347 -0.3838 -0.2748
 7171TIP3   OH221445   6.950   4.815   5.017  0.0854 -0.1716 -0.2034
 7171TIP3    H121446   6.934   4.788   4.926  0.1041  0.7660 -0.4960
 7171TIP3    H221447   6.969   4.734   5.063 -0.0077 -0.6712 -1.0257
 7172TIP3   OH221448   0.979   4.801   6.822  0.0308  0.2190 -0.1340
 7172TIP3    H121449   0.986   4.838   6.910  1.1569  0.8560 -0.4799
 7172TIP3    H221450   0.888   4.816   6.796  0.5069  3.0271 -0.3773
 7173TIP3   OH221451   7.791   2.187   4.279 -0.4064  0.1959  0.3185
 7173TIP3    H121452   7.821   2.246   4.349 -1.0666  1.5001 -0.4781
 7173TIP3    H221453   7.715   2.232   4.241  0.4185 -0.1012 -1.7551
 7174TIP3   OH221454   1.556   2.818   5.771 -0.4270 -0.3236 -0.7788
 7174TIP3    H121455   1.466   2.852   5.767 -0.9032 -1.5342 -0.6961
 7174TIP3    H221456   1.546   2.729   5.804  0.6009 -1.2271 -2.8139
 7175TIP3   OH221457   1.436   3.962   5.699 -0.1033 -0.1559  0.1819
 7175TIP3    H121458   1.430   3.920   5.785  0.3316 -0.6376 -0.0249
 7175TIP3    H221459   1.478   4.046   5.716  1.6017 -0.9962  0.1881
 7176TIP3   OH221460   1.513   5.140   4.611 -0.2287 -0.1684 -0.3064
 7176TIP3    H121461   1.551   5.115   4.695  2.4600  1.2370 -1.0242
 7176TIP3    H221462   1.479   5.228   4.625 -0.2180 -0.1244 -0.5441
 7177TIP3   OH221463   0.042   3.136   2.388  0.2131 -0.2348  0.1517
 7177TIP3    H121464   0.137   3.145   2.392  0.1328  0.5720  0.3435
 7177TIP3    H221465   0.021   3.135   2.294  0.2177  1.8474  0.1017
 7178TIP3   OH221466   0.274   4.329   4.118  0.1541 -0.0342  0.0808
 7178TIP3    H121467   0.310   4.418   4.112 -0.1567  0.1031  0.2633
 7178TIP3    H221468   0.297   4.289   4.034  1.0127 -0.0537  0.3231
 7179TIP3   OH221469   2.640   5.003   4.252  0.2598  0.7488 -0.1248
 7179TIP3    H121470   2.648   5.085   4.301 -1.2538  0.9282 -0.1530
 7179TIP3    H221471   2.600   4.942   4.314  0.6808  0.2517 -0.3454
 7180TIP3   OH221472   8.127   2.591   4.269  0.3998  0.0229  0.1047
 7180TIP3    H121473   8.128   2.669   4.214  0.2333  0.1354  0.2618
 7180TIP3    H221474   8.210   2.548   4.251 -0.0587 -0.4400 -0.9584
 7181TIP3   OH221475   1.592   5.408   5.160  0.1582 -0.7381 -0.2049
 7181TIP3    H121476   1.530   5.391   5.231  1.2943  0.3156  1.0692
 7181TIP3    H221477   1.674   5.370   5.191  0.6923 -0.1752 -0.9114
 7182TIP3   OH221478   3.062   2.812   3.454 -0.5890  0.0113  0.2055
 7182TIP3    H121479   2.983   2.860   3.480  0.3570  1.5162  0.3628
 7182TIP3    H221480   3.034   2.760   3.378 -1.8605  0.1186  0.5814
 7183TIP3   OH221481   8.451   3.243   4.718  0.6319 -0.1071  0.3912
 7183TIP3    H121482   8.431   3.301   4.645 -1.4464 -1.1039  0.1372
 7183TIP3    H221483   8.544   3.223   4.708  0.4846  0.1560 -1.7109
 7184TIP3   OH221484   2.656   4.564   5.406  0.1998 -0.5733  0.2990
 7184TIP3    H121485   2.665   4.480   5.452 -1.3381 -0.1767  1.3935
 7184TIP3    H221486   2.612   4.541   5.324  0.1098 -0.8890  0.4321
 7185TIP3   OH221487   2.489   1.850   4.092  0.4742 -0.5888  0.1748
 7185TIP3    H121488   2.497   1.945   4.094  0.8338 -0.6226  0.4361
 7185TIP3    H221489   2.579   1.818   4.086  0.4336 -0.9382  1.2865
 7186TIP3   OH221490   0.189   4.793   3.246  0.2733  0.0588 -0.6634
 7186TIP3    H121491   0.234   4.867   3.285 -0.0506 -0.2078  0.2127
 7186TIP3    H221492   0.155   4.826   3.163 -0.6402  1.1188  0.1424
 7187TIP3   OH221493   8.205   4.062   5.668  0.0606 -0.0535 -0.3584
 7187TIP3    H121494   8.127   4.007   5.672  0.2115 -0.2000  0.7879
 7187TIP3    H221495   8.256   4.027   5.595  0.1174 -1.3982  0.3067
 7188TIP3   OH221496   1.347   2.526   5.069  0.4588 -0.0024  0.0548
 7188TIP3    H121497   1.403   2.599   5.041 -0.9764  0.6151 -1.2695
 7188TIP3    H221498   1.330   2.542   5.161 -1.1961  2.2724 -0.6069
 7189TIP3   OH221499   1.883   2.731   4.881 -0.1898  0.1680  0.0156
 7189TIP3    H121500   1.880   2.667   4.953  0.7261  0.3836  0.2529
 7189TIP3    H221501   1.833   2.806   4.914 -1.6558 -0.5915 -0.4417
 7190TIP3   OH221502   7.481   2.752   4.514 -0.2451  0.9095 -0.3153
 7190TIP3    H121503   7.456   2.762   4.422  1.6784 -0.9750 -1.0866
 7190TIP3    H221504   7.499   2.841   4.544  0.2892  1.4259 -2.1041
 7191TIP3   OH221505   1.644   6.389   6.352 -0.3130 -0.7348  0.1446
 7191TIP3    H121506   1.610   6.453   6.415 -0.2695  0.3286 -0.8874
 7191TIP3    H221507   1.739   6.389   6.368 -0.2451 -0.1122 -0.2259
 7192TIP3   OH221508   2.008   6.581   4.541  0.3184  0.2934 -0.0702
 7192TIP3    H121509   2.053   6.659   4.574 -0.7702  0.5820  0.7764
 7192TIP3    H221510   1.915   6.604   4.545  0.0383 -0.6858 -0.7724
 7193TIP3   OH221511   7.917   4.131   6.135  0.6215  0.0357  0.0364
 7193TIP3    H121512   7.865   4.200   6.176  0.7954  0.6029 -0.6812
 7193TIP3    H221513   7.873   4.049   6.160  0.6491  0.3807  1.2216
 7194TIP3   OH221514   0.975   4.392   3.761 -0.2021  0.0300 -0.2840
 7194TIP3    H121515   0.890   4.351   3.780  0.8870 -2.1393 -0.0120
 7194TIP3    H221516   0.953   4.483   3.741 -2.7310 -0.8102 -1.5071
 7195TIP3   OH221517   1.988   7.420   1.729 -0.2866 -0.3263  0.1946
 7195TIP3    H121518   2.020   7.419   1.639  0.7474  0.7003  0.5477
 7195TIP3    H221519   2.013   7.335   1.764  1.0532  0.0108  0.1024
 7196TIP3   OH221520   3.744   2.013   3.522  0.3727  0.5358 -0.1745
 7196TIP3    H121521   3.669   2.012   3.463  0.2505  1.8206 -0.0441
 7196TIP3    H221522   3.784   1.926   3.511 -0.2033  0.4175 -1.4224
 7197TIP3   OH221523   7.908   5.467   6.769 -0.3669  1.0086  0.2072
 7197TIP3    H121524   7.825   5.470   6.722 -0.2975  1.5731  0.1066
 7197TIP3    H221525   7.926   5.374   6.782 -0.3057  0.8309 -1.0400
 7198TIP3   OH221526   0.783   4.143   5.737 -0.1099  0.1429 -0.2395
 7198TIP3    H121527   0.751   4.161   5.649 -0.0074 -1.7162 -0.6914
 7198TIP3    H221528   0.782   4.228   5.781 -0.6303  1.0124 -1.8708
 7199TIP3   OH221529   8.468   3.107   4.393  0.1758 -0.5785 -0.1536
 7199TIP3    H121530   8.538   3.167   4.421 -0.8765  0.6216 -0.0489
 7199TIP3    H221531   8.454   3.050   4.468  0.9163 -0.6976 -0.1048
 7200TIP3   OH221532   7.818   3.921   4.313 -0.7686  0.5946  0.4624
 7200TIP3    H121533   7.805   3.847   4.372 -1.1035 -0.0608 -0.4358
 7200TIP3    H221534   7.828   3.996   4.372  0.4034 -0.2786  1.4054
 7201TIP3   OH221535   1.465   2.193   4.473  0.5289 -0.7113  0.2018
 7201TIP3    H121536   1.442   2.239   4.392 -0.9120  0.1429  1.0670
 7201TIP3    H221537   1.494   2.262   4.533  0.5752 -1.2016  0.7525
 7202TIP3   OH221538   2.091   5.257   4.997 -0.2223 -0.2766 -0.1307
 7202TIP3    H121539   2.109   5.346   5.025  0.9013 -1.1203  1.9323
 7202TIP3    H221540   2.135   5.202   5.062  0.3925 -2.3291 -2.2367
 7203TIP3   OH221541   2.732   6.726   0.420 -0.5295 -0.5000 -0.5525
 7203TIP3    H121542   2.677   6.696   0.348 -0.1076 -1.9447 -0.2918
 7203TIP3    H221543   2.817   6.742   0.380 -0.4687 -0.6873 -0.5008
 7204TIP3   OH221544   7.834   4.419   4.193 -0.5989  0.1185  0.1689
 7204TIP3    H121545   7.924   4.415   4.227 -0.7976 -0.3157  0.6505
 7204TIP3    H221546   7.835   4.492   4.132  0.2474 -0.2772 -0.2996
 7205TIP3   OH221547   2.139   2.430   5.333  0.4044  0.5720 -0.0713
 7205TIP3    H121548   2.204   2.374   5.290  2.1675  2.2000  0.3688
 7205TIP3    H221549   2.179   2.517   5.332 -0.8950  1.2269  2.0096
 7206TIP3   OH221550   0.357   1.792   3.787  0.0149  0.0480  0.2617
 7206TIP3    H121551   0.363   1.697   3.773  1.0381  0.0906  0.3734
 7206TIP3    H221552   0.385   1.805   3.877  0.3176  0.5105  0.1020
 7207TIP3   OH221553   0.669   1.383   5.131  0.1485  0.0246  0.1149
 7207TIP3    H121554   0.698   1.455   5.187 -1.0320  1.0539 -0.5966
 7207TIP3    H221555   0.734   1.380   5.061  1.3363 -0.9270  1.2306
 7208TIP3   OH221556   7.311   0.666   0.595  0.1564  0.4730  0.1609
 7208TIP3    H121557   7.269   0.719   0.527  0.0375 -0.0964 -0.2106
 7208TIP3    H221558   7.262   0.584   0.595  0.4100  0.3211  0.6645
 7209TIP3   OH221559   3.050   1.013   3.639 -0.0379  0.0830  0.4807
 7209TIP3    H121560   3.029   1.058   3.720  0.7908  0.6235  0.3944
 7209TIP3    H221561   3.054   1.082   3.573 -1.6609 -0.4627 -0.2132
 7210TIP3   OH221562   7.863   3.993   6.421  0.6093  0.4327  0.8076
 7210TIP3    H121563   7.772   3.978   6.395  0.5546  2.2461 -0.1105
 7210TIP3    H221564   7.913   3.927   6.372  0.1401  1.6505 -1.3489
 7211TIP3   OH221565   7.593   2.774   5.003  0.0663  0.6520 -0.4330
 7211TIP3    H121566   7.532   2.720   4.952  1.4535  0.4383 -1.9178
 7211TIP3    H221567   7.667   2.789   4.944  2.0598 -0.1878  1.7584
 7212TIP3   OH221568   2.319   3.919   3.806 -0.3674 -0.2076  0.0247
 7212TIP3    H121569   2.335   3.968   3.726 -1.0351  2.7526  1.6195
 7212TIP3    H221570   2.224   3.906   3.808 -0.2078 -1.5193 -0.3333
 7213TIP3   OH221571   7.893   4.664   5.282 -0.5350 -0.3126  0.3437
 7213TIP3    H121572   7.835   4.676   5.357 -0.4461  0.1013  0.3444
 7213TIP3    H221573   7.848   4.708   5.209  0.2461  0.8510  0.5653
 7214TIP3   OH221574   2.066   6.850   1.236 -0.1849  0.6228 -0.1027
 7214TIP3    H121575   2.118   6.783   1.191 -1.6288 -0.4865 -0.1526
 7214TIP3    H221576   2.101   6.852   1.325 -1.2310 -1.4257  0.3895
 7215TIP3   OH221577   0.145   4.641   4.799 -0.7930 -0.1350  0.0062
 7215TIP3    H121578   0.182   4.555   4.780  1.1554  0.5379  0.6633
 7215TIP3    H221579   0.060   4.641   4.753 -1.5421 -2.9597  1.2943
 7216TIP3   OH221580   2.535   4.961   5.208 -0.1375 -0.7237  0.0456
 7216TIP3    H121581   2.516   5.050   5.178  0.1964 -1.0268 -1.0959
 7216TIP3    H221582   2.493   4.905   5.143 -1.3282 -1.4174  1.3789
 7217TIP3   OH221583   6.579   3.818   3.406  0.7990  0.1278 -0.0646
 7217TIP3    H121584   6.628   3.900   3.412  0.4660  0.3887 -0.8434
 7217TIP3    H221585   6.493   3.840   3.441 -0.4056  1.0463 -3.4056
 7218TIP3   OH221586   7.267   2.396   4.326  0.2833 -0.0832 -0.4936
 7218TIP3    H121587   7.225   2.353   4.252  0.7296  0.9321 -1.3580
 7218TIP3    H221588   7.337   2.448   4.287  2.3681 -1.7394  0.9309
 7219TIP3   OH221589   8.304   3.089   5.281  0.1937 -0.2629 -0.2706
 7219TIP3    H121590   8.233   3.095   5.345  0.6500  0.4787  0.1781
 7219TIP3    H221591   8.375   3.141   5.319  0.8391 -0.6641 -0.8979
 7220TIP3   OH221592   6.864   4.207   5.125  0.2341 -0.1723 -0.4542
 7220TIP3    H121593   6.799   4.224   5.193  0.0312  1.1259 -0.9663
 7220TIP3    H221594   6.832   4.129   5.080 -0.6816  0.1379 -0.3505
 7221TIP3   OH221595   8.422   2.268   5.326 -0.4461 -0.3357  0.6146
 7221TIP3    H121596   8.378   2.294   5.245  0.3296 -0.9016  0.0103
 7221TIP3    H221597   8.412   2.173   5.330 -0.9331 -0.2583  1.4541
 7222TIP3   OH221598   3.860   7.619   0.037 -0.1852 -0.0583  0.9218
 7222TIP3    H121599   3.926   7.609   0.106  0.3813 -1.6212  0.1765
 7222TIP3    H221600   3.848   7.714   0.030  0.7218  0.1786  2.2485
 7223TIP3   OH221601   0.531   3.994   4.725 -0.4140  0.4774  0.1073
 7223TIP3    H121602   0.507   3.906   4.698 -0.0141  0.4380 -0.1347
 7223TIP3    H221603   0.492   4.005   4.812  0.9194 -0.5522  0.8676
 7224TIP3   OH221604   1.903   4.848   4.584 -0.0739  0.1725  0.4788
 7224TIP3    H121605   1.923   4.771   4.637 -0.7858 -0.2208  0.1835
 7224TIP3    H221606   1.974   4.852   4.520 -0.1111 -0.3083  0.4101
 7225TIP3   OH221607   0.909   2.371   2.757  0.3072 -0.1146 -0.0169
 7225TIP3    H121608   0.824   2.367   2.802  0.2655 -0.5118 -0.1279
 7225TIP3    H221609   0.939   2.280   2.755  1.5712  0.2629  1.5873
 7226TIP3   OH221610   7.149   4.845   5.519  0.2081  0.3542  0.6548
 7226TIP3    H121611   7.213   4.854   5.589 -2.2572  0.7892  2.9259
 7226TIP3    H221612   7.128   4.935   5.493 -0.0712  0.2414  0.4790
 7227TIP3   OH221613   1.524   1.666   4.119  0.3938 -0.3051  0.1274
 7227TIP3    H121614   1.500   1.754   4.148  0.1059  0.1495 -1.4779
 7227TIP3    H221615   1.619   1.661   4.131  0.2493 -0.2190  1.3727
 7228TIP3   OH221616   2.726   1.556   4.943  0.1077  0.1483 -0.0845
 7228TIP3    H121617   2.729   1.466   4.911  2.1122 -0.7033  2.3695
 7228TIP3    H221618   2.686   1.549   5.030 -2.6109  2.0508 -1.1163
 7229TIP3   OH221619   2.032   1.931   4.428 -0.1757 -0.5752  0.6457
 7229TIP3    H121620   2.061   1.966   4.512 -0.2033  0.2119  0.3308
 7229TIP3    H221621   1.997   2.007   4.381  0.6035 -0.8420 -0.3974
 7230TIP3   OH221622   1.132   5.503   4.767 -0.2425 -0.3989 -0.1247
 7230TIP3    H121623   1.043   5.481   4.741 -0.0060 -1.5873  0.0058
 7230TIP3    H221624   1.129   5.510   4.863 -0.3118  0.0817 -0.1650
 7231TIP3   OH221625   0.603   4.491   5.948  0.0269 -0.5738 -0.0915
 7231TIP3    H121626   0.579   4.543   5.872 -2.3326 -0.6474  0.5835
 7231TIP3    H221627   0.698   4.479   5.940  0.5141  3.2423 -0.5904
 7232TIP3   OH221628   1.778   4.106   6.239  0.5086  0.7296  0.0394
 7232TIP3    H121629   1.853   4.046   6.245  1.7933  2.1339 -1.6016
 7232TIP3    H221630   1.745   4.094   6.150  0.0343  1.5890  0.0979
 7233TIP3   OH221631   8.113   3.792   5.889  0.2715 -0.1228  0.2181
 7233TIP3    H121632   8.183   3.738   5.851  0.1032  0.4400 -0.9016
 7233TIP3    H221633   8.144   3.812   5.977  1.1735 -0.5172 -0.0024
 7234TIP3   OH221634   1.489   2.713   6.570 -0.0959  0.1042 -0.0007
 7234TIP3    H121635   1.570   2.750   6.536  0.1355  0.8675  1.3340
 7234TIP3    H221636   1.439   2.687   6.492  0.5264  1.5659 -0.8934
 7235TIP3   OH221637   0.783   2.937   5.793  0.4700  0.4907  0.0794
 7235TIP3    H121638   0.809   2.969   5.879  1.1343  2.8256 -0.9768
 7235TIP3    H221639   0.864   2.931   5.743  0.1434 -1.2718 -0.2832
 7236TIP3   OH221640   0.788   2.320   6.711  0.8546 -0.0491  0.4794
 7236TIP3    H121641   0.791   2.394   6.772 -0.1740 -1.0851  1.8293
 7236TIP3    H221642   0.763   2.246   6.766  2.8308 -1.5932 -0.6646
 7237TIP3   OH221643   1.787   1.471   5.647 -0.0389 -0.2050  0.2328
 7237TIP3    H121644   1.787   1.452   5.741  1.8993  0.1593  0.3296
 7237TIP3    H221645   1.704   1.437   5.616 -0.8886  0.0080  2.1560
 7238TIP3   OH221646   0.997   5.603   5.669 -0.4019 -0.2924 -0.2553
 7238TIP3    H121647   1.010   5.540   5.597  0.5580  0.1101 -0.4460
 7238TIP3    H221648   1.064   5.670   5.654  0.7729 -0.9499  1.8515
 7239TIP3   OH221649   1.925   2.328   5.455  0.4932 -0.0765 -0.5774
 7239TIP3    H121650   2.014   2.364   5.457  0.0284  1.1085 -0.5243
 7239TIP3    H221651   1.882   2.376   5.384  0.0071 -0.9348 -0.8699
 7240TIP3   OH221652   3.807   6.748   0.230  0.3642  0.5502 -0.4145
 7240TIP3    H121653   3.846   6.769   0.315 -1.4819 -0.4029  0.7142
 7240TIP3    H221654   3.868   6.686   0.190 -0.0752 -1.1206  1.4238
 7241TIP3   OH221655   7.841   3.988   5.027 -0.3662 -0.2900 -0.1702
 7241TIP3    H121656   7.856   3.894   5.018 -1.6313 -0.3821 -1.4140
 7241TIP3    H221657   7.813   4.000   5.117  1.0795 -0.9161  0.3853
 7242TIP3   OH221658   1.059   5.628   6.768 -0.1445 -0.4499  0.2920
 7242TIP3    H121659   1.012   5.582   6.837 -4.0545  0.6446 -1.4447
 7242TIP3    H221660   1.071   5.717   6.802  0.3471 -0.6279  0.5895
 7243TIP3   OH221661   1.095   3.951   6.360 -0.0007 -0.3204  0.0400
 7243TIP3    H121662   1.009   3.935   6.321 -1.2242  1.7591  1.7858
 7243TIP3    H221663   1.076   3.982   6.448  2.4670  2.2437 -0.2709
 7244TIP3   OH221664   6.398   0.230   1.828  0.4114  0.0559  0.2487
 7244TIP3    H121665   6.348   0.308   1.851 -1.9980 -1.3214 -0.1349
 7244TIP3    H221666   6.400   0.178   1.909  2.5370  0.7555  0.6785
 7245TIP3   OH221667   1.834   4.521   4.375  0.0513 -0.1173  0.2464
 7245TIP3    H121668   1.875   4.538   4.460 -0.4169  0.1542  0.4165
 7245TIP3    H221669   1.907   4.521   4.313  0.0249  3.0508  0.1421
 7246TIP3   OH221670   1.346   5.142   5.026 -0.4234 -0.4883  0.4450
 7246TIP3    H121671   1.280   5.141   4.956 -0.6859 -0.4091  0.6887
 7246TIP3    H221672   1.421   5.188   4.987 -0.4850 -0.6403  0.1432
 7247TIP3   OH221673   4.565   4.599   5.030 -0.3237  0.4756 -0.2870
 7247TIP3    H121674   4.637   4.643   5.075 -0.5433 -0.4566  0.9826
 7247TIP3    H221675   4.499   4.586   5.097 -0.8380 -0.5186 -0.9848
 7248TIP3   OH221676   1.272   2.332   4.697 -0.6699  0.3539  0.2460
 7248TIP3    H121677   1.207   2.266   4.671  0.0088 -1.4070  2.8706
 7248TIP3    H221678   1.313   2.359   4.615 -1.6739 -1.7393 -0.9845
 7249TIP3   OH221679   1.095   3.516   4.613 -0.2581 -0.0084 -0.1327
 7249TIP3    H121680   1.017   3.468   4.586 -0.6436  0.8999 -0.6783
 7249TIP3    H221681   1.112   3.577   4.541  0.5463  0.2790  0.2912
 7250TIP3   OH221682   3.883   2.082   3.751  0.2220  0.6659  0.3616
 7250TIP3    H121683   3.809   2.105   3.807  0.0412 -1.2383  0.9453
 7250TIP3    H221684   3.845   2.076   3.663 -0.5402 -1.1446  0.7770
 7251TIP3   OH221685   1.204   4.523   6.589  0.1225 -0.0655 -0.2922
 7251TIP3    H121686   1.279   4.583   6.595  1.8253 -2.3681  2.6002
 7251TIP3    H221687   1.202   4.497   6.496  3.7857 -1.0044 -0.1921
 7252TIP3   OH221688   1.335   5.535   6.908  0.3208 -0.5277  0.2134
 7252TIP3    H121689   1.309   5.627   6.907  0.5463 -0.4670 -1.3953
 7252TIP3    H221690   1.416   5.533   6.960  0.0410  0.1039  0.6688
 7253TIP3   OH221691   1.799   4.870   6.458 -0.4972 -0.1405 -1.0583
 7253TIP3    H121692   1.727   4.907   6.408  0.4535  0.1744 -2.1909
 7253TIP3    H221693   1.813   4.932   6.530 -1.7838 -0.5403 -0.4375
 7254TIP3   OH221694   1.082   3.941   3.565 -0.3452 -0.1212 -0.2911
 7254TIP3    H121695   0.997   3.943   3.609  0.0956 -2.4040  0.7524
 7254TIP3    H221696   1.138   3.996   3.619 -0.9297  0.6880 -0.4977
 7255TIP3   OH221697   1.789   1.603   3.978  0.1686 -0.1406 -0.3937
 7255TIP3    H121698   1.836   1.648   4.048  0.1223 -0.1948 -0.3269
 7255TIP3    H221699   1.785   1.667   3.907 -1.0069  0.4261  0.1636
 7256TIP3   OH221700   0.575   2.790   4.844  0.3520  0.1345 -0.1580
 7256TIP3    H121701   0.481   2.804   4.835  0.4709  1.5433  0.6563
 7256TIP3    H221702   0.588   2.775   4.938  0.9655  0.1031 -0.2458
 7257TIP3   OH221703   1.816   2.314   5.214 -0.3333  0.2897  0.3611
 7257TIP3    H121704   1.879   2.243   5.225  2.2032  2.3141 -0.6261
 7257TIP3    H221705   1.744   2.275   5.165  0.9457 -1.6677 -0.0109
 7258TIP3   OH221706   0.165   2.950   6.537 -0.2847 -0.7852  0.0667
 7258TIP3    H121707   0.168   2.945   6.441 -0.1691 -0.3562  0.0467
 7258TIP3    H221708   0.074   2.929   6.559 -0.3487 -0.7418 -0.1478
 7259TIP3   OH221709   0.283   3.194   6.672 -0.3030  0.3952 -0.4276
 7259TIP3    H121710   0.334   3.138   6.730  1.9027  1.3323 -1.4152
 7259TIP3    H221711   0.239   3.133   6.612  0.1267 -0.3905  0.0531
 7260TIP3   OH221712   1.844   2.272   4.085 -0.1984 -0.2908 -0.5184
 7260TIP3    H121713   1.841   2.294   4.178 -0.3042 -0.7655 -0.4078
 7260TIP3    H221714   1.848   2.176   4.083 -0.1455 -0.2808 -1.0004
 7261TIP3   OH221715   3.560   7.177   1.025 -0.6567  0.2242  0.4611
 7261TIP3    H121716   3.602   7.248   1.074  0.0073  0.8258 -0.9699
 7261TIP3    H221717   3.614   7.100   1.043 -0.5756  0.3806  0.8954
 7262TIP3   OH221718   0.701   4.706   4.429 -0.9827  0.0916  0.2991
 7262TIP3    H121719   0.738   4.716   4.516  0.8211  1.6503 -0.6231
 7262TIP3    H221720   0.728   4.785   4.381 -2.8188 -0.2305 -1.3591
 7263TIP3   OH221721   2.677   1.481   5.214  0.5423  0.0297  0.4775
 7263TIP3    H121722   2.738   1.540   5.258  1.6551 -1.4761  0.9698
 7263TIP3    H221723   2.629   1.439   5.285 -1.0905  1.1988  0.0979
 7264TIP3   OH221724   2.347   0.226   4.473  0.5358 -0.0225  0.1543
 7264TIP3    H121725   2.385   0.156   4.420 -0.0319 -0.8007  0.7629
 7264TIP3    H221726   2.255   0.202   4.482 -0.1301  1.8120 -1.2620
 7265TIP3   OH221727   0.888   4.469   5.010  0.1696  0.4430  0.1251
 7265TIP3    H121728   0.906   4.561   4.989 -0.0092  0.5998  0.6611
 7265TIP3    H221729   0.933   4.420   4.941 -0.1949  0.9474 -0.4796
 7266TIP3   OH221730   3.474   5.126   0.970 -0.1689  0.0969 -0.1359
 7266TIP3    H121731   3.409   5.188   0.940  1.2353  1.2129 -0.9258
 7266TIP3    H221732   3.538   5.122   0.899  1.4575  0.2378  1.2951
 7267TIP3   OH221733   3.574   7.789   0.929  0.4100 -0.0595  0.3818
 7267TIP3    H121734   3.560   7.788   1.024  0.9915  0.0264  0.4693
 7267TIP3    H221735   3.513   7.856   0.897 -0.0796 -0.3707  0.6433
 7268TIP3   OH221736   0.688   5.900   5.016  0.2382 -0.0901 -0.1384
 7268TIP3    H121737   0.708   5.993   5.023 -0.0924 -0.0614  0.4165
 7268TIP3    H221738   0.715   5.863   5.100  0.9990 -0.6146 -0.6043
 7269TIP3   OH221739   7.130   0.469   0.546 -0.3724  0.2239 -0.0721
 7269TIP3    H121740   7.073   0.488   0.621 -2.2119  0.0739 -1.3860
 7269TIP3    H221741   7.094   0.389   0.509  1.6128 -0.6846 -0.1003
 7270TIP3   OH221742   2.525   1.976   3.737 -0.6791  0.0336  0.7702
 7270TIP3    H121743   2.499   2.046   3.796  0.9845  1.0961  0.2700
 7270TIP3    H221744   2.599   1.934   3.780 -0.3935 -0.1406  0.1162
 7271TIP3   OH221745   0.806   5.283   6.395 -0.2892 -0.2095 -0.6613
 7271TIP3    H121746   0.815   5.270   6.489  0.0192 -3.0216 -1.0495
 7271TIP3    H221747   0.713   5.300   6.382  0.1828  3.7483  0.4981
 7272TIP3   OH221748   4.306   2.312   4.017 -0.3761  0.1109  0.1208
 7272TIP3    H121749   4.246   2.338   3.947  0.2142 -1.1188 -0.8721
 7272TIP3    H221750   4.310   2.216   4.010 -0.5877 -0.0647  2.0817
 7273TIP3   OH221751   0.685   4.226   5.515  0.5806  0.1973 -0.3281
 7273TIP3    H121752   0.665   4.320   5.519  1.0030  0.2378  1.1669
 7273TIP3    H221753   0.601   4.184   5.496  0.3448  0.8717 -0.7751
 7274TIP3   OH221754   2.136   1.777   6.102  0.1701  0.5786 -0.0268
 7274TIP3    H121755   2.100   1.722   6.171 -0.3205  1.1168  0.1389
 7274TIP3    H221756   2.223   1.802   6.134  0.1604  0.3834  0.1522
 7275TIP3   OH221757   0.444   1.711   5.118  0.0170 -0.2460  0.4314
 7275TIP3    H121758   0.532   1.750   5.119  0.0892 -0.4132  0.7548
 7275TIP3    H221759   0.394   1.765   5.179  0.1000 -0.6183  0.8311
 7276TIP3   OH221760   0.689   5.438   5.623  0.0837  0.1852 -0.3395
 7276TIP3    H121761   0.777   5.427   5.660  0.0298  0.5034 -0.1151
 7276TIP3    H221762   0.645   5.355   5.642 -0.1679  0.5972  0.9304
 7277TIP3   OH221763   3.460   3.517   5.479  0.2206 -0.1552  0.5834
 7277TIP3    H121764   3.394   3.551   5.540  0.8415  1.8274  0.1597
 7277TIP3    H221765   3.427   3.541   5.392  1.3358  0.5494  0.3507
 7278TIP3   OH221766   3.216   3.080   4.839 -0.2807 -0.7596  0.0634
 7278TIP3    H121767   3.182   3.169   4.850  0.1297 -0.6179  0.1742
 7278TIP3    H221768   3.277   3.069   4.911 -0.2705 -1.1028 -0.0014
 7279TIP3   OH221769   0.851   3.877   4.353  0.1202 -0.4420 -0.3436
 7279TIP3    H121770   0.779   3.916   4.303  0.4775  1.2699  0.4250
 7279TIP3    H221771   0.926   3.933   4.334  0.6891 -0.8404  0.6766
 7280TIP3   OH221772   7.426   0.807   4.945  0.8262 -0.4950  0.5055
 7280TIP3    H121773   7.436   0.725   4.897  0.2649  0.1120 -0.6942
 7280TIP3    H221774   7.503   0.859   4.921  0.3730 -0.0570 -0.0322
 7281TIP3   OH221775   0.755   4.965   5.286  0.0927 -0.4090 -0.0053
 7281TIP3    H121776   0.822   5.004   5.342 -0.9355  0.8692  0.3771
 7281TIP3    H221777   0.803   4.932   5.210  1.1363  0.6061  0.2042
 7282TIP3   OH221778   1.953   2.214   3.540  0.2029 -0.0840  0.0632
 7282TIP3    H121779   1.972   2.286   3.480  0.4484  0.4166  0.7248
 7282TIP3    H221780   1.935   2.257   3.624 -1.2875 -0.7137  0.0687
 7283TIP3   OH221781   0.221   1.189   4.856 -0.4107 -0.1719  0.4284
 7283TIP3    H121782   0.174   1.236   4.925 -1.1605 -1.9250  1.1448
 7283TIP3    H221783   0.211   1.245   4.778 -0.4146  1.3290  1.4843
 7284TIP3   OH221784   1.943   2.185   4.383  0.0921  0.2458 -0.2026
 7284TIP3    H121785   1.858   2.225   4.365 -0.5250 -0.1281  1.7285
 7284TIP3    H221786   1.971   2.225   4.465  0.2575 -1.9951  0.8715
 7285TIP3   OH221787   0.532   2.540   5.297  0.0551  0.1731  0.4541
 7285TIP3    H121788   0.437   2.538   5.284  0.1172 -0.1700  0.0732
 7285TIP3    H221789   0.556   2.449   5.314  0.1893  0.3896  1.4494
 7286TIP3   OH221790   8.263   2.862   3.987  0.0762 -0.5775 -0.3099
 7286TIP3    H121791   8.313   2.878   4.067 -0.6803  0.0116  0.0520
 7286TIP3    H221792   8.182   2.822   4.016 -0.9843  1.2776 -0.5940
 7287TIP3   OH221793   2.043   4.006   4.085 -0.0953 -0.6151  0.2851
 7287TIP3    H121794   2.099   4.060   4.140 -0.4195 -0.2212  0.2317
 7287TIP3    H221795   2.029   3.926   4.135 -0.4260 -0.2416  0.7882
 7288TIP3   OH221796   1.264   5.197   1.235  0.0440 -0.3198 -0.3044
 7288TIP3    H121797   1.352   5.233   1.249  0.4255 -0.9131 -1.1539
 7288TIP3    H221798   1.241   5.159   1.319  0.8113 -0.6168 -0.2214
 7289TIP3   OH221799   7.489   3.598   6.633 -0.6297  0.0021 -0.0480
 7289TIP3    H121800   7.458   3.658   6.701 -0.1121 -0.0579  0.2435
 7289TIP3    H221801   7.411   3.547   6.609 -1.0374  0.6817 -0.1922
 7290TIP3   OH221802   8.254   4.289   4.923 -0.4721  0.1371  0.5663
 7290TIP3    H121803   8.237   4.330   4.838  1.5068  2.5618  1.2693
 7290TIP3    H221804   8.349   4.280   4.926 -0.5994 -0.7088  2.1675
 7291TIP3   OH221805   3.507   3.596   6.913  0.2893 -0.4151  0.0658
 7291TIP3    H121806   3.414   3.577   6.899  0.3347 -0.2759 -0.4316
 7291TIP3    H221807   3.553   3.522   6.873  0.4369  0.2848 -1.0787
 7292TIP3   OH221808   1.206   4.360   6.852 -0.2155  0.1347 -0.8555
 7292TIP3    H121809   1.186   4.424   6.784 -1.0132 -1.0009 -1.7131
 7292TIP3    H221810   1.124   4.311   6.863  0.4665 -0.9138 -0.4131
 7293TIP3   OH221811   0.136   5.265   5.057  0.0156 -0.3436  0.4302
 7293TIP3    H121812   0.210   5.311   5.097 -0.0248 -0.6872  0.9152
 7293TIP3    H221813   0.059   5.315   5.085 -0.0302 -0.7180  0.9788
 7294TIP3   OH221814   1.908   4.192   5.294 -0.6172 -0.5626 -1.3635
 7294TIP3    H121815   1.897   4.285   5.274 -0.4897 -0.4214 -0.8027
 7294TIP3    H221816   1.822   4.153   5.281 -0.6984 -0.3393 -1.4764
 7295TIP3   OH221817   2.216   6.060   6.335 -0.3442  0.2071  0.0648
 7295TIP3    H121818   2.249   5.992   6.392 -0.9800 -2.1073 -2.2388
 7295TIP3    H221819   2.180   6.013   6.259 -1.6003  3.0324 -1.1751
 7296TIP3   OH221820   3.688   2.245   3.867 -0.3446 -0.2718 -0.4981
 7296TIP3    H121821   3.631   2.321   3.856 -0.0577  0.0759  0.3691
 7296TIP3    H221822   3.763   2.279   3.915  0.7346 -0.6591 -1.8725
 7297TIP3   OH221823   2.405   6.000   2.943  0.4459 -0.3654  0.0429
 7297TIP3    H121824   2.453   5.919   2.927 -1.2280 -1.2334 -0.6380
 7297TIP3    H221825   2.355   5.984   3.023  0.0504 -0.0235 -0.1333
 7298TIP3   OH221826   3.956   3.078   4.717  0.0157  0.1045 -0.0503
 7298TIP3    H121827   3.958   2.999   4.663  1.4833  1.7174 -2.4541
 7298TIP3    H221828   3.932   3.047   4.804  1.1774 -3.0818 -0.7951
 7299TIP3   OH221829   1.785   3.936   5.578 -0.1610  0.2086 -0.2900
 7299TIP3    H121830   1.795   3.911   5.487  0.0652  1.4377 -0.6191
 7299TIP3    H221831   1.864   3.985   5.598 -1.5723  2.6049 -0.3629
 7300TIP3   OH221832   2.774   5.656   3.523 -0.5445  0.3464  0.3467
 7300TIP3    H121833   2.767   5.612   3.439 -0.6901 -0.2061  0.6487
 7300TIP3    H221834   2.868   5.662   3.540 -0.5322 -0.1344  0.4552
 7301TIP3   OH221835   3.483   1.035   3.503 -0.2307  0.4516  0.4925
 7301TIP3    H121836   3.507   0.956   3.454  0.1279  0.2471  1.0027
 7301TIP3    H221837   3.422   1.080   3.445 -0.1492 -0.0124  0.0371
 7302TIP3   OH221838   3.357   6.028   5.043 -0.2271  0.4215  0.1614
 7302TIP3    H121839   3.426   6.008   5.106  0.0199  2.7693  0.6808
 7302TIP3    H221840   3.310   5.945   5.032  2.0411 -0.9604  0.5585
 7303TIP3   OH221841   2.548   4.591   5.134  0.1053  0.4128  0.5037
 7303TIP3    H121842   2.463   4.622   5.165 -0.4023 -1.6115  1.2420
 7303TIP3    H221843   2.528   4.547   5.051  0.5884  0.8622  0.1501
 7304TIP3   OH221844   2.326   3.294   4.723 -0.2363 -0.5487  0.0920
 7304TIP3    H121845   2.258   3.257   4.667 -0.0676  2.0679 -1.8770
 7304TIP3    H221846   2.278   3.336   4.794 -0.4810 -2.6598  1.2406
 7305TIP3   OH221847   3.869   6.634   3.198 -0.7644 -0.0382 -0.3204
 7305TIP3    H121848   3.791   6.605   3.149 -0.9729 -1.9984  1.1290
 7305TIP3    H221849   3.935   6.567   3.180  0.1312  0.8441 -0.3548
 7306TIP3   OH221850   1.165   3.754   4.831 -0.4147  0.2929  0.0423
 7306TIP3    H121851   1.109   3.756   4.909 -0.8256  0.6357 -0.2644
 7306TIP3    H221852   1.112   3.709   4.765 -0.0043 -0.1431  0.0033
 7307TIP3   OH221853   2.069   2.798   5.492 -0.0127 -0.1520 -0.3330
 7307TIP3    H121854   2.027   2.868   5.543 -1.0032 -1.5581  0.8330
 7307TIP3    H221855   2.128   2.844   5.433 -1.4681  1.7558 -0.3749
 7308TIP3   OH221856   2.796   1.422   3.991 -0.2426 -0.5770  0.3001
 7308TIP3    H121857   2.817   1.486   3.923  0.7337 -1.3113 -0.0827
 7308TIP3    H221858   2.873   1.366   3.997 -0.5847 -0.9335  1.5476
 7309TIP3   OH221859   2.649   4.259   5.137  0.2621  0.8019  0.2423
 7309TIP3    H121860   2.650   4.318   5.062  1.0322  2.1542  1.3119
 7309TIP3    H221861   2.570   4.206   5.124  0.8672  0.3913 -1.9871
 7310TIP3   OH221862   3.422   6.233   3.287 -0.0136 -0.4815  0.3575
 7310TIP3    H121863   3.329   6.223   3.269 -0.0598 -1.6140  1.1425
 7310TIP3    H221864   3.434   6.192   3.373  0.9510  0.9419  0.9181
 7311TIP3   OH221865   1.544   4.538   6.141 -0.2168 -0.7280  0.0069
 7311TIP3    H121866   1.587   4.457   6.167  0.9614 -0.2567 -0.4205
 7311TIP3    H221867   1.615   4.595   6.112 -0.9539  0.6987  0.9007
 7312TIP3   OH221868   0.122   0.331   0.883  0.2340  0.4922 -0.1907
 7312TIP3    H121869   0.173   0.313   0.804 -0.0414  0.8488 -0.4514
 7312TIP3    H221870   0.031   0.330   0.854  0.0324 -0.8192  0.3992
 7313TIP3   OH221871   4.670   7.248   3.713  0.2715  0.1489 -0.5809
 7313TIP3    H121872   4.615   7.283   3.644  2.3884  0.7156 -2.0261
 7313TIP3    H221873   4.697   7.162   3.682  2.2862  0.9320 -1.1094
 7314TIP3   OH221874   2.799   6.093   5.803  0.0696 -0.0577  0.0553
 7314TIP3    H121875   2.885   6.127   5.777 -0.2038 -0.7660 -1.8839
 7314TIP3    H221876   2.818   6.014   5.853  0.5388 -2.3649 -3.5650
 7315TIP3   OH221877   1.723   4.376   3.089  0.2591 -0.0959 -0.4555
 7315TIP3    H121878   1.713   4.424   3.007  1.6476  1.0474  0.0270
 7315TIP3    H221879   1.776   4.300   3.067 -0.3388 -0.4144 -0.8314
 7316TIP3   OH221880   2.845   4.585   4.267 -0.1550  0.2470 -0.1278
 7316TIP3    H121881   2.876   4.610   4.180  0.7773 -0.1999  0.0785
 7316TIP3    H221882   2.752   4.609   4.266  0.1536  1.4530 -0.7794
 7317TIP3   OH221883   0.807   3.088   4.541 -0.2869 -0.0527  0.1166
 7317TIP3    H121884   0.810   3.183   4.543 -2.6725  0.0117  2.4103
 7317TIP3    H221885   0.896   3.061   4.564 -0.0365  1.6108  1.2044
 7318TIP3   OH221886   0.875   3.813   6.688  0.0089  0.2928  0.1907
 7318TIP3    H121887   0.838   3.817   6.776 -0.5752 -0.5287 -0.0092
 7318TIP3    H221888   0.841   3.891   6.644 -1.0630 -0.1777  0.1744
 7319TIP3   OH221889   2.159   4.780   5.557  0.1527 -0.3933  0.0554
 7319TIP3    H121890   2.224   4.850   5.561  0.0487 -0.1957 -1.3604
 7319TIP3    H221891   2.089   4.809   5.617 -1.0683  1.9930 -2.3999
 7320TIP3   OH221892   1.011   4.687   3.011  0.8259 -0.1054 -0.5100
 7320TIP3    H121893   1.086   4.728   3.053  0.1756  1.0853 -0.4861
 7320TIP3    H221894   1.013   4.719   2.921 -0.5439  1.1892 -0.0988
 7321TIP3   OH221895   3.363   7.976   0.847  0.4411 -0.1526 -0.1597
 7321TIP3    H121896   3.318   7.955   0.765 -0.2094  1.1972 -0.1613
 7321TIP3    H221897   3.389   8.068   0.837  1.1294 -0.2376  0.7986
 7322TIP3   OH221898   1.139   4.387   3.482 -0.1392 -0.1127 -0.0200
 7322TIP3    H121899   1.070   4.386   3.548 -0.0508  1.1208  0.1019
 7322TIP3    H221900   1.173   4.298   3.482 -3.3899 -1.4473 -1.8294
 7323TIP3   OH221901   1.162   1.999   0.467  0.7030  0.6375 -0.0123
 7323TIP3    H121902   1.256   1.983   0.479  0.4623 -0.4697  0.4805
 7323TIP3    H221903   1.122   1.963   0.546 -0.0248  2.3018  0.3876
 7324TIP3   OH221904   3.003   5.624   5.214 -0.5759  0.2921 -0.0213
 7324TIP3    H121905   2.951   5.639   5.293 -0.5399  0.7111 -0.0758
 7324TIP3    H221906   2.940   5.634   5.142 -1.2481 -2.9422  0.0620
 7325TIP3   OH221907   1.338   1.826   0.865 -0.1709  0.3199  0.7347
 7325TIP3    H121908   1.426   1.800   0.893  0.2233  1.3518  0.4639
 7325TIP3    H221909   1.336   1.921   0.875 -1.5143  0.2340  1.4471
 7326TIP3   OH221910   2.097   3.491   6.201  0.8460  0.4173 -0.2319
 7326TIP3    H121911   2.120   3.426   6.136 -2.7847 -0.2961 -0.8995
 7326TIP3    H221912   2.085   3.441   6.282  0.0003  0.4939 -0.3003
 7327TIP3   OH221913   1.148   2.380   4.028  0.1085  0.1316 -0.9432
 7327TIP3    H121914   1.171   2.450   3.967  0.3944 -1.1876 -2.3865
 7327TIP3    H221915   1.197   2.304   3.996  1.0624 -0.3489  1.5248
 7328TIP3   OH221916   1.243   3.456   3.198  0.1019 -0.2487 -0.3216
 7328TIP3    H121917   1.282   3.543   3.192 -0.5711 -0.0236 -1.6279
 7328TIP3    H221918   1.309   3.403   3.242  0.9006  0.6977 -0.3622
 7329TIP3   OH221919   3.101   3.854   6.097  0.3936 -0.1674 -0.2843
 7329TIP3    H121920   3.149   3.909   6.159  0.2671 -0.6792  0.2783
 7329TIP3    H221921   3.103   3.903   6.015 -0.1828  0.9236  0.3441
 7330TIP3   OH221922   2.617   5.502   4.670  0.1908 -0.4295 -0.0076
 7330TIP3    H121923   2.705   5.486   4.704 -0.0299 -4.5698 -1.1378
 7330TIP3    H221924   2.626   5.492   4.575 -1.4127 -0.3323 -0.1785
 7331TIP3   OH221925   2.963   3.918   4.985  0.1452  0.3274 -0.1092
 7331TIP3    H121926   2.911   3.943   5.062  0.5673  1.5917 -0.2200
 7331TIP3    H221927   2.984   3.825   4.999 -0.2872  0.3936  1.0074
 7332TIP3   OH221928   2.025   5.658   5.718 -0.1185  0.2565 -0.5492
 7332TIP3    H121929   2.053   5.696   5.635  1.3347 -0.6413 -0.4959
 7332TIP3    H221930   1.985   5.574   5.694  1.0516 -0.3911 -0.3058
 7333TIP3   OH221931   2.765   3.446   5.983  0.4505 -0.0404  0.6927
 7333TIP3    H121932   2.850   3.480   6.012  0.4569  1.4957 -1.0124
 7333TIP3    H221933   2.701   3.496   6.033  0.5047  1.1622 -0.4067
 7334TIP3   OH221934   3.026   5.164   3.520 -0.1940  0.4398  0.2602
 7334TIP3    H121935   3.040   5.193   3.610  1.1409  3.0188 -0.7433
 7334TIP3    H221936   3.089   5.093   3.507  1.7638  2.1054  0.4379
 7335TIP3   OH221937   1.851   5.349   4.757 -0.4039  0.3931 -0.0758
 7335TIP3    H121938   1.881   5.310   4.839  0.1997  0.9884 -0.0138
 7335TIP3    H221939   1.829   5.274   4.701 -0.3410 -0.0168  0.4459
 7336TIP3   OH221940   2.601   4.663   4.267 -0.0813 -0.0932 -0.2445
 7336TIP3    H121941   2.549   4.720   4.324 -0.6032 -0.4785 -0.3258
 7336TIP3    H221942   2.553   4.664   4.183  0.7568  0.5871 -0.7233
 7337TIP3   OH221943   2.901   5.049   5.137 -0.3556 -0.1565 -0.1460
 7337TIP3    H121944   2.955   5.038   5.215 -0.3700  0.1795 -0.0864
 7337TIP3    H221945   2.924   4.976   5.081 -0.5835 -0.5861  0.3184
 7338TIP3   OH221946   1.816   3.665   5.953  0.5807  0.6487 -0.0281
 7338TIP3    H121947   1.841   3.572   5.952 -1.2140  0.1420  0.9343
 7338TIP3    H221948   1.872   3.704   6.020  1.0338  0.1796 -0.1331
 7339TIP3   OH221949   8.359   3.669   4.877  0.1746 -0.0611  0.0911
 7339TIP3    H121950   8.327   3.752   4.841  1.6043  0.1316 -0.7449
 7339TIP3    H221951   8.279   3.618   4.892 -0.8650  1.9846  1.9872
 7340TIP3   OH221952   1.998   5.055   6.574  0.2839 -0.2561  0.2697
 7340TIP3    H121953   1.955   5.077   6.491 -0.3474 -1.1962  0.3355
 7340TIP3    H221954   1.991   5.135   6.626  0.0407  0.1139 -0.3234
 7341TIP3   OH221955   4.039   3.265   4.062  0.8886 -0.6034 -0.2395
 7341TIP3    H121956   3.950   3.230   4.063  0.3661  0.7074 -0.7143
 7341TIP3    H221957   4.073   3.247   4.150 -1.5453  3.2225  1.5702
 7342TIP3   OH221958   2.455   4.633   4.025 -0.0015  0.5354  0.6214
 7342TIP3    H121959   2.450   4.584   3.943  0.2812  1.0879  0.2691
 7342TIP3    H221960   2.487   4.720   3.999 -0.2917  0.8375  1.2652
 7343TIP3   OH221961   4.595   1.866   2.370 -0.2741  0.0936 -0.5356
 7343TIP3    H121962   4.510   1.821   2.370  0.6148 -1.6249  0.0864
 7343TIP3    H221963   4.659   1.795   2.370  1.1744  1.3765  0.7416
 7344TIP3   OH221964   3.019   4.291   2.640  0.2805  0.9468  0.8102
 7344TIP3    H121965   3.043   4.225   2.705  0.6911  0.1390 -0.1557
 7344TIP3    H221966   3.089   4.287   2.574  0.7638  2.9303  1.1635
 7345TIP3   OH221967   2.562   3.877   5.292  0.2546 -0.1695 -0.6235
 7345TIP3    H121968   2.609   3.795   5.308  1.2095  0.0845 -2.0886
 7345TIP3    H221969   2.504   3.858   5.218 -0.0095  0.2922 -0.5389
 7346TIP3   OH221970   3.879   4.654   6.450 -0.1624  0.0281  0.3979
 7346TIP3    H121971   3.901   4.739   6.413 -1.0902  0.9390  1.8876
 7346TIP3    H221972   3.932   4.592   6.401  1.2442  1.5600 -0.0492
 7347TIP3   OH221973   4.495   4.000   3.586 -0.6206 -0.0639 -0.2105
 7347TIP3    H121974   4.451   3.945   3.521  1.0938  0.8110 -2.1824
 7347TIP3    H221975   4.488   3.951   3.668 -3.0171 -1.0939 -0.9993
 7348TIP3   OH221976   8.429   1.918   4.575  0.3120  0.5843  0.0443
 7348TIP3    H121977   8.383   1.982   4.519 -0.3877  0.9471  1.0177
 7348TIP3    H221978   8.361   1.883   4.632  1.1601  0.8101  1.2166
 7349TIP3   OH221979   1.669   3.453   2.491 -0.1235  0.2800 -1.0636
 7349TIP3    H121980   1.643   3.363   2.506  1.9051 -0.5215 -2.0656
 7349TIP3    H221981   1.612   3.505   2.547 -0.8315 -1.6798  0.0717
 7350TIP3   OH221982   2.031   3.768   6.182 -0.1220  0.0861  0.8847
 7350TIP3    H121983   2.075   3.800   6.261  1.5529  0.6662 -0.2543
 7350TIP3    H221984   2.033   3.673   6.190  0.6675  0.1289  1.2123
 7351TIP3   OH221985   1.107   2.166   3.654 -0.4162 -0.2487 -0.0640
 7351TIP3    H121986   1.032   2.226   3.657 -0.6397 -0.4801 -0.9451
 7351TIP3    H221987   1.146   2.181   3.568 -0.9101 -1.8976 -0.5804
 7352TIP3   OH221988   1.768   2.578   5.115  0.2729  0.2564  0.2282
 7352TIP3    H121989   1.809   2.495   5.088 -0.2713 -0.1839  0.7390
 7352TIP3    H221990   1.819   2.606   5.192  0.0878  0.0937  0.4103
 7353TIP3   OH221991   3.993   4.351   6.342  0.6010  0.5397  0.0647
 7353TIP3    H121992   3.997   4.374   6.435  0.1082  0.4742  0.1041
 7353TIP3    H221993   3.969   4.258   6.341 -0.6486  0.8494 -0.1398
 7354TIP3   OH221994   2.121   1.651   4.202  0.3585 -0.3518  0.5745
 7354TIP3    H121995   2.118   1.698   4.119  1.6222 -3.2023 -1.1839
 7354TIP3    H221996   2.210   1.665   4.234  0.2610 -0.2947  0.8222
 7355TIP3   OH221997   1.725   5.660   5.752 -0.4113  0.0480 -0.0970
 7355TIP3    H121998   1.730   5.721   5.678  0.6521  2.4736  1.8900
 7355TIP3    H221999   1.809   5.613   5.749 -0.6179 -0.2815 -0.7789
 7356TIP3   OH222000   6.939   0.255   1.114  0.0458  0.1245 -0.1237
 7356TIP3    H122001   7.032   0.279   1.118 -0.2458  1.1265  0.6814
 7356TIP3    H222002   6.931   0.209   1.030  1.5483 -1.1932  0.4166
 7357TIP3   OH222003   1.584   4.412   4.144  0.2461 -0.8713 -0.0041
 7357TIP3    H122004   1.641   4.476   4.187  1.0564 -1.2951 -0.4347
 7357TIP3    H222005   1.614   4.410   4.053 -0.9146 -0.5872 -0.4097
 7358TIP3   OH222006   2.356   2.733   4.333 -0.4193 -0.3408 -0.3471
 7358TIP3    H122007   2.336   2.824   4.310  2.0786 -0.0199 -1.3703
 7358TIP3    H222008   2.270   2.692   4.344 -1.5938  1.7977 -1.2159
 7359TIP3   OH222009   4.468   4.474   3.353 -0.0718  0.6963  0.3369
 7359TIP3    H122010   4.482   4.394   3.404 -2.2032 -0.5378 -0.9661
 7359TIP3    H222011   4.401   4.451   3.289 -0.3457  3.3827 -0.4118
 7360TIP3   OH222012   4.277   2.715   2.672  0.0568 -0.0322 -0.0829
 7360TIP3    H122013   4.261   2.672   2.756 -0.6091  1.2708  0.4801
 7360TIP3    H222014   4.227   2.664   2.608  1.0960 -1.4269  0.1819
 7361TIP3   OH222015   2.738   5.704   3.124  0.5737 -0.4500  0.1200
 7361TIP3    H122016   2.827   5.736   3.139  0.4171 -0.3440  0.8495
 7361TIP3    H222017   2.742   5.610   3.146  0.9966 -0.9183 -1.8647
 7362TIP3   OH222018   3.908   4.295   2.576  0.1193  0.0923 -0.1732
 7362TIP3    H122019   3.925   4.389   2.585 -1.3805  0.4474 -1.0288
 7362TIP3    H222020   3.871   4.285   2.488 -0.8846 -1.1365  0.3786
 7363TIP3   OH222021   0.913   1.400   0.738 -0.1340  0.5629 -0.2480
 7363TIP3    H122022   0.880   1.322   0.782  0.4990  0.4139 -0.0294
 7363TIP3    H222023   0.974   1.439   0.801  0.5594  0.5063 -0.8696
 7364TIP3   OH222024   8.438   3.942   3.503 -0.1446  0.3483  0.1625
 7364TIP3    H122025   8.429   3.873   3.568 -2.2860  0.9475  0.5417
 7364TIP3    H222026   8.528   3.974   3.514  0.7056 -2.0063  0.3130
 7365TIP3   OH222027   2.048   3.350   6.435  0.4823  0.6246  0.5441
 7365TIP3    H122028   1.997   3.283   6.480 -0.8154 -0.3388 -2.2332
 7365TIP3    H222029   2.022   3.432   6.476 -2.2335  0.0075  0.1638
 7366TIP3   OH222030   2.230   2.415   4.146 -0.5223  0.2612  0.1723
 7366TIP3    H122031   2.181   2.367   4.079 -0.1129 -0.2101  0.2115
 7366TIP3    H222032   2.262   2.493   4.101 -0.1237 -0.1273 -0.2126
 7367TIP3   OH222033   3.417   4.645   5.224  0.2410 -0.1024  0.4765
 7367TIP3    H122034   3.443   4.621   5.135  0.8692  1.5242  0.2046
 7367TIP3    H222035   3.345   4.706   5.212  0.0276 -0.2312  1.0976
 7368TIP3   OH222036   2.669   4.811   3.340  0.5672  0.6365  0.6761
 7368TIP3    H122037   2.669   4.819   3.245  2.8764  0.2013  0.6142
 7368TIP3    H222038   2.716   4.887   3.371 -1.2401  1.4242  1.5743
 7369TIP3   OH222039   2.830   5.024   3.381  0.0089  0.1335  0.4837
 7369TIP3    H122040   2.892   5.086   3.420  0.2785  0.4488 -0.4207
 7369TIP3    H222041   2.765   5.079   3.338 -0.0291 -0.1977  0.1059
 7370TIP3   OH222042   1.003   2.487   3.204  0.5798  0.0141  0.0541
 7370TIP3    H122043   1.089   2.506   3.168 -0.6671 -0.4673 -3.4356
 7370TIP3    H222044   0.983   2.398   3.173 -1.2524  0.2225  0.5478
 7371TIP3   OH222045   1.617   4.373   3.568 -0.2241 -0.0662  0.1034
 7371TIP3    H122046   1.539   4.347   3.518 -0.2317 -1.6606  0.8926
 7371TIP3    H222047   1.691   4.349   3.512 -0.2619 -0.8258  0.3629
 7372TIP3   OH222048   2.441   4.003   5.745 -0.8029  0.0589  0.0099
 7372TIP3    H122049   2.415   4.076   5.801 -0.1678  0.4239 -0.1716
 7372TIP3    H222050   2.411   3.925   5.792 -0.9243  0.4042  0.5053
 7373TIP3   OH222051   2.565   5.129   6.276 -0.9070  0.8074 -0.1297
 7373TIP3    H122052   2.558   5.185   6.198  1.7304  1.4134  0.0319
 7373TIP3    H222053   2.576   5.190   6.348 -1.7130  0.1780  0.5342
 7374TIP3   OH222054   2.980   4.950   2.317  0.1520 -0.1775 -0.2800
 7374TIP3    H122055   2.898   4.944   2.268 -0.3304  1.7555  0.2265
 7374TIP3    H222056   2.992   4.863   2.356 -2.0386 -0.2619  0.2422
 7375TIP3   OH222057   2.789   4.632   3.504 -0.2513 -0.4520 -0.2915
 7375TIP3    H122058   2.857   4.616   3.439 -0.6543 -0.6085 -0.6765
 7375TIP3    H222059   2.723   4.683   3.457 -1.6262 -2.5333 -0.6690
 7376TIP3   OH222060   2.968   4.139   2.029 -0.2226  0.0105  0.2831
 7376TIP3    H122061   2.976   4.198   1.953 -0.6964  0.0170  0.2376
 7376TIP3    H222062   3.057   4.111   2.046  0.0027  0.6840  0.2539
 7377TIP3   OH222063   7.518   0.115   0.799 -0.0806 -0.3272  0.5161
 7377TIP3    H122064   7.487   0.193   0.844 -0.3221 -0.4565  0.5776
 7377TIP3    H222065   7.448   0.094   0.737  0.2666 -0.1302  0.0556
 7378TIP3   OH222066   2.953   4.328   4.264  0.0310 -0.5652 -0.0333
 7378TIP3    H122067   2.901   4.408   4.254  1.4528  0.1995 -1.4839
 7378TIP3    H222068   2.915   4.267   4.200 -0.4976 -0.7695  0.4686
 7379TIP3   OH222069   2.152   5.936   4.029  0.2139  0.1847 -0.4739
 7379TIP3    H122070   2.143   5.889   3.947 -0.8886  1.4745 -1.1080
 7379TIP3    H222071   2.223   5.999   4.014  1.4694 -1.0296  0.2683
 7380TIP3   OH222072   4.581   4.984   4.092 -0.0611 -0.1502 -0.0859
 7380TIP3    H122073   4.582   5.054   4.026  2.9094 -0.0282  0.0027
 7380TIP3    H222074   4.671   4.952   4.093 -0.4540 -1.2641  2.7684
 7381TIP3   OH222075   2.010   3.685   3.388 -0.3214 -0.9512  0.4939
 7381TIP3    H122076   2.091   3.639   3.366 -0.6347 -1.7170  0.9138
 7381TIP3    H222077   1.961   3.623   3.444  0.0287  0.5469  2.5298
 7382TIP3   OH222078   1.156   3.091   6.416 -0.1422  0.1051  0.2473
 7382TIP3    H122079   1.229   3.133   6.370  0.1575 -1.5496 -0.8526
 7382TIP3    H222080   1.082   3.151   6.404 -0.0776 -0.2821 -2.4575
 7383TIP3   OH222081   3.295   3.171   5.295 -0.4526 -0.2728 -0.1733
 7383TIP3    H122082   3.293   3.157   5.390 -2.0194  0.9894  0.0134
 7383TIP3    H222083   3.241   3.101   5.259 -2.5251  1.1069  0.1642
 7384TIP3   OH222084   1.696   2.608   5.537  0.0225  0.2551 -0.2317
 7384TIP3    H122085   1.740   2.652   5.609 -1.2806 -1.7536  1.8905
 7384TIP3    H222086   1.708   2.515   5.555  1.3840 -0.3238 -3.7321
 7385TIP3   OH222087   4.174   6.147   4.270  0.4492  0.1757  0.2819
 7385TIP3    H122088   4.227   6.206   4.325 -0.3055  2.3725 -1.3066
 7385TIP3    H222089   4.109   6.111   4.331  0.5167  1.4696  1.1497
 7386TIP3   OH222090   3.654   4.762   2.323 -0.2744  0.0308 -0.2645
 7386TIP3    H122091   3.746   4.782   2.305 -0.4851  0.6301 -0.6811
 7386TIP3    H222092   3.655   4.719   2.409  0.4568 -0.5218 -0.5408
 7387TIP3   OH222093   3.590   4.186   6.324 -0.6584 -0.5767 -0.5559
 7387TIP3    H122094   3.518   4.149   6.376 -0.9501 -0.5956 -0.9703
 7387TIP3    H222095   3.558   4.272   6.298 -0.4247 -0.4807 -0.5242
 7388TIP3   OH222096   2.439   3.341   5.895 -0.2489  0.2505  0.2472
 7388TIP3    H122097   2.507   3.356   5.829 -1.2748 -1.0046 -1.1346
 7388TIP3    H222098   2.459   3.404   5.965  3.0802 -0.9380  0.4754
 7389TIP3   OH222099   1.477   5.409   5.875  0.4474  0.1339 -0.1128
 7389TIP3    H122100   1.418   5.404   5.950  2.0743  1.1926  1.2883
 7389TIP3    H222101   1.494   5.503   5.863  0.1077 -0.0153 -1.8895
 7390TIP3   OH222102   1.962   4.816   5.016 -0.0157 -0.0442 -0.3143
 7390TIP3    H122103   2.008   4.821   5.100  1.1312 -0.0139 -0.9434
 7390TIP3    H222104   1.894   4.883   5.022  1.2626  1.2456 -0.1366
 7391TIP3   OH222105   3.558   4.638   6.807 -0.3641 -0.5425  0.0770
 7391TIP3    H122106   3.582   4.546   6.796 -0.4380 -0.6880  1.1208
 7391TIP3    H222107   3.521   4.643   6.895 -0.0071  0.5613  0.1687
 7392TIP3   OH222108   2.712   4.648   4.724 -0.1146 -0.1203  0.1576
 7392TIP3    H122109   2.655   4.632   4.799 -0.4688  0.3112 -0.0137
 7392TIP3    H222110   2.701   4.571   4.669  1.1611 -1.0458  1.1715
 7393TIP3   OH222111   8.202   3.882   6.496 -0.2294  0.2067  0.0708
 7393TIP3    H122112   8.251   3.815   6.448 -1.0567 -0.7623  0.5556
 7393TIP3    H222113   8.214   3.962   6.445  1.6998 -0.0586  0.0906
 7394TIP3   OH222114   1.320   2.625   3.930 -0.2309  0.0802  0.2141
 7394TIP3    H122115   1.325   2.650   4.023 -0.7773 -1.3932  0.6525
 7394TIP3    H222116   1.324   2.708   3.883 -1.9697  1.0027  1.6321
 7395TIP3   OH222117   1.225   0.493   4.291 -0.0740  0.4000  0.0062
 7395TIP3    H122118   1.216   0.476   4.385  0.1878  1.5511  0.2457
 7395TIP3    H222119   1.243   0.587   4.285 -1.1620  0.5331 -1.2716
 7396TIP3   OH222120   1.439   3.758   4.794 -0.0453  0.6033 -0.1116
 7396TIP3    H122121   1.454   3.668   4.821 -1.7264 -0.3318 -2.0941
 7396TIP3    H222122   1.350   3.777   4.822  0.8961  2.2728  1.8357
 7397TIP3   OH222123   3.140   4.104   6.255  0.4354 -0.0430  0.2332
 7397TIP3    H122124   3.064   4.089   6.312 -0.1241 -2.4685 -1.1035
 7397TIP3    H222125   3.124   4.190   6.217 -0.0265  0.8785  2.4174
 7398TIP3   OH222126   3.857   4.691   6.150 -0.6990  0.4300 -0.1980
 7398TIP3    H122127   3.783   4.666   6.207 -0.0161  1.1819  1.0218
 7398TIP3    H222128   3.868   4.785   6.164 -1.9119  1.0812 -3.2326
 7399TIP3   OH222129   3.299   4.886   5.117  0.2247  0.0333 -0.2083
 7399TIP3    H122130   3.312   4.961   5.175  1.4236  0.6620 -1.2492
 7399TIP3    H222131   3.344   4.911   5.036  1.9704 -2.4410 -0.0598
 7400TIP3   OH222132   4.349   4.551   5.502 -0.0415  0.2581  0.2679
 7400TIP3    H122133   4.430   4.550   5.450  0.1203 -1.2623  0.5445
 7400TIP3    H222134   4.379   4.541   5.592 -0.4916  0.5906  0.4569
 7401TIP3   OH222135   0.920   7.309   2.152 -0.3820 -0.0670 -0.0331
 7401TIP3    H122136   0.844   7.251   2.160  1.1532 -1.7876  2.8854
 7401TIP3    H222137   0.996   7.250   2.154  1.1443  1.8327 -0.1164
 7402TIP3   OH222138   4.325   7.864   0.320  0.9625 -0.0367  0.5010
 7402TIP3    H122139   4.316   7.871   0.415  0.1246 -0.1480  0.4333
 7402TIP3    H222140   4.353   7.951   0.292  0.4526  0.2160  0.7700
 7403TIP3   OH222141   0.779   3.020   5.292 -0.0670 -0.0390  0.1881
 7403TIP3    H122142   0.852   3.036   5.352  0.6491 -0.6691 -0.5029
 7403TIP3    H222143   0.820   3.013   5.206 -0.9903 -0.0290 -0.2581
 7404TIP3   OH222144   3.062   3.810   5.694 -0.4620 -0.2325 -0.3436
 7404TIP3    H122145   3.077   3.862   5.773  0.1354 -1.1703  0.1702
 7404TIP3    H222146   2.967   3.811   5.683 -0.6523 -1.0351  1.0507
 7405TIP3   OH222147   0.150   2.968   4.623 -0.0653 -0.5006  0.5770
 7405TIP3    H122148   0.087   2.925   4.681 -1.2299  0.1373 -0.1885
 7405TIP3    H222149   0.172   3.050   4.668 -0.7939 -0.1106  0.2215
 7406TIP3   OH222150   1.760   4.372   6.219 -0.3778 -0.0729 -0.0807
 7406TIP3    H122151   1.825   4.400   6.283  0.1718  0.8093 -1.0077
 7406TIP3    H222152   1.761   4.276   6.224  0.1497 -0.0329  0.7288
 7407TIP3   OH222153   0.058   2.155   1.700  0.3287 -0.0150 -0.5165
 7407TIP3    H122154   0.009   2.201   1.633  0.3684 -0.3021 -0.7413
 7407TIP3    H222155   0.149   2.160   1.670  0.5392  1.1711  0.2719
 7408TIP3   OH222156   1.222   3.621   4.354  0.1987 -0.0711 -0.1164
 7408TIP3    H122157   1.182   3.563   4.289  1.5820  0.0933 -1.1440
 7408TIP3    H222158   1.204   3.709   4.321  0.9805  0.0120 -0.3269
 7409TIP3   OH222159   1.292   4.342   5.771  0.3163 -0.0022 -0.3732
 7409TIP3    H122160   1.210   4.319   5.727 -0.7297  1.4793  0.7671
 7409TIP3    H222161   1.296   4.437   5.765  1.2425  0.0325  0.8245
 7410TIP3   OH222162   2.091   3.227   4.609 -0.3378 -0.5845  0.2382
 7410TIP3    H122163   2.058   3.274   4.533 -0.6610 -2.8308 -1.0568
 7410TIP3    H222164   2.013   3.195   4.654 -0.0839 -1.8831 -0.2149
 7411TIP3   OH222165   4.124   4.001   6.782  0.3261  0.5391  0.3621
 7411TIP3    H122166   4.098   4.023   6.872  0.4663 -2.3375  1.1304
 7411TIP3    H222167   4.175   3.921   6.791  0.3097  0.2099 -2.3171
 7412TIP3   OH222168   3.882   3.965   5.127  0.1730  0.0504  0.5356
 7412TIP3    H122169   3.903   3.991   5.216 -0.2030  1.6159  0.1787
 7412TIP3    H222170   3.830   3.885   5.137  0.2246  0.1554  1.7108
 7413TIP3   OH222171   1.985   2.285   4.928  0.1920  0.3518  0.0618
 7413TIP3    H122172   2.076   2.261   4.948  0.5771  0.7463 -1.1764
 7413TIP3    H222173   1.937   2.262   5.007  1.3950  0.2725  0.7932
 7414TIP3   OH222174   3.468   1.965   3.447  0.4029  0.0005  0.4635
 7414TIP3    H122175   3.416   2.045   3.449  0.6664  0.1642  1.1320
 7414TIP3    H222176   3.460   1.933   3.357 -1.9349 -0.6976  0.8932
 7415TIP3   OH222177   1.190   3.573   5.837  0.2293 -0.4679 -0.5085
 7415TIP3    H122178   1.165   3.643   5.896 -1.6030 -2.2241  0.8561
 7415TIP3    H222179   1.286   3.569   5.845  0.3937  1.9973 -0.8076
 7416TIP3   OH222180   4.862   1.751   5.174 -0.0817 -0.0395 -0.1546
 7416TIP3    H122181   4.834   1.787   5.259  2.4887 -0.6547  0.9971
 7416TIP3    H222182   4.857   1.656   5.185 -1.2454 -0.1276 -1.2586
 7417TIP3   OH222183   2.934   4.114   5.570 -0.3780 -0.3184 -0.3668
 7417TIP3    H122184   2.899   4.138   5.485  1.0478 -0.1821 -0.9290
 7417TIP3    H222185   3.028   4.127   5.562 -0.4074  1.4449  1.8176
 7418TIP3   OH222186   1.185   4.878   6.597 -0.4049  0.5793 -0.0283
 7418TIP3    H122187   1.153   4.877   6.687 -0.9910 -0.0944 -0.2368
 7418TIP3    H222188   1.107   4.866   6.544  0.2823 -2.1635 -0.4962
 7419TIP3   OH222189   0.601   3.961   5.170  0.0572 -0.0967 -0.1425
 7419TIP3    H122190   0.630   3.927   5.255 -1.6501 -0.9989  0.1083
 7419TIP3    H222191   0.681   3.991   5.128  0.8996  0.6672  1.9190
 7420TIP3   OH222192   3.841   1.235   5.723 -0.3696 -0.0486  0.1580
 7420TIP3    H122193   3.927   1.215   5.686 -0.5955  0.7123 -0.7889
 7420TIP3    H222194   3.840   1.190   5.808  0.8315 -0.3258  0.0263
 7421TIP3   OH222195   2.344   4.424   4.221  0.1369  0.3881 -0.8463
 7421TIP3    H122196   2.330   4.396   4.130 -1.0751  1.7294 -1.0814
 7421TIP3    H222197   2.424   4.477   4.217  2.2640 -2.6495 -0.4538
 7422TIP3   OH222198   4.871   7.557   1.001  0.8769 -0.0479 -0.5748
 7422TIP3    H122199   4.846   7.607   0.923  1.1712  1.6422  0.3943
 7422TIP3    H222200   4.864   7.620   1.073 -1.0792 -2.0445  1.0473
 7423TIP3   OH222201   1.311   2.452   5.351 -0.1269 -0.6553  0.0307
 7423TIP3    H122202   1.380   2.388   5.365 -0.6227 -1.3499 -0.6352
 7423TIP3    H222203   1.337   2.529   5.403  1.3069 -0.7772 -0.5116
 7424TIP3   OH222204   2.719   3.616   5.530  0.5351 -0.5836  0.5984
 7424TIP3    H122205   2.751   3.697   5.569 -2.1911  0.6840  0.3677
 7424TIP3    H222206   2.741   3.624   5.437  1.0466 -0.4954  0.7272
 7425TIP3   OH222207   3.698   3.502   5.585 -0.4400 -0.4215  0.6868
 7425TIP3    H122208   3.611   3.481   5.550 -0.7423  0.5587  0.8631
 7425TIP3    H222209   3.710   3.595   5.568 -0.9596  0.3180  3.9931
 7426TIP3   OH222210   0.591   4.259   5.075 -0.6536 -0.0527  0.2559
 7426TIP3    H122211   0.619   4.350   5.064  0.1280 -0.3110  0.0795
 7426TIP3    H222212   0.659   4.208   5.031 -1.5408 -0.6809 -0.4074
 7427TIP3   OH222213   1.350   3.313   4.649 -0.6566  0.1718  0.3229
 7427TIP3    H122214   1.415   3.358   4.595 -0.1227 -1.4339 -0.3776
 7427TIP3    H222215   1.270   3.365   4.639  0.0719  1.2238 -0.1012
 7428TIP3   OH222216   1.905   5.551   4.519  0.4269 -0.5773 -0.0203
 7428TIP3    H122217   1.921   5.620   4.584  2.2845 -0.8364 -0.1935
 7428TIP3    H222218   1.894   5.471   4.571 -0.5144 -0.3783  0.1037
 7429TIP3   OH222219   0.740   6.615   3.732  0.7872 -0.1206  0.0965
 7429TIP3    H122220   0.807   6.682   3.731  0.8643 -0.2001 -0.1640
 7429TIP3    H222221   0.775   6.544   3.677 -0.0745  0.3907 -1.1435
 7430TIP3   OH222222   3.142   6.272   5.601 -0.1662  0.2854 -0.3465
 7430TIP3    H122223   3.237   6.270   5.618 -0.5293 -2.4081  1.5564
 7430TIP3    H222224   3.107   6.329   5.670 -0.2423 -0.9486  0.6406
 7431TIP3   OH222225   5.125   3.478   3.008  0.7744  0.6571 -0.3636
 7431TIP3    H122226   5.085   3.391   3.015 -2.0465  2.1232  3.3406
 7431TIP3    H222227   5.101   3.508   2.921  2.5532 -2.5680 -2.0596
 7432TIP3   OH222228   2.535   3.849   2.490 -0.7347 -0.8473 -0.1489
 7432TIP3    H122229   2.501   3.813   2.408  1.8561  0.4680 -1.8586
 7432TIP3    H222230   2.555   3.940   2.469  0.2065 -0.5693  1.8861
 7433TIP3   OH222231   1.971   2.430   3.701  0.5906 -0.5815  0.1578
 7433TIP3    H122232   1.989   2.501   3.639 -0.5429 -0.6625 -0.2809
 7433TIP3    H222233   2.050   2.424   3.754  1.1089  0.3028 -0.4948
 7434TIP3   OH222234   1.347   2.519   0.754 -0.1529 -0.6451 -0.3242
 7434TIP3    H122235   1.384   2.550   0.837 -0.2339 -0.0575 -0.5023
 7434TIP3    H222236   1.287   2.589   0.727  0.4903 -0.4490 -1.2883
 7435TIP3   OH222237   3.623   7.667   0.635 -0.0005 -0.1531 -0.0705
 7435TIP3    H122238   3.538   7.652   0.676  0.5910 -0.2656  1.1238
 7435TIP3    H222239   3.637   7.762   0.644 -0.7694  0.1623 -1.8211
 7436TIP3   OH222240   3.314   5.208   4.241  0.6349  0.2097  0.2317
 7436TIP3    H122241   3.239   5.157   4.209  0.8340  0.5024 -0.7264
 7436TIP3    H222242   3.384   5.188   4.179  0.6945  1.6943 -0.2009
 7437TIP3   OH222243   2.637   5.856   4.415  0.0099  0.6337 -0.2612
 7437TIP3    H122244   2.682   5.876   4.333 -0.1543 -0.0220 -0.5149
 7437TIP3    H222245   2.544   5.862   4.393 -0.0302  1.5013  0.1392
 7438TIP3   OH222246   3.155   4.885   4.427 -0.3576  0.7341 -0.0109
 7438TIP3    H122247   3.080   4.884   4.487  0.2463  0.6744  0.7432
 7438TIP3    H222248   3.117   4.865   4.341 -1.2086  0.7118  0.3654
 7439TIP3   OH222249   2.827   2.831   1.228 -0.1616 -0.2280  0.1631
 7439TIP3    H122250   2.874   2.877   1.298  0.1613 -1.4633  0.7969
 7439TIP3    H222251   2.791   2.753   1.272 -0.1814 -0.8765 -0.9849
 7440TIP3   OH222252   4.065   4.040   5.324  0.1596  0.2563  0.0047
 7440TIP3    H122253   4.066   4.030   5.420 -1.1058 -1.1627 -0.1062
 7440TIP3    H222254   4.078   4.133   5.310 -1.3583  0.7427  1.6366
 7441TIP3   OH222255   1.102   4.720   4.072 -0.1293 -0.7194  0.4715
 7441TIP3    H122256   1.071   4.676   4.152  2.0462  0.5052  2.0475
 7441TIP3    H222257   1.166   4.783   4.104 -1.1701  1.6710 -2.0128
 7442TIP3   OH222258   4.248   3.267   5.836  0.3948 -0.3457  0.5907
 7442TIP3    H122259   4.327   3.290   5.885  1.6115 -2.6234 -0.2171
 7442TIP3    H222260   4.185   3.239   5.902  1.3928 -1.6224  1.0222
 7443TIP3   OH222261   5.029   3.458   4.497 -0.1464  0.2592 -0.1080
 7443TIP3    H122262   5.036   3.363   4.506  1.8182  0.3604 -0.2511
 7443TIP3    H222263   4.940   3.473   4.464 -1.5294 -1.3012  2.7540
 7444TIP3   OH222264   1.568   3.521   4.638  0.4037  0.5351  0.1484
 7444TIP3    H122265   1.548   3.546   4.548  1.2214 -1.2012 -0.5368
 7444TIP3    H222266   1.613   3.597   4.675 -0.1268  1.3435 -0.8202
 7445TIP3   OH222267   7.781   2.702   4.536  0.4501  0.8775  0.4029
 7445TIP3    H122268   7.692   2.701   4.503 -0.0244  1.4945  1.6443
 7445TIP3    H222269   7.782   2.635   4.605  0.9353  0.9235  0.4469
 7446TIP3   OH222270   2.903   2.619   4.458  0.6420 -0.0467 -1.0539
 7446TIP3    H122271   2.958   2.689   4.423  0.8838  0.2587 -0.0779
 7446TIP3    H222272   2.828   2.664   4.497  2.1533 -0.1000  2.0639
 7447TIP3   OH222273   4.689   3.041   3.862  0.5125  0.0102 -0.0488
 7447TIP3    H122274   4.759   3.070   3.919  0.7484 -0.2012 -0.2287
 7447TIP3    H222275   4.611   3.040   3.917  0.6200  0.4078  0.1069
 7448TIP3   OH222276   0.057   1.442   3.520  0.1619  0.2492  0.3661
 7448TIP3    H122277   0.050   1.377   3.451  0.8066 -0.2443  0.7593
 7448TIP3    H222278  -0.011   1.418   3.583 -0.0847  0.3955  0.1574
 7449TIP3   OH222279   3.821   5.211   2.889  0.0292  0.0173  0.4176
 7449TIP3    H122280   3.823   5.197   2.795  1.2497  2.4919  0.0357
 7449TIP3    H222281   3.785   5.299   2.900  1.1370  0.2816  2.1812
 7450TIP3   OH222282   2.788   1.984   3.860 -0.5098 -0.4379 -0.0209
 7450TIP3    H122283   2.818   1.933   3.935 -1.1181 -0.5276  0.1655
 7450TIP3    H222284   2.867   2.002   3.810  0.1216  0.9211  1.4314
 7451TIP3   OH222285   7.586   1.940   1.805  0.4097 -0.8890 -0.2733
 7451TIP3    H122286   7.668   1.983   1.782  0.2249 -2.1648 -3.5403
 7451TIP3    H222287   7.568   1.969   1.894  2.4607  2.4005 -0.8537
 7452TIP3   OH222288   3.635   4.127   5.762 -0.6486 -0.5567 -0.4531
 7452TIP3    H122289   3.665   4.062   5.825  0.0294 -0.7243 -0.9450
 7452TIP3    H222290   3.707   4.136   5.700 -1.4656 -0.6769 -1.4294
 7453TIP3   OH222291   1.763   7.224   5.942 -0.1125 -0.0265  0.4235
 7453TIP3    H122292   1.681   7.186   5.975  0.1161 -1.6744 -0.8238
 7453TIP3    H222293   1.832   7.171   5.982  0.2869  0.4986  0.4263
 7454TIP3   OH222294   4.841   5.859   4.961  0.2932 -0.1555 -0.3149
 7454TIP3    H122295   4.857   5.771   4.929  0.7838  0.6434 -2.3284
 7454TIP3    H222296   4.759   5.885   4.920 -0.5350 -0.1380  1.3003
 7455TIP3   OH222297   1.561   4.471   4.474  0.6360 -0.0537 -0.0650
 7455TIP3    H122298   1.554   4.375   4.477  0.3360 -0.0195  0.4978
 7455TIP3    H222299   1.640   4.488   4.424  0.3435 -0.5926 -0.7158
 7456TIP3   OH222300   1.422   2.696   5.472 -0.2215  0.1353 -0.1229
 7456TIP3    H122301   1.512   2.687   5.505 -0.5374 -1.2723  0.3993
 7456TIP3    H222302   1.370   2.718   5.550 -0.3225  0.9890 -0.4327
 7457TIP3   OH222303   0.713   4.999   5.813 -0.6570 -0.2167 -0.4651
 7457TIP3    H122304   0.747   4.917   5.777 -1.8803 -1.4310  1.1225
 7457TIP3    H222305   0.675   4.975   5.897  1.2083  2.3962  1.1997
 7458TIP3   OH222306   1.206   4.992   2.947  0.6600  0.3584 -0.2001
 7458TIP3    H122307   1.220   4.926   3.016 -1.2101 -0.9793 -1.0488
 7458TIP3    H222308   1.275   5.057   2.961  1.2934 -0.7352  1.9293
 7459TIP3   OH222309   2.459   4.847   4.439 -0.2756  0.6341  0.4209
 7459TIP3    H122310   2.437   4.921   4.496  1.7200  0.6271  1.2420
 7459TIP3    H222311   2.497   4.782   4.498  1.1782  0.3529 -0.7949
 7460TIP3   OH222312   1.953   4.765   6.254 -0.1334  0.6931 -0.1688
 7460TIP3    H122313   1.899   4.784   6.331  1.0633 -1.8394  1.3560
 7460TIP3    H222314   2.033   4.816   6.267  0.1895  0.0474  0.4579
 7461TIP3   OH222315   1.271   4.195   4.662 -0.1954  0.1997  0.1295
 7461TIP3    H122316   1.348   4.185   4.606 -0.7141 -0.5415 -0.4748
 7461TIP3    H222317   1.216   4.119   4.640 -2.0469  1.8150 -0.9913
 7462TIP3   OH222318   2.297   6.019   5.415 -0.6173  0.1452  0.0365
 7462TIP3    H122319   2.369   5.983   5.466 -1.5853  1.5367  2.4935
 7462TIP3    H222320   2.310   5.984   5.327  2.3823 -0.5425  0.6874
 7463TIP3   OH222321   3.569   5.728   6.029  0.5493  0.1559  0.4803
 7463TIP3    H122322   3.608   5.659   6.082 -0.2159  1.6145  3.0360
 7463TIP3    H222323   3.498   5.684   5.981 -0.3851 -0.7279  2.6128
 7464TIP3   OH222324   3.999   1.944   4.280 -0.0507  0.1585  0.1757
 7464TIP3    H122325   3.954   2.028   4.282  0.7785  0.6292 -0.8738
 7464TIP3    H222326   4.071   1.954   4.343  2.7907  1.8265 -3.1602
 7465TIP3   OH222327   1.613   2.192   5.078  0.1954  0.4038  0.0886
 7465TIP3    H122328   1.597   2.104   5.041  0.4879  0.9495 -1.3872
 7465TIP3    H222329   1.548   2.247   5.035  2.9772  1.7769 -2.5004
 7466TIP3   OH222330   4.139   0.704   1.025 -0.2805  0.3606 -0.6036
 7466TIP3    H122331   4.113   0.699   1.117  0.3892 -0.1428 -0.4446
 7466TIP3    H222332   4.079   0.644   0.980  1.3719 -1.7035 -0.0667
 7467TIP3   OH222333   0.978   2.457   4.859 -0.4164  0.1794  0.5560
 7467TIP3    H122334   1.009   2.436   4.771  0.4227 -0.5115  0.9981
 7467TIP3    H222335   0.885   2.434   4.859 -0.4212  0.2155 -0.1597
 7468TIP3   OH222336   0.426   2.111   4.743 -0.0706  0.3160  0.2138
 7468TIP3    H122337   0.380   2.067   4.814 -0.3971  1.5515  0.7830
 7468TIP3    H222338   0.485   2.045   4.708 -1.3615 -0.9119  0.3114
 7469TIP3   OH222339   2.772   3.206   4.532  0.0573  0.5071  0.4866
 7469TIP3    H122340   2.738   3.167   4.452 -1.7441 -0.8367  1.8510
 7469TIP3    H222341   2.750   3.299   4.525 -1.1838  0.1851 -0.0458
 7470TIP3   OH222342   1.252   1.691   4.106 -0.4421  0.1303  0.2555
 7470TIP3    H122343   1.255   1.786   4.096  0.1857  0.4279  2.9244
 7470TIP3    H222344   1.338   1.662   4.074 -0.2204  0.5735  0.4350
 7471TIP3   OH222345   3.399   4.198   3.773  0.4989 -0.4170  0.3115
 7471TIP3    H122346   3.469   4.142   3.740  0.5123 -0.4576  0.4119
 7471TIP3    H222347   3.400   4.274   3.713 -0.1797 -0.9917 -0.4385
 7472TIP3   OH222348   3.356   3.389   2.974  0.4450  0.0162  0.1202
 7472TIP3    H122349   3.365   3.473   3.019 -0.6663  1.0013 -1.4535
 7472TIP3    H222350   3.442   3.375   2.934  0.2802  1.0017 -0.6008
 7473TIP3   OH222351   3.925   2.911   3.930  0.2855 -0.0328 -0.1740
 7473TIP3    H122352   3.875   2.992   3.929  0.5691  0.1336 -0.6631
 7473TIP3    H222353   4.016   2.938   3.933  0.3710 -0.3371  0.0929
 7474TIP3   OH222354   1.733   6.647   2.922 -0.1548  0.3649  0.3969
 7474TIP3    H122355   1.771   6.734   2.907 -1.3606  0.6282 -1.1883
 7474TIP3    H222356   1.804   6.586   2.902 -0.0354  0.9058 -0.8310
 7475TIP3   OH222357   0.252   6.453   3.548  0.7121  0.0360  0.2155
 7475TIP3    H122358   0.157   6.439   3.546  0.7655 -0.1808 -2.3773
 7475TIP3    H222359   0.278   6.426   3.636 -1.3436 -1.8014  0.3031
 7476TIP3   OH222360   2.671   5.178   4.442  0.2940  0.3299 -0.3068
 7476TIP3    H122361   2.701   5.141   4.525 -0.1004  0.2743 -0.1884
 7476TIP3    H222362   2.587   5.219   4.463  0.7174  1.2981 -0.4347
 7477TIP3   OH222363   3.870   4.309   4.667  0.0749  0.5593 -0.1562
 7477TIP3    H122364   3.882   4.399   4.638 -2.4509  1.3520  1.1069
 7477TIP3    H222365   3.879   4.257   4.587  0.5198  2.0170 -1.0777
 7478TIP3   OH222366   2.107   2.041   5.681  0.2103  0.6321  0.8956
 7478TIP3    H122367   2.056   1.975   5.729 -0.1031  2.2819  2.9141
 7478TIP3    H222368   2.197   2.023   5.706  0.1735  0.6585  1.0479
 7479TIP3   OH222369   0.925   4.124   2.760  0.0414  0.5894  0.0649
 7479TIP3    H122370   0.874   4.081   2.829 -1.3884  0.7788 -0.8546
 7479TIP3    H222371   0.913   4.217   2.775  1.6600  0.6750  0.9610
 7480TIP3   OH222372   3.596   4.463   5.312 -0.2741  0.2244 -0.0419
 7480TIP3    H122373   3.507   4.495   5.297 -0.4178  0.1257  0.5832
 7480TIP3    H222374   3.622   4.423   5.229 -1.4468 -1.2745  0.3090
 7481TIP3   OH222375   2.440   5.445   5.585 -0.4068  0.1233  0.0235
 7481TIP3    H122376   2.415   5.354   5.569 -1.9721  0.2436  1.5857
 7481TIP3    H222377   2.510   5.440   5.650  0.9041 -0.0365 -1.3778
 7482TIP3   OH222378   3.642   6.112   3.583 -0.1548  0.2149 -0.1710
 7482TIP3    H122379   3.679   6.089   3.498 -2.6081 -0.8729 -0.9974
 7482TIP3    H222380   3.712   6.093   3.646  1.6248  0.8821 -1.9088
 7483TIP3   OH222381   3.169   3.697   3.416 -0.0384  0.8392 -0.1880
 7483TIP3    H122382   3.195   3.766   3.476 -0.5402  1.6267 -0.8694
 7483TIP3    H222383   3.205   3.723   3.332 -0.4891  0.4290 -0.5145
 7484TIP3   OH222384   4.872   4.871   3.768 -0.3314  0.1568 -0.4913
 7484TIP3    H122385   4.899   4.939   3.706 -0.7572  0.1056 -0.7361
 7484TIP3    H222386   4.838   4.801   3.713 -0.7473  0.1259 -0.1960
 7485TIP3   OH222387   3.148   4.489   5.388  1.0257 -0.3711 -0.4257
 7485TIP3    H122388   3.074   4.537   5.425  0.9831 -1.1356  0.5007
 7485TIP3    H222389   3.186   4.549   5.324  0.2646  0.4433 -0.1275
 7486TIP3   OH222390   4.707   3.885   5.129  0.0398 -0.8248  0.1946
 7486TIP3    H122391   4.612   3.875   5.136  0.1100 -0.3348  2.0621
 7486TIP3    H222392   4.726   3.864   5.037 -2.1966  1.7257 -0.9458
 7487TIP3   OH222393   6.206   4.779   4.535  0.0579 -0.4969  0.1795
 7487TIP3    H122394   6.197   4.686   4.553 -0.8697 -0.3560  0.4741
 7487TIP3    H222395   6.228   4.784   4.442 -0.6496 -0.9728 -0.0130
 7488TIP3   OH222396   4.966   3.334   3.837  0.1735  0.0300  0.1829
 7488TIP3    H122397   5.004   3.413   3.798 -0.5055 -0.1147 -0.8110
 7488TIP3    H222398   4.995   3.264   3.778 -0.2568 -0.2913  0.3601
 7489TIP3   OH222399   4.135   2.610   5.549 -0.7055 -0.1030  0.2088
 7489TIP3    H122400   4.148   2.519   5.521 -2.5122 -1.0518  2.2549
 7489TIP3    H222401   4.044   2.629   5.526 -0.8889  0.5405  1.4383
 7490TIP3   OH222402   5.316   5.368   3.656  0.7108  0.7726 -0.2480
 7490TIP3    H122403   5.309   5.289   3.711  0.1194 -0.5193 -2.1394
 7490TIP3    H222404   5.409   5.389   3.656  0.5672  1.5502  2.2862
 7491TIP3   OH222405   4.219   3.780   4.442  0.9095  0.0407  0.8062
 7491TIP3    H122406   4.143   3.834   4.464  1.0798  0.8049 -0.4215
 7491TIP3    H222407   4.291   3.816   4.494  0.4366 -0.6755  1.9578
 7492TIP3   OH222408   5.210   3.676   3.359 -0.8007 -0.0895  0.2698
 7492TIP3    H122409   5.246   3.623   3.430 -1.6839  0.6759  1.3025
 7492TIP3    H222410   5.285   3.695   3.302 -0.4155 -2.1893  0.0387
 7493TIP3   OH222411   4.002   4.453   4.444 -0.3499  0.0751 -0.6014
 7493TIP3    H122412   4.033   4.382   4.388  0.1541 -0.1232 -0.0710
 7493TIP3    H222413   4.079   4.482   4.492 -0.9270 -0.2554  0.5460
 7494TIP3   OH222414   3.155   7.182   4.789  0.0493 -0.4898  0.3567
 7494TIP3    H122415   3.093   7.120   4.752  0.3166 -1.4060  1.4099
 7494TIP3    H222416   3.217   7.199   4.718 -1.0195 -0.0760 -0.4819
 7495TIP3   OH222417   3.883   5.278   1.955  0.2889  0.0339 -0.3602
 7495TIP3    H122418   3.798   5.236   1.947  0.2793 -0.2213  0.9563
 7495TIP3    H222419   3.867   5.353   2.013  1.4086 -1.3904  1.8712
 7496TIP3   OH222420   5.225   5.058   4.453  0.2656 -0.3947  0.0743
 7496TIP3    H122421   5.298   4.998   4.469  0.2490 -0.1002  1.3397
 7496TIP3    H222422   5.215   5.105   4.536 -1.0434 -0.0902 -0.2487
 7497TIP3   OH222423   2.898   2.485   4.796 -0.4759  0.1400 -0.6070
 7497TIP3    H122424   2.891   2.488   4.891  1.0584  2.3991 -0.5261
 7497TIP3    H222425   2.913   2.393   4.775  0.4159 -0.1846  1.4136
 7498TIP3   OH222426   4.345   2.995   6.227 -0.1452  0.2683 -0.2614
 7498TIP3    H122427   4.441   3.003   6.233 -0.0038 -1.1530 -0.4853
 7498TIP3    H222428   4.321   2.946   6.306 -0.7594  1.1880  0.1198
 7499TIP3   OH222429   4.670   5.438   3.786  0.7773  0.5017  0.3201
 7499TIP3    H122430   4.646   5.525   3.754 -0.1881  0.0796 -0.1141
 7499TIP3    H222431   4.733   5.406   3.722  1.1112  0.8719  0.4635
 7500TIP3   OH222432   2.507   5.644   2.291  0.1936  0.0197  0.1450
 7500TIP3    H122433   2.568   5.595   2.234  0.2410  0.5471 -0.2619
 7500TIP3    H222434   2.471   5.712   2.234 -1.2182 -0.6412  0.2205
 7501TIP3   OH222435   6.565   7.025   2.385 -0.3532 -0.4946  0.1473
 7501TIP3    H122436   6.546   6.996   2.295 -0.1430  0.7177 -0.2880
 7501TIP3    H222437   6.509   6.970   2.440  1.5213 -3.1793 -0.5071
 7502TIP3   OH222438   2.706   1.435   5.625 -0.6213  0.1167 -0.4352
 7502TIP3    H122439   2.771   1.493   5.664 -1.5292  0.7436  0.1728
 7502TIP3    H222440   2.730   1.348   5.657  0.4113  0.2268 -0.8959
 7503TIP3   OH222441   2.083   2.927   4.484  0.1836  0.0363  0.0986
 7503TIP3    H122442   2.114   2.989   4.550  0.6045  0.1381 -0.1949
 7503TIP3    H222443   2.076   2.844   4.530  1.1863 -0.0546  0.0933
 7504TIP3   OH222444   5.260   3.978   3.718  1.1178  0.2130 -0.0368
 7504TIP3    H122445   5.285   4.057   3.765 -0.2149 -0.0088  1.0668
 7504TIP3    H222446   5.304   3.907   3.765  0.8307  0.1156  0.0826
 7505TIP3   OH222447   4.532   3.762   4.136 -0.3851  0.2781 -0.5812
 7505TIP3    H122448   4.469   3.829   4.161 -0.5433 -0.6658  1.6340
 7505TIP3    H222449   4.484   3.703   4.079 -0.6633  1.1933 -1.3067
 7506TIP3   OH222450   4.180   5.682   5.202  0.2902 -0.7490 -0.1785
 7506TIP3    H122451   4.260   5.715   5.161  0.0630 -0.3264 -0.2826
 7506TIP3    H222452   4.207   5.601   5.246  0.2684 -1.9073 -2.2366
 7507TIP3   OH222453   3.746   7.219   4.412  0.5726 -0.0703  0.8830
 7507TIP3    H122454   3.680   7.268   4.461 -0.1326 -0.7259  0.5805
 7507TIP3    H222455   3.801   7.179   4.480  1.1048  1.0682  1.1347
 7508TIP3   OH222456   4.386   4.405   4.764 -0.1556  0.2727  0.1679
 7508TIP3    H122457   4.296   4.382   4.785 -0.5622  1.8820  0.3033
 7508TIP3    H222458   4.389   4.501   4.772  0.9615  0.4750 -2.1487
 7509TIP3   OH222459   4.412   1.767   4.253 -0.2117  0.3475  0.1984
 7509TIP3    H122460   4.435   1.803   4.339 -0.5867 -0.9760  0.8656
 7509TIP3    H222461   4.491   1.781   4.200  1.6226 -2.6378  1.9861
 7510TIP3   OH222462   2.926   6.397   5.804  1.0536 -0.4289  0.6275
 7510TIP3    H122463   2.952   6.325   5.861  2.8238  1.5745  2.4768
 7510TIP3    H222464   2.889   6.462   5.864  2.1270  1.3599 -0.5961
 7511TIP3   OH222465   4.277   4.976   4.032  0.2160  0.6552  1.1393
 7511TIP3    H122466   4.371   4.969   4.050  0.1152  2.6654  2.6139
 7511TIP3    H222467   4.236   4.917   4.096  0.5182 -1.5827 -0.6473
 7512TIP3   OH222468   5.349   3.121   5.523 -0.3514 -0.8364  0.1040
 7512TIP3    H122469   5.336   3.169   5.441 -4.0028 -0.5233  0.7766
 7512TIP3    H222470   5.410   3.051   5.500  0.4779  0.6118 -2.3132
 7513TIP3   OH222471   3.583   2.899   3.712 -0.1359 -0.0511  0.0950
 7513TIP3    H122472   3.660   2.955   3.713 -0.8109  0.8945  0.1736
 7513TIP3    H222473   3.565   2.884   3.619 -0.7828  1.0482  0.0297
 7514TIP3   OH222474   2.898   5.325   4.350  0.0779 -0.6772  0.0007
 7514TIP3    H122475   2.806   5.299   4.355 -0.2099  0.1006 -0.9132
 7514TIP3    H222476   2.928   5.289   4.266 -0.1116  1.2146 -0.9058
 7515TIP3   OH222477   3.886   4.920   6.324 -0.4106  0.2118 -0.1383
 7515TIP3    H122478   3.878   4.969   6.406 -1.1986  1.5360 -0.9888
 7515TIP3    H222479   3.905   4.986   6.258  0.9317 -0.9284 -0.9285
 7516TIP3   OH222480   3.095   4.682   6.212  0.1153 -0.5034  0.3190
 7516TIP3    H122481   3.188   4.685   6.235 -0.0648 -0.0476  0.9978
 7516TIP3    H222482   3.051   4.657   6.293 -0.3930 -0.2771  0.1162
 7517TIP3   OH222483   5.772   4.746   4.790  0.4305  0.0674  0.4938
 7517TIP3    H122484   5.753   4.689   4.716 -1.1851  0.5836  0.5005
 7517TIP3    H222485   5.689   4.790   4.809  1.0529  0.6169  2.0293
 7518TIP3   OH222486   3.432   6.005   6.898  0.4467  0.0891 -0.6997
 7518TIP3    H122487   3.448   6.070   6.966 -0.9351  0.2812 -0.5545
 7518TIP3    H222488   3.490   5.932   6.920  2.4143  1.4599 -1.1597
 7519TIP3   OH222489   4.987   6.141   2.787 -0.0247 -0.1027  0.2534
 7519TIP3    H122490   4.940   6.100   2.860  0.7975  0.2826  1.0055
 7519TIP3    H222491   4.945   6.227   2.777  0.9939  0.5471  1.4196
 7520TIP3   OH222492   2.449   6.311   5.191  0.3970 -0.4972 -0.4107
 7520TIP3    H122493   2.510   6.339   5.123 -1.4020  0.7042 -1.5662
 7520TIP3    H222494   2.417   6.392   5.230 -0.2814 -1.1131  0.3331
 7521TIP3   OH222495   4.886   4.173   3.589  0.3330 -0.1697 -0.8541
 7521TIP3    H122496   4.929   4.253   3.620 -0.9976 -0.8425  2.9052
 7521TIP3    H222497   4.794   4.184   3.614  0.3466 -3.3364  0.7695
 7522TIP3   OH222498   3.215   5.467   4.235 -0.1509 -0.1265  0.6731
 7522TIP3    H122499   3.130   5.442   4.200 -1.1083  0.7603  2.2985
 7522TIP3    H222500   3.263   5.384   4.243 -0.1398 -0.4162 -2.0356
 7523TIP3   OH222501   7.075   5.597   4.986  0.3944 -0.7219  0.3391
 7523TIP3    H122502   7.132   5.537   5.035  1.2687  1.4299  1.9916
 7523TIP3    H222503   7.020   5.638   5.053 -1.1636 -0.6589 -0.9454
 7524TIP3   OH222504   4.611   5.907   4.789 -0.3046  0.2885  0.1759
 7524TIP3    H122505   4.623   5.894   4.695  0.1502  1.2873  0.0938
 7524TIP3    H222506   4.547   5.978   4.795  1.3342  1.7610  0.6083
 7525TIP3   OH222507   3.770   3.119   5.756 -0.3164 -0.0549 -0.0476
 7525TIP3    H122508   3.786   3.032   5.719 -1.4884  0.1661 -1.0852
 7525TIP3    H222509   3.837   3.174   5.717  0.7407 -0.5664  0.9828
 7526TIP3   OH222510   5.120   3.209   4.563 -0.3187 -0.7303 -0.5195
 7526TIP3    H122511   5.065   3.133   4.545  0.5945 -0.7969 -3.2450
 7526TIP3    H222512   5.171   3.184   4.640 -2.2291 -1.6513  0.4875
 7527TIP3   OH222513   5.365   4.356   5.839  0.2387  0.4077  0.5356
 7527TIP3    H122514   5.272   4.362   5.859  0.8468  1.7340  3.1754
 7527TIP3    H222515   5.390   4.268   5.868  0.3330  1.0155  2.4075
 7528TIP3   OH222516   5.763   3.986   5.007 -0.2933  0.3825 -0.7253
 7528TIP3    H122517   5.801   3.899   5.008  0.4391  0.7100  0.3594
 7528TIP3    H222518   5.799   4.027   4.928 -0.7988 -0.3566 -1.3412
 7529TIP3   OH222519   4.414   3.468   4.481  0.0631  0.0604 -0.0029
 7529TIP3    H122520   4.476   3.537   4.460 -1.1598  0.7029 -1.6516
 7529TIP3    H222521   4.352   3.507   4.543  0.4629 -0.1384  0.5228
 7530TIP3   OH222522   1.348   2.286   0.961 -0.2233 -0.3366 -0.3136
 7530TIP3    H122523   1.307   2.210   0.920  1.8056 -1.5626 -0.1547
 7530TIP3    H222524   1.330   2.359   0.902  0.5220 -1.5807 -2.1207
 7531TIP3   OH222525   4.834   3.616   2.310  0.2502  0.3637  0.1454
 7531TIP3    H122526   4.743   3.589   2.301 -0.5944  2.8666  0.8935
 7531TIP3    H222527   4.862   3.639   2.221  0.7473 -2.0696 -0.3779
 7532TIP3   OH222528   4.471   4.533   6.753  0.4274  0.3104  0.8039
 7532TIP3    H122529   4.472   4.449   6.706 -0.0780  0.3948  0.6440
 7532TIP3    H222530   4.436   4.596   6.689  0.3729  0.5558  1.0766
 7533TIP3   OH222531   4.224   4.936   4.816 -0.3331 -0.5007  0.3254
 7533TIP3    H122532   4.142   4.889   4.831 -0.5064 -0.4121 -0.3398
 7533TIP3    H222533   4.204   4.997   4.745  1.0758 -2.4854 -1.8637
 7534TIP3   OH222534   3.427   4.201   5.437 -0.0051  0.4264 -0.0508
 7534TIP3    H122535   3.340   4.165   5.451  0.5424 -0.5583  0.9338
 7534TIP3    H222536   3.474   4.183   5.519  1.0394  1.1571 -0.4753
 7535TIP3   OH222537   1.318   4.612   4.794 -0.6634  0.6175  0.8131
 7535TIP3    H122538   1.413   4.610   4.809 -0.4022  1.0077 -0.7734
 7535TIP3    H222539   1.306   4.674   4.723 -2.0394 -0.0668  0.4352
 7536TIP3   OH222540   1.804   3.360   3.770  0.1099  1.1816 -0.1020
 7536TIP3    H122541   1.711   3.383   3.776 -0.0566  0.6051 -0.4285
 7536TIP3    H222542   1.828   3.334   3.859 -0.1657  0.8788 -0.1135
 7537TIP3   OH222543   4.462   7.179   5.645  0.0341 -0.6481 -0.0566
 7537TIP3    H122544   4.437   7.088   5.661 -0.4985 -0.2354  1.5889
 7537TIP3    H222545   4.553   7.174   5.616  0.0012 -1.7103 -0.0118
 7538TIP3   OH222546   4.109   3.682   3.063  0.4133 -0.0765  0.1094
 7538TIP3    H122547   4.155   3.603   3.035  0.3969  0.6936 -2.1727
 7538TIP3    H222548   4.037   3.650   3.116 -0.8322 -1.7631 -2.4948
 7539TIP3   OH222549   3.041   2.812   4.318 -0.2655  0.0507 -0.2464
 7539TIP3    H122550   3.058   2.865   4.240 -0.6533 -0.9788 -1.0379
 7539TIP3    H222551   3.128   2.795   4.355  0.0883 -1.2575 -1.6529
 7540TIP3   OH222552   3.366   4.173   5.888 -0.2771 -0.1067  0.1674
 7540TIP3    H122553   3.426   4.235   5.846 -0.3053  0.4504  0.9329
 7540TIP3    H222554   3.413   4.090   5.887 -0.4482 -0.1902 -1.3239
 7541TIP3   OH222555   4.059   5.308   5.079 -0.1685  0.6068  0.9042
 7541TIP3    H122556   4.132   5.361   5.113  2.2034  0.0582 -2.9855
 7541TIP3    H222557   4.066   5.224   5.125  2.3808  0.1910 -0.1672
 7542TIP3   OH222558   1.870   4.111   3.014 -0.1329  0.3537 -0.6796
 7542TIP3    H122559   1.902   4.102   2.924  2.4630  0.4283  0.1877
 7542TIP3    H222560   1.818   4.032   3.029 -0.5578  0.3323 -2.2384
 7543TIP3   OH222561   5.353   5.915   5.307 -0.4709 -0.5989 -0.1024
 7543TIP3    H122562   5.338   5.841   5.247 -1.1617 -1.2233  0.8182
 7543TIP3    H222563   5.363   5.991   5.250  0.2321 -1.4046 -1.0690
 7544TIP3   OH222564   2.991   5.204   6.052 -0.3825 -0.4488  0.4195
 7544TIP3    H122565   2.935   5.152   5.994 -0.5469 -1.8464  1.8008
 7544TIP3    H222566   3.046   5.140   6.096 -0.1582  0.6034  1.6996
 7545TIP3   OH222567   6.223   5.214   5.288  0.0114  0.4831  0.1151
 7545TIP3    H122568   6.225   5.120   5.271  2.0105  0.4975  0.0502
 7545TIP3    H222569   6.177   5.223   5.371  1.4175 -0.7301  1.0503
 7546TIP3   OH222570   4.161   4.332   3.335 -0.2486 -0.2999  0.0093
 7546TIP3    H122571   4.226   4.324   3.266 -1.1633  0.9598 -1.0252
 7546TIP3    H222572   4.140   4.242   3.360 -1.0810 -0.8176 -2.4849
 7547TIP3   OH222573   3.869   2.662   4.054 -0.3613 -0.0012  0.1079
 7547TIP3    H122574   3.866   2.670   4.150  1.7243 -0.0338  0.2013
 7547TIP3    H222575   3.895   2.749   4.024  0.8006 -0.4924 -0.3135
 7548TIP3   OH222576   5.431   6.314   6.883 -0.3005 -0.4114  0.3181
 7548TIP3    H122577   5.444   6.408   6.877 -1.7307 -0.2366 -0.3752
 7548TIP3    H222578   5.494   6.277   6.821  0.1187  0.1012  0.4355
 7549TIP3   OH222579   2.610   3.541   2.654 -0.2446  0.0396  0.1725
 7549TIP3    H122580   2.674   3.603   2.689 -0.6809  0.7589 -0.3000
 7549TIP3    H222581   2.525   3.575   2.683 -0.4513 -0.6872  0.4451
 7550TIP3   OH222582   3.102   3.290   3.136  0.0067 -0.1455 -0.2617
 7550TIP3    H122583   3.108   3.196   3.155 -1.1905 -0.1457  0.1630
 7550TIP3    H222584   3.174   3.307   3.075  0.9716 -1.0968  0.6024
 7551TIP3   OH222585   2.503   5.150   5.461 -0.4020 -0.0403 -0.1204
 7551TIP3    H122586   2.488   5.155   5.367  0.7936 -2.6079 -0.4969
 7551TIP3    H222587   2.595   5.125   5.469  0.4958  3.5668  1.8234
 7552TIP3   OH222588   4.693   4.235   4.450  0.0866  0.3465 -0.0873
 7552TIP3    H122589   4.662   4.315   4.491  1.1054  0.8596 -0.2981
 7552TIP3    H222590   4.688   4.253   4.356 -1.6204 -0.5848 -0.1844
 7553TIP3   OH222591   5.208   2.699   2.480 -0.4387  0.4554  0.2045
 7553TIP3    H122592   5.286   2.650   2.507 -1.6927 -1.8008 -0.1914
 7553TIP3    H222593   5.193   2.672   2.390 -0.7876  2.1029 -0.2538
 7554TIP3   OH222594   4.257   5.142   2.978  0.3430 -0.2091  0.8976
 7554TIP3    H122595   4.230   5.234   2.981  0.4303 -0.1565  0.2057
 7554TIP3    H222596   4.178   5.095   2.949  0.2645 -0.3697  1.3619
 7555TIP3   OH222597   4.773   6.072   2.031  0.3451  0.3673 -0.3727
 7555TIP3    H122598   4.748   6.058   2.122  0.7067  0.4001 -0.2674
 7555TIP3    H222599   4.789   6.166   2.025 -1.0342  0.5909 -0.8159
 7556TIP3   OH222600   4.646   4.194   3.700  0.6097 -0.4729  0.3153
 7556TIP3    H122601   4.652   4.136   3.776  0.1213 -0.6916  0.1913
 7556TIP3    H222602   4.579   4.154   3.644  0.2537  0.2184  0.2353
 7557TIP3   OH222603   4.759   2.750   4.085  0.2797  0.4159  0.1017
 7557TIP3    H122604   4.744   2.762   3.992  2.6186 -0.3830 -0.3993
 7557TIP3    H222605   4.682   2.702   4.116 -0.4521  0.5946 -1.4372
 7558TIP3   OH222606   6.101   5.410   4.071 -0.3299  0.2215  0.0652
 7558TIP3    H122607   6.025   5.402   4.014  0.3992  1.0418 -1.0352
 7558TIP3    H222608   6.064   5.429   4.158 -1.4330 -0.9619 -0.1327
 7559TIP3   OH222609   4.966   6.778   3.913  0.6833 -0.1638  0.1966
 7559TIP3    H122610   4.999   6.863   3.885  2.7995 -0.7943  0.7121
 7559TIP3    H222611   4.881   6.770   3.869  0.3681  2.2654  0.2727
 7560TIP3   OH222612   3.303   4.973   3.655  1.4134  0.5327 -0.4760
 7560TIP3    H122613   3.327   5.048   3.709 -1.2120  0.4742  0.8695
 7560TIP3    H222614   3.318   4.897   3.710  0.5026  0.3535 -0.4547
 7561TIP3   OH222615   2.678   2.704   2.895  0.7170 -0.4606 -0.4847
 7561TIP3    H122616   2.671   2.753   2.813 -0.9392  0.0721 -0.0437
 7561TIP3    H222617   2.709   2.768   2.959  1.2047 -0.6695 -0.5105
 7562TIP3   OH222618   5.054   7.531   4.116 -0.0376 -0.2872  1.1686
 7562TIP3    H122619   4.999   7.553   4.191 -1.2288  1.1842 -0.0989
 7562TIP3    H222620   5.005   7.464   4.069  0.3916 -0.7205  1.3370
 7563TIP3   OH222621   2.767   5.474   2.521  0.1241  1.0661 -0.4278
 7563TIP3    H122622   2.851   5.461   2.565 -1.3057 -2.1514  1.5353
 7563TIP3    H222623   2.719   5.534   2.577  0.2202  1.0400 -0.3167
 7564TIP3   OH222624   5.057   4.727   5.494  0.1121  0.0791  0.1041
 7564TIP3    H122625   4.988   4.790   5.476 -0.0205 -0.3172 -0.7859
 7564TIP3    H222626   5.125   4.746   5.430  0.2015 -0.4752  0.0275
 7565TIP3   OH222627   5.705   3.818   3.176  0.4342  0.4792 -0.2585
 7565TIP3    H122628   5.663   3.732   3.175  2.0166 -0.3359  1.1520
 7565TIP3    H222629   5.648   3.872   3.231 -0.1240  0.1238 -0.4799
 7566TIP3   OH222630   4.233   3.571   5.030  0.1811  0.3197 -0.4280
 7566TIP3    H122631   4.172   3.580   5.103 -0.9024 -1.2366 -1.1052
 7566TIP3    H222632   4.293   3.501   5.057  0.3660  0.4072 -0.6161
 7567TIP3   OH222633   3.108   4.302   3.702  0.2127  0.2169  0.3231
 7567TIP3    H122634   3.051   4.239   3.746  0.2057 -0.7906 -1.1042
 7567TIP3    H222635   3.056   4.383   3.699 -1.2529 -0.7303 -1.1203
 7568TIP3   OH222636   2.240   5.446   2.082  0.6455 -0.1668 -0.3531
 7568TIP3    H122637   2.299   5.413   2.150  0.3033 -1.6534 -0.7716
 7568TIP3    H222638   2.166   5.386   2.083 -0.1769  0.8233 -0.8628
 7569TIP3   OH222639   3.012   5.706   4.217 -0.0347  0.2012 -0.1117
 7569TIP3    H122640   2.970   5.791   4.205  1.9761  1.2292 -0.1152
 7569TIP3    H222641   3.105   5.726   4.224  0.5948 -2.1157 -1.2542
 7570TIP3   OH222642   4.002   3.542   4.639 -0.2285  0.2482  0.3374
 7570TIP3    H122643   3.967   3.456   4.617  0.8952 -0.6058  1.7684
 7570TIP3    H222644   3.959   3.602   4.578 -0.9622 -1.3293 -0.7275
 7571TIP3   OH222645   4.887   1.565   3.144 -0.2340 -0.2649 -1.1602
 7571TIP3    H122646   4.860   1.490   3.196  1.7531  0.7951  1.4753
 7571TIP3    H222647   4.805   1.602   3.110 -1.3901 -2.1742 -0.4991
 7572TIP3   OH222648   4.272   5.102   1.628 -0.1160  0.3314 -0.3534
 7572TIP3    H122649   4.358   5.078   1.664  0.3227 -0.2682 -1.7535
 7572TIP3    H222650   4.293   5.141   1.543 -1.0748  2.4446  0.3514
 7573TIP3   OH222651   5.139   4.535   5.706 -0.1377 -0.0133 -0.0339
 7573TIP3    H122652   5.130   4.563   5.614 -0.5466  3.4269  0.9769
 7573TIP3    H222653   5.053   4.498   5.728  0.2697 -1.7918 -1.2842
 7574TIP3   OH222654   4.605   2.550   4.215  0.4867  0.2868  0.3142
 7574TIP3    H122655   4.534   2.595   4.261 -0.6887 -1.3381  0.1433
 7574TIP3    H222656   4.581   2.555   4.122 -0.2062 -1.5815  0.3744
 7575TIP3   OH222657   5.721   5.611   3.085  0.5762 -0.6839 -0.6521
 7575TIP3    H122658   5.696   5.700   3.111 -2.6565 -1.5668 -0.4178
 7575TIP3    H222659   5.680   5.599   2.999  0.6614 -2.0717 -0.5107
 7576TIP3   OH222660   4.573   4.858   1.977 -0.2872 -0.0979 -0.2557
 7576TIP3    H122661   4.664   4.847   1.947  0.1684 -0.7736  1.2999
 7576TIP3    H222662   4.579   4.926   2.044 -0.6274 -1.3644  1.0925
 7577TIP3   OH222663   6.060   4.384   2.205  0.6735  0.3462 -0.0115
 7577TIP3    H122664   6.151   4.377   2.233  0.6658 -2.7347 -0.6352
 7577TIP3    H222665   6.009   4.381   2.286  1.0693  1.0793  0.2666
 7578TIP3   OH222666   3.432   5.063   4.819 -0.0111  0.5850  0.5658
 7578TIP3    H122667   3.359   5.034   4.765  0.0594 -0.5274  1.0514
 7578TIP3    H222668   3.393   5.086   4.903  0.1824  0.1262  0.7800
 7579TIP3   OH222669   2.513   3.754   1.582  0.7651 -0.1312 -0.1957
 7579TIP3    H122670   2.518   3.735   1.488  0.8026 -1.1669  0.0088
 7579TIP3    H222671   2.420   3.742   1.603  0.8140 -0.2153 -0.0348
 7580TIP3   OH222672   6.602   4.971   3.130 -0.1679 -0.2498 -0.1642
 7580TIP3    H122673   6.539   5.043   3.134 -1.8572 -1.7369  1.0271
 7580TIP3    H222674   6.671   5.003   3.072 -0.8216  2.3436  0.4029
 7581TIP3   OH222675   4.209   3.872   4.757 -0.5921 -0.0840 -0.1712
 7581TIP3    H122676   4.122   3.841   4.733 -0.1394  0.6490 -2.9010
 7581TIP3    H222677   4.260   3.792   4.773 -1.4355 -0.5382  0.2442
 7582TIP3   OH222678   3.105   6.360   3.974  0.6243 -0.2639 -0.4566
 7582TIP3    H122679   3.185   6.307   3.974  1.8172  1.4550  1.6416
 7582TIP3    H222680   3.132   6.444   4.011 -1.9919  0.6230 -0.4683
 7583TIP3   OH222681   8.108   1.636   0.618 -0.4801  0.1304 -0.8378
 7583TIP3    H122682   8.096   1.725   0.585 -0.4582 -0.2810 -1.9930
 7583TIP3    H222683   8.188   1.606   0.576 -0.4179 -0.3797 -0.3502
 7584TIP3   OH222684   3.603   4.719   5.676  0.3397 -0.1156  0.0902
 7584TIP3    H122685   3.625   4.698   5.767  0.0114  0.0784  0.2166
 7584TIP3    H222686   3.674   4.681   5.624  0.3863 -0.4594  0.4096
 7585TIP3   OH222687   5.269   5.146   2.312 -1.0081 -0.1887 -0.2839
 7585TIP3    H122688   5.183   5.172   2.279 -0.1760  0.3548 -2.1042
 7585TIP3    H222689   5.298   5.220   2.366 -1.3843 -0.0809 -0.2296
 7586TIP3   OH222690   3.237   5.832   3.923 -0.0634 -0.5375 -0.0998
 7586TIP3    H122691   3.305   5.787   3.872  0.2836 -0.7968  0.5874
 7586TIP3    H222692   3.159   5.829   3.868  0.8414  1.0168 -1.5316
 7587TIP3   OH222693   4.555   0.700   4.024  0.5654  0.6327 -0.3587
 7587TIP3    H122694   4.581   0.611   4.049  1.5675  0.6749 -1.2356
 7587TIP3    H222695   4.468   0.711   4.063  1.6293  0.2935  2.2080
 7588TIP3   OH222696   3.482   5.171   6.185 -0.1090 -0.2912 -0.4029
 7588TIP3    H122697   3.523   5.198   6.103  1.0683 -1.7904 -0.3442
 7588TIP3    H222698   3.391   5.197   6.176  0.5880  2.0984 -1.0114
 7589TIP3   OH222699   4.465   5.714   3.212  0.0990 -0.4190 -0.1176
 7589TIP3    H122700   4.429   5.636   3.254  0.4855 -1.0702 -0.9834
 7589TIP3    H222701   4.557   5.715   3.237  0.0586 -0.1365  0.0293
 7590TIP3   OH222702   6.099   4.504   6.131 -0.0543  0.2027 -0.2497
 7590TIP3    H122703   6.194   4.502   6.139 -0.1724 -1.6071  0.9499
 7590TIP3    H222704   6.082   4.475   6.041  0.5542  1.6815 -0.8568
 7591TIP3   OH222705   5.316   5.147   2.002  0.1435 -0.2541  0.5713
 7591TIP3    H122706   5.373   5.147   1.925 -0.3449 -0.8921  0.2016
 7591TIP3    H222707   5.370   5.109   2.071 -0.6472 -3.3356 -0.4214
 7592TIP3   OH222708   4.181   5.116   4.578  0.1294 -0.4381 -0.2084
 7592TIP3    H122709   4.214   5.201   4.608 -0.4467 -0.1570 -0.3524
 7592TIP3    H222710   4.089   5.133   4.556  0.1205 -1.0085 -0.6162
 7593TIP3   OH222711   4.590   4.475   5.373  0.6871 -0.3315  0.0917
 7593TIP3    H122712   4.611   4.411   5.305  2.6777 -2.0639  2.2638
 7593TIP3    H222713   4.648   4.549   5.356  1.4468 -0.9166  0.1275
 7594TIP3   OH222714   4.587   4.462   3.712  0.5680  0.0964  0.2300
 7594TIP3    H122715   4.503   4.418   3.721 -0.1446  1.2060 -0.8346
 7594TIP3    H222716   4.650   4.392   3.695 -0.4236 -0.5625 -0.7211
 7595TIP3   OH222717   3.896   4.707   4.425  0.0065 -0.3158  0.6687
 7595TIP3    H122718   3.954   4.633   4.446 -1.7770 -1.8829  0.2803
 7595TIP3    H222719   3.834   4.671   4.361 -0.8416  1.5699  0.3960
 7596TIP3   OH222720   2.593   2.393   3.404 -0.8182 -0.7037  0.1889
 7596TIP3    H122721   2.663   2.392   3.470  0.2293 -1.8324 -0.9043
 7596TIP3    H222722   2.516   2.423   3.452  0.1687 -0.4263  1.6678
 7597TIP3   OH222723   6.500   4.511   4.402  0.5376  0.1978  0.0700
 7597TIP3    H122724   6.562   4.567   4.449  1.1793  0.0222 -0.5470
 7597TIP3    H222725   6.551   4.431   4.383  0.0319 -0.0659 -0.1834
 7598TIP3   OH222726   8.033   5.379   2.178  0.0531  0.2936  0.6235
 7598TIP3    H122727   8.091   5.417   2.243  1.9091 -0.1765 -0.7181
 7598TIP3    H222728   8.055   5.285   2.177 -1.7938 -0.1715  1.1799
 7599TIP3   OH222729   4.676   5.766   3.841  0.2164 -0.1324 -0.4180
 7599TIP3    H122730   4.742   5.717   3.889 -0.7267 -0.4733  0.5534
 7599TIP3    H222731   4.724   5.838   3.800  1.1457 -0.2508  0.4556
 7600TIP3   OH222732   3.287   3.638   6.037  0.2218  0.0184  0.0247
 7600TIP3    H122733   3.365   3.616   6.089  0.7628  2.3136  0.2417
 7600TIP3    H222734   3.257   3.721   6.074 -1.8091 -0.3927 -0.6573
 7601TIP3   OH222735   4.446   4.226   5.656  0.3131  0.2457 -0.5973
 7601TIP3    H122736   4.524   4.218   5.711 -0.4666  1.1574  0.6689
 7601TIP3    H222737   4.442   4.144   5.607  2.0329  0.1690 -0.6433
 7602TIP3   OH222738   5.929   5.257   4.896 -0.7282 -0.7946  0.3753
 7602TIP3    H122739   6.020   5.285   4.888 -0.9422 -0.6027 -1.9580
 7602TIP3    H222740   5.918   5.232   4.988  2.3596 -3.2185  0.1497
 7603TIP3   OH222741   4.337   5.307   5.928  0.3630 -0.0650  0.1390
 7603TIP3    H122742   4.250   5.344   5.945  0.4681 -0.0045  0.5559
 7603TIP3    H222743   4.335   5.220   5.967  0.4644 -0.0929  0.0827
 7604TIP3   OH222744   3.257   2.532   5.802 -0.7746 -0.2466  0.1494
 7604TIP3    H122745   3.339   2.483   5.809 -0.5700 -0.1636 -1.3469
 7604TIP3    H222746   3.220   2.531   5.890 -0.7982 -3.1187  0.1693
 7605TIP3   OH222747   3.775   3.064   4.940 -0.1446 -0.1739  0.6779
 7605TIP3    H122748   3.697   3.088   4.889 -0.3823 -0.5850  0.8487
 7605TIP3    H222749   3.798   2.977   4.908  0.9282  0.4152 -0.1831
 7606TIP3   OH222750   4.923   4.069   5.216  0.7820  0.2558 -0.1523
 7606TIP3    H122751   4.863   4.004   5.178 -1.3272  1.5214  0.9222
 7606TIP3    H222752   4.982   4.017   5.271 -2.0323 -0.6259  2.1721
 7607TIP3   OH222753   8.000   7.147   0.534  0.1588  0.1991 -0.1357
 7607TIP3    H122754   7.934   7.118   0.471 -1.5346  0.4752  1.4535
 7607TIP3    H222755   7.989   7.243   0.537 -0.6016  0.0831  1.4228
 7608TIP3   OH222756   5.351   5.634   5.424 -0.2985 -0.4714  0.3962
 7608TIP3    H122757   5.386   5.594   5.344  2.7188  2.8389 -0.0657
 7608TIP3    H222758   5.391   5.583   5.495  0.8522 -0.4375 -0.2081
 7609TIP3   OH222759   6.064   7.518   0.297  0.1393 -0.1824  0.1887
 7609TIP3    H122760   6.006   7.548   0.367 -1.4170  1.9589 -1.9287
 7609TIP3    H222761   6.089   7.429   0.323 -1.6362 -0.0092  2.6758
 7610TIP3   OH222762   4.525   2.203   6.422  1.0611 -0.0570  0.2349
 7610TIP3    H122763   4.594   2.183   6.486  2.1579  0.4859 -0.7480
 7610TIP3    H222764   4.498   2.292   6.441  2.2644  0.5480 -0.8237
 7611TIP3   OH222765   3.016   5.565   3.682 -0.3460  0.2705  0.4148
 7611TIP3    H122766   3.069   5.502   3.731 -1.6240  0.0105  1.5145
 7611TIP3    H222767   3.012   5.530   3.593  0.5349 -0.1981  0.5602
 7612TIP3   OH222768   4.206   6.120   3.087 -0.4521  0.3107  0.4670
 7612TIP3    H122769   4.165   6.059   3.149  0.0349  0.1743  0.6550
 7612TIP3    H222770   4.134   6.150   3.031 -0.4361 -1.5558 -0.5749
 7613TIP3   OH222771   2.337   4.192   3.654  0.7203 -0.4794  0.6707
 7613TIP3    H122772   2.241   4.198   3.649  0.7571 -1.2259 -1.4761
 7613TIP3    H222773   2.366   4.283   3.656  0.0610 -0.1869 -1.5123
 7614TIP3   OH222774   5.247   5.301   2.727 -0.0855 -0.0896 -0.2413
 7614TIP3    H122775   5.281   5.290   2.638  0.1266  0.0058 -0.1733
 7614TIP3    H222776   5.322   5.333   2.778 -0.4936  0.9055 -0.2585
 7615TIP3   OH222777   4.745   5.155   6.423  0.5762  0.0424  0.6089
 7615TIP3    H122778   4.726   5.138   6.330  0.9122  0.8765  0.3866
 7615TIP3    H222779   4.832   5.116   6.437  0.4253 -0.2866  0.6319
 7616TIP3   OH222780   4.651   4.291   5.155  0.2877  0.4513 -0.2754
 7616TIP3    H122781   4.672   4.336   5.074 -0.5387  0.7580 -0.3190
 7616TIP3    H222782   4.733   4.246   5.179  0.4302  0.0704 -1.4477
 7617TIP3   OH222783   5.950   3.733   1.929  0.5178  0.2624 -0.5605
 7617TIP3    H122784   6.017   3.748   1.995  0.2354 -0.0169 -0.2116
 7617TIP3    H222785   5.997   3.691   1.856  0.9558  1.1634 -0.8113
 7618TIP3   OH222786   4.416   5.626   2.756  0.1017  0.3764  0.1188
 7618TIP3    H122787   4.451   5.696   2.811 -1.3388 -0.1320  1.7172
 7618TIP3    H222788   4.322   5.626   2.773  0.0836 -2.0017  0.2190
 7619TIP3   OH222789   4.567   4.877   3.570  0.1680 -0.0098 -0.1646
 7619TIP3    H122790   4.608   4.793   3.590  0.4373 -0.1870 -1.3824
 7619TIP3    H222791   4.485   4.876   3.620 -0.1894 -1.3289 -0.7317
 7620TIP3   OH222792   4.972   3.594   3.738 -0.7557 -0.4113  0.7736
 7620TIP3    H122793   4.881   3.610   3.712 -0.1010  0.8944 -0.8279
 7620TIP3    H222794   5.008   3.681   3.753  0.1246 -0.9495  1.8456
 7621TIP3   OH222795   8.470   5.289   3.289 -0.3326 -0.3824  0.4327
 7621TIP3    H122796   8.458   5.247   3.203  2.0498 -0.8627  0.3119
 7621TIP3    H222797   8.488   5.217   3.349 -0.8819  0.0603  1.1376
 7622TIP3   OH222798   5.838   5.505   3.991  0.2635 -0.3447 -0.1545
 7622TIP3    H122799   5.844   5.512   4.087 -0.3697  0.7759 -0.1925
 7622TIP3    H222800   5.745   5.487   3.975  0.0687  1.0409 -0.6400
 7623TIP3   OH222801   5.686   5.524   5.111  0.2808 -0.0131 -0.6451
 7623TIP3    H122802   5.655   5.540   5.200 -0.4474  1.1548 -1.1001
 7623TIP3    H222803   5.622   5.464   5.073  0.0655  0.2554 -0.7029
 7624TIP3   OH222804   6.446   3.940   4.063 -0.0942  0.2672 -0.7270
 7624TIP3    H122805   6.436   4.035   4.057  0.2798  0.2737 -1.2981
 7624TIP3    H222806   6.466   3.912   3.973  1.1748 -0.1878 -0.3145
 7625TIP3   OH222807   5.668   4.427   3.271  0.3129 -0.1811 -0.2848
 7625TIP3    H122808   5.749   4.425   3.220  1.3815  0.9335  1.3032
 7625TIP3    H222809   5.606   4.377   3.219  2.0236 -1.0732 -1.5391
 7626TIP3   OH222810   5.362   3.868   2.766 -0.3417  0.5694  0.6844
 7626TIP3    H122811   5.348   3.819   2.847 -1.0578 -0.9758 -0.3360
 7626TIP3    H222812   5.361   3.960   2.792  0.6045  0.0439  2.5886
 7627TIP3   OH222813   3.523   3.727   3.107 -0.2633  0.2113 -0.2604
 7627TIP3    H122814   3.581   3.780   3.052  1.0194 -2.7741 -1.8723
 7627TIP3    H222815   3.583   3.681   3.167 -1.1693 -1.0264 -0.2948
 7628TIP3   OH222816   3.446   2.265   3.603  0.2831  0.1611  0.1425
 7628TIP3    H122817   3.448   2.223   3.689  0.7218 -2.0726 -0.9196
 7628TIP3    H222818   3.377   2.219   3.555 -0.3679  1.7824 -0.5368
 7629TIP3   OH222819   5.472   2.024   3.924 -0.5773 -0.1955 -0.3973
 7629TIP3    H122820   5.462   2.094   3.989  3.9624  1.9249 -1.7513
 7629TIP3    H222821   5.440   2.063   3.842  2.3316  0.5314 -1.2385
 7630TIP3   OH222822   4.567   2.832   4.393 -0.2834  0.0854  0.3254
 7630TIP3    H122823   4.535   2.922   4.398  0.5053  0.4902 -1.6919
 7630TIP3    H222824   4.495   2.783   4.352  0.4926  0.4095 -1.4394
 7631TIP3   OH222825   2.748   3.084   4.841  0.0905  0.4010  0.5372
 7631TIP3    H122826   2.690   3.152   4.808 -1.6923 -0.5870  1.5088
 7631TIP3    H222827   2.689   3.011   4.861  1.2846  0.3421  4.1856
 7632TIP3   OH222828   5.016   4.016   4.825  0.7334 -0.5870 -0.1644
 7632TIP3    H122829   4.967   3.953   4.771  0.6964 -1.5428  0.9575
 7632TIP3    H222830   4.956   4.089   4.837  0.2951 -0.8999 -0.4229
 7633TIP3   OH222831   4.917   1.403   2.056  0.2019  0.1590 -0.1508
 7633TIP3    H122832   4.883   1.365   2.137 -0.2881  0.1315 -0.3723
 7633TIP3    H222833   4.934   1.327   2.000 -2.1470  0.3273 -1.1413
 7634TIP3   OH222834   2.412   2.982   3.125 -0.4709 -0.2469  0.3838
 7634TIP3    H122835   2.331   2.997   3.173 -0.9298  0.7339 -0.6530
 7634TIP3    H222836   2.427   2.888   3.131 -0.2727 -0.0836  2.7892
 7635TIP3   OH222837   4.399   5.718   3.635 -0.6576 -0.0217  0.2774
 7635TIP3    H122838   4.397   5.732   3.729 -0.5855  0.7756  0.1641
 7635TIP3    H222839   4.427   5.802   3.598  1.2445 -0.8987 -0.3403
 7636TIP3   OH222840   4.016   7.330   4.244  0.6640  0.1250  0.0861
 7636TIP3    H122841   4.099   7.332   4.292  0.3803 -1.3495  0.6584
 7636TIP3    H222842   3.950   7.349   4.311  0.5152  1.0240 -0.3151
 7637TIP3   OH222843   5.146   5.596   4.117  0.1383 -0.2536  0.2506
 7637TIP3    H122844   5.087   5.545   4.173 -1.0317  0.9464  0.1293
 7637TIP3    H222845   5.183   5.662   4.175 -0.6574  0.6486 -0.2678
 7638TIP3   OH222846   4.864   3.372   5.780  0.4086 -0.3577  0.3525
 7638TIP3    H122847   4.912   3.426   5.843  0.5496  0.5556 -0.5164
 7638TIP3    H222848   4.786   3.344   5.827  0.1368  0.9465  0.7020
 7639TIP3   OH222849   4.224   6.881   3.351 -0.5780  0.2520 -0.0868
 7639TIP3    H122850   4.228   6.812   3.416  0.4409  1.4488  1.1526
 7639TIP3    H222851   4.201   6.836   3.269  2.0717 -1.8361  0.2431
 7640TIP3   OH222852   4.535   5.409   4.470  0.1557  0.2376  0.4980
 7640TIP3    H122853   4.543   5.391   4.376  0.2304 -1.3197  0.7931
 7640TIP3    H222854   4.608   5.467   4.489  1.2429 -0.9088 -0.0617
 7641TIP3   OH222855   5.099   4.297   5.897  0.0394  0.6639  0.1991
 7641TIP3    H122856   5.057   4.219   5.933  1.0028  0.9109  1.8868
 7641TIP3    H222857   5.028   4.362   5.893 -0.3503  0.2609  0.4945
 7642TIP3   OH222858   4.489   5.544   4.782 -0.6880 -0.2083 -0.3367
 7642TIP3    H122859   4.550   5.473   4.759 -0.9079 -1.1960  2.0591
 7642TIP3    H222860   4.519   5.618   4.729  1.4866 -1.1907 -0.5551
 7643TIP3   OH222861   4.942   4.553   5.036  0.2005 -0.1639  0.2410
 7643TIP3    H122862   5.024   4.528   4.994  0.8008  1.0673  0.6796
 7643TIP3    H222863   4.930   4.488   5.105  0.8343 -0.3051  0.2163
 7644TIP3   OH222864   2.875   4.882   2.848 -0.1184  0.3642 -0.5800
 7644TIP3    H122865   2.819   4.814   2.810  0.7412  0.2032 -1.5946
 7644TIP3    H222866   2.909   4.930   2.772  0.7279  0.7646  0.0379
 7645TIP3   OH222867   3.957   4.748   4.764  0.2550 -0.2968 -0.5804
 7645TIP3    H122868   3.923   4.690   4.695 -1.3280 -1.2214  0.9016
 7645TIP3    H222869   3.884   4.808   4.782  1.2142  0.9271 -0.7963
 7646TIP3   OH222870   4.279   3.486   3.712 -0.5543  0.5744 -0.2433
 7646TIP3    H122871   4.208   3.490   3.776  0.6722  0.0982  1.1853
 7646TIP3    H222872   4.283   3.574   3.675 -0.0801  1.4183  1.7128
 7647TIP3   OH222873   1.751   6.645   4.589 -0.7598 -0.1863 -0.1513
 7647TIP3    H122874   1.706   6.724   4.618 -1.0082 -0.8319  1.2937
 7647TIP3    H222875   1.728   6.579   4.655  0.5930 -1.0764 -0.5432
 7648TIP3   OH222876   4.083   4.436   4.001 -0.2215  0.5243 -0.3587
 7648TIP3    H122877   4.164   4.402   3.961 -0.7370 -1.5576  0.3182
 7648TIP3    H222878   4.089   4.410   4.092 -0.4569  2.6632  0.2944
 7649TIP3   OH222879   3.479   5.963   4.714  0.3942 -0.0769  0.3760
 7649TIP3    H122880   3.457   6.024   4.643 -0.5535  0.7771  1.3900
 7649TIP3    H222881   3.468   6.015   4.794 -1.0686 -1.7659  1.2935
 7650TIP3   OH222882   4.787   4.028   3.933 -0.2740  0.1832 -0.0675
 7650TIP3    H122883   4.812   3.961   3.868 -1.1281 -2.5254  2.3030
 7650TIP3    H222884   4.840   4.007   4.010 -0.9008  1.9989  0.8628
 7651TIP3   OH222885   6.041   1.790   3.523  0.2109 -0.7241  0.3017
 7651TIP3    H122886   6.008   1.746   3.601  1.3785 -0.1340  1.1521
 7651TIP3    H222887   5.965   1.834   3.486 -0.3861 -1.1424  1.0072
 7652TIP3   OH222888   4.445   2.835   3.315 -0.1293  0.2132 -0.2109
 7652TIP3    H122889   4.511   2.769   3.294  1.0514  0.6296  1.9637
 7652TIP3    H222890   4.485   2.918   3.287 -0.4218  0.2992 -0.3733
 7653TIP3   OH222891   3.910   4.312   3.767  0.0118 -0.0780 -0.2753
 7653TIP3    H122892   3.972   4.357   3.825  0.4904  0.5740 -1.2765
 7653TIP3    H222893   3.865   4.383   3.720 -0.3792 -0.5963 -0.6871
 7654TIP3   OH222894   4.419   2.352   3.648  0.2059 -0.5096  0.3407
 7654TIP3    H122895   4.470   2.433   3.640  1.0347 -0.9764  0.8974
 7654TIP3    H222896   4.332   2.382   3.677  0.5662  0.1639  0.7448
 7655TIP3   OH222897   3.899   3.506   4.968  0.1935  0.0777 -0.2425
 7655TIP3    H122898   3.938   3.423   4.940 -0.2666  0.1533 -1.1042
 7655TIP3    H222899   3.965   3.572   4.948  0.0363  0.0801 -0.7436
 7656TIP3   OH222900   5.865   3.156   6.402  0.2268 -0.0266  0.0564
 7656TIP3    H122901   5.872   3.125   6.312 -1.1474 -2.3917  0.7142
 7656TIP3    H222902   5.888   3.249   6.398  0.1432 -0.1035 -2.7279
 7657TIP3   OH222903   3.869   3.201   4.336 -0.1668 -0.9634 -0.6561
 7657TIP3    H122904   3.850   3.241   4.251 -1.6636  0.1405  0.1664
 7657TIP3    H222905   3.961   3.174   4.329  0.7451  2.0876 -1.4870
 7658TIP3   OH222906   1.692   7.554   3.933 -0.0676  0.2202 -0.1720
 7658TIP3    H122907   1.682   7.475   3.986  0.1212 -0.7564 -1.5619
 7658TIP3    H222908   1.611   7.603   3.948 -0.5128 -0.5923  0.1057
 7659TIP3   OH222909   1.541   2.705   3.290  0.2478 -0.8087  0.0508
 7659TIP3    H122910   1.589   2.632   3.328  1.2468 -0.1119  0.1617
 7659TIP3    H222911   1.590   2.728   3.210 -0.0239 -0.2501  0.0378
 7660TIP3   OH222912   4.084   3.533   5.266 -0.5100 -0.9406 -0.4225
 7660TIP3    H122913   4.164   3.487   5.291 -0.9928 -1.3680  0.3275
 7660TIP3    H222914   4.014   3.489   5.314 -0.9424  0.7547  0.5337
 7661TIP3   OH222915   3.938   6.164   2.970 -0.0915  0.2567 -0.7427
 7661TIP3    H122916   3.848   6.196   2.956  0.5596  2.3164 -0.3619
 7661TIP3    H222917   3.953   6.104   2.897 -2.3260 -1.3534  0.0591
 7662TIP3   OH222918   5.494   4.568   2.502  0.1655 -0.6418 -0.1054
 7662TIP3    H122919   5.399   4.564   2.517 -0.0654  0.0236 -1.3196
 7662TIP3    H222920   5.505   4.638   2.439  1.2848 -2.0351 -1.4941
 7663TIP3   OH222921   5.712   1.788   4.261  0.3258 -0.0984 -0.0464
 7663TIP3    H122922   5.766   1.867   4.257 -0.0181  0.2096  1.2925
 7663TIP3    H222923   5.637   1.808   4.204 -0.4000  1.0535  1.2777
 7664TIP3   OH222924   4.590   2.917   5.220  0.3660  0.3795  0.1583
 7664TIP3    H122925   4.591   2.904   5.126  0.4550  1.4045  0.0171
 7664TIP3    H222926   4.549   3.002   5.233  0.2187  0.1788  1.0535
 7665TIP3   OH222927   2.983   5.778   3.174  0.3676 -0.4121  0.3257
 7665TIP3    H122928   3.046   5.815   3.235  2.1935 -1.2688 -0.9691
 7665TIP3    H222929   3.005   5.818   3.089 -1.7087  0.2858  0.0930
 7666TIP3   OH222930   5.536   5.604   4.850  0.8383  0.0160 -0.7343
 7666TIP3    H122931   5.577   5.640   4.929 -1.8049  0.3636  0.5487
 7666TIP3    H222932   5.585   5.642   4.777  2.1800  1.1297  0.7228
 7667TIP3   OH222933   4.669   5.733   6.234 -0.3859  0.0315  0.1776
 7667TIP3    H122934   4.576   5.716   6.218 -0.3382  0.4231 -0.5047
 7667TIP3    H222935   4.690   5.677   6.309 -0.5577 -1.9285 -1.2024
 7668TIP3   OH222936   7.069   4.164   4.038 -0.0845 -0.0806 -0.0884
 7668TIP3    H122937   7.060   4.149   3.944 -2.2166 -0.1919  0.1110
 7668TIP3    H222938   7.038   4.254   4.051 -1.3580 -0.6243  0.7188
 7669TIP3   OH222939   6.187   4.484   2.541  0.0147  0.3900 -0.3159
 7669TIP3    H122940   6.108   4.501   2.592 -0.0679 -0.5684 -0.1134
 7669TIP3    H222941   6.189   4.554   2.475 -0.2685  1.1955  0.5300
 7670TIP3   OH222942   6.798   5.125   2.980 -0.5496 -0.2039 -0.4261
 7670TIP3    H122943   6.837   5.211   2.993 -1.5900  0.4235 -1.3228
 7670TIP3    H222944   6.730   5.139   2.914 -2.9714 -1.0445  1.7946
 7671TIP3   OH222945   8.032   4.473   2.749  0.0802 -0.0007 -0.1378
 7671TIP3    H122946   7.967   4.436   2.690  1.7810 -2.6418 -0.4531
 7671TIP3    H222947   8.105   4.498   2.692 -0.4481  2.5550  0.2556
 7672TIP3   OH222948   6.928   0.360   2.475  0.1427 -0.0204  0.1092
 7672TIP3    H122949   7.022   0.345   2.463  0.3814  0.9477  0.7997
 7672TIP3    H222950   6.892   0.273   2.495  0.9434 -0.3242  0.2275
 7673TIP3   OH222951   7.472   3.685   3.798  0.3460 -0.6535  0.1591
 7673TIP3    H122952   7.511   3.598   3.804  1.1798 -0.2893  0.0542
 7673TIP3    H222953   7.535   3.743   3.841  0.4316  0.0999 -0.9655
 7674TIP3   OH222954   7.040   5.044   2.215 -0.2701  0.4191  0.0870
 7674TIP3    H122955   7.056   5.136   2.198 -0.8509  0.8446  1.7850
 7674TIP3    H222956   7.051   5.034   2.310 -0.0280 -1.2844 -0.0964
 7675TIP3   OH222957   7.595   4.470   2.723 -0.3367  0.2785 -0.4637
 7675TIP3    H122958   7.519   4.478   2.665  0.7097  3.4731 -1.5166
 7675TIP3    H222959   7.562   4.497   2.809 -1.1374 -1.4611 -0.2033
 7676TIP3   OH222960   7.449   6.429   3.032  0.2312  0.4027 -0.0199
 7676TIP3    H122961   7.359   6.424   3.064  0.2476  1.2417  0.1820
 7676TIP3    H222962   7.447   6.497   2.965  0.5179 -0.2589 -0.6987
 7677TIP3   OH222963   6.358   4.941   3.600 -0.1009  0.5145  0.3978
 7677TIP3    H122964   6.444   4.963   3.565  0.3397 -0.5020  0.8366
 7677TIP3    H222965   6.302   4.934   3.522  0.3054  0.7584  0.0797
 7678TIP3   OH222966   5.257   4.443   2.803 -0.2750  0.0747 -0.3432
 7678TIP3    H122967   5.280   4.350   2.801 -0.3354  0.0844 -2.3987
 7678TIP3    H222968   5.331   4.484   2.848  0.3748 -0.7986 -0.5871
 7679TIP3   OH222969   4.830   3.689   4.093 -0.2965  0.3542 -0.1670
 7679TIP3    H122970   4.827   3.631   4.017 -1.8154 -2.1053  1.6922
 7679TIP3    H222971   4.739   3.716   4.105  0.3308  2.8377 -0.7505
 7680TIP3   OH222972   4.650   4.527   1.546  0.0218  0.4438  0.2223
 7680TIP3    H122973   4.704   4.508   1.469  0.1666  0.7351  0.2505
 7680TIP3    H222974   4.573   4.470   1.536  0.4453 -0.1441  0.3062
 7681TIP3   OH222975   4.146   4.094   2.970 -0.3950 -0.1515 -0.0292
 7681TIP3    H122976   4.130   4.138   2.886 -1.1575 -0.4259 -0.0302
 7681TIP3    H222977   4.162   4.164   3.032  1.2180  0.0208 -0.6215
 7682TIP3   OH222978   5.051   5.341   2.249 -0.5633  0.0006 -0.3323
 7682TIP3    H122979   5.110   5.401   2.205  0.2787 -1.9520 -1.9416
 7682TIP3    H222980   4.963   5.368   2.222 -0.2489  1.0303 -0.3367
 7683TIP3   OH222981   3.155   3.935   3.023 -0.3267 -0.0177 -0.2167
 7683TIP3    H122982   3.237   3.934   3.073  0.6194 -0.8270 -1.7709
 7683TIP3    H222983   3.133   3.843   3.011 -2.0715  0.1834  1.1183
 7684TIP3   OH222984   4.973   5.154   4.752  0.3563 -0.0500 -0.0363
 7684TIP3    H122985   4.993   5.207   4.674  2.1584  0.7229  0.9262
 7684TIP3    H222986   5.057   5.116   4.777  0.1126  0.9794  2.4551
 7685TIP3   OH222987   5.930   1.447   0.851  0.4822 -0.0238 -0.0385
 7685TIP3    H122988   6.015   1.442   0.894 -0.0781  0.6466  1.1793
 7685TIP3    H222989   5.895   1.358   0.857  0.8712 -0.1823 -0.0785
 7686TIP3   OH222990   6.594   4.754   5.711  0.4880 -0.0526  0.2573
 7686TIP3    H122991   6.639   4.784   5.633  0.6740 -0.4285  0.2164
 7686TIP3    H222992   6.593   4.830   5.770  1.7750 -0.2375  0.5243
 7687TIP3   OH222993   6.385   4.647   3.479  0.5195 -0.1092  0.4974
 7687TIP3    H122994   6.413   4.719   3.422 -1.1322 -0.8144 -1.2402
 7687TIP3    H222995   6.341   4.585   3.420  1.3424 -2.2414  2.0787
 7688TIP3   OH222996   7.613   3.979   2.274 -0.3677 -0.3632  0.3484
 7688TIP3    H122997   7.609   3.980   2.179 -2.5394  0.6888  0.4184
 7688TIP3    H222998   7.545   3.917   2.300  0.8984 -1.4355  1.2206
 7689TIP3   OH222999   7.326   6.225   2.130 -0.1956 -0.4688 -0.3156
 7689TIP3    H123000   7.288   6.313   2.126 -2.1374 -1.2331  0.6351
 7689TIP3    H223001   7.252   6.166   2.114  0.8779 -1.9561  0.1000
 7690TIP3   OH223002   6.966   5.260   4.267 -0.5943 -0.0844 -0.3614
 7690TIP3    H123003   7.010   5.246   4.351 -1.2017 -2.5294 -0.4073
 7690TIP3    H223004   7.024   5.318   4.219  2.1112 -2.3962 -0.0243
 7691TIP3   OH223005   5.957   6.562   3.365  0.1055 -0.7370 -0.2798
 7691TIP3    H123006   5.951   6.469   3.341 -0.0483 -0.1835 -2.4707
 7691TIP3    H223007   5.891   6.605   3.311  0.2289  0.6670  0.6672
 7692TIP3   OH223008   6.609   6.431   3.984 -0.0176  0.5142  0.3126
 7692TIP3    H123009   6.524   6.473   3.974  1.2865  3.6826  1.7084
 7692TIP3    H223010   6.669   6.486   3.934  1.2290 -1.6572 -0.6257
 7693TIP3   OH223011   0.034   4.305   4.972  0.3266 -0.4532 -0.5916
 7693TIP3    H123012   0.088   4.290   4.894  1.0513 -0.1120 -0.1638
 7693TIP3    H223013   0.031   4.400   4.980 -0.5788 -0.4668 -0.7695
 7694TIP3   OH223014   0.789   6.140   3.597  0.1928 -0.4795  0.1441
 7694TIP3    H123015   0.835   6.109   3.520  1.0599 -1.9831  1.2340
 7694TIP3    H223016   0.852   6.197   3.642 -0.0990 -0.0784  0.0448
 7695TIP3   OH223017   7.090   5.251   3.186  0.5460 -0.6085 -0.4034
 7695TIP3    H123018   7.022   5.308   3.222  0.3167  0.0178 -1.7966
 7695TIP3    H223019   7.082   5.169   3.235 -0.3703 -0.0938  0.3072
 7696TIP3   OH223020   6.476   4.714   2.493 -0.1559 -0.3625  0.4010
 7696TIP3    H123021   6.486   4.620   2.506  1.5792  0.0522  2.3251
 7696TIP3    H223022   6.526   4.733   2.414 -2.0119 -1.3013 -1.0368
 7697TIP3   OH223023   5.686   5.349   2.512 -0.6208  0.3907 -0.0379
 7697TIP3    H123024   5.689   5.429   2.563  1.5005  0.4427 -0.1764
 7697TIP3    H223025   5.771   5.308   2.526 -0.3387 -0.0791 -2.7124
 7698TIP3   OH223026   5.357   2.888   1.506  0.0429  0.5016  0.1599
 7698TIP3    H123027   5.400   2.969   1.479  0.1567  0.3906  0.0040
 7698TIP3    H223028   5.331   2.846   1.424  2.7389 -1.1088  0.0655
 7699TIP3   OH223029   5.018   5.387   4.887  0.0451  0.2067 -0.0287
 7699TIP3    H123030   5.107   5.411   4.912  0.3676 -1.3792  0.4370
 7699TIP3    H223031   5.025   5.296   4.859 -1.7049 -0.4932  1.6667
 7700TIP3   OH223032   6.823   6.234   3.509 -0.0269  0.3888  0.8055
 7700TIP3    H123033   6.784   6.228   3.423  1.1512 -0.4542  0.3100
 7700TIP3    H223034   6.815   6.145   3.545 -1.6313  1.0254  2.0710
 7701TIP3   OH223035   6.482   4.269   4.233  0.5353  0.9545 -0.8812
 7701TIP3    H123036   6.417   4.223   4.180  2.5884 -0.0596 -2.5704
 7701TIP3    H223037   6.486   4.220   4.315 -0.9547  1.1626 -0.6619
 7702TIP3   OH223038   6.604   3.816   0.251  0.1196  0.7602  0.0307
 7702TIP3    H123039   6.569   3.792   0.336  0.4742  1.9838  0.5205
 7702TIP3    H223040   6.696   3.787   0.254  0.0569  0.5549 -0.0326
 7703TIP3   OH223041   4.797   3.508   4.329  0.5043  0.8516 -0.1536
 7703TIP3    H123042   4.745   3.576   4.372 -1.7660 -0.8211 -0.1609
 7703TIP3    H223043   4.812   3.542   4.240  1.5162  2.3910  0.5690
 7704TIP3   OH223044   6.554   3.494   1.877 -0.0887 -0.4357  0.4167
 7704TIP3    H123045   6.605   3.481   1.797 -1.2749  1.3862 -0.6727
 7704TIP3    H223046   6.509   3.410   1.890  1.0199 -1.1320 -0.1570
 7705TIP3   OH223047   4.295   6.368   3.206  0.5649  0.6447 -0.4220
 7705TIP3    H123048   4.284   6.291   3.151  0.4841 -0.2453  0.8186
 7705TIP3    H223049   4.338   6.432   3.149  1.1077 -0.4868 -1.3151
 7706TIP3   OH223050   1.840   0.299   4.438 -0.1055 -0.4197  0.2038
 7706TIP3    H123051   1.848   0.341   4.352  1.3517  0.5752  0.8100
 7706TIP3    H223052   1.918   0.244   4.445  0.4917  0.5783  1.4661
 7707TIP3   OH223053   8.239   5.799   2.081  0.6733  0.3210 -0.2990
 7707TIP3    H123054   8.162   5.769   2.130  0.2399 -0.1877 -1.2911
 7707TIP3    H223055   8.217   5.887   2.053 -0.9603 -1.0347 -3.5045
 7708TIP3   OH223056   8.137   4.781   4.956 -0.1322  0.1729 -0.5370
 7708TIP3    H123057   8.077   4.855   4.947 -1.0619 -0.1006  2.6814
 7708TIP3    H223058   8.224   4.820   4.962 -0.6342  1.0240  1.2640
 7709TIP3   OH223059   5.535   4.852   2.629 -0.0018  0.0963 -0.2834
 7709TIP3    H123060   5.606   4.909   2.599  1.8647 -1.9255  0.1330
 7709TIP3    H223061   5.459   4.878   2.577  1.0797  2.2032 -0.8552
 7710TIP3   OH223062   6.085   3.507   3.342 -0.1280  0.6847  0.0870
 7710TIP3    H123063   6.048   3.437   3.288  2.6693  1.2448 -2.6869
 7710TIP3    H223064   6.014   3.531   3.402 -2.2345 -2.2290 -1.1217
 7711TIP3   OH223065   0.736   5.294   2.563  0.4254  0.0829 -0.5876
 7711TIP3    H123066   0.668   5.356   2.590  1.1193  1.2356 -1.4221
 7711TIP3    H223067   0.709   5.266   2.476  1.3269  1.0039 -1.1675
 7712TIP3   OH223068   3.558   5.627   0.658  0.0328 -0.5580 -0.3505
 7712TIP3    H123069   3.541   5.571   0.734  0.1699  0.6474  0.5895
 7712TIP3    H223070   3.653   5.634   0.654 -0.0197  0.7701  0.4192
 7713TIP3   OH223071   6.667   3.205   3.340 -0.8855  1.2040  0.2491
 7713TIP3    H123072   6.757   3.223   3.311 -0.2170 -0.1657  1.4452
 7713TIP3    H223073   6.630   3.292   3.358  0.5184  1.7229  0.6995
 7714TIP3   OH223074   3.651   6.113   3.201  0.3839  0.1650  0.3975
 7714TIP3    H123075   3.566   6.148   3.230  0.3321 -0.4702  1.0120
 7714TIP3    H223076   3.676   6.051   3.269 -0.1597 -2.0292 -1.3293
 7715TIP3   OH223077   5.691   4.905   4.533  0.1138 -0.0722  0.1347
 7715TIP3    H123078   5.756   4.835   4.526 -1.4516 -1.3430 -2.2122
 7715TIP3    H223079   5.742   4.986   4.525  1.6882 -0.9775  0.8177
 7716TIP3   OH223080   4.150   4.137   3.830  0.3698  0.2212  0.4273
 7716TIP3    H123081   4.063   4.157   3.797  0.7650  3.3719  1.1578
 7716TIP3    H223082   4.136   4.070   3.897 -1.4149  0.3015  0.1463
 7717TIP3   OH223083   6.536   5.033   4.795  0.0503 -0.1019  0.2975
 7717TIP3    H123084   6.493   5.101   4.846 -0.5675 -0.6965  0.5938
 7717TIP3    H223085   6.567   4.970   4.860  1.6795  0.4758  0.1073
 7718TIP3   OH223086   5.524   3.953   3.329  0.9854  0.1570  0.3743
 7718TIP3    H123087   5.444   3.994   3.363  0.6271 -0.5201  0.3626
 7718TIP3    H223088   5.563   3.909   3.405  1.1671  0.2021  0.3078
 7719TIP3   OH223089   5.727   4.556   5.347  0.2140  0.2238  0.1086
 7719TIP3    H123090   5.665   4.621   5.313  1.3234  0.6764 -1.1017
 7719TIP3    H223091   5.767   4.518   5.268  0.7020 -0.8207  0.8491
 7720TIP3   OH223092   7.428   3.533   2.021  0.5979 -0.2251  0.5976
 7720TIP3    H123093   7.340   3.502   2.043  0.5551 -0.7833 -0.3343
 7720TIP3    H223094   7.483   3.503   2.093  0.4559 -2.0098 -0.0133
 7721TIP3   OH223095   6.924   3.969   5.343  0.3237 -0.4752  0.0717
 7721TIP3    H123096   6.987   4.041   5.339 -0.6711  0.4549  1.0245
 7721TIP3    H223097   6.845   4.007   5.380 -0.4618 -1.8886 -0.1012
 7722TIP3   OH223098   6.612   4.365   2.763 -0.8401 -0.2839 -0.0797
 7722TIP3    H123099   6.523   4.392   2.785 -0.4161  0.3048  0.9331
 7722TIP3    H223100   6.663   4.446   2.765  0.5937 -1.1649  3.6743
 7723TIP3   OH223101   5.445   5.445   3.417 -0.1876 -0.7344  0.4242
 7723TIP3    H123102   5.520   5.432   3.359  0.8049  0.5365  1.3977
 7723TIP3    H223103   5.483   5.457   3.503 -1.2041  3.8313  0.3806
 7724TIP3   OH223104   5.261   4.327   3.539  0.4868 -0.0317  0.0721
 7724TIP3    H123105   5.325   4.295   3.603  0.1266 -1.5812 -0.3217
 7724TIP3    H223106   5.253   4.256   3.476  0.3942  1.2441 -1.3886
 7725TIP3   OH223107   3.762   2.126   2.958  0.0299 -0.3551  0.4180
 7725TIP3    H123108   3.793   2.052   2.905 -0.6439  0.0193 -0.5109
 7725TIP3    H223109   3.695   2.167   2.904 -1.1199 -0.3526  1.8431
 7726TIP3   OH223110   5.624   4.542   1.195 -0.2740 -0.0846  0.2349
 7726TIP3    H123111   5.674   4.561   1.116 -1.2585  2.0599  0.0963
 7726TIP3    H223112   5.610   4.447   1.192  1.7018 -0.3714 -0.9293
 7727TIP3   OH223113   7.005   3.856   4.083 -0.5179 -0.2638 -0.0512
 7727TIP3    H123114   6.993   3.941   4.124  0.0920 -0.3885  0.3867
 7727TIP3    H223115   6.937   3.800   4.121 -0.8959  0.0101 -0.3155
 7728TIP3   OH223116   4.945   4.388   2.749  0.2066  0.3617  0.6339
 7728TIP3    H123117   4.956   4.474   2.710  0.0509  0.3851  0.6423
 7728TIP3    H223118   5.028   4.371   2.794 -0.1177  0.9102  1.4334
 7729TIP3   OH223119   7.374   6.014   5.127 -0.3355 -0.1787  0.1230
 7729TIP3    H123120   7.409   5.958   5.057  1.8508  2.1614 -0.7382
 7729TIP3    H223121   7.432   5.999   5.201 -1.0551 -0.6533  0.5999
 7730TIP3   OH223122   5.147   7.047   3.366 -0.2075  0.6373 -0.3539
 7730TIP3    H123123   5.071   6.993   3.386 -0.4873  1.4024  0.7347
 7730TIP3    H223124   5.109   7.131   3.337  0.2155  0.7752 -0.5054
 7731TIP3   OH223125   5.175   6.381   3.922  0.4846  0.2130  0.1397
 7731TIP3    H123126   5.136   6.445   3.981  0.9147  0.3179  0.3144
 7731TIP3    H223127   5.240   6.335   3.976  1.2067  0.6209 -0.3732
 7732TIP3   OH223128   4.376   6.628   2.107  0.4756  0.2542 -0.4495
 7732TIP3    H123129   4.434   6.556   2.080 -1.6868 -1.6467 -0.1879
 7732TIP3    H223130   4.319   6.642   2.032 -0.2935  0.4608  0.1729
 7733TIP3   OH223131   7.735   6.458   2.480 -0.3830 -0.6510 -0.5715
 7733TIP3    H123132   7.777   6.376   2.503 -1.8936 -0.8385  1.6934
 7733TIP3    H223133   7.650   6.455   2.524 -1.1022  1.4501 -1.7204
 7734TIP3   OH223134   3.480   4.980   2.886 -0.1804  0.1110  0.5344
 7734TIP3    H123135   3.505   4.930   2.809  0.1107  1.5122 -0.3034
 7734TIP3    H223136   3.513   4.929   2.960  2.1646  0.2108 -0.3870
 7735TIP3   OH223137   7.230   1.895   3.276 -0.3923  0.2303 -0.3335
 7735TIP3    H123138   7.261   1.948   3.203  1.7263 -1.4966 -0.7570
 7735TIP3    H223139   7.186   1.820   3.235  1.8942 -1.3965  0.0501
 7736TIP3   OH223140   6.891   5.960   3.601 -0.6769  0.1599  0.5403
 7736TIP3    H123141   6.934   5.902   3.665  1.4927  1.5806  0.4051
 7736TIP3    H223142   6.960   5.986   3.542 -1.6822  2.6785  0.4222
 7737TIP3   OH223143   5.252   4.426   0.591 -0.1069  0.1556  0.0772
 7737TIP3    H123144   5.175   4.382   0.626  1.7112 -2.1738  1.2735
 7737TIP3    H223145   5.267   4.500   0.650 -0.9930  0.2090  0.2423
 7738TIP3   OH223146   7.238   6.041   4.525  0.3919 -0.1987 -0.4018
 7738TIP3    H123147   7.329   6.028   4.499 -0.0213 -0.1050 -1.9588
 7738TIP3    H223148   7.201   5.953   4.531  0.9312 -0.3086  1.5814
 7739TIP3   OH223149   4.727   2.834   5.743 -0.3462  0.0139 -0.0000
 7739TIP3    H123150   4.746   2.746   5.711  2.0463  1.3151 -2.3042
 7739TIP3    H223151   4.651   2.861   5.692  0.3840  0.1833 -1.0042
 7740TIP3   OH223152   6.281   5.827   3.153  0.0770 -0.7562  0.1886
 7740TIP3    H123153   6.341   5.775   3.099 -0.2083  0.5206 -1.4080
 7740TIP3    H223154   6.336   5.866   3.220  1.3349  1.4593 -2.0326
 7741TIP3   OH223155   6.335   3.387   4.271  0.0153 -0.4046  0.2657
 7741TIP3    H123156   6.273   3.423   4.334  0.5790  2.2053 -0.6393
 7741TIP3    H223157   6.290   3.392   4.187  0.1754 -1.6525  0.0982
 7742TIP3   OH223158   8.459   6.439   3.199 -0.2039 -0.6802  0.2156
 7742TIP3    H123159   8.514   6.367   3.170  1.2554  0.9114 -1.0423
 7742TIP3    H223160   8.373   6.399   3.213  1.2917 -3.2649  2.5371
 7743TIP3   OH223161   6.381   5.695   2.084 -0.7431  0.0398 -0.8081
 7743TIP3    H123162   6.388   5.694   2.180  0.0764  0.9128 -0.8469
 7743TIP3    H223163   6.350   5.783   2.063 -1.9851 -0.5112 -1.2841
 7744TIP3   OH223164   4.940   5.086   3.294 -0.2518 -0.3085 -0.2425
 7744TIP3    H123165   4.869   5.024   3.307  0.9622 -1.2565  2.2670
 7744TIP3    H223166   4.994   5.046   3.226  0.0896 -1.6632  0.7895
 7745TIP3   OH223167   6.545   3.392   4.469 -0.0330 -0.2526  0.0615
 7745TIP3    H123168   6.556   3.318   4.529  1.2445 -0.5526 -0.5189
 7745TIP3    H223169   6.502   3.355   4.393 -0.3309 -0.1811  0.1960
 7746TIP3   OH223170   5.960   4.588   2.057  0.5022 -0.0400  0.2162
 7746TIP3    H123171   6.042   4.624   2.023  0.0948  0.5140 -0.1797
 7746TIP3    H223172   5.988   4.517   2.115  1.1964 -1.5737 -1.9015
 7747TIP3   OH223173   5.377   7.419   3.927 -0.6182  0.8252 -0.1053
 7747TIP3    H123174   5.382   7.342   3.870 -0.9315  1.5185 -1.0709
 7747TIP3    H223175   5.464   7.426   3.966 -0.7176 -0.2800  0.3389
 7748TIP3   OH223176   6.863   5.539   2.614  0.0189  0.2935  0.4152
 7748TIP3    H123177   6.862   5.557   2.520  0.6860  2.9751  0.8867
 7748TIP3    H223178   6.804   5.605   2.652 -3.1688 -3.0195  1.5501
 7749TIP3   OH223179   7.160   5.057   2.745 -0.4423 -0.0519  0.5801
 7749TIP3    H123180   7.110   5.132   2.712 -1.1957 -0.9014 -0.2426
 7749TIP3    H223181   7.095   4.989   2.759  0.3885 -0.9497  0.1643
 7750TIP3   OH223182   8.506   6.776   1.298 -0.0070 -0.6416  0.5675
 7750TIP3    H123183   8.427   6.809   1.340  0.7433  0.8670  0.8572
 7750TIP3    H223184   8.541   6.851   1.251  0.9053 -1.4654 -0.0848
 7751TIP3   OH223185   5.486   1.886   4.149 -0.4545 -0.2135  0.2033
 7751TIP3    H123186   5.397   1.850   4.148 -0.7273  0.4520 -0.8113
 7751TIP3    H223187   5.498   1.920   4.060  1.3097 -1.5053 -0.0647
 7752TIP3   OH223188   8.062   2.792   1.728 -0.0443  0.3387 -0.3100
 7752TIP3    H123189   8.020   2.870   1.765 -0.0152 -0.0530  0.5474
 7752TIP3    H223190   8.151   2.822   1.705 -0.8011  1.1972 -2.2406
 7753TIP3   OH223191   3.602   4.156   5.231  0.6921 -0.4334  0.1065
 7753TIP3    H123192   3.586   4.225   5.166  4.0653 -1.0081 -1.4132
 7753TIP3    H223193   3.541   4.176   5.302 -0.5287  2.3328 -1.6244
 7754TIP3   OH223194   7.146   2.409   1.728  0.4295  0.4491  0.4632
 7754TIP3    H123195   7.232   2.406   1.687  0.2689  1.7675 -0.0045
 7754TIP3    H223196   7.095   2.341   1.684  1.4836 -0.9400  1.3505
 7755TIP3   OH223197   5.839   3.456   4.834 -0.3860 -0.4579 -0.5102
 7755TIP3    H123198   5.856   3.520   4.902 -0.8520 -1.6358  0.7387
 7755TIP3    H223199   5.916   3.460   4.777 -0.4162  1.1956 -0.4569
 7756TIP3   OH223200   3.886   5.331   3.852  0.0938  0.1448  0.3501
 7756TIP3    H123201   3.849   5.260   3.799  0.0417  0.5945 -0.2197
 7756TIP3    H223202   3.932   5.386   3.789  1.4005 -0.1963  1.0080
 7757TIP3   OH223203   4.497   3.797   3.827 -0.6615  0.1538  0.6865
 7757TIP3    H123204   4.495   3.867   3.893 -2.3563 -0.6263  1.4858
 7757TIP3    H223205   4.445   3.726   3.865 -0.3593 -0.9089 -0.8352
 7758TIP3   OH223206   7.094   4.991   3.336 -0.1393 -0.1981 -0.1332
 7758TIP3    H123207   7.040   4.913   3.345  0.3547 -0.7388 -1.6611
 7758TIP3    H223208   7.141   4.997   3.419 -1.3366 -0.6297  0.5903
 7759TIP3   OH223209   6.158   5.336   1.910  0.2910  0.2123 -0.7938
 7759TIP3    H123210   6.077   5.287   1.893  0.2630  0.1066 -0.3423
 7759TIP3    H223211   6.186   5.365   1.823  1.0660 -1.7898 -1.2412
 7760TIP3   OH223212   5.112   2.657   3.898  0.0939 -0.5946 -0.1048
 7760TIP3    H123213   5.056   2.632   3.825 -0.0904 -1.4185  0.3105
 7760TIP3    H223214   5.068   2.622   3.975 -0.0757  0.8859  0.4770
 7761TIP3   OH223215   3.771   3.928   3.657  0.2239  0.2925 -0.4495
 7761TIP3    H123216   3.765   3.885   3.743  1.2030 -0.0959 -0.5643
 7761TIP3    H223217   3.835   3.875   3.609  0.4480  1.1180 -1.0624
 7762TIP3   OH223218   5.687   4.472   2.913  0.3075  0.1448  0.4047
 7762TIP3    H123219   5.743   4.525   2.970 -0.3864  0.4415  0.8036
 7762TIP3    H223220   5.652   4.404   2.970 -0.9803  0.8848  0.4948
 7763TIP3   OH223221   5.684   4.619   2.043  0.8228 -0.3204 -0.3220
 7763TIP3    H123222   5.775   4.590   2.035  0.4142 -0.9178 -3.3020
 7763TIP3    H223223   5.660   4.650   1.956 -1.1858  1.8417  0.9337
 7764TIP3   OH223224   6.807   3.444   3.728  0.0357  0.2684 -0.6558
 7764TIP3    H123225   6.874   3.392   3.684  0.5478  0.4611 -0.1073
 7764TIP3    H223226   6.829   3.535   3.705  0.5090  0.3911  0.2814
 7765TIP3   OH223227   6.016   3.692   4.834  0.0883  0.6149 -0.2999
 7765TIP3    H123228   5.954   3.721   4.901 -0.5348  0.6475 -0.8916
 7765TIP3    H223229   6.102   3.706   4.874 -0.2725  0.9537  0.3642
 7766TIP3   OH223230   6.683   4.422   1.959 -0.1830 -0.2829  0.4554
 7766TIP3    H123231   6.618   4.410   2.028 -0.2701  1.1107  0.6304
 7766TIP3    H223232   6.745   4.486   1.995 -1.0522  1.6191 -1.3128
 7767TIP3   OH223233   5.546   4.596   5.146  0.1643  0.1245  1.2286
 7767TIP3    H123234   5.593   4.575   5.065 -0.6106  1.6368  0.3579
 7767TIP3    H223235   5.525   4.510   5.184 -1.0271 -0.6881 -1.1076
 7768TIP3   OH223236   7.551   7.465   3.049 -0.4402 -0.3727 -0.1650
 7768TIP3    H123237   7.522   7.505   3.131  0.6317 -1.2073  0.6321
 7768TIP3    H223238   7.637   7.503   3.032 -0.2856 -0.8488 -0.4617
 7769TIP3   OH223239   7.707   2.174   6.154  0.6938  0.2321 -0.0623
 7769TIP3    H123240   7.642   2.201   6.219  0.7624  0.3274 -0.0347
 7769TIP3    H223241   7.681   2.085   6.131  0.7305  0.1625  0.1678
 7770TIP3   OH223242   4.747   3.792   3.452 -0.6220  0.0834 -0.5850
 7770TIP3    H123243   4.721   3.867   3.505 -1.0139 -1.6710  1.8189
 7770TIP3    H223244   4.724   3.716   3.505  0.6089 -1.7345 -2.5407
 7771TIP3   OH223245   5.616   6.967   4.225 -0.3405  0.8963 -0.3677
 7771TIP3    H123246   5.662   7.032   4.173 -0.1933  1.6828  0.7338
 7771TIP3    H223247   5.545   7.015   4.267  0.5420  0.6360  1.4706
 7772TIP3   OH223248   4.835   5.524   2.172 -0.5511  0.1324  0.0807
 7772TIP3    H123249   4.821   5.492   2.083  1.5435  0.1677 -0.2865
 7772TIP3    H223250   4.848   5.618   2.161  0.3245  0.0433  0.3550
 7773TIP3   OH223251   6.203   3.369   2.114  0.2407  0.1553  0.1291
 7773TIP3    H123252   6.116   3.339   2.138  1.4200 -2.4713  1.3854
 7773TIP3    H223253   6.204   3.367   2.018 -1.2778  0.8860  0.0931
 7774TIP3   OH223254   6.476   3.095   3.180 -0.0488  0.3667  0.1017
 7774TIP3    H123255   6.531   3.148   3.237  1.3759 -0.4411 -0.4861
 7774TIP3    H223256   6.502   3.005   3.198  0.3409  0.0920 -1.7071
 7775TIP3   OH223257   0.704   6.079   2.866 -0.2990 -0.5057 -1.0743
 7775TIP3    H123258   0.771   6.055   2.802  1.4334  0.4453  0.3453
 7775TIP3    H223259   0.673   6.165   2.836  1.7297  0.7301  0.2806
 7776TIP3   OH223260   4.649   5.895   3.505  0.1939  0.2625 -0.4066
 7776TIP3    H123261   4.681   5.838   3.436 -0.2330 -0.1258 -0.2870
 7776TIP3    H223262   4.705   5.876   3.580 -0.7094 -0.8877 -0.0003
 7777TIP3   OH223263   5.372   3.139   1.797 -0.3711 -0.0062  0.7266
 7777TIP3    H123264   5.298   3.160   1.855 -0.8488  1.3761 -0.3433
 7777TIP3    H223265   5.368   3.207   1.729  0.4789 -1.3051 -0.6353
 7778TIP3   OH223266   6.673   5.049   3.671  0.2040  0.7148 -0.6856
 7778TIP3    H123267   6.638   5.118   3.727 -1.2117 -0.6401  0.1453
 7778TIP3    H223268   6.683   5.091   3.585 -2.7648  1.3814 -0.7620
 7779TIP3   OH223269   5.743   6.346   3.863  0.4735 -0.5343 -0.0324
 7779TIP3    H123270   5.731   6.324   3.770  1.0217 -1.0270  0.0111
 7779TIP3    H223271   5.703   6.273   3.910 -0.9524  0.3314  0.1335
 7780TIP3   OH223272   6.230   4.021   2.764  0.6133  0.4800 -0.0375
 7780TIP3    H123273   6.168   4.045   2.832 -0.6770 -2.0483 -0.2790
 7780TIP3    H223274   6.228   4.094   2.702  1.9900  2.9397  2.6847
 7781TIP3   OH223275   6.870   3.191   5.277 -0.4461  0.3257 -0.4612
 7781TIP3    H123276   6.856   3.242   5.197  3.5628  1.0442 -0.8207
 7781TIP3    H223277   6.917   3.251   5.335  1.6559 -1.9836  0.2658
 7782TIP3   OH223278   6.839   5.050   4.118 -0.1593  0.2430  0.4291
 7782TIP3    H123279   6.876   5.132   4.150  1.4750 -0.8303  1.3896
 7782TIP3    H223280   6.902   5.020   4.052 -1.4427  0.4265 -0.9048
 7783TIP3   OH223281   8.021   3.141   3.881 -0.7167  0.1715  0.4326
 7783TIP3    H123282   8.105   3.094   3.882 -1.2199 -0.7249  1.3398
 7783TIP3    H223283   7.957   3.076   3.853 -0.9332  1.1847 -1.5005
 7784TIP3   OH223284   6.369   3.729   4.239 -0.1621 -0.7250 -0.8133
 7784TIP3    H123285   6.334   3.685   4.161 -1.1923 -1.2356 -0.0844
 7784TIP3    H223286   6.409   3.809   4.206 -1.0264 -0.6948 -1.8196
 7785TIP3   OH223287   7.374   4.924   4.770  0.5884  0.0758  0.0034
 7785TIP3    H123288   7.329   4.843   4.793 -1.2836  0.8255 -0.8347
 7785TIP3    H223289   7.414   4.954   4.851 -0.4525 -0.6257  0.7813
 7786TIP3   OH223290   7.589   3.781   1.459  0.3311  0.8283 -0.6094
 7786TIP3    H123291   7.565   3.852   1.400  0.4246 -0.5091 -2.2935
 7786TIP3    H223292   7.660   3.735   1.414 -1.7736 -2.1800 -0.9663
 7787TIP3   OH223293   6.332   2.652   4.776  0.1032  0.0127 -0.5186
 7787TIP3    H123294   6.339   2.559   4.754  0.6478  0.1951 -1.1307
 7787TIP3    H223295   6.260   2.684   4.721  0.3796  0.1050 -0.8304
 7788TIP3   OH223296   5.284   6.240   2.852  0.6557 -0.4219  0.2758
 7788TIP3    H123297   5.379   6.253   2.850  0.6983 -0.7931 -0.3251
 7788TIP3    H223298   5.248   6.329   2.848  0.9680 -0.3361 -1.0724
 7789TIP3   OH223299   5.870   4.865   4.055  0.5236  0.1590  0.4535
 7789TIP3    H123300   5.799   4.917   4.017 -0.5160 -2.2403 -1.0340
 7789TIP3    H223301   5.941   4.871   3.992 -0.1116 -1.3108 -0.4519
 7790TIP3   OH223302   6.667   1.767   5.310  0.4206 -0.0025 -0.1771
 7790TIP3    H123303   6.627   1.746   5.226  0.9885  1.5937 -0.8675
 7790TIP3    H223304   6.603   1.822   5.354  0.6341  0.1689 -0.0777
 7791TIP3   OH223305   6.833   5.608   4.087 -0.1398  1.1164  0.1679
 7791TIP3    H123306   6.862   5.698   4.105  1.5290  0.6469 -0.1594
 7791TIP3    H223307   6.901   5.553   4.124 -0.7961 -0.0180 -0.3054
 7792TIP3   OH223308   3.121   2.988   5.153  0.8161 -0.3666 -0.3363
 7792TIP3    H123309   3.054   3.044   5.112 -1.7432 -2.1466  1.2359
 7792TIP3    H223310   3.104   2.901   5.118  2.0328 -0.9209  0.4264
 7793TIP3   OH223311   6.095   5.181   4.438  0.0574 -0.3067 -0.2186
 7793TIP3    H123312   6.026   5.131   4.396 -0.6462  1.5128 -1.2977
 7793TIP3    H223313   6.124   5.126   4.511 -3.1496 -0.7308  0.8256
 7794TIP3   OH223314   7.061   4.276   4.947 -0.6559  0.2251 -0.6626
 7794TIP3    H123315   7.009   4.246   5.022 -1.3929 -0.6582 -1.5053
 7794TIP3    H223316   7.006   4.256   4.871  0.2726  0.7032 -1.4660
 7795TIP3   OH223317   7.385   6.776   3.490  0.1955  0.2262 -0.7419
 7795TIP3    H123318   7.401   6.848   3.430 -0.1764 -0.1307 -1.2749
 7795TIP3    H223319   7.428   6.803   3.571 -0.0011  1.0733 -0.9132
 7796TIP3   OH223320   5.324   2.849   2.021  0.6557 -0.5051  0.1000
 7796TIP3    H123321   5.274   2.781   1.977 -0.2768  0.0061  0.3629
 7796TIP3    H223322   5.308   2.835   2.114 -0.3725  0.6969  0.1179
 7797TIP3   OH223323   4.995   4.040   4.456  0.4650 -0.1951 -0.1811
 7797TIP3    H123324   4.904   4.064   4.473  0.3644 -1.5058  1.1849
 7797TIP3    H223325   4.990   3.958   4.407  0.9236 -1.9586  2.6086
 7798TIP3   OH223326   7.501   4.304   5.332  0.0682  0.3338  0.2871
 7798TIP3    H123327   7.536   4.263   5.253  0.4875 -1.1584  1.2401
 7798TIP3    H223328   7.526   4.396   5.323 -3.3632  1.0636 -3.2233
 7799TIP3   OH223329   6.495   5.484   4.697 -0.1549 -0.1434  0.7441
 7799TIP3    H123330   6.434   5.511   4.628 -0.3468 -0.6328  0.7238
 7799TIP3    H223331   6.545   5.564   4.717  0.3102 -0.1560 -0.3604
 7800TIP3   OH223332   3.703   5.072   1.899 -0.6850 -0.5577  0.3590
 7800TIP3    H123333   3.691   4.977   1.898  0.9129 -0.7631 -1.7203
 7800TIP3    H223334   3.762   5.089   1.826 -0.3889  1.9693  1.1654
 7801TIP3   OH223335   4.239   4.160   1.461  0.0749 -0.2021  0.1058
 7801TIP3    H123336   4.270   4.074   1.434  0.5840  0.3312 -1.0770
 7801TIP3    H223337   4.222   4.152   1.554 -1.6160 -2.0947 -0.3318
 7802TIP3   OH223338   4.815   7.044   0.770 -0.0010  0.3289 -0.4354
 7802TIP3    H123339   4.837   7.133   0.796  1.4024  0.0900 -0.7225
 7802TIP3    H223340   4.830   6.992   0.849 -0.7200  0.3384 -0.2959
 7803TIP3   OH223341   4.016   3.166   2.146  0.2132 -0.4960  0.6014
 7803TIP3    H123342   3.941   3.194   2.198  1.2462  0.5107  1.5709
 7803TIP3    H223343   4.092   3.190   2.199  1.2744  0.3655 -1.2740
 7804TIP3   OH223344   0.258   5.181   2.975  0.1091 -0.4361 -0.0677
 7804TIP3    H123345   0.197   5.112   3.000 -1.1735  1.3810  2.0182
 7804TIP3    H223346   0.245   5.190   2.880 -1.0429 -1.7823 -0.0605
 7805TIP3   OH223347   7.835   5.333   3.501  0.1912  1.0156 -0.0901
 7805TIP3    H123348   7.856   5.426   3.504 -0.3428  1.1769 -1.3186
 7805TIP3    H223349   7.740   5.329   3.513  0.4350  0.4893  2.0233
 7806TIP3   OH223350   6.491   5.926   2.779  0.0424 -0.6987  0.2222
 7806TIP3    H123351   6.568   5.962   2.824 -0.0242 -0.7066  0.3421
 7806TIP3    H223352   6.418   5.980   2.810 -0.1088 -1.1530  0.6676
 7807TIP3   OH223353   8.400   7.462   4.431 -0.4423  0.5559 -0.1177
 7807TIP3    H123354   8.363   7.527   4.372  0.1684  0.8365 -0.2017
 7807TIP3    H223355   8.325   7.417   4.469 -0.8314 -0.3635 -1.9288
 7808TIP3   OH223356   6.752   3.980   1.918 -0.4084  0.0627 -0.1358
 7808TIP3    H123357   6.668   3.946   1.888 -0.1287 -0.1349 -0.6910
 7808TIP3    H223358   6.784   3.915   1.980 -0.4968 -0.0397 -0.1972
 7809TIP3   OH223359   7.604   5.759   3.165 -0.2375  0.3483 -0.4432
 7809TIP3    H123360   7.605   5.762   3.069  0.4206 -0.7100 -0.4695
 7809TIP3    H223361   7.559   5.677   3.186 -0.9570  0.8922  0.1626
 7810TIP3   OH223362   7.172   3.710   2.218  0.1924 -0.0718 -0.0358
 7810TIP3    H123363   7.095   3.690   2.271 -0.2804  0.4113 -0.5234
 7810TIP3    H223364   7.197   3.626   2.180 -0.0806 -0.2378  0.1450
 7811TIP3   OH223365   7.331   4.819   2.622  0.4762  0.4000  0.1516
 7811TIP3    H123366   7.374   4.836   2.538 -0.4565  1.9559 -0.0450
 7811TIP3    H223367   7.256   4.878   2.622 -0.6508 -1.0089  1.2518
 7812TIP3   OH223368   8.088   6.301   3.049 -0.0425  0.7631 -0.0312
 7812TIP3    H123369   8.072   6.209   3.073 -1.3886  1.5337  2.1496
 7812TIP3    H223370   8.099   6.346   3.133  2.2835  2.3317 -1.1341
 7813TIP3   OH223371   6.868   3.810   3.185 -0.3841  0.4209  0.1039
 7813TIP3    H123372   6.894   3.878   3.247  0.1564  1.3119 -1.0817
 7813TIP3    H223373   6.859   3.731   3.238  0.8673  0.9956  1.1831
 7814TIP3   OH223374   6.231   3.916   4.973 -0.0883 -0.3600  0.5119
 7814TIP3    H123375   6.239   3.870   5.056  1.0356  0.7862  1.0690
 7814TIP3    H223376   6.290   3.869   4.914  1.1556  0.4258  1.1130
 7815TIP3   OH223377   0.433   5.829   4.341  0.0799  0.2556 -0.1651
 7815TIP3    H123378   0.374   5.904   4.351  2.6921  2.3868 -0.0845
 7815TIP3    H223379   0.461   5.809   4.430 -2.0991 -2.1503  0.0393
 7816TIP3   OH223380   6.961   2.472   3.964  0.5572  0.3123 -0.1854
 7816TIP3    H123381   6.909   2.409   3.914 -0.1405 -0.1563  1.1175
 7816TIP3    H223382   6.944   2.556   3.921  0.3370 -0.1562 -1.0247
 7817TIP3   OH223383   8.130   4.091   4.714 -0.3250  0.4509  0.3402
 7817TIP3    H123384   8.050   4.108   4.763 -0.7602  0.9772 -0.5379
 7817TIP3    H223385   8.138   4.166   4.654  0.7444  0.3353  0.3262
 7818TIP3   OH223386   7.758   2.978   3.277  0.2127  0.3189 -0.2789
 7818TIP3    H123387   7.754   3.020   3.191 -2.0319  0.0758 -0.3280
 7818TIP3    H223388   7.734   2.887   3.260 -0.7978  0.3959  0.6710
 7819TIP3   OH223389   6.094   4.114   2.977 -0.5894 -0.1324  0.3263
 7819TIP3    H123390   6.124   4.194   3.021  2.8453 -1.6302  0.8217
 7819TIP3    H223391   6.054   4.062   3.047 -0.8062  0.1629  0.4253
 7820TIP3   OH223392   0.344   5.214   3.736  0.6500 -0.4011 -0.0858
 7820TIP3    H123393   0.422   5.196   3.789 -0.9258 -1.8168  1.8272
 7820TIP3    H223394   0.312   5.298   3.768  0.4012 -0.6704  0.3880
 7821TIP3   OH223395   6.472   5.802   4.199  0.2039 -0.3813  0.4263
 7821TIP3    H123396   6.431   5.814   4.284 -1.6859 -0.9402 -0.3817
 7821TIP3    H223397   6.413   5.744   4.151  1.3164 -0.2086 -1.2145
 7822TIP3   OH223398   5.347   2.560   4.718 -0.5453  0.2120  0.2977
 7822TIP3    H123399   5.371   2.491   4.780 -1.1081  0.1043  0.4020
 7822TIP3    H223400   5.308   2.628   4.773  0.2383  0.7234  0.2238
 7823TIP3   OH223401   6.212   3.751   3.370 -0.4599  0.0891 -0.2474
 7823TIP3    H123402   6.221   3.818   3.303 -0.3498  0.1732 -0.1490
 7823TIP3    H223403   6.174   3.676   3.324  1.0268 -0.3764 -0.7404
 7824TIP3   OH223404   4.756   4.529   3.344  0.3357  0.0966  0.0140
 7824TIP3    H123405   4.662   4.509   3.347  0.6077 -1.1660  0.2200
 7824TIP3    H223406   4.794   4.458   3.291  1.6038 -1.0727  2.4243
 7825TIP3   OH223407   4.997   5.783   3.650 -0.1815  0.3535 -0.0057
 7825TIP3    H123408   5.060   5.842   3.693  1.4834 -0.9543 -0.5766
 7825TIP3    H223409   4.970   5.830   3.571 -0.3134  1.1403  0.4980
 7826TIP3   OH223410   5.263   1.703   2.899 -0.1507 -0.1927 -0.0114
 7826TIP3    H123411   5.230   1.614   2.910  0.1748 -0.3257 -0.0924
 7826TIP3    H223412   5.341   1.693   2.845  0.0585  0.1078  0.2291
 7827TIP3   OH223413   6.078   6.861   3.933 -0.2479  0.3056 -0.4064
 7827TIP3    H123414   6.044   6.781   3.973 -0.1888 -0.6749 -2.2552
 7827TIP3    H223415   6.006   6.924   3.940 -0.2118  0.1854  1.2723
 7828TIP3   OH223416   7.948   6.255   3.518  0.4577  0.4563  0.3462
 7828TIP3    H123417   7.994   6.327   3.562  0.6481  0.0920  0.7427
 7828TIP3    H223418   7.868   6.295   3.485  0.9479  1.0384 -0.1470
 7829TIP3   OH223419   6.650   5.317   4.518 -0.0007  0.1237 -0.3251
 7829TIP3    H123420   6.602   5.358   4.590  1.8967  0.2766  0.8850
 7829TIP3    H223421   6.731   5.368   4.511  0.5639 -0.8983 -1.4935
 7830TIP3   OH223422   5.992   0.805   4.468 -0.2414  0.2936  0.3149
 7830TIP3    H123423   5.908   0.833   4.430  0.8829  1.6775 -1.2316
 7830TIP3    H223424   6.019   0.880   4.522 -0.3857 -0.4929  1.5078
 7831TIP3   OH223425   7.228   4.254   3.611  0.0641  0.0572  0.6148
 7831TIP3    H123426   7.149   4.206   3.637  0.2448 -0.5985 -0.0063
 7831TIP3    H223427   7.270   4.278   3.693  0.1297 -1.1463  0.9486
 7832TIP3   OH223428   5.368   5.023   5.215  0.1187 -0.0643 -0.1333
 7832TIP3    H123429   5.417   4.979   5.145 -0.5127 -0.4355 -0.3485
 7832TIP3    H223430   5.334   4.951   5.268  1.4404  0.2376  1.1447
 7833TIP3   OH223431   6.600   4.356   2.209 -0.6982 -0.3950  0.2012
 7833TIP3    H123432   6.626   4.269   2.179 -1.0914 -0.5178  0.2190
 7833TIP3    H223433   6.616   4.355   2.303  0.2957 -0.0956  0.0423
 7834TIP3   OH223434   5.678   6.832   3.433 -0.2267  0.6884 -0.3138
 7834TIP3    H123435   5.671   6.842   3.528 -1.1812 -2.2058 -0.0154
 7834TIP3    H223436   5.770   6.809   3.419 -0.0737  1.1556 -0.0769
 7835TIP3   OH223437   5.894   6.684   3.682  0.4072 -0.3438  0.6701
 7835TIP3    H123438   5.840   6.763   3.695  2.1565  0.4639  3.5464
 7835TIP3    H223439   5.843   6.614   3.723 -0.2302 -0.3563 -0.1197
 7836TIP3   OH223440   7.169   6.621   3.387  0.6371  0.2610 -0.2883
 7836TIP3    H123441   7.247   6.655   3.429  1.2648  0.3702 -1.5273
 7836TIP3    H223442   7.101   6.685   3.405  1.4309  1.3943 -1.2785
 7837TIP3   OH223443   5.471   5.891   2.292 -0.1890 -0.0170  0.3836
 7837TIP3    H123444   5.560   5.880   2.325  0.6806 -0.2537 -1.9237
 7837TIP3    H223445   5.430   5.952   2.353  1.5221  0.0101  1.5381
 7838TIP3   OH223446   5.266   6.857   2.438  0.0819 -0.1021 -0.2052
 7838TIP3    H123447   5.334   6.921   2.455  0.1022 -0.3999  0.8218
 7838TIP3    H223448   5.219   6.892   2.361  0.5790  0.7372 -0.1312
 7839TIP3   OH223449   4.556   6.244   4.974 -0.1300  0.3643  0.0119
 7839TIP3    H123450   4.599   6.323   4.940 -0.9132 -0.1109 -2.1315
 7839TIP3    H223451   4.506   6.210   4.900 -0.1836 -1.8892  1.0555
 7840TIP3   OH223452   5.608   4.170   4.132  0.9539 -0.1910 -0.0119
 7840TIP3    H123453   5.607   4.251   4.081 -0.8781  1.4283  2.4576
 7840TIP3    H223454   5.527   4.125   4.107 -0.0144  0.6678  1.4424
 7841TIP3   OH223455   5.521   3.996   2.498 -0.3764  0.0079  0.9085
 7841TIP3    H123456   5.469   4.054   2.443  0.3512 -0.0036  0.1805
 7841TIP3    H223457   5.467   3.979   2.575 -1.7410 -0.6116 -0.1723
 7842TIP3   OH223458   6.091   3.850   2.548  0.2075  0.2156  0.6008
 7842TIP3    H123459   6.078   3.899   2.629 -0.2268 -0.3601  0.8819
 7842TIP3    H223460   6.005   3.813   2.528  0.1689  0.8261 -0.4361
 7843TIP3   OH223461   4.734   4.895   4.489 -0.0843 -0.1884 -0.0662
 7843TIP3    H123462   4.816   4.851   4.468  0.6160  0.8309  0.4870
 7843TIP3    H223463   4.749   4.934   4.575 -1.0477  0.2819 -0.1025
 7844TIP3   OH223464   7.136   1.503   2.326  0.7287  0.2259  0.1474
 7844TIP3    H123465   7.087   1.487   2.407  2.0170 -1.2207  0.6589
 7844TIP3    H223466   7.082   1.566   2.278 -0.0531  1.1395  2.1344
 7845TIP3   OH223467   6.161   4.357   3.083 -0.1087  0.2095 -0.1988
 7845TIP3    H123468   6.216   4.353   3.161 -0.3606 -1.2263 -0.0681
 7845TIP3    H223469   6.186   4.438   3.040 -0.0462  1.0840  1.4300
 7846TIP3   OH223470   6.413   4.221   3.305 -0.0916  0.2257  0.1351
 7846TIP3    H123471   6.498   4.182   3.285 -0.5121 -0.7969  0.3534
 7846TIP3    H223472   6.358   4.148   3.331 -1.1306  0.8486 -0.2792
 7847TIP3   OH223473   6.166   5.077   3.727  0.0600  0.3538 -0.0544
 7847TIP3    H123474   6.247   5.030   3.705  0.8857  1.2549  1.0719
 7847TIP3    H223475   6.107   5.008   3.758  0.8621 -0.1148  0.4574
 7848TIP3   OH223476   6.245   3.702   2.914 -0.7085 -0.4360  0.4478
 7848TIP3    H123477   6.272   3.702   3.006 -1.0768 -0.1586  0.5566
 7848TIP3    H223478   6.264   3.791   2.884  0.0725 -0.7340  0.0621
 7849TIP3   OH223479   5.316   5.662   2.783  0.4437 -0.7863  0.2699
 7849TIP3    H123480   5.245   5.636   2.842  1.3261 -2.1392  0.7547
 7849TIP3    H223481   5.285   5.637   2.696  0.2395 -1.1783  0.4544
 7850TIP3   OH223482   6.879   3.672   4.939 -0.7486  0.2949  0.3822
 7850TIP3    H123483   6.965   3.650   4.975 -0.8989 -0.4038  0.3131
 7850TIP3    H223484   6.871   3.618   4.861  0.3348  3.0850 -1.7563
 7851TIP3   OH223485   5.027   3.613   0.983  0.6058 -0.1619  0.3336
 7851TIP3    H123486   5.021   3.586   0.891 -0.9311 -0.6375  0.5442
 7851TIP3    H223487   5.048   3.706   0.980 -1.5591  0.3334 -0.5605
 7852TIP3   OH223488   7.588   5.771   2.876 -0.1233  0.2928 -0.3249
 7852TIP3    H123489   7.516   5.717   2.845 -0.0034  1.1068 -2.0791
 7852TIP3    H223490   7.574   5.856   2.834  1.3859  0.7159 -0.0015
 7853TIP3   OH223491   3.980   0.894   1.703 -0.0489  0.4017 -0.3087
 7853TIP3    H123492   4.060   0.848   1.726 -0.2646 -0.4587 -1.2442
 7853TIP3    H223493   4.009   0.981   1.675  0.4781  0.3565  0.1049
 7854TIP3   OH223494   5.475   4.072   5.681  0.2486 -0.4870  0.1464
 7854TIP3    H123495   5.391   4.094   5.641  0.3875  1.4887  0.8977
 7854TIP3    H223496   5.541   4.101   5.617  0.3906 -0.8468  0.1270
 7855TIP3   OH223497   4.342   4.857   2.614 -0.6556 -0.0651  0.6319
 7855TIP3    H123498   4.341   4.791   2.684 -0.5771 -0.9645 -0.2002
 7855TIP3    H223499   4.254   4.852   2.576 -0.4684 -0.0898  0.2037
 7856TIP3   OH223500   6.174   4.048   3.319 -0.6047 -0.2479 -0.2645
 7856TIP3    H123501   6.144   4.084   3.403  1.2261 -2.5216  1.4260
 7856TIP3    H223502   6.094   4.020   3.275 -1.5824  0.8400  0.7739
 7857TIP3   OH223503   5.208   4.647   4.389  0.0513  0.1612  0.3018
 7857TIP3    H123504   5.300   4.658   4.413  0.4517 -0.7096 -0.7660
 7857TIP3    H223505   5.182   4.566   4.432 -0.0508  0.1104  0.1455
 7858TIP3   OH223506   8.335   3.924   2.393 -0.2725  0.0090 -0.3354
 7858TIP3    H123507   8.316   4.017   2.399  1.7148  0.3143  1.4927
 7858TIP3    H223508   8.384   3.915   2.311  3.0696  1.2187  1.4712
 7859TIP3   OH223509   7.202   6.504   2.457 -0.4295 -0.4940 -0.0172
 7859TIP3    H123510   7.294   6.528   2.472  0.2484 -2.5125 -0.8307
 7859TIP3    H223511   7.153   6.559   2.518  1.5082 -1.1833  2.2356
 7860TIP3   OH223512   5.663   5.087   2.817 -0.3004 -0.1439  0.1974
 7860TIP3    H123513   5.722   5.162   2.815 -0.1164 -0.2941 -0.0753
 7860TIP3    H223514   5.698   5.027   2.751 -0.3844 -0.5140  0.4843
 7861TIP3   OH223515   8.096   4.729   3.106 -0.3507  0.8072 -0.4869
 7861TIP3    H123516   8.175   4.708   3.057  0.7821  1.8452  0.8587
 7861TIP3    H223517   8.093   4.824   3.107 -1.7776  0.7668 -0.7861
 7862TIP3   OH223518   7.479   6.529   3.566  0.1184 -0.0944  0.1531
 7862TIP3    H123519   7.465   6.575   3.649 -0.1263  1.2870 -0.6450
 7862TIP3    H223520   7.459   6.594   3.499 -1.5915 -1.7638 -1.0098
 7863TIP3   OH223521   8.105   4.048   3.128 -0.9059  0.1673  0.0275
 7863TIP3    H123522   8.021   4.019   3.094 -0.2444 -0.0275 -1.4857
 7863TIP3    H223523   8.161   3.970   3.123 -0.4912  0.4319  0.5222
 7864TIP3   OH223524   6.719   3.950   2.971 -0.6847  0.3207  0.0143
 7864TIP3    H123525   6.698   3.858   2.986 -0.0169  0.2647  0.6561
 7864TIP3    H223526   6.774   3.974   3.046 -2.2910  1.7168  0.7856
 7865TIP3   OH223527   5.776   7.387   3.348  0.4214  0.3714  0.2839
 7865TIP3    H123528   5.713   7.438   3.399  0.1199 -0.9137  1.2193
 7865TIP3    H223529   5.827   7.453   3.301 -0.0606  1.5397  1.3546
 7866TIP3   OH223530   1.857   0.293   3.583  0.0725  0.4286 -0.0344
 7866TIP3    H123531   1.812   0.277   3.666  0.6028 -0.7652  0.0376
 7866TIP3    H223532   1.921   0.361   3.604  1.0938 -0.7843  0.8694
 7867TIP3   OH223533   8.299   7.653   3.951 -0.3045 -0.1653  0.1358
 7867TIP3    H123534   8.307   7.563   3.984 -0.0203 -0.3228 -0.3629
 7867TIP3    H223535   8.389   7.682   3.939 -0.3886 -0.6651 -1.9919
 7868TIP3   OH223536   5.450   2.471   3.259  0.0049 -0.7196 -0.4141
 7868TIP3    H123537   5.484   2.383   3.244 -0.0147 -0.5660 -1.3965
 7868TIP3    H223538   5.387   2.485   3.189  0.3360  0.2424 -0.5309
 7869TIP3   OH223539   7.582   5.236   3.539 -0.5060  0.5870  0.1108
 7869TIP3    H123540   7.519   5.253   3.469 -0.4244 -1.8319 -0.5896
 7869TIP3    H223541   7.640   5.167   3.504  1.8610  1.9681  1.1485
 7870TIP3   OH223542   7.846   4.106   1.915  0.5935  0.0870 -0.1803
 7870TIP3    H123543   7.901   4.098   1.993  0.0856 -0.2681  0.1476
 7870TIP3    H223544   7.889   4.173   1.862  1.1256  0.0940  0.2507
 7871TIP3   OH223545   8.358   5.186   1.810 -0.0001 -0.2952  0.3142
 7871TIP3    H123546   8.352   5.093   1.831 -1.4839 -0.5328 -1.1000
 7871TIP3    H223547   8.283   5.226   1.855 -0.2651 -0.0172 -0.3785
 7872TIP3   OH223548   0.034   6.537   2.845 -1.0981 -0.1882 -0.2479
 7872TIP3    H123549   0.013   6.536   2.939  1.4306 -0.2430  0.3713
 7872TIP3    H223550   0.101   6.469   2.836  1.2214  2.1643 -1.4232
 7873TIP3   OH223551   0.194   6.824   2.247  0.0285 -0.6561  0.1550
 7873TIP3    H123552   0.100   6.837   2.240 -0.0095 -0.4256  1.0589
 7873TIP3    H223553   0.228   6.910   2.271  0.5205 -0.6323 -0.5965
 7874TIP3   OH223554   0.944   4.756   3.391  0.0744  0.0682 -0.2369
 7874TIP3    H123555   0.935   4.850   3.409 -1.8728  0.0786 -1.1165
 7874TIP3    H223556   0.887   4.741   3.315  0.6614 -1.7591 -0.3357
 7875TIP3   OH223557   6.328   2.698   2.172 -0.2720 -0.1016  0.1938
 7875TIP3    H123558   6.413   2.733   2.200 -1.0976  2.8840 -0.8318
 7875TIP3    H223559   6.324   2.611   2.212  2.4192  0.4657  1.8663
 7876TIP3   OH223560   8.233   6.526   4.475  0.2138  0.2452  0.2246
 7876TIP3    H123561   8.231   6.590   4.545  1.9758  0.2748  0.2910
 7876TIP3    H223562   8.313   6.547   4.425  1.3709 -2.4332  0.8165
 7877TIP3   OH223563   8.391   5.245   3.028  0.0189 -0.3015  0.4964
 7877TIP3    H123564   8.428   5.172   2.978 -1.4199 -0.3050 -0.5971
 7877TIP3    H223565   8.402   5.321   2.970  2.4714  0.5740  2.0583
 7878TIP3   OH223566   0.869   7.650   4.932  0.0717  0.0886 -0.1644
 7878TIP3    H123567   0.921   7.591   4.877 -0.9772  0.2462 -1.3322
 7878TIP3    H223568   0.780   7.618   4.924 -0.0947  0.0814  1.5060
 7879TIP3   OH223569   0.354   3.813   2.705 -0.4063 -0.0014  0.5111
 7879TIP3    H123570   0.374   3.799   2.798 -0.9923  2.3784  1.0418
 7879TIP3    H223571   0.304   3.735   2.680  0.2552 -0.9498  2.0312
 7880TIP3   OH223572   7.836   5.565   2.677  0.2178 -0.5733 -0.0806
 7880TIP3    H123573   7.771   5.510   2.633 -0.4722 -0.1754  0.4311
 7880TIP3    H223574   7.850   5.638   2.617 -0.0023 -0.5253 -0.0734
 7881TIP3   OH223575   7.546   3.646   2.656  0.1743  0.3192  0.1485
 7881TIP3    H123576   7.590   3.689   2.583  1.5410  0.0780  0.8016
 7881TIP3    H223577   7.500   3.572   2.616  2.8733 -1.2300 -0.1927
 7882TIP3   OH223578   1.370   5.693   4.656 -0.4040 -0.0474 -0.0995
 7882TIP3    H123579   1.451   5.695   4.707  0.0302 -0.8703 -0.7353
 7882TIP3    H223580   1.317   5.625   4.697  0.3312 -1.3750 -1.2795
 7883TIP3   OH223581   2.350   5.171   2.670  0.2475 -0.4582  0.3370
 7883TIP3    H123582   2.426   5.150   2.616  0.5633 -0.6106  0.8328
 7883TIP3    H223583   2.387   5.192   2.756 -0.1984  0.4079  0.3235
 7884TIP3   OH223584   0.061   7.293   1.950 -0.2097  0.0267 -0.5341
 7884TIP3    H123585   0.129   7.341   1.997  0.4315 -1.1459 -0.2418
 7884TIP3    H223586   0.073   7.317   1.858 -1.4323  2.2958 -0.1375
 7885TIP3   OH223587   7.958   3.413   2.680  0.1404 -0.3236  0.2805
 7885TIP3    H123588   7.957   3.357   2.602 -1.5411  1.6283 -1.1648
 7885TIP3    H223589   7.869   3.407   2.715  0.5420 -0.2131  1.3286
 7886TIP3   OH223590   7.054   4.673   2.495  0.1832  0.2460  0.6198
 7886TIP3    H123591   7.123   4.608   2.504 -0.6775 -1.0057 -1.5746
 7886TIP3    H223592   7.064   4.707   2.406 -1.5566  0.5937  0.5433
 7887TIP3   OH223593   7.208   3.936   3.341  0.6076 -0.2283 -0.2190
 7887TIP3    H123594   7.246   3.867   3.395  0.0551  0.9532  1.7184
 7887TIP3    H223595   7.114   3.933   3.362  0.1196 -0.8137 -2.3369
 7888TIP3   OH223596   7.352   6.146   1.459 -0.3926  1.0629  0.2163
 7888TIP3    H123597   7.326   6.193   1.538  2.0524 -0.7359  2.1664
 7888TIP3    H223598   7.388   6.214   1.402  0.4941  1.9845  1.8385
 7889TIP3   OH223599   6.337   3.396   3.231  0.5359  0.0205  0.5403
 7889TIP3    H123600   6.247   3.388   3.263  1.3307 -0.6914  2.6789
 7889TIP3    H223601   6.341   3.335   3.156 -0.4789 -0.7255  1.0777
 7890TIP3   OH223602   0.977   7.484   4.744  0.2687  0.1302 -0.2208
 7890TIP3    H123603   0.962   7.390   4.737  0.1251 -0.1065  2.4548
 7890TIP3    H223604   0.934   7.522   4.667  0.8074 -2.0271 -1.6153
 7891TIP3   OH223605   8.212   5.222   4.098  0.0117 -1.1222  0.2768
 7891TIP3    H123606   8.191   5.289   4.034 -1.2583 -1.2157  0.5940
 7891TIP3    H223607   8.295   5.185   4.066  0.4220  0.1746 -0.2153
 7892TIP3   OH223608   6.737   2.941   2.961 -0.3619 -0.5743 -0.0038
 7892TIP3    H123609   6.784   2.988   3.029 -1.7830 -1.2097  1.4412
 7892TIP3    H223610   6.786   2.860   2.947 -0.6859 -0.9481  1.0439
 7893TIP3   OH223611   7.419   4.191   4.758  0.1231 -0.1318  0.2526
 7893TIP3    H123612   7.360   4.265   4.754  0.6582  0.4065  1.7820
 7893TIP3    H223613   7.507   4.230   4.752  0.3661 -0.7646 -0.3409
 7894TIP3   OH223614   6.219   7.827   3.611 -0.2844 -0.2267 -0.1735
 7894TIP3    H123615   6.281   7.756   3.594 -0.3484 -0.3309  0.0270
 7894TIP3    H223616   6.265   7.906   3.582 -0.9255 -0.5440 -2.1646
 7895TIP3   OH223617   6.771   6.440   2.369  0.2319  0.5350 -0.3977
 7895TIP3    H123618   6.677   6.424   2.375  0.2268  0.6326 -0.1839
 7895TIP3    H223619   6.811   6.366   2.414  0.1888  1.3750  1.0535
 7896TIP3   OH223620   8.213   3.208   4.397  0.4798  0.1952  0.3009
 7896TIP3    H123621   8.298   3.163   4.400  1.1608  1.4478  0.1659
 7896TIP3    H223622   8.235   3.301   4.395 -0.9028  0.5330  0.0840
 7897TIP3   OH223623   8.442   2.629   2.543  0.0717 -0.4405  1.2489
 7897TIP3    H123624   8.531   2.595   2.542  0.0369 -0.5349 -0.7178
 7897TIP3    H223625   8.433   2.677   2.461 -1.0541  1.2869  2.3247
 7898TIP3   OH223626   7.968   3.251   5.638  0.2111  0.0484  0.1430
 7898TIP3    H123627   7.957   3.264   5.732  0.8833  0.9429  0.0971
 7898TIP3    H223628   7.890   3.291   5.599  0.1420  0.0476  0.2787
 7899TIP3   OH223629   0.508   5.303   4.550 -0.4707  0.0929 -0.5060
 7899TIP3    H123630   0.475   5.357   4.621  1.1377 -0.0459  0.3641
 7899TIP3    H223631   0.461   5.220   4.559  0.1120 -0.1144  0.7358
 7900TIP3   OH223632   7.532   5.514   4.407 -0.6170  0.0244 -0.1016
 7900TIP3    H123633   7.512   5.459   4.482 -0.7465  0.3080  0.0694
 7900TIP3    H223634   7.513   5.603   4.435 -1.1327  0.0837 -0.6304
 7901TIP3   OH223635   5.963   4.094   2.437  0.0117 -0.1970  0.2625
 7901TIP3    H123636   6.026   4.036   2.394 -0.7027  0.3225 -1.5147
 7901TIP3    H223637   5.883   4.086   2.386 -1.0037  0.1202  1.7548
 7902TIP3   OH223638   5.122   5.913   2.741  0.2359  0.1430  0.2600
 7902TIP3    H123639   5.086   5.998   2.766  0.6935  0.6753 -0.8593
 7902TIP3    H223640   5.212   5.915   2.774 -0.1166 -0.3734  1.2583
 7903TIP3   OH223641   8.053   3.593   3.633 -0.4251  0.5753  0.0963
 7903TIP3    H123642   8.008   3.622   3.553  0.1289 -1.4507 -0.9759
 7903TIP3    H223643   8.005   3.516   3.661  1.0421 -0.3253  0.1813
 7904TIP3   OH223644   0.792   7.862   1.384  0.3500 -1.1435  0.2407
 7904TIP3    H123645   0.797   7.938   1.442 -1.0235 -0.7406 -0.1502
 7904TIP3    H223646   0.727   7.886   1.318  0.3901 -2.3927 -0.2707
 7905TIP3   OH223647   6.342   3.921   3.119 -0.9285 -0.2900  0.5571
 7905TIP3    H123648   6.306   3.974   3.190  0.3952  2.2869 -0.6445
 7905TIP3    H223649   6.299   3.953   3.040  1.0367  0.1068 -0.3859
 7906TIP3   OH223650   7.216   4.651   4.109 -0.0682  0.6749 -0.3041
 7906TIP3    H123651   7.200   4.736   4.151  0.7445  1.0447 -0.7185
 7906TIP3    H223652   7.164   4.589   4.160  1.2262  1.0423  1.5121
 7907TIP3   OH223653   6.561   2.504   4.525 -0.2997  0.7371 -0.3594
 7907TIP3    H123654   6.469   2.527   4.520 -0.3512  0.8272  0.9463
 7907TIP3    H223655   6.606   2.586   4.546 -0.0767  0.4100  0.4497
 7908TIP3   OH223656   0.318   2.167   4.462 -0.0230  0.6480 -0.4098
 7908TIP3    H123657   0.363   2.245   4.494  0.8503  0.3144 -0.8067
 7908TIP3    H223658   0.349   2.096   4.519  0.4166  0.3129 -1.0534
 7909TIP3   OH223659   7.863   4.440   4.533 -0.4678  0.1203  0.7928
 7909TIP3    H123660   7.916   4.510   4.572 -0.4537  0.6200 -0.0823
 7909TIP3    H223661   7.919   4.363   4.536 -0.2572  0.2865  1.2381
 7910TIP3   OH223662   6.322   3.585   1.513  0.7782  0.1122 -0.2221
 7910TIP3    H123663   6.395   3.644   1.533  1.3339 -0.4771 -0.4904
 7910TIP3    H223664   6.322   3.580   1.417 -0.9466  1.7742 -0.3387
 7911TIP3   OH223665   8.167   5.490   2.382 -0.9785  0.3319  0.4757
 7911TIP3    H123666   8.132   5.433   2.450 -3.9354  1.1188 -0.3048
 7911TIP3    H223667   8.174   5.576   2.423 -2.0686  0.6472  0.0226
 7912TIP3   OH223668   7.652   6.316   3.464 -0.1470 -0.2064  0.6708
 7912TIP3    H123669   7.622   6.225   3.467  1.2446 -0.7703 -1.3587
 7912TIP3    H223670   7.576   6.367   3.492 -1.5226 -1.8850  0.1027
 7913TIP3   OH223671   8.461   6.363   4.631  0.3392  0.3370 -0.8036
 7913TIP3    H123672   8.442   6.454   4.651 -1.4130 -0.2196  0.2069
 7913TIP3    H223673   8.555   6.361   4.615  0.8255  1.9016  1.5604
 7914TIP3   OH223674   0.189   4.781   2.828  0.2547 -0.1504  0.1455
 7914TIP3    H123675   0.277   4.771   2.865  0.3411  0.7738  0.2112
 7914TIP3    H223676   0.155   4.692   2.822  1.8603 -0.7005 -1.5074
 7915TIP3   OH223677   1.278   4.293   0.415 -0.0425  0.1026  0.1037
 7915TIP3    H123678   1.362   4.272   0.373 -0.6197  1.4132 -1.7959
 7915TIP3    H223679   1.229   4.339   0.347 -2.1554 -0.2863  1.3315
 7916TIP3   OH223680   1.480   4.426   5.197 -0.1287 -0.0186 -0.4533
 7916TIP3    H123681   1.462   4.360   5.131  0.1274 -0.1144 -0.4276
 7916TIP3    H223682   1.507   4.376   5.274 -0.4082  0.0931 -0.2818
 7917TIP3   OH223683   8.163   3.091   1.532 -0.1034  0.3640  0.3088
 7917TIP3    H123684   8.180   3.142   1.453 -0.1103 -2.0999 -1.3198
 7917TIP3    H223685   8.208   3.140   1.601  1.8476  1.3498 -1.5790
 7918TIP3   OH223686   0.730   1.237   3.043  0.1032  0.0315  0.0849
 7918TIP3    H123687   0.824   1.248   3.061  0.1970 -0.8720  0.1476
 7918TIP3    H223688   0.697   1.188   3.118 -0.1022 -1.0866 -0.7314
 7919TIP3   OH223689   7.826   3.620   1.705  0.0136 -0.0726  0.3529
 7919TIP3    H123690   7.795   3.555   1.641 -1.4705  0.8737  0.0727
 7919TIP3    H223691   7.779   3.599   1.785  1.2654 -0.7547  0.9178
 7920TIP3   OH223692   0.619   5.539   3.616  0.5700 -0.6595 -0.3941
 7920TIP3    H123693   0.578   5.491   3.688 -2.4430  1.6409 -0.4838
 7920TIP3    H223694   0.627   5.475   3.546 -0.1761 -1.9104  0.6369
 7921TIP3   OH223695   6.969   6.243   3.101  0.2330  0.3056 -0.2946
 7921TIP3    H123696   6.940   6.155   3.125 -1.2897  0.9765  0.4155
 7921TIP3    H223697   7.022   6.271   3.175  2.7741 -0.9243 -1.5951
 7922TIP3   OH223698   1.324   5.218   0.975  0.2418 -0.2279  0.6693
 7922TIP3    H123699   1.283   5.205   1.060 -0.4725  0.0023  0.3612
 7922TIP3    H223700   1.302   5.308   0.951 -0.0988 -0.4982 -0.0461
 7923TIP3   OH223701   8.082   1.362   0.682  0.0153 -0.3181 -0.1887
 7923TIP3    H123702   8.037   1.354   0.766  0.1354  0.8835 -0.0058
 7923TIP3    H223703   8.125   1.447   0.686  1.3781 -0.9634 -0.8103
 7924TIP3   OH223704   7.390   4.414   4.234  0.3407 -0.1081 -0.6032
 7924TIP3    H123705   7.343   4.470   4.172 -1.6326  1.0100  1.8360
 7924TIP3    H223706   7.442   4.475   4.286  0.6977 -0.8694 -0.0644
 7925TIP3   OH223707   7.098   4.178   2.963  0.2759  0.7404 -0.4053
 7925TIP3    H123708   7.157   4.241   3.004  2.5963 -1.0434 -0.8673
 7925TIP3    H223709   7.142   4.153   2.882 -0.9085 -0.9388 -0.5619
 7926TIP3   OH223710   8.031   8.020   3.388  0.5693  0.2612 -0.2284
 7926TIP3    H123711   8.060   7.937   3.426  0.9937  0.3284 -0.4114
 7926TIP3    H223712   8.107   8.077   3.394  0.1552  0.7743  0.2859
 7927TIP3   OH223713   1.251   4.752   3.816 -0.0137 -0.1238 -0.5282
 7927TIP3    H123714   1.189   4.740   3.888  0.0618 -0.7761 -0.5717
 7927TIP3    H223715   1.215   4.701   3.744  0.6033 -0.5487 -0.5377
 7928TIP3   OH223716   8.230   7.180   2.392  0.2794  0.3090  0.7489
 7928TIP3    H123717   8.251   7.113   2.456 -0.0947  0.6917  1.2771
 7928TIP3    H223718   8.312   7.199   2.347  0.1500 -1.3779 -0.2430
 7929TIP3   OH223719   7.530   5.450   1.886 -0.1935 -0.2040 -0.0676
 7929TIP3    H123720   7.519   5.357   1.908 -0.5483 -0.5580 -1.6662
 7929TIP3    H223721   7.577   5.487   1.961 -1.7634 -1.2452  1.4577
 7930TIP3   OH223722   0.127   6.249   2.746 -0.4255  0.3796 -0.4823
 7930TIP3    H123723   0.167   6.163   2.761 -2.4314 -0.3516  0.8443
 7930TIP3    H223724   0.054   6.232   2.686 -0.0472  1.3649 -1.2366
 7931TIP3   OH223725   6.383   5.682   2.931  0.1531 -0.2129  0.0609
 7931TIP3    H123726   6.437   5.737   2.873 -0.0719 -0.7632 -0.6787
 7931TIP3    H223727   6.345   5.616   2.873  0.4094 -1.1488  0.9440
 7932TIP3   OH223728   1.471   4.624   2.760  0.2330 -0.0940  0.2304
 7932TIP3    H123729   1.387   4.651   2.724 -0.0581 -2.1103 -0.6638
 7932TIP3    H223730   1.449   4.569   2.835  0.7094 -1.6656 -0.7621
 7933TIP3   OH223731   8.038   5.149   3.839 -0.5290 -0.2816  0.0831
 7933TIP3    H123732   8.092   5.219   3.802 -0.1215 -0.4289  0.4033
 7933TIP3    H223733   7.969   5.194   3.887 -0.0532 -0.1061  0.5975
 7934TIP3   OH223734   8.363   5.013   3.663 -0.4876  0.0370 -0.0151
 7934TIP3    H123735   8.339   4.976   3.748  1.9901 -0.3806  0.5338
 7934TIP3    H223736   8.374   5.107   3.681  2.3248 -0.3788  0.7093
 7935TIP3   OH223737   0.313   4.025   1.082 -0.6280  0.1516  0.3954
 7935TIP3    H123738   0.236   4.080   1.092 -0.0548  1.2086 -0.9316
 7935TIP3    H223739   0.349   4.017   1.171  0.1254  3.1229  0.3923
 7936TIP3   OH223740   0.070   5.653   3.418  0.2760 -0.1532  0.0464
 7936TIP3    H123741   0.159   5.649   3.385  0.4461  2.0445  0.1752
 7936TIP3    H223742   0.017   5.607   3.353  1.1815  0.5470 -1.1894
 7937TIP3   OH223743   0.039   3.693   2.313 -0.0649 -0.3665  0.1201
 7937TIP3    H123744  -0.026   3.671   2.379  0.3485  1.2719  1.1182
 7937TIP3    H223745   0.108   3.738   2.362  1.8008 -2.0173 -0.9188
 7938TIP3   OH223746   0.511   4.535   4.988  0.0499 -0.0573 -0.1389
 7938TIP3    H123747   0.466   4.606   4.942 -0.5213  0.2613  0.8801
 7938TIP3    H223748   0.540   4.476   4.919 -1.0494  0.2591 -0.8909
 7939TIP3   OH223749   8.142   5.347   3.139 -0.0435  0.0918  0.0880
 7939TIP3    H123750   8.133   5.423   3.082 -0.2447 -1.1894 -1.6334
 7939TIP3    H223751   8.227   5.309   3.114 -0.0583 -0.3797  0.7544
 7940TIP3   OH223752   7.548   4.215   3.843 -0.3742 -0.2033 -1.0842
 7940TIP3    H123753   7.626   4.231   3.897 -2.0959  2.9228  0.6721
 7940TIP3    H223754   7.554   4.279   3.772 -0.3329 -1.3054 -2.0756
 7941TIP3   OH223755   0.502   5.349   3.075  0.1530  0.4622  0.3244
 7941TIP3    H123756   0.446   5.399   3.134 -0.7992  0.8590 -0.8835
 7941TIP3    H223757   0.441   5.302   3.018  1.0298  1.6393 -1.6321
 7942TIP3   OH223758   6.382   6.398   3.185 -0.0988 -0.5573 -0.0668
 7942TIP3    H123759   6.433   6.451   3.246  0.4166 -0.9342 -0.1676
 7942TIP3    H223760   6.308   6.454   3.160  0.5868  0.2139 -0.3813
 7943TIP3   OH223761   1.579   6.182   2.159 -0.0108  0.5744  0.1700
 7943TIP3    H123762   1.649   6.214   2.217  1.0154 -0.8300 -0.2694
 7943TIP3    H223763   1.595   6.226   2.076 -0.5375  1.3707  0.4792
 7944TIP3   OH223764   6.318   5.534   3.785 -0.7113 -0.3679  0.2118
 7944TIP3    H123765   6.356   5.613   3.824  0.5096 -0.4838 -0.6851
 7944TIP3    H223766   6.258   5.501   3.851  0.3671  0.1399  1.4707
 7945TIP3   OH223767   5.198   5.871   2.459  0.2273  0.4532  0.1568
 7945TIP3    H123768   5.137   5.878   2.533 -1.1584  0.1102 -0.9499
 7945TIP3    H223769   5.153   5.916   2.387  1.1209 -0.1455 -0.7719
 7946TIP3   OH223770   1.273   4.386   3.914 -0.1365 -0.4041  0.0151
 7946TIP3    H123771   1.223   4.441   3.854 -0.8362 -1.5445 -0.4588
 7946TIP3    H223772   1.221   4.383   3.994 -0.9671 -1.7690 -0.5521
 7947TIP3   OH223773   4.790   5.527   4.115 -0.6028  0.2319  0.6277
 7947TIP3    H123774   4.806   5.618   4.088 -0.9824  0.1687  0.1869
 7947TIP3    H223775   4.770   5.533   4.209 -0.7005  0.6138  0.5832
 7948TIP3   OH223776   8.188   6.070   2.767  0.3174 -0.6837  0.1690
 7948TIP3    H123777   8.106   6.119   2.775 -0.8105 -2.6794  1.2750
 7948TIP3    H223778   8.220   6.091   2.679 -0.9215  0.8305  0.0735
 7949TIP3   OH223779   1.082   3.835   2.394 -0.3810  0.3016 -0.0258
 7949TIP3    H123780   1.028   3.848   2.316  1.9600  0.1023 -1.7580
 7949TIP3    H223781   1.108   3.924   2.419 -0.2881  0.3085 -0.1397
 7950TIP3   OH223782   7.541   5.554   3.467 -0.4876 -0.2612  0.5972
 7950TIP3    H123783   7.568   5.548   3.375 -0.9386  0.6162  0.4074
 7950TIP3    H223784   7.623   5.566   3.514 -0.2306 -0.9406  0.3385
 7951TIP3   OH223785   5.922   4.717   5.751  0.0957 -0.6426 -0.0100
 7951TIP3    H123786   5.945   4.637   5.798 -0.1906 -1.0322 -0.5257
 7951TIP3    H223787   5.838   4.744   5.788  0.5473 -0.1673  0.6797
 7952TIP3   OH223788   0.986   4.554   1.891  0.1843  0.1411  0.3727
 7952TIP3    H123789   1.038   4.559   1.972 -0.3243 -0.9309  0.7769
 7952TIP3    H223790   1.017   4.474   1.849  0.2452  0.5480 -0.3672
 7953TIP3   OH223791   7.135   5.502   2.000  0.3139  0.4053  0.1385
 7953TIP3    H123792   7.078   5.574   1.973  1.1391  0.7481 -0.7190
 7953TIP3    H223793   7.203   5.499   1.933  0.1398 -1.3462  0.0025
 7954TIP3   OH223794   7.003   5.121   2.475  0.1188 -0.6441 -0.3727
 7954TIP3    H123795   7.000   5.175   2.555 -1.2336 -0.9087 -0.2483
 7954TIP3    H223796   6.924   5.144   2.427  1.4883  0.3597 -2.2117
 7955TIP3   OH223797   6.743   3.496   2.124  0.1343 -0.7776 -0.3692
 7955TIP3    H123798   6.663   3.445   2.129  0.2147 -0.7706  1.2722
 7955TIP3    H223799   6.714   3.584   2.098 -0.4843 -0.5989  0.8777
 7956TIP3   OH223800   7.956   5.700   2.135  0.6991 -0.8382 -0.0168
 7956TIP3    H123801   7.905   5.721   2.057 -0.2330 -0.0966  0.7745
 7956TIP3    H223802   7.921   5.616   2.165  1.6041 -1.5178 -0.8409
 7957TIP3   OH223803   8.105   3.125   4.685 -0.0920 -0.1802  0.2717
 7957TIP3    H123804   8.110   3.210   4.642  0.2709  1.1779  2.8817
 7957TIP3    H223805   8.196   3.094   4.690 -0.2432 -0.8693 -0.8722
 7958TIP3   OH223806   8.417   4.092   4.643 -0.1481  0.4544  0.0542
 7958TIP3    H123807   8.400   4.133   4.559  0.1529  1.9944  0.7270
 7958TIP3    H223808   8.330   4.084   4.684 -0.4426 -1.3841 -0.8659
 7959TIP3   OH223809   0.534   6.176   1.233  0.0668  0.4277 -0.5082
 7959TIP3    H123810   0.481   6.099   1.250  0.2415  0.2393 -0.7950
 7959TIP3    H223811   0.622   6.151   1.262  0.3370  0.1500 -1.5329
 7960TIP3   OH223812   6.398   3.071   2.495  0.1450  0.7641  0.0383
 7960TIP3    H123813   6.399   3.015   2.417 -1.2357 -2.4665  2.2813
 7960TIP3    H223814   6.346   3.147   2.468  1.1335  0.5361 -2.7086
 7961TIP3   OH223815   6.192   7.623   5.083  0.0672  0.1309 -0.1933
 7961TIP3    H123816   6.159   7.693   5.138 -0.8311 -1.3525  1.2053
 7961TIP3    H223817   6.156   7.642   4.996 -0.3716  1.2500  0.2210
 7962TIP3   OH223818   7.390   5.103   4.342  0.5070 -0.0752  0.0228
 7962TIP3    H123819   7.486   5.105   4.351  0.4243  0.1776  0.8415
 7962TIP3    H223820   7.363   5.024   4.388  0.3492 -0.3706 -0.5650
 7963TIP3   OH223821   7.829   4.883   2.197 -0.8320 -0.3122 -0.7637
 7963TIP3    H123822   7.890   4.955   2.215 -0.9030 -0.5585  0.5386
 7963TIP3    H223823   7.870   4.806   2.236 -1.6496 -0.6060 -0.4594
 7964TIP3   OH223824   6.686   1.587   4.831  0.4859 -0.0266  0.6257
 7964TIP3    H123825   6.635   1.506   4.836  0.7086 -0.4812 -3.0212
 7964TIP3    H223826   6.621   1.656   4.813  0.7104 -0.0421 -0.2904
 7965TIP3   OH223827   8.110   5.538   3.627  0.1714  0.6529 -0.4677
 7965TIP3    H123828   8.045   5.584   3.574 -0.8439  1.3218  1.3458
 7965TIP3    H223829   8.160   5.487   3.563  0.1092  2.7821 -2.3003
 7966TIP3   OH223830   0.498   2.902   3.861 -0.1608 -0.3397 -0.1050
 7966TIP3    H123831   0.452   2.953   3.795 -2.6573 -0.1553  1.7152
 7966TIP3    H223832   0.576   2.953   3.881 -0.9259  1.0866 -0.7384
 7967TIP3   OH223833   7.908   2.940   0.428  0.0268 -0.1544 -0.5488
 7967TIP3    H123834   7.872   2.862   0.385  0.0328 -0.0162 -0.8039
 7967TIP3    H223835   7.965   2.979   0.362  2.1324 -1.4055  0.4636
 7968TIP3   OH223836   0.261   5.919   3.779  0.4739  0.7023  0.2262
 7968TIP3    H123837   0.235   6.005   3.748 -0.8146 -0.0143 -0.6982
 7968TIP3    H223838   0.351   5.908   3.748  0.0432  1.0074 -1.1467
 7969TIP3   OH223839   6.566   3.000   4.947 -0.0009 -0.3639  0.2803
 7969TIP3    H123840   6.639   2.942   4.969  0.5804 -0.2727 -1.3302
 7969TIP3    H223841   6.607   3.083   4.925 -0.6253 -0.1726 -0.1651
 7970TIP3   OH223842   7.545   5.781   1.847 -0.3265  0.1859 -0.3824
 7970TIP3    H123843   7.552   5.752   1.756  0.9851  0.2579 -0.3138
 7970TIP3    H223844   7.451   5.780   1.866 -0.5216 -0.9016 -1.3882
 7971TIP3   OH223845   6.614   4.793   2.830  0.0455 -0.2211 -0.2317
 7971TIP3    H123846   6.624   4.829   2.918 -0.2753 -1.8770  0.5026
 7971TIP3    H223847   6.660   4.709   2.833  1.4368  0.4576 -2.1367
 7972TIP3   OH223848   6.130   6.618   3.586  0.0145  0.2281 -0.2800
 7972TIP3    H123849   6.053   6.633   3.641  0.1468 -1.1153  0.2994
 7972TIP3    H223850   6.095   6.612   3.497 -0.5470 -0.3213 -0.0257
 7973TIP3   OH223851   0.021   1.776   3.254  0.1186  0.0757  0.0214
 7973TIP3    H123852   0.048   1.726   3.331  1.7228  0.5911 -0.1826
 7973TIP3    H223853   0.086   1.847   3.247  0.3746 -0.3301 -2.1694
 7974TIP3   OH223854   8.409   4.927   3.246 -0.2321  0.3323  0.2485
 7974TIP3    H123855   8.401   4.841   3.286  0.9802  1.3410  2.7566
 7974TIP3    H223856   8.319   4.955   3.232 -0.6530 -1.9497 -2.0778
 7975TIP3   OH223857   8.075   4.553   3.597 -0.0328  0.5227 -0.0497
 7975TIP3    H123858   8.106   4.599   3.519 -0.3729  0.3851 -0.2666
 7975TIP3    H223859   8.117   4.599   3.670  3.8783 -2.1663 -0.4987
 7976TIP3   OH223860   7.586   5.135   2.739  0.3129  0.3470 -0.3918
 7976TIP3    H123861   7.592   5.092   2.825 -0.9492  0.0558 -0.4329
 7976TIP3    H223862   7.602   5.065   2.676 -0.1341  0.2588 -0.4149
 7977TIP3   OH223863   7.865   3.053   2.169  0.6709 -0.8598 -0.0263
 7977TIP3    H123864   7.903   3.057   2.257 -2.0875 -0.5642  1.2093
 7977TIP3    H223865   7.931   3.008   2.117  2.2670 -1.2610  2.2495
 7978TIP3   OH223866   7.278   7.707   4.254  0.2150 -0.3407  0.2779
 7978TIP3    H123867   7.351   7.749   4.300 -0.7081 -0.1789  1.6153
 7978TIP3    H223868   7.257   7.768   4.183  0.8749 -0.0172  0.3524
 7979TIP3   OH223869   0.241   2.573   3.032 -0.1043  0.3150 -0.2405
 7979TIP3    H123870   0.311   2.514   3.006 -1.0852 -0.3130 -1.4586
 7979TIP3    H223871   0.195   2.594   2.951 -2.0986 -0.2516  0.7271
 7980TIP3   OH223872   8.154   4.384   4.183 -0.7522 -0.0319  0.4324
 7980TIP3    H123873   8.197   4.301   4.161  2.5313  0.9848  2.6104
 7980TIP3    H223874   8.128   4.421   4.099  2.0105 -1.1132 -0.9490
 7981TIP3   OH223875   6.333   5.290   4.357 -0.1986  0.1820 -0.4990
 7981TIP3    H123876   6.337   5.378   4.397  0.7237  0.2676 -0.7753
 7981TIP3    H223877   6.245   5.259   4.377  0.7525 -0.4570  3.0746
 7982TIP3   OH223878   1.283   4.625   1.490  0.2106  0.6681  0.2418
 7982TIP3    H123879   1.214   4.680   1.526 -0.5940  0.7383 -1.3501
 7982TIP3    H223880   1.241   4.579   1.416  0.5918 -2.7995  2.0839
 7983TIP3   OH223881   7.620   3.195   3.773  0.3451 -0.1793 -0.4701
 7983TIP3    H123882   7.669   3.113   3.775  1.0705  0.2761  1.3304
 7983TIP3    H223883   7.575   3.198   3.858  0.4898  1.3634 -0.4346
 7984TIP3   OH223884   7.443   6.254   4.696 -0.2098  0.7583 -0.6465
 7984TIP3    H123885   7.426   6.168   4.659  0.1804  0.4910 -0.1921
 7984TIP3    H223886   7.529   6.247   4.737  0.2503  1.6318 -1.4389
 7985TIP3   OH223887   8.262   3.532   4.145 -0.2283 -0.1240  0.2635
 7985TIP3    H123888   8.213   3.481   4.082  1.1870 -0.4002 -0.6380
 7985TIP3    H223889   8.225   3.508   4.230  0.0707 -2.2515 -0.1825
 7986TIP3   OH223890   7.599   5.628   4.041 -0.5165 -0.2441 -0.0887
 7986TIP3    H123891   7.516   5.613   3.996 -0.0688 -1.5268 -0.5192
 7986TIP3    H223892   7.597   5.720   4.066 -1.1240  0.2870 -2.0367
 7987TIP3   OH223893   8.128   4.096   5.104 -0.3574  0.5993 -0.2100
 7987TIP3    H123894   8.139   4.174   5.051  1.7511 -0.0898 -0.8292
 7987TIP3    H223895   8.054   4.051   5.065 -2.4782  2.9406  0.9930
 7988TIP3   OH223896   5.812   5.491   2.112 -0.2550  0.2328  0.3253
 7988TIP3    H123897   5.868   5.552   2.160 -1.9015  0.6344  1.8049
 7988TIP3    H223898   5.730   5.539   2.100 -0.8906 -0.9728 -0.2549
 7989TIP3   OH223899   7.900   4.157   2.827 -0.1996  0.0536 -0.2682
 7989TIP3    H123900   7.806   4.149   2.842  0.0451  0.0300  1.4000
 7989TIP3    H223901   7.924   4.074   2.785 -0.1983 -1.9315  3.4051
 7990TIP3   OH223902   0.404   4.280   5.246  0.6965 -0.0589  0.3383
 7990TIP3    H123903   0.403   4.224   5.324 -0.7037 -2.1924 -1.1345
 7990TIP3    H223904   0.462   4.234   5.184 -0.4740  0.1062 -0.9051
 7991TIP3   OH223905   0.743   4.311   3.971  0.1624 -0.2360  0.3237
 7991TIP3    H123906   0.796   4.371   4.023 -1.4735  0.0079  1.7734
 7991TIP3    H223907   0.654   4.322   4.005 -0.8239 -0.6799 -1.9840
 7992TIP3   OH223908   8.188   1.803   6.115 -0.0807 -0.5028  0.1933
 7992TIP3    H123909   8.096   1.801   6.142  0.0569 -1.9743  0.6204
 7992TIP3    H223910   8.184   1.799   6.019 -0.4637 -2.8397  0.2564
 7993TIP3   OH223911   0.095   3.569   4.780 -0.6720  0.3080  0.5592
 7993TIP3    H123912   0.155   3.620   4.833 -1.4777  0.0095  1.7652
 7993TIP3    H223913   0.008   3.592   4.812 -1.0970 -1.0088  0.3896
 7994TIP3   OH223914   1.674   3.351   5.595  0.1855  0.1773 -0.0537
 7994TIP3    H123915   1.745   3.397   5.640 -0.5365 -0.0243  1.3168
 7994TIP3    H223916   1.636   3.295   5.662  0.3884 -1.6660 -1.4602
 7995TIP3   OH223917   7.461   2.654   2.683 -0.1534  0.0396  0.1602
 7995TIP3    H123918   7.445   2.666   2.590  0.3126  0.2105  0.1039
 7995TIP3    H223919   7.457   2.743   2.720 -0.9669 -0.0894  0.4030
 7996TIP3   OH223920   6.964   3.947   3.472 -0.2666  0.2135 -0.1825
 7996TIP3    H123921   7.005   3.937   3.557  0.5572  0.8078 -0.4985
 7996TIP3    H223922   6.883   3.995   3.489 -0.9226 -1.1109  0.4662
 7997TIP3   OH223923   6.671   4.524   6.904  0.0580  0.1910  0.2875
 7997TIP3    H123924   6.640   4.446   6.858  1.2523 -0.1538  0.0513
 7997TIP3    H223925   6.591   4.569   6.932 -0.6447 -0.6941 -0.2804
 7998TIP3   OH223926   0.573   4.064   2.059  0.2065  0.5128  0.5461
 7998TIP3    H123927   0.621   4.120   1.997  0.8853  0.0204  0.6178
 7998TIP3    H223928   0.574   3.977   2.018  0.2130  0.2951  1.0063
 7999TIP3   OH223929   6.737   3.857   0.899  0.5785  0.4016  0.1156
 7999TIP3    H123930   6.666   3.821   0.845 -0.7759  0.8515  1.5562
 7999TIP3    H223931   6.795   3.783   0.915  0.1252 -0.1134 -0.6140
 8000TIP3   OH223932   6.702   4.688   4.440 -0.3790 -0.1854 -0.1295
 8000TIP3    H123933   6.638   4.759   4.443 -0.1535  0.0642 -1.0671
 8000TIP3    H223934   6.777   4.726   4.394 -0.0438 -0.8600 -0.1401
 8001TIP3   OH223935   7.390   6.611   1.356 -0.4276 -0.4095 -0.1053
 8001TIP3    H123936   7.433   6.619   1.441  0.4492  1.0981 -0.6749
 8001TIP3    H223937   7.410   6.521   1.328 -0.5660 -0.8501  1.1833
 8002TIP3   OH223938   0.492   4.703   3.239 -0.0303 -0.1105 -0.8334
 8002TIP3    H123939   0.403   4.722   3.267 -0.1307  1.3176 -2.0429
 8002TIP3    H223940   0.544   4.709   3.320 -0.8291  0.4684 -0.3522
 8003TIP3   OH223941   5.821   6.478   1.497 -0.4646 -0.1992 -0.4096
 8003TIP3    H123942   5.884   6.547   1.521  1.3772 -1.8493 -0.4157
 8003TIP3    H223943   5.797   6.439   1.581 -1.2419  0.1912 -0.4425
 8004TIP3   OH223944   0.898   5.886   3.102 -0.1071 -0.0938 -0.0785
 8004TIP3    H123945   0.971   5.824   3.114  0.1464  0.0339 -0.9209
 8004TIP3    H223946   0.826   5.832   3.070  0.3924  0.1840 -1.7087
 8005TIP3   OH223947   8.002   5.422   2.839 -0.2186 -0.5207 -0.5128
 8005TIP3    H123948   8.049   5.366   2.778 -0.3853 -0.5338 -0.6283
 8005TIP3    H223949   7.949   5.479   2.784 -1.7050 -1.7069 -0.3371
 8006TIP3   OH223950   6.993   4.177   3.753 -0.0983 -0.1427  0.2772
 8006TIP3    H123951   6.923   4.117   3.728  1.0329 -0.2235 -2.8573
 8006TIP3    H223952   6.957   4.264   3.736  0.2450 -0.1491 -0.4802
 8007TIP3   OH223953   7.662   3.880   3.851  0.1359  0.0302 -0.6044
 8007TIP3    H123954   7.673   3.973   3.833  1.1116 -0.0116 -0.2226
 8007TIP3    H223955   7.698   3.835   3.774 -0.8913 -0.0225 -1.0614
 8008TIP3   OH223956   6.809   3.252   2.538  0.2626 -0.0137  0.1252
 8008TIP3    H123957   6.855   3.336   2.530  1.5441 -0.7099  0.2056
 8008TIP3    H223958   6.722   3.276   2.570  1.3698  1.0909  2.3885
 8009TIP3   OH223959   6.988   2.113   3.637  0.2908  0.3330  1.0154
 8009TIP3    H123960   7.081   2.112   3.661 -0.1966  0.1677  3.0223
 8009TIP3    H223961   6.973   2.028   3.595  1.3929  1.0139 -0.8051
 8010TIP3   OH223962   7.951   2.373   2.288 -0.3638  0.1256  0.2002
 8010TIP3    H123963   7.975   2.309   2.355 -0.1393  0.1155  0.1102
 8010TIP3    H223964   7.893   2.434   2.333 -0.2768  0.0741  0.3839
 8011TIP3   OH223965   1.219   6.487   2.492 -0.1691 -0.2074 -0.7544
 8011TIP3    H123966   1.229   6.421   2.424  0.6343  0.3081 -1.1445
 8011TIP3    H223967   1.289   6.468   2.554 -0.1721  0.0458 -0.6721
 8012TIP3   OH223968   6.576   2.789   2.306 -0.3760 -0.4716 -0.0557
 8012TIP3    H123969   6.669   2.766   2.296 -0.0843  0.2938  0.8071
 8012TIP3    H223970   6.564   2.800   2.400 -2.0472 -3.3778  0.1311
 8013TIP3   OH223971   1.094   4.324   4.866 -0.3171 -0.2992  0.1284
 8013TIP3    H123972   1.144   4.250   4.834 -0.0489 -1.3636  2.8802
 8013TIP3    H223973   1.143   4.401   4.838 -0.3885 -1.1516 -2.4102
 8014TIP3   OH223974   7.592   5.453   3.218 -0.5474 -0.1331 -0.3993
 8014TIP3    H123975   7.536   5.378   3.236 -1.2033  0.5839  0.6268
 8014TIP3    H223976   7.662   5.419   3.162 -1.6097 -1.1928 -1.0906
 8015TIP3   OH223977   7.380   5.760   2.183 -0.1246 -0.1644  0.0239
 8015TIP3    H123978   7.443   5.690   2.168  0.9962  0.8717 -0.1836
 8015TIP3    H223979   7.349   5.783   2.095 -0.9328 -0.7852  0.1383
 8016TIP3   OH223980   1.273   2.393   3.652  0.5588  0.2351 -0.3987
 8016TIP3    H123981   1.351   2.394   3.597 -0.1060  1.7895 -1.3427
 8016TIP3    H223982   1.253   2.485   3.668 -0.8826 -0.1527  0.1250
 8017TIP3   OH223983   7.385   5.263   3.196 -0.4464  0.0330  0.0670
 8017TIP3    H123984   7.400   5.233   3.107  0.4965 -0.0868  0.2643
 8017TIP3    H223985   7.290   5.268   3.204 -0.5719 -1.1856 -0.5385
 8018TIP3   OH223986   6.609   6.069   1.911  0.4598 -0.0360  0.0138
 8018TIP3    H123987   6.635   5.977   1.909  1.7350  0.2956  0.8678
 8018TIP3    H223988   6.653   6.108   1.835  2.7790  0.5838  1.6142
 8019TIP3   OH223989   8.397   5.599   4.728  0.1581 -0.1978  0.1543
 8019TIP3    H123990   8.419   5.506   4.730  0.9368 -0.1086 -2.3946
 8019TIP3    H223991   8.301   5.602   4.729  0.1458 -0.9758  1.3564
 8020TIP3   OH223992   7.723   7.537   4.455  0.4823 -0.7001 -0.8320
 8020TIP3    H123993   7.738   7.443   4.450  0.3053 -0.7865  0.3173
 8020TIP3    H223994   7.628   7.546   4.441  0.1961 -0.8410  0.9909
 8021TIP3   OH223995   0.003   7.242   2.462  0.3649  0.8547  0.0997
 8021TIP3    H123996   0.049   7.164   2.493 -1.7188 -0.8090 -0.8796
 8021TIP3    H223997  -0.010   7.295   2.540 -1.9429 -1.7826  1.6156
 8022TIP3   OH223998   0.092   4.287   4.312  0.4434 -0.0685 -0.1372
 8022TIP3    H123999   0.165   4.291   4.250  0.5888 -2.8334 -0.2074
 8022TIP3    H224000   0.109   4.208   4.364 -1.7362  0.0682  0.8310
 8023TIP3   OH224001   6.130   5.442   5.157 -0.7887  0.5753 -0.2516
 8023TIP3    H124002   6.036   5.429   5.173 -0.6022  0.1560  0.5200
 8023TIP3    H224003   6.171   5.363   5.191 -0.2424  0.3003 -1.5173
 8024TIP3   OH224004   0.378   6.377   3.780  0.7413  0.0935  0.1842
 8024TIP3    H124005   0.352   6.290   3.812 -1.2275  0.1292 -1.2138
 8024TIP3    H224006   0.473   6.371   3.768  0.6594 -1.8039  0.3216
 8025TIP3   OH224007   1.301   2.688   4.192 -0.0699 -0.5711  0.4044
 8025TIP3    H124008   1.273   2.668   4.281 -1.9544  0.7893  0.1401
 8025TIP3    H224009   1.298   2.783   4.187  3.4034 -0.4308 -0.0578
 8026TIP3   OH224010   8.110   2.926   3.010  0.2356 -0.6767 -0.5960
 8026TIP3    H124011   8.057   2.852   2.981  1.0218 -1.1446 -0.8621
 8026TIP3    H224012   8.168   2.944   2.936 -0.1193  0.3689 -0.6282
 8027TIP3   OH224013   7.791   5.285   2.024 -0.7242 -0.1125 -0.2100
 8027TIP3    H124014   7.752   5.203   2.055 -0.8769  0.1455  0.2775
 8027TIP3    H224015   7.876   5.289   2.067 -0.8313  0.1230 -0.0202
 8028TIP3   OH224016   8.120   3.494   2.959 -0.3707 -0.2166  0.4150
 8028TIP3    H124017   8.112   3.489   3.054 -0.5372  0.0080  0.4113
 8028TIP3    H224018   8.121   3.402   2.930 -1.2986 -0.2690  0.5445
 8029TIP3   OH224019   7.161   5.275   2.174  0.2165  0.0182  0.1777
 8029TIP3    H124020   7.140   5.324   2.094  0.7283 -1.5420 -0.9436
 8029TIP3    H224021   7.140   5.335   2.245 -0.6395  1.2943 -1.1181
 8030TIP3   OH224022   7.175   5.745   2.796  0.2319 -0.4898  0.0536
 8030TIP3    H124023   7.214   5.674   2.745  0.7749 -1.2024  1.4346
 8030TIP3    H224024   7.167   5.817   2.734  2.4020 -0.8054 -0.6419
 8031TIP3   OH224025   6.584   4.721   3.865 -0.1727  0.6760  0.1368
 8031TIP3    H124026   6.671   4.760   3.851 -0.2663  0.9958  0.4392
 8031TIP3    H224027   6.598   4.659   3.937  0.2209 -0.6821 -1.0793
 8032TIP3   OH224028   6.974   5.169   3.604  0.1543  0.2445 -0.6680
 8032TIP3    H124029   6.892   5.150   3.559  0.9440 -1.4134 -1.4757
 8032TIP3    H224030   6.963   5.132   3.692  0.4587 -1.0720 -1.1673
 8033TIP3   OH224031   5.960   4.263   1.950 -0.4398 -0.3299 -0.2693
 8033TIP3    H124032   6.010   4.297   2.024 -0.2280  0.4834 -0.7811
 8033TIP3    H224033   5.886   4.216   1.990 -0.3576  0.1534  0.4516
 8034TIP3   OH224034   7.728   3.229   3.465 -0.4902 -0.1833  0.3637
 8034TIP3    H124035   7.744   3.142   3.427 -1.2765 -1.0845  2.0123
 8034TIP3    H224036   7.806   3.279   3.444 -0.4699 -0.9603 -1.5269
 8035TIP3   OH224037   8.307   3.256   5.710  0.0993  0.6396  0.5549
 8035TIP3    H124038   8.281   3.336   5.665 -2.2004 -0.0981  0.5327
 8035TIP3    H224039   8.285   3.271   5.802  0.3243  0.3131  0.6637
 8036TIP3   OH224040   0.888   2.441   6.126 -0.1043 -0.1212 -0.4114
 8036TIP3    H124041   0.982   2.440   6.107  0.0386 -2.5170  0.2579
 8036TIP3    H224042   0.850   2.492   6.055  1.7427  1.3002 -0.4278
 8037TIP3   OH224043   4.915   3.198   6.551 -0.3326 -0.5374 -0.5734
 8037TIP3    H124044   4.999   3.157   6.529  0.4144  0.5879  0.1467
 8037TIP3    H224045   4.934   3.291   6.557 -1.6286 -0.2767 -0.3407
 8038TIP3   OH224046   1.568   7.708   3.363 -0.0654 -0.2614 -0.6646
 8038TIP3    H124047   1.586   7.695   3.456  3.2930 -1.2204 -1.3946
 8038TIP3    H224048   1.509   7.783   3.361  0.2466  0.1276  2.2093
 8039TIP3   OH224049   1.029   6.274   6.047 -0.0544 -0.0225 -0.0654
 8039TIP3    H124050   1.116   6.280   6.006 -0.1936  0.1736 -0.3384
 8039TIP3    H224051   1.045   6.231   6.130  0.5077  1.2158  0.4921
 8040TIP3   OH224052   1.690   4.876   4.777 -0.3163 -0.1094  0.3104
 8040TIP3    H124053   1.692   4.875   4.872 -0.3558 -1.7903  0.3138
 8040TIP3    H224054   1.778   4.903   4.751 -0.7581  1.8951  0.8100
 8041TIP3   OH224055   1.852   7.570   6.186 -0.2693 -0.4632  0.5271
 8041TIP3    H124056   1.822   7.522   6.110 -1.9151  0.5885  0.4953
 8041TIP3    H224057   1.863   7.660   6.155  0.9185 -0.4139  1.0592
 8042TIP3   OH224058   5.160   0.182   4.878 -0.4282 -0.1997 -0.1465
 8042TIP3    H124059   5.087   0.221   4.832  0.1614  0.6380 -0.3827
 8042TIP3    H224060   5.171   0.235   4.956  0.4219  0.1556 -0.5029
 8043TIP3   OH224061   2.408   5.781   5.178  0.4081  0.1816 -0.6426
 8043TIP3    H124062   2.452   5.833   5.111  2.0120 -0.7886 -0.3369
 8043TIP3    H224063   2.454   5.698   5.180 -1.1261 -0.6849  0.0233
 8044TIP3   OH224064   1.279   7.520   5.884 -0.0737  0.4840 -0.0056
 8044TIP3    H124065   1.260   7.489   5.795  0.1318  1.8999 -0.5662
 8044TIP3    H224066   1.226   7.599   5.893 -1.1681 -0.4070  1.6585
 8045TIP3   OH224067   1.480   4.207   5.022 -0.3530  0.0608 -0.0008
 8045TIP3    H124068   1.534   4.239   4.950 -1.1039  0.1430 -0.5345
 8045TIP3    H224069   1.410   4.157   4.980 -0.6980 -0.0371  0.6756
 8046TIP3   OH224070   1.499   4.173   4.517 -0.0461 -0.4626 -0.0267
 8046TIP3    H124071   1.503   4.086   4.557  3.1357  0.6132  2.1883
 8046TIP3    H224072   1.543   4.163   4.433  0.3066 -0.9941  0.2179
 8047TIP3   OH224073   0.931   5.034   6.261  0.1401 -0.3165  0.2062
 8047TIP3    H124074   0.914   5.116   6.306  0.8218  0.6371 -1.2359
 8047TIP3    H224075   0.923   5.055   6.168 -0.0297 -1.9617 -0.1775
 8048TIP3   OH224076   1.407   5.355   5.355  0.0526  0.6430 -0.2073
 8048TIP3    H124077   1.434   5.297   5.426  0.2647  0.9504 -0.0356
 8048TIP3    H224078   1.324   5.319   5.324  0.4405 -0.0537 -0.4435
 8049TIP3   OH224079   3.916   5.798   2.585  0.0684 -0.1286 -0.6471
 8049TIP3    H124080   3.889   5.857   2.514 -0.5453 -0.8644 -1.0311
 8049TIP3    H224081   3.851   5.812   2.654  0.3930  0.2411 -0.4153
 8050TIP3   OH224082   1.806   6.342   3.474 -0.7134  0.3403 -0.8201
 8050TIP3    H124083   1.711   6.342   3.461 -1.2993 -1.4588  2.8902
 8050TIP3    H224084   1.818   6.362   3.566  2.6603  2.2631 -1.5836
 8051TIP3   OH224085   2.548   5.525   5.250  0.2100 -0.3900  0.1030
 8051TIP3    H124086   2.542   5.479   5.334 -0.1525 -0.9695 -0.2343
 8051TIP3    H224087   2.589   5.461   5.191 -1.2752 -0.6631 -0.6433
 8052TIP3   OH224088   7.636   0.240   0.368 -0.0183  0.0577 -0.3439
 8052TIP3    H124089   7.677   0.182   0.303 -1.7605 -1.3879 -0.1894
 8052TIP3    H224090   7.567   0.284   0.320  0.4892  1.0797 -0.1422
 8053TIP3   OH224091   1.481   4.755   3.423  0.3530 -0.3583  0.4498
 8053TIP3    H124092   1.553   4.816   3.437 -0.9014  1.6352 -1.3450
 8053TIP3    H224093   1.406   4.797   3.466 -1.1280  0.7693 -2.9970
 8054TIP3   OH224094   2.039   5.731   4.698  0.2256  0.1234  0.1013
 8054TIP3    H124095   1.974   5.794   4.666  1.3465  0.9206 -0.6330
 8054TIP3    H224096   2.103   5.785   4.745  1.7631 -0.3390 -1.4431
 8055TIP3   OH224097   0.933   6.103   5.514 -0.1880  0.0872  0.2728
 8055TIP3    H124098   0.910   6.089   5.605  0.8466 -1.9264  0.2658
 8055TIP3    H224099   1.029   6.092   5.512 -0.2858 -0.6630 -1.1520
 8056TIP3   OH224100   7.573   0.491   0.236  0.1436 -0.5262 -0.3104
 8056TIP3    H124101   7.519   0.478   0.314  0.3616 -1.6879 -0.3396
 8056TIP3    H224102   7.564   0.584   0.216  1.6108  0.1757  2.1783
 8057TIP3   OH224103   1.049   4.066   4.565  0.3658  0.7336  0.3916
 8057TIP3    H124104   1.016   4.115   4.489 -0.1366 -0.5279 -0.2111
 8057TIP3    H224105   0.979   4.073   4.630  0.0975  0.4450  0.1382
 8058TIP3   OH224106   0.587   4.869   3.861  0.0483 -0.4941  1.2407
 8058TIP3    H124107   0.606   4.803   3.929  0.4327  0.7435  2.3522
 8058TIP3    H224108   0.621   4.951   3.897 -0.2531  0.2828 -0.2218
 8059TIP3   OH224109   1.755   5.006   5.573 -0.0412  0.8369  0.0303
 8059TIP3    H124110   1.742   4.940   5.641  0.3952  0.1189 -0.5862
 8059TIP3    H224111   1.666   5.025   5.542 -0.2255  1.0295  0.6695
 8060TIP3   OH224112   2.622   4.737   6.398  0.1571 -0.6909  0.3101
 8060TIP3    H124113   2.682   4.781   6.459 -0.0632  1.1651 -0.7826
 8060TIP3    H224114   2.664   4.746   6.313 -1.2772 -0.0931 -0.3466
 8061TIP3   OH224115   8.426   5.174   3.925  0.1278  0.4850 -0.7108
 8061TIP3    H124116   8.415   5.246   3.863 -0.5492 -0.3310 -1.5625
 8061TIP3    H224117   8.518   5.177   3.950  0.3430  1.0041 -1.5473
 8062TIP3   OH224118   0.189   4.522   3.341 -0.1582  0.6143 -0.0749
 8062TIP3    H124119   0.128   4.544   3.412  1.5875  0.6395  1.4465
 8062TIP3    H224120   0.210   4.606   3.300  1.0086  0.9567  1.1957
 8063TIP3   OH224121   1.376   4.000   3.848  0.2052 -0.1709  0.0707
 8063TIP3    H124122   1.296   4.048   3.828 -0.8704 -2.0097 -0.1243
 8063TIP3    H224123   1.396   4.024   3.939  0.7313  2.0559 -0.5963
 8064TIP3   OH224124   0.983   6.335   2.012  0.1741  0.8286  0.2816
 8064TIP3    H124125   1.065   6.370   1.977 -0.3357  1.0623 -0.6807
 8064TIP3    H224126   0.953   6.403   2.073  0.9079  0.5516  0.9650
 8065TIP3   OH224127   2.999   7.989   4.863  0.0991  0.4087  0.0973
 8065TIP3    H124128   3.063   7.945   4.918  1.5598  1.2304 -0.9329
 8065TIP3    H224129   2.924   7.929   4.862  0.4354 -0.0895  2.1149
 8066TIP3   OH224130   0.114   7.308   3.875  0.0082  0.0708 -0.5361
 8066TIP3    H124131   0.166   7.274   3.948 -0.2879 -0.0710 -0.3879
 8066TIP3    H224132   0.165   7.382   3.842  1.8246 -1.9413 -2.3711
 8067TIP3   OH224133   0.858   5.438   4.749  0.0184  0.0046 -0.1073
 8067TIP3    H124134   0.851   5.528   4.718 -0.2520 -0.2207 -0.6914
 8067TIP3    H224135   0.825   5.441   4.839 -3.0208 -0.1141 -1.1739
 8068TIP3   OH224136   6.455   0.165   0.428  0.1596 -0.1465  0.2063
 8068TIP3    H124137   6.480   0.228   0.361  0.4455 -0.3968  0.0700
 8068TIP3    H224138   6.402   0.100   0.381 -0.7154  0.3610  0.4883
 8069TIP3   OH224139   7.382   0.349   0.636 -0.0902  0.1995 -0.1491
 8069TIP3    H124140   7.378   0.258   0.606 -1.6939 -0.5569  2.2249
 8069TIP3    H224141   7.312   0.394   0.587 -1.3395 -0.5589  0.9146
 8070TIP3   OH224142   1.181   5.225   5.257 -0.1284 -0.3912 -0.3832
 8070TIP3    H124143   1.222   5.191   5.178  1.4404  0.3141  0.0995
 8070TIP3    H224144   1.115   5.160   5.281  0.5777 -1.4536 -1.2993
 8071TIP3   OH224145   1.674   4.433   5.473  0.0935 -0.8540 -0.2409
 8071TIP3    H124146   1.731   4.446   5.397 -0.4962 -0.2690 -0.5850
 8071TIP3    H224147   1.628   4.516   5.483  0.0876 -0.9743  0.6931
 8072TIP3   OH224148   8.226   3.852   4.699  0.3385  0.4742  0.0614
 8072TIP3    H124149   8.193   3.940   4.719  1.3649  0.4118  2.1271
 8072TIP3    H224150   8.149   3.804   4.668 -0.4161  1.8422 -0.2355
 8073TIP3   OH224151   2.198   4.731   4.063 -0.2387 -0.0742  0.3173
 8073TIP3    H124152   2.225   4.809   4.111  0.1572 -0.0684  0.0907
 8073TIP3    H224153   2.278   4.678   4.056  0.1782  0.7786 -1.9222
 8074TIP3   OH224154   6.194   4.715   5.688  0.0065  0.4289  0.2879
 8074TIP3    H124155   6.200   4.788   5.626 -1.8684  1.2949  1.0684
 8074TIP3    H224156   6.102   4.690   5.686  0.3337 -0.8853  1.2017
 8075TIP3   OH224157   1.716   6.646   6.863  0.3782  0.9692  0.0576
 8075TIP3    H124158   1.773   6.697   6.805  1.0087  0.2843  0.0631
 8075TIP3    H224159   1.776   6.607   6.927 -0.4176  2.7088  1.9394
 8076TIP3   OH224160   7.424   5.808   3.618 -0.2545  0.2943  0.3467
 8076TIP3    H124161   7.430   5.753   3.540  1.2863 -0.3210  0.8923
 8076TIP3    H224162   7.378   5.887   3.588 -2.1034 -1.0938 -0.5282
 8077TIP3   OH224163   0.201   3.759   4.491 -0.2821 -0.4276  0.4055
 8077TIP3    H124164   0.233   3.720   4.409  1.1827  0.6313  0.4621
 8077TIP3    H224165   0.114   3.720   4.503 -1.0306  0.2582 -2.2631
 8078TIP3   OH224166   2.101   2.204   5.978  0.7439  0.4537  0.1905
 8078TIP3    H124167   2.104   2.213   5.883 -0.0435  0.3467  0.1528
 8078TIP3    H224168   2.051   2.124   5.994  1.0604  0.3510  0.6874
 8079TIP3   OH224169   0.912   7.726   5.211 -0.0785 -0.2604 -0.5282
 8079TIP3    H124170   0.991   7.777   5.193 -0.5005  0.2905 -0.7908
 8079TIP3    H224171   0.867   7.719   5.127 -1.0841  0.7127 -0.0755
 8080TIP3   OH224172   7.074   4.444   4.222 -0.6897 -0.1925 -0.6036
 8080TIP3    H124173   6.989   4.449   4.264 -0.5482  1.1151 -0.4629
 8080TIP3    H224174   7.124   4.383   4.276 -0.8005  0.7754  0.6124
 8081TIP3   OH224175   1.677   4.683   4.220 -0.1019  0.7599 -0.1313
 8081TIP3    H124176   1.747   4.661   4.282  0.8820 -0.1909 -1.5372
 8081TIP3    H224177   1.723   4.718   4.143 -1.2802  1.6191 -0.4586
 8082TIP3   OH224178   1.920   6.184   5.252 -0.0730 -0.1151 -0.3732
 8082TIP3    H124179   1.836   6.229   5.264 -0.0811 -0.0349 -0.7303
 8082TIP3    H224180   1.984   6.255   5.245  0.2708 -0.1914  1.6413
 8083TIP3   OH224181   0.943   6.004   4.738  0.4308  0.3043 -0.4067
 8083TIP3    H124182   0.933   6.043   4.825  0.8440 -1.0892  0.2817
 8083TIP3    H224183   1.037   6.009   4.720  0.4398 -0.0424 -0.4633
 8084TIP3   OH224184   1.310   6.459   6.429  0.0280 -0.1238 -0.1456
 8084TIP3    H124185   1.339   6.528   6.369  0.5927  0.3253  0.6359
 8084TIP3    H224186   1.231   6.494   6.469  1.7433  1.2167  2.2087
 8085TIP3   OH224187   0.856   3.069   3.548 -0.6846 -0.1467 -0.0582
 8085TIP3    H124188   0.933   3.072   3.605 -0.1975 -0.5889 -0.6890
 8085TIP3    H224189   0.860   3.152   3.500 -2.1818  1.1421  1.9325
 8086TIP3   OH224190   2.731   5.628   6.744  0.1095 -0.7115  0.5746
 8086TIP3    H124191   2.750   5.545   6.788 -1.2398 -0.8013  1.0037
 8086TIP3    H224192   2.808   5.682   6.761  0.4789 -1.4490  1.3075
 8087TIP3   OH224193   2.477   4.578   4.557  0.1915  0.4992  0.3896
 8087TIP3    H124194   2.388   4.543   4.560 -0.7843  2.6879 -1.6554
 8087TIP3    H224195   2.493   4.610   4.645 -1.5649  1.3247  0.4223
 8088TIP3   OH224196   1.660   6.242   2.898 -0.3343 -0.5041  0.2046
 8088TIP3    H124197   1.575   6.282   2.915 -0.1187 -0.3782  1.0338
 8088TIP3    H224198   1.640   6.150   2.880 -0.6437 -0.4870  0.4497
 8089TIP3   OH224199   0.973   6.318   4.753  0.3261 -0.3966  0.0855
 8089TIP3    H124200   0.951   6.322   4.660 -0.6278  0.0852  0.3295
 8089TIP3    H224201   1.049   6.260   4.757  2.1878  1.8235 -1.3273
 8090TIP3   OH224202   2.427   5.224   5.189  0.0863 -0.3321 -0.3553
 8090TIP3    H124203   2.435   5.255   5.099 -0.3889  0.4699 -0.1292
 8090TIP3    H224204   2.345   5.176   5.190  0.6447 -1.3169 -0.6159
 8091TIP3   OH224205   2.355   5.749   3.751 -0.2808 -0.0656 -0.8984
 8091TIP3    H124206   2.440   5.705   3.752 -0.0232  0.4323  0.1571
 8091TIP3    H224207   2.374   5.837   3.721 -0.7387 -0.5392 -2.6287
 8092TIP3   OH224208   2.320   4.680   5.230  0.2365  0.0621 -0.5337
 8092TIP3    H124209   2.270   4.599   5.221  0.6620 -0.3187  0.4607
 8092TIP3    H224210   2.279   4.726   5.303  1.9552 -0.7346  0.9701
 8093TIP3   OH224211   0.817   6.533   2.474  0.6315 -0.5404  0.3944
 8093TIP3    H124212   0.799   6.627   2.477 -1.9069 -0.9504 -0.4942
 8093TIP3    H224213   0.753   6.494   2.534 -0.5637 -1.9427 -1.7141
 8094TIP3   OH224214   3.412   6.861   3.693 -0.4158 -0.3294 -0.0614
 8094TIP3    H124215   3.376   6.855   3.782  0.1521  0.9227  0.2508
 8094TIP3    H224216   3.496   6.816   3.698  0.9398  2.2105  0.7537
 8095TIP3   OH224217   1.130   5.490   3.688  0.4665  0.0663  0.2660
 8095TIP3    H124218   1.135   5.583   3.664 -0.4602  0.5888  2.0570
 8095TIP3    H224219   1.044   5.479   3.727  1.8132 -0.7795  3.1586
 8096TIP3   OH224220   0.339   6.317   3.007  0.0005  0.5771 -0.3899
 8096TIP3    H124221   0.249   6.285   3.012 -1.0168  3.1140 -1.4500
 8096TIP3    H224222   0.368   6.324   3.098 -0.3841 -1.4904 -0.0832
 8097TIP3   OH224223   6.879   4.140   3.163  0.2669 -0.3696  0.1335
 8097TIP3    H124224   6.866   4.224   3.207 -1.6386 -2.7905  4.6026
 8097TIP3    H224225   6.961   4.150   3.115  0.9877  3.4621  1.9744
 8098TIP3   OH224226   8.278   4.689   6.415 -0.7527  0.1528 -0.1993
 8098TIP3    H124227   8.204   4.739   6.380  0.7545  3.1829  0.7064
 8098TIP3    H224228   8.322   4.654   6.338 -0.4853  2.2720 -1.0424
 8099TIP3   OH224229   2.100   2.995   3.332 -0.1482  0.1355 -0.8880
 8099TIP3    H124230   2.145   3.080   3.335 -0.7820  0.4721 -0.9486
 8099TIP3    H224231   2.166   2.932   3.361 -0.6990  1.0598  2.5324
 8100TIP3   OH224232   0.947   4.694   4.871  0.0356 -0.3734  0.2116
 8100TIP3    H124233   0.857   4.720   4.851  0.3765  1.0043  0.4502
 8100TIP3    H224234   0.982   4.661   4.788 -1.2908 -2.7385  0.5478
 8101TIP3   OH224235   6.839   0.227   0.649  0.1826  0.1997 -0.3615
 8101TIP3    H124236   6.876   0.252   0.734  0.7986  1.1954 -0.9259
 8101TIP3    H224237   6.759   0.278   0.642  0.1170  0.0952 -0.3719
 8102TIP3   OH224238   2.260   5.032   5.600  0.1955 -0.0317 -0.3594
 8102TIP3    H124239   2.262   5.047   5.695  0.1930  0.8666 -0.5000
 8102TIP3    H224240   2.331   5.086   5.566 -0.8347  0.9082 -1.0460
 8103TIP3   OH224241   1.140   6.926   5.042  0.1218  0.2835  0.8807
 8103TIP3    H124242   1.136   6.978   5.122 -0.8180  0.4712  0.7178
 8103TIP3    H224243   1.149   6.990   4.972 -1.8863  0.3021  0.6076
 8104TIP3   OH224244   2.106   5.836   6.161  0.1139  0.1850 -0.4812
 8104TIP3    H124245   2.147   5.779   6.096  2.1105  0.4415  0.4953
 8104TIP3    H224246   2.066   5.776   6.224 -0.2402 -0.1008 -0.9841
 8105TIP3   OH224247   1.763   5.945   5.343 -0.2625 -0.5662  0.1920
 8105TIP3    H124248   1.728   6.016   5.289  0.8643  0.0590  0.2698
 8105TIP3    H224249   1.858   5.955   5.338 -0.1182 -1.3547  1.1508
 8106TIP3   OH224250   0.692   6.306   6.124  0.2673  0.0551  0.2249
 8106TIP3    H124251   0.742   6.383   6.097 -0.7784 -0.2386 -2.7550
 8106TIP3    H224252   0.601   6.335   6.121 -0.0709 -1.0128  0.0072
 8107TIP3   OH224253   1.811   6.725   5.772 -0.3536 -0.6994 -0.0307
 8107TIP3    H124254   1.830   6.645   5.821  0.9835 -1.0843 -1.1438
 8107TIP3    H224255   1.719   6.745   5.793 -0.0765 -1.3424  1.8989
 8108TIP3   OH224256   0.170   7.594   4.184 -0.1217  0.9058 -0.5780
 8108TIP3    H124257   0.169   7.621   4.275 -0.0643  0.5312 -0.4638
 8108TIP3    H224258   0.193   7.501   4.187 -1.7094  0.4970 -0.8835
 8109TIP3   OH224259   0.777   5.285   6.686  0.3153  0.2901 -0.4180
 8109TIP3    H124260   0.692   5.325   6.666 -1.7271 -2.1839  2.7073
 8109TIP3    H224261   0.824   5.353   6.735 -1.2303  0.5389  0.7583
 8110TIP3   OH224262   0.652   6.305   4.201  0.0460  0.1394  0.0211
 8110TIP3    H124263   0.707   6.245   4.150  0.2818 -0.7872  1.3462
 8110TIP3    H224264   0.563   6.290   4.168  0.1980 -0.4353 -0.1395
 8111TIP3   OH224265   0.759   5.707   6.566  0.0745 -0.0618  0.3119
 8111TIP3    H124266   0.746   5.798   6.540  1.5717  0.3407  0.9084
 8111TIP3    H224267   0.760   5.709   6.662 -1.0023 -0.8753  0.3500
 8112TIP3   OH224268   4.771   0.146   3.863  0.7547  0.4941  0.0433
 8112TIP3    H124269   4.817   0.132   3.946 -1.8870 -1.2938  1.2581
 8112TIP3    H224270   4.732   0.061   3.842 -3.5946  2.3504  0.0713
 8113TIP3   OH224271   0.292   6.534   4.222 -0.3232 -0.0993  0.3054
 8113TIP3    H124272   0.336   6.531   4.137  1.1962 -1.0608  1.1126
 8113TIP3    H224273   0.359   6.563   4.283 -1.0406 -0.7509  1.4166
 8114TIP3   OH224274   2.101   4.907   6.814  0.0322 -0.3124 -0.1210
 8114TIP3    H124275   2.039   4.974   6.784  2.3466  1.0553 -2.0226
 8114TIP3    H224276   2.117   4.929   6.906 -0.7240  0.5742 -0.1920
 8115TIP3   OH224277   0.982   3.111   5.578 -0.5984  0.1351 -0.5723
 8115TIP3    H124278   0.970   3.023   5.612 -0.6242  0.2680 -0.2347
 8115TIP3    H224279   1.033   3.156   5.645  1.6635 -0.3762 -1.8930
 8116TIP3   OH224280   8.255   5.403   4.312 -0.3597  0.8308  0.4659
 8116TIP3    H124281   8.217   5.348   4.243  0.6728  1.1367 -0.3564
 8116TIP3    H224282   8.198   5.480   4.316 -1.7118 -0.1969  1.5053
 8117TIP3   OH224283   0.447   2.793   4.479 -0.2389 -0.0595 -0.2132
 8117TIP3    H124284   0.535   2.770   4.447 -0.5674 -0.0907 -1.1042
 8117TIP3    H224285   0.423   2.871   4.429 -0.4574  0.3319  0.4998
 8118TIP3   OH224286   6.439   3.430   0.278 -0.5382 -0.4960  0.0086
 8118TIP3    H124287   6.350   3.439   0.314 -0.3181 -0.5991  0.5909
 8118TIP3    H224288   6.442   3.341   0.243 -1.5073  0.3784 -2.3833
 8119TIP3   OH224289   7.796   5.618   3.769 -0.0168  0.4559 -0.1698
 8119TIP3    H124290   7.744   5.542   3.794 -0.4802  1.1597  1.0740
 8119TIP3    H224291   7.858   5.630   3.841  1.1613  0.2834 -1.1298
 8120TIP3   OH224292   7.381   1.530   0.894 -0.1535  0.2437  0.4662
 8120TIP3    H124293   7.365   1.624   0.891 -0.6458  0.1500  0.0162
 8120TIP3    H224294   7.427   1.511   0.812 -1.5841 -0.1765 -0.2527
 8121TIP3   OH224295   2.791   7.452   0.777  0.3680 -0.2998 -0.5593
 8121TIP3    H124296   2.848   7.393   0.826 -0.9697  0.8278  2.5573
 8121TIP3    H224297   2.841   7.533   0.770 -0.2322  0.2378  0.9542
 8122TIP3   OH224298   6.459   5.399   6.811 -0.1701  0.1252 -0.2012
 8122TIP3    H124299   6.511   5.381   6.732  0.2679 -2.4525  0.6295
 8122TIP3    H224300   6.369   5.403   6.779  0.0742 -0.1725 -0.9500
 8123TIP3   OH224301   5.304   0.009   4.718  0.3008  0.1783 -0.3677
 8123TIP3    H124302   5.261   0.088   4.751 -0.6378 -0.7757  0.7333
 8123TIP3    H224303   5.358  -0.021   4.791 -0.9164 -1.3178 -0.0606
 8124TIP3   OH224304   1.302   5.629   6.291  0.4430 -0.2915  0.2293
 8124TIP3    H124305   1.249   5.586   6.358  0.2497  1.2584  1.0684
 8124TIP3    H224306   1.239   5.675   6.236  0.9324  2.0942  1.6090
 8125TIP3   OH224307   1.368   4.612   5.789 -0.8809 -0.3004 -0.0458
 8125TIP3    H124308   1.385   4.683   5.851 -0.8842 -0.4719  0.1519
 8125TIP3    H224309   1.364   4.655   5.704  2.4607 -0.4855 -0.3638
 8126TIP3   OH224310   1.135   5.681   4.135 -0.0289  0.3970 -0.4766
 8126TIP3    H124311   1.188   5.608   4.169 -0.6116  0.1377 -0.1247
 8126TIP3    H224312   1.190   5.758   4.149 -0.1331  0.2578  0.8150
 8127TIP3   OH224313   1.062   4.607   4.580  0.5025  0.1882 -0.0285
 8127TIP3    H124314   1.107   4.542   4.525 -1.8055  0.5529 -2.4387
 8127TIP3    H224315   1.129   4.672   4.600  1.4680 -0.0805 -2.2361
 8128TIP3   OH224316   7.751   6.346   4.343 -0.1096  0.2671 -0.1014
 8128TIP3    H124317   7.834   6.357   4.390 -0.6756 -0.7708  1.1970
 8128TIP3    H224318   7.688   6.399   4.393 -0.7306 -0.8922  0.3879
 8129TIP3   OH224319   2.498   7.230   4.016 -0.2482  0.3756 -0.0386
 8129TIP3    H124320   2.470   7.139   4.018 -1.0974  0.6377  0.8661
 8129TIP3    H224321   2.416   7.280   4.020  0.0809  1.1890 -2.8097
 8130TIP3   OH224322   8.254   7.103   4.285 -0.5184  0.5591 -0.1558
 8130TIP3    H124323   8.224   7.165   4.218  1.1606  1.8427  0.2377
 8130TIP3    H224324   8.344   7.130   4.304 -0.3826 -0.8686  1.3661
 8131TIP3   OH224325   0.118   5.148   5.424  0.1259  0.0742  0.0459
 8131TIP3    H124326   0.053   5.103   5.369  0.5948  0.0257 -0.4843
 8131TIP3    H224327   0.195   5.091   5.419  0.3156  0.3046  0.3871
 8132TIP3   OH224328   7.966   1.040   0.661 -0.0175  0.8848 -0.4436
 8132TIP3    H124329   7.897   1.024   0.597 -0.5573  0.4484  0.2395
 8132TIP3    H224330   7.921   1.078   0.736  0.0756 -1.7920  1.0209
 8133TIP3   OH224331   1.953   5.486   5.344 -0.2738 -0.2000  0.1589
 8133TIP3    H124332   1.917   5.398   5.330 -0.4357 -0.1399  0.1972
 8133TIP3    H224333   1.893   5.544   5.298 -0.8969  0.0143  1.2074
 8134TIP3   OH224334   1.420   5.639   5.046  0.1082 -0.2674  0.2195
 8134TIP3    H124335   1.460   5.668   4.964  1.7007 -1.2678  0.6292
 8134TIP3    H224336   1.462   5.555   5.065  0.0750  0.1591  2.2917
 8135TIP3   OH224337   0.554   2.436   4.085 -0.2918  0.2087 -0.0296
 8135TIP3    H124338   0.465   2.448   4.118  0.6198 -2.2562  3.7118
 8135TIP3    H224339   0.607   2.501   4.132  0.6158 -1.6399  1.6094
 8136TIP3   OH224340   0.254   4.534   3.770 -0.8765  0.1543  0.2508
 8136TIP3    H124341   0.228   4.597   3.704 -1.1012 -0.3222 -0.1185
 8136TIP3    H224342   0.197   4.458   3.756 -0.1293 -0.4127  0.2273
 8137TIP3   OH224343   1.645   7.073   5.139  0.6057 -0.3548 -0.3025
 8137TIP3    H124344   1.613   7.022   5.065  2.5705 -1.9210 -0.1153
 8137TIP3    H224345   1.652   7.162   5.106 -2.1618 -0.2831 -0.8624
 8138TIP3   OH224346   0.290   5.885   5.343 -0.3414  0.1701  0.0859
 8138TIP3    H124347   0.205   5.885   5.387 -1.1498 -0.7022 -1.4586
 8138TIP3    H224348   0.299   5.796   5.309  0.7297  0.5510 -0.6545
 8139TIP3   OH224349   0.688   5.275   6.066 -0.3831  0.2155 -0.5165
 8139TIP3    H124350   0.759   5.240   6.013 -0.8494 -0.3610 -0.7609
 8139TIP3    H224351   0.725   5.283   6.154  0.4276  1.2830 -0.9470
 8140TIP3   OH224352   1.892   6.669   1.988  0.2139 -0.1288 -0.0898
 8140TIP3    H124353   1.930   6.582   1.991  0.8002  0.0598 -1.4925
 8140TIP3    H224354   1.802   6.655   1.956  0.8699 -0.0742 -2.0277
 8141TIP3   OH224355   3.443   4.954   5.511 -0.2780  0.0350 -0.3348
 8141TIP3    H124356   3.418   4.865   5.536 -0.4926 -0.2540 -1.5489
 8141TIP3    H224357   3.454   5.000   5.594 -0.6458 -0.9915  0.2922
 8142TIP3   OH224358   1.392   5.933   2.961 -0.0155  0.0162 -0.3350
 8142TIP3    H124359   1.417   5.847   2.996  0.6394  1.3508  2.6013
 8142TIP3    H224360   1.473   5.969   2.926 -0.2947 -0.5600 -1.5874
 8143TIP3   OH224361   0.743   6.667   4.724 -0.1164  0.2514 -0.5458
 8143TIP3    H124362   0.817   6.664   4.785 -2.4987  3.2609  2.6804
 8143TIP3    H224363   0.689   6.592   4.748 -0.0378  0.2693 -0.3108
 8144TIP3   OH224364   1.226   6.054   5.598 -0.2744  0.0353  0.6945
 8144TIP3    H124365   1.305   6.101   5.623  0.6439 -0.6921 -0.7785
 8144TIP3    H224366   1.222   5.981   5.660  0.1944  0.0883  0.7918
 8145TIP3   OH224367   7.499   1.269   0.949  0.9250 -0.2146 -0.3774
 8145TIP3    H124368   7.457   1.354   0.938 -0.7170 -1.1941 -1.9568
 8145TIP3    H224369   7.481   1.244   1.039  0.0192  0.3935 -0.3858
 8146TIP3   OH224370   2.077   6.318   4.552 -0.5375 -0.2893 -0.5250
 8146TIP3    H124371   2.001   6.280   4.508 -0.4276 -0.1009 -0.8823
 8146TIP3    H224372   2.054   6.410   4.565 -0.6328 -0.3777 -0.0378
 8147TIP3   OH224373   6.476   7.399   4.137  0.6550  0.4049  0.1010
 8147TIP3    H124374   6.523   7.373   4.058  1.2864  0.0533  0.5860
 8147TIP3    H224375   6.497   7.331   4.201 -0.0007  0.5874  0.5135
 8148TIP3   OH224376   0.151   4.090   4.502  0.0991  0.1263 -0.4585
 8148TIP3    H124377   0.181   4.005   4.471 -2.1173 -0.5511 -0.8725
 8148TIP3    H224378   0.085   4.069   4.568  0.2438  1.5340  0.1446
 8149TIP3   OH224379   1.330   3.887   5.149  0.3831 -0.4854 -0.8044
 8149TIP3    H124380   1.358   3.866   5.238 -0.0104  2.2355  0.0275
 8149TIP3    H224381   1.411   3.900   5.100  0.6501  1.8701  0.1887
 8150TIP3   OH224382   8.068   5.095   4.332  0.3704  0.4833 -0.3573
 8150TIP3    H124383   8.040   5.182   4.360 -0.0221  0.1603  0.2685
 8150TIP3    H224384   8.096   5.106   4.242  1.1298  1.4354 -0.0130
 8151TIP3   OH224385   0.996   3.516   5.053  0.3603  0.0643 -0.4825
 8151TIP3    H124386   1.012   3.495   5.145 -1.6361 -0.8168 -0.3172
 8151TIP3    H224387   0.968   3.608   5.054  1.8925  0.5471 -0.4072
 8152TIP3   OH224388   0.468   4.154   3.642  0.1943  0.3106  0.4902
 8152TIP3    H124389   0.435   4.238   3.610 -0.0033 -0.3728 -1.1841
 8152TIP3    H224390   0.563   4.167   3.650  0.4995  0.0402 -2.0540
 8153TIP3   OH224391   0.311   4.101   3.144  0.4061  0.0537 -0.1279
 8153TIP3    H124392   0.311   4.195   3.122 -0.9818  0.5897  1.9846
 8153TIP3    H224393   0.237   4.066   3.094  1.6498 -0.1725 -1.8458
 8154TIP3   OH224394   0.922   4.791   3.863  0.2648 -0.3707 -0.4075
 8154TIP3    H124395   0.887   4.856   3.924 -2.2671 -0.6623 -1.4965
 8154TIP3    H224396   0.984   4.741   3.915 -1.1054  0.0224  1.6771
 8155TIP3   OH224397   2.741   4.473   4.521  0.1314  0.2352  0.3728
 8155TIP3    H124398   2.647   4.489   4.514  0.0366 -0.1660  0.7126
 8155TIP3    H224399   2.766   4.441   4.434 -0.3045 -0.9619  0.6856
 8156TIP3   OH224400   1.644   2.601   4.728  0.1555  0.4778 -0.3238
 8156TIP3    H124401   1.694   2.634   4.802 -1.0361 -1.4570  1.3721
 8156TIP3    H224402   1.553   2.603   4.757 -0.3296 -0.3505 -1.7122
 8157TIP3   OH224403   1.850   6.482   5.960 -0.0707  0.5356 -0.2985
 8157TIP3    H124404   1.769   6.448   5.999  0.2868  0.0057 -0.0059
 8157TIP3    H224405   1.888   6.406   5.916  1.1137  0.3612  0.9840
 8158TIP3   OH224406   2.234   3.696   2.936 -0.4412 -0.1171 -0.0893
 8158TIP3    H124407   2.303   3.730   2.992  0.4268 -0.9015 -0.6571
 8158TIP3    H224408   2.276   3.684   2.851 -0.6594 -2.6522  0.1056
 8159TIP3   OH224409   2.644   7.348   5.856 -0.6998  0.2529  0.6306
 8159TIP3    H124410   2.673   7.258   5.842 -2.0947 -0.1383  0.2313
 8159TIP3    H224411   2.629   7.382   5.768 -1.6681  0.3698  0.8351
 8160TIP3   OH224412   1.401   7.727   2.823 -0.0746  0.2369 -0.3592
 8160TIP3    H124413   1.464   7.795   2.801  1.2366 -0.0767  2.1952
 8160TIP3    H224414   1.339   7.770   2.882 -1.1311  0.0381 -1.3182
 8161TIP3   OH224415   1.722   7.620   4.335  0.0807 -0.2281 -0.5244
 8161TIP3    H124416   1.754   7.699   4.379 -1.0316  0.2323 -0.5300
 8161TIP3    H224417   1.773   7.548   4.373 -1.1562  0.1059  1.8257
 8162TIP3   OH224418   1.118   5.331   3.383  0.0444  0.0062  0.2415
 8162TIP3    H124419   1.060   5.270   3.339  0.6220 -0.4653  0.1274
 8162TIP3    H224420   1.145   5.285   3.463  1.0633 -0.1919 -0.2054
 8163TIP3   OH224421   1.283   5.883   4.344  0.1087 -0.1222 -0.2495
 8163TIP3    H124422   1.242   5.887   4.430 -0.0484 -0.4539 -0.3087
 8163TIP3    H224423   1.339   5.805   4.348 -0.0302 -0.2322 -0.5075
 8164TIP3   OH224424   4.136   7.504   4.065 -0.3596  0.1171 -0.4578
 8164TIP3    H124425   4.224   7.466   4.070  0.3691  1.6951 -1.0450
 8164TIP3    H224426   4.086   7.458   4.133  1.3802  0.4126  1.0517
 8165TIP3   OH224427   2.290   4.928   4.225  0.0151  0.1945 -0.0097
 8165TIP3    H124428   2.276   5.022   4.212 -1.8643 -0.0852 -0.0990
 8165TIP3    H224429   2.316   4.921   4.317  0.9585  0.8658 -0.2071
 8166TIP3   OH224430   3.419   5.935   6.134  0.2720 -0.4208 -0.1761
 8166TIP3    H124431   3.461   5.862   6.089 -0.2455  0.1862 -1.6642
 8166TIP3    H224432   3.345   5.959   6.079 -0.4752  0.2383  1.0817
 8167TIP3   OH224433   2.786   3.652   5.255 -0.1459  0.4320  0.3841
 8167TIP3    H124434   2.792   3.556   5.251 -1.3533  0.4047 -0.8862
 8167TIP3    H224435   2.871   3.682   5.221 -0.1928 -0.1807 -0.2997
 8168TIP3   OH224436   2.879   5.466   4.728 -0.7126 -0.1628  0.4554
 8168TIP3    H124437   2.948   5.512   4.679  1.2337 -0.5688  2.7284
 8168TIP3    H224438   2.896   5.373   4.712  0.4683 -0.3300  2.5519
 8169TIP3   OH224439   2.502   5.771   4.755 -0.3738 -0.1180 -0.4921
 8169TIP3    H124440   2.545   5.692   4.723 -0.8901 -0.4150 -0.4532
 8169TIP3    H224441   2.536   5.841   4.700 -1.0212 -0.5812 -1.4923
 8170TIP3   OH224442   2.517   5.823   6.733 -0.0532 -0.1026  1.1057
 8170TIP3    H124443   2.587   5.758   6.734 -0.1055 -0.1832  0.1396
 8170TIP3    H224444   2.501   5.843   6.826  1.9432  0.6767  1.3084
 8171TIP3   OH224445   0.985   7.535   1.725 -0.2782 -0.6014  0.3265
 8171TIP3    H124446   1.072   7.507   1.753  0.0744 -1.4029 -1.4852
 8171TIP3    H224447   0.964   7.479   1.650 -2.0592  0.0486  0.3063
 8172TIP3   OH224448   7.028   0.786   4.678 -0.2487 -0.1813  0.0338
 8172TIP3    H124449   6.961   0.840   4.636 -0.2135 -0.0144  0.1950
 8172TIP3    H224450   7.085   0.848   4.722 -0.1224 -0.3401  0.0950
 8173TIP3   OH224451   2.424   6.183   6.546 -0.2812 -0.0129 -0.0421
 8173TIP3    H124452   2.412   6.089   6.529 -0.0921  0.1908 -1.3742
 8173TIP3    H224453   2.415   6.224   6.460 -2.9724  1.4687  0.8940
 8174TIP3   OH224454   2.998  -0.005   3.490 -0.1774  0.6093 -0.5799
 8174TIP3    H124455   3.000  -0.057   3.570  0.0625 -0.5080 -1.3041
 8174TIP3    H224456   3.019   0.084   3.518  1.8534 -0.1352  0.3053
 8175TIP3   OH224457   1.831   5.587   4.907 -0.1562  0.4619 -0.5122
 8175TIP3    H124458   1.922   5.611   4.926 -0.1156 -1.4932  2.0596
 8175TIP3    H224459   1.837   5.496   4.877 -1.3682 -0.1732  1.1022
 8176TIP3   OH224460   2.837   5.844   6.163 -0.2056  0.2554  0.6096
 8176TIP3    H124461   2.925   5.857   6.198  0.9492 -3.2308 -0.7682
 8176TIP3    H224462   2.847   5.860   6.069 -0.6816 -1.6215  0.2261
 8177TIP3   OH224463   3.242   6.984   4.120  0.0131 -0.3937 -0.1773
 8177TIP3    H124464   3.277   7.053   4.064 -0.5595 -1.3601 -1.7586
 8177TIP3    H224465   3.280   6.903   4.086 -1.3979 -1.1441 -0.0440
 8178TIP3   OH224466   3.496   0.298   3.114  0.2253 -0.1787 -0.2326
 8178TIP3    H124467   3.490   0.329   3.204  1.2861 -1.1611  0.1980
 8178TIP3    H224468   3.561   0.356   3.073 -0.5519  0.5225 -0.4901
 8179TIP3   OH224469   0.999   4.653   2.486  0.3912 -0.5068  0.3283
 8179TIP3    H124470   0.905   4.646   2.466  0.1025  1.8375  0.7433
 8179TIP3    H224471   1.033   4.713   2.420  1.0982  0.6732  1.7514
 8180TIP3   OH224472   3.753   5.156   5.190 -0.3172  0.1651 -0.4108
 8180TIP3    H124473   3.849   5.153   5.194 -0.3774  0.0497  1.4614
 8180TIP3    H224474   3.726   5.065   5.187 -0.3705  0.2064 -1.6314
 8181TIP3   OH224475   2.419   4.428   3.433 -0.4429  0.2561  0.0513
 8181TIP3    H124476   2.376   4.440   3.518  0.5607 -0.8905  0.7299
 8181TIP3    H224477   2.347   4.415   3.371 -1.1272 -0.0273  0.8990
 8182TIP3   OH224478   4.465   5.343   5.038 -0.0500 -0.1983 -0.1439
 8182TIP3    H124479   4.438   5.252   5.027  2.4942 -1.2580  2.0642
 8182TIP3    H224480   4.448   5.383   4.952 -0.2458 -2.9849 -1.4586
 8183TIP3   OH224481   2.783   6.744   5.437 -0.4317  0.1266 -0.0423
 8183TIP3    H124482   2.755   6.676   5.499 -0.8157  0.5218  0.2150
 8183TIP3    H224483   2.701   6.784   5.406 -0.2393  0.0199 -0.7099
 8184TIP3   OH224484   3.184   6.370   4.529 -0.0265 -0.0884 -0.3761
 8184TIP3    H124485   3.140   6.362   4.444  1.5937 -0.8815 -1.1623
 8184TIP3    H224486   3.113   6.383   4.592 -1.2624  0.3018 -1.8251
 8185TIP3   OH224487   4.107   6.621   5.423 -0.4491  0.8721  0.3842
 8185TIP3    H124488   4.080   6.712   5.410 -0.8611  0.6310 -0.4705
 8185TIP3    H224489   4.102   6.581   5.336 -1.5039 -0.3070  0.9632
 8186TIP3   OH224490   1.957   7.903   5.342 -0.4696 -0.2923 -0.2123
 8186TIP3    H124491   2.042   7.923   5.305 -0.4333 -0.7425 -0.3681
 8186TIP3    H224492   1.972   7.827   5.398 -0.9068 -0.8170 -0.7968
 8187TIP3   OH224493   2.407   6.869   4.040 -0.0097 -0.0374 -0.1895
 8187TIP3    H124494   2.357   6.806   4.091 -0.4055 -0.5327 -1.1839
 8187TIP3    H224495   2.422   6.826   3.955  2.6524 -0.1685  0.3049
 8188TIP3   OH224496   4.099   5.377   6.675  0.0418  0.2300  0.3052
 8188TIP3    H124497   4.168   5.436   6.647 -1.1729  1.5452  0.0323
 8188TIP3    H224498   4.048   5.359   6.596 -0.2376 -0.3258  0.6032
 8189TIP3   OH224499   0.115   1.668   0.268 -0.3639  0.1749 -0.1046
 8189TIP3    H124500   0.134   1.742   0.210  1.6024 -1.0769 -1.1151
 8189TIP3    H224501   0.189   1.664   0.328 -0.0654 -1.4268 -0.5524
 8190TIP3   OH224502   2.473   4.786   5.498  0.5646  0.1097  0.2622
 8190TIP3    H124503   2.539   4.728   5.462  0.3375  0.3307 -0.5267
 8190TIP3    H224504   2.475   4.863   5.441  1.1717  1.0667  1.5595
 8191TIP3   OH224505   1.064   7.965   5.497  0.9165  0.1903 -0.1999
 8191TIP3    H124506   1.022   7.998   5.576  2.7991 -1.0823  1.3791
 8191TIP3    H224507   0.992   7.952   5.435 -0.7871 -0.3113  1.8393
 8192TIP3   OH224508   4.629   0.062   2.952  0.5648 -0.3339 -0.7743
 8192TIP3    H124509   4.538   0.050   2.925  0.1435  0.4208  0.3006
 8192TIP3    H224510   4.625   0.075   3.046  1.6758  0.9585 -0.8927
 8193TIP3   OH224511   2.375   4.997   4.655 -0.0131 -0.4568  0.1184
 8193TIP3    H124512   2.430   5.032   4.725 -1.4562  1.2482  0.4261
 8193TIP3    H224513   2.287   5.023   4.679 -0.5756 -0.2567 -2.1151
 8194TIP3   OH224514   2.619   6.380   4.043 -0.0457  0.1360  0.3363
 8194TIP3    H124515   2.692   6.368   3.983 -1.1534  0.3584 -1.0894
 8194TIP3    H224516   2.541   6.374   3.988 -1.1059 -0.0224  1.8148
 8195TIP3   OH224517   1.313   4.975   2.151  0.1522  0.0890  0.2670
 8195TIP3    H124518   1.397   4.986   2.195  0.0257  2.2450  0.0199
 8195TIP3    H224519   1.285   5.064   2.129 -1.5387 -0.6915 -0.8910
 8196TIP3   OH224520   2.789   7.502   5.122  0.4723  0.4285  0.2584
 8196TIP3    H124521   2.759   7.413   5.106  0.4236  0.2871  1.1283
 8196TIP3    H224522   2.748   7.527   5.205 -0.7964  1.8274 -0.7668
 8197TIP3   OH224523   0.707   7.226   4.168  0.1464  0.1417 -0.2939
 8197TIP3    H124524   0.639   7.284   4.135 -1.2308 -1.3826 -0.1738
 8197TIP3    H224525   0.789   7.273   4.150 -0.8710  1.6064 -1.2074
 8198TIP3   OH224526   0.945   4.918   5.068 -0.0452 -0.0282  0.1621
 8198TIP3    H124527   0.953   4.840   5.013 -1.1654 -0.4116  0.5250
 8198TIP3    H224528   1.027   4.965   5.054 -0.0822 -0.3883 -1.4030
 8199TIP3   OH224529   1.484   3.601   2.628  0.2036 -0.0848  0.3569
 8199TIP3    H124530   1.428   3.541   2.677  0.1936  0.3548  0.8977
 8199TIP3    H224531   1.423   3.653   2.575  0.1532 -0.0663  0.4327
 8200TIP3   OH224532   3.341   5.346   6.471 -0.1463  0.2904 -0.0626
 8200TIP3    H124533   3.411   5.409   6.459  0.6776 -1.0075 -2.3085
 8200TIP3    H224534   3.313   5.323   6.383  0.9068 -3.8991  0.5605
 8201TIP3   OH224535   2.956   6.705   4.332  0.1342 -0.0362  0.2636
 8201TIP3    H124536   3.035   6.721   4.385  0.8487 -0.9619 -0.5113
 8201TIP3    H224537   2.936   6.790   4.293  1.1460  0.0632 -0.0694
 8202TIP3   OH224538   1.385   4.746   4.313  0.1891 -0.0852 -0.8845
 8202TIP3    H124539   1.413   4.696   4.236  0.1446 -2.0791  0.3636
 8202TIP3    H224540   1.465   4.758   4.364 -0.1185 -0.4808 -0.2979
 8203TIP3   OH224541   1.640   5.861   6.130  0.2116  0.0991 -0.2483
 8203TIP3    H124542   1.689   5.906   6.061  0.2692  1.4238  0.6404
 8203TIP3    H224543   1.638   5.923   6.202  0.3640 -1.3873  1.0499
 8204TIP3   OH224544   4.180   0.282   5.201 -0.1345 -0.2123 -0.0304
 8204TIP3    H124545   4.246   0.267   5.269 -1.1714 -1.3508  0.7391
 8204TIP3    H224546   4.231   0.290   5.120  0.8443 -3.3269  0.1970
 8205TIP3   OH224547   3.366   0.792   4.559  0.3127 -0.4582 -0.0621
 8205TIP3    H124548   3.332   0.711   4.522  2.3013 -2.8053  3.0089
 8205TIP3    H224549   3.294   0.827   4.611  0.1692 -1.4402  0.3975
 8206TIP3   OH224550   0.465   7.256   2.018  0.0979 -0.0451  0.1606
 8206TIP3    H124551   0.536   7.194   2.035  0.9991  0.7949 -0.4896
 8206TIP3    H224552   0.385   7.204   2.024  0.7671 -0.9706  1.0219
 8207TIP3   OH224553   2.678   6.716   4.372  0.8096  0.0696 -0.2336
 8207TIP3    H124554   2.654   6.629   4.340  1.1776 -0.0098 -0.2892
 8207TIP3    H224555   2.770   6.709   4.396  0.6064  0.1953  0.6046
 8208TIP3   OH224556   5.835   1.310   2.909 -0.9556  0.4953  0.0768
 8208TIP3    H124557   5.909   1.368   2.890 -1.1413  1.5256  2.3172
 8208TIP3    H224558   5.843   1.239   2.845  1.3067  1.1874 -0.4575
 8209TIP3   OH224559   2.168   5.640   5.970 -0.0437  0.3312 -0.1847
 8209TIP3    H124560   2.151   5.668   5.880 -0.6258 -0.2639 -0.2631
 8209TIP3    H224561   2.121   5.557   5.978 -0.6725  0.7861  0.9216
 8210TIP3   OH224562   2.830   7.831   6.392 -0.0192  0.0376 -0.0910
 8210TIP3    H124563   2.747   7.803   6.431 -0.8351 -0.4583 -2.1278
 8210TIP3    H224564   2.883   7.751   6.391 -0.2150 -0.0888 -0.5247
 8211TIP3   OH224565   3.620   5.380   5.352  0.1094 -0.4147 -0.7396
 8211TIP3    H124566   3.688   5.335   5.302  0.7476  0.7652 -0.9764
 8211TIP3    H224567   3.610   5.329   5.432  2.2660  0.1295 -0.0907
 8212TIP3   OH224568   3.068   6.663   5.001 -0.9127  0.2224  0.2967
 8212TIP3    H124569   3.096   6.743   5.043 -0.4284 -0.4664  1.2954
 8212TIP3    H224570   2.972   6.667   5.002 -0.8892  0.8076  0.2756
 8213TIP3   OH224571   2.792   5.137   3.947  0.1163  0.2608 -0.5073
 8213TIP3    H124572   2.721   5.179   3.996  0.2637  1.3173 -1.1863
 8213TIP3    H224573   2.785   5.044   3.971  0.2148  0.7458  1.5606
 8214TIP3   OH224574   3.106   4.958   6.726  0.2528  0.0665 -0.1904
 8214TIP3    H124575   3.165   5.026   6.695 -0.4105  1.2156  1.0452
 8214TIP3    H224576   3.019   4.991   6.707 -0.0858 -0.2670  0.7822
 8215TIP3   OH224577   2.628   0.040   3.341  0.3603  0.1735 -0.4030
 8215TIP3    H124578   2.655   0.122   3.300  0.5134  0.4541  0.2364
 8215TIP3    H224579   2.620  -0.022   3.269  2.0520  0.2721 -0.7133
 8216TIP3   OH224580   2.021   5.409   4.236  0.2171 -0.4977 -0.2534
 8216TIP3    H124581   1.958   5.419   4.308  1.0248 -0.1768  0.4233
 8216TIP3    H224582   2.046   5.499   4.214  0.0374 -0.6012 -0.8854
 8217TIP3   OH224583   3.273   3.977   5.254  0.0165  0.0812  0.0933
 8217TIP3    H124584   3.209   4.045   5.235 -0.2034 -0.0653  0.2993
 8217TIP3    H224585   3.282   3.979   5.349  0.2288  0.0204  0.0743
 8218TIP3   OH224586   2.184   5.733   4.460  0.0846  0.8836  0.3610
 8218TIP3    H124587   2.129   5.702   4.388  1.6024 -1.1928  0.0571
 8218TIP3    H224588   2.129   5.720   4.538 -0.0277 -0.8480  0.0257
 8219TIP3   OH224589   1.735   7.125   2.425 -0.3164  0.4325  0.4847
 8219TIP3    H124590   1.750   7.037   2.460  2.4896  1.1745  1.2783
 8219TIP3    H224591   1.783   7.126   2.342 -0.3895  1.1753  0.4483
 8220TIP3   OH224592   2.267   5.216   4.191 -0.4116 -0.2913  0.2717
 8220TIP3    H124593   2.300   5.201   4.103 -0.2534 -0.4875  0.3641
 8220TIP3    H224594   2.193   5.276   4.179  0.5567  0.9084  0.1583
 8221TIP3   OH224595   2.650   5.806   5.012  0.1590  0.2209  0.2354
 8221TIP3    H124596   2.735   5.762   5.017  0.4427  0.6858 -0.4110
 8221TIP3    H224597   2.605   5.764   4.939  0.3511  0.8385 -0.2539
 8222TIP3   OH224598   1.997   4.610   5.381 -0.7662 -0.0670  0.5064
 8222TIP3    H124599   2.063   4.560   5.334 -1.9366 -1.6879  0.5414
 8222TIP3    H224600   2.035   4.626   5.467  0.1031  0.1610  0.0812
 8223TIP3   OH224601   5.576   1.351   2.892  0.2088 -0.4932  0.5380
 8223TIP3    H124602   5.667   1.324   2.878  0.4167  0.3655  0.2491
 8223TIP3    H224603   5.525   1.273   2.870  0.7583 -0.3863 -1.1501
 8224TIP3   OH224604   1.961   4.319   4.044  0.2176  0.6457  0.5135
 8224TIP3    H124605   1.931   4.262   3.973 -0.3442  0.6475  0.7447
 8224TIP3    H224606   1.926   4.405   4.022  1.1942  0.9388  0.0863
 8225TIP3   OH224607   1.095   3.819   5.589  0.0966 -0.0522  0.1003
 8225TIP3    H124608   1.171   3.858   5.632 -1.2327  1.7406  0.8676
 8225TIP3    H224609   1.027   3.818   5.657 -0.5407 -1.7497 -0.5329
 8226TIP3   OH224610   2.623   6.841   5.853  0.1322 -0.5562 -0.2509
 8226TIP3    H124611   2.558   6.878   5.793  0.3080 -0.5523 -0.4412
 8226TIP3    H224612   2.642   6.911   5.915  0.1290 -0.4792 -0.3372
 8227TIP3   OH224613   2.965   5.312   6.623  0.0995 -0.3118  0.1219
 8227TIP3    H124614   2.925   5.382   6.573 -0.4872 -0.5065  0.3135
 8227TIP3    H224615   3.019   5.356   6.689 -1.2859 -0.0236  1.0722
 8228TIP3   OH224616   1.598   4.622   4.741  0.7650  0.1350 -0.3876
 8228TIP3    H124617   1.594   4.582   4.654  0.1804 -0.7830  0.0554
 8228TIP3    H224618   1.614   4.715   4.724 -1.0281  0.2419 -1.5334
 8229TIP3   OH224619   3.368   6.275   4.927 -0.6092 -0.5029 -0.2043
 8229TIP3    H124620   3.299   6.331   4.890  0.5377  2.2241  1.6604
 8229TIP3    H224621   3.323   6.223   4.993 -0.6628  2.4701  2.1984
 8230TIP3   OH224622   3.571   4.493   4.612  0.0885  0.2354 -0.2944
 8230TIP3    H124623   3.571   4.559   4.543  0.5665  0.6657  0.1150
 8230TIP3    H224624   3.516   4.530   4.681 -1.0343 -0.5346 -0.7562
 8231TIP3   OH224625   0.732   6.079   6.260 -0.7246 -0.0890 -0.0426
 8231TIP3    H124626   0.823   6.102   6.281 -0.7755 -0.8130  1.0053
 8231TIP3    H224627   0.708   6.138   6.189  0.7936 -0.3351 -0.7857
 8232TIP3   OH224628   5.787   0.907   6.042  0.0918  0.1106  0.3669
 8232TIP3    H124629   5.838   0.851   6.100  1.1464 -1.2353 -1.7506
 8232TIP3    H224630   5.719   0.849   6.007  0.6983  0.3185 -1.2363
 8233TIP3   OH224631   2.115   5.674   4.189  0.5019  0.5059 -0.0894
 8233TIP3    H124632   2.176   5.662   4.117  0.1127 -1.3620 -0.1213
 8233TIP3    H224633   2.074   5.759   4.171  1.3965  0.6927 -1.3130
 8234TIP3   OH224634   3.082   4.723   5.224 -0.1141 -0.5123 -0.0957
 8234TIP3    H124635   2.993   4.733   5.191 -1.0590  1.7474  2.9087
 8234TIP3    H224636   3.134   4.784   5.172 -0.8548  0.1872 -0.0231
 8235TIP3   OH224637   3.341   7.742   5.177 -0.4468  0.5237  0.2011
 8235TIP3    H124638   3.358   7.836   5.173  0.8794  0.2596 -0.5996
 8235TIP3    H224639   3.311   7.728   5.267  1.9533  1.3069  1.1734
 8236TIP3   OH224640   1.797   6.202   4.943 -0.7864  0.4696 -0.3636
 8236TIP3    H124641   1.882   6.217   4.903 -1.4620  0.6731 -1.7568
 8236TIP3    H224642   1.792   6.107   4.954 -0.2414  0.4865  0.0456
 8237TIP3   OH224643   2.380   6.003   3.663  0.1236  0.2424  0.5007
 8237TIP3    H124644   2.292   6.012   3.626  0.1099 -0.7152  0.2759
 8237TIP3    H224645   2.427   6.080   3.631 -0.2839  0.1362 -0.3878
 8238TIP3   OH224646   3.789   6.419   5.177  0.1255 -0.0724 -0.2411
 8238TIP3    H124647   3.873   6.453   5.211 -0.1384  0.7256 -0.3871
 8238TIP3    H224648   3.737   6.497   5.159 -1.6284 -0.5954  2.2982
 8239TIP3   OH224649   3.437   5.571   4.425  0.2445  0.1706 -0.4589
 8239TIP3    H124650   3.347   5.569   4.394  0.5175  1.1386 -1.3210
 8239TIP3    H224651   3.470   5.482   4.410 -1.0949 -0.7063  1.5253
 8240TIP3   OH224652   2.152   7.213   5.607 -0.4031 -0.1532 -0.5028
 8240TIP3    H124653   2.237   7.229   5.647 -0.7556  2.0516 -0.5467
 8240TIP3    H224654   2.113   7.300   5.598 -2.4911 -1.0867 -0.8553
 8241TIP3   OH224655   2.137   5.886   3.013  0.1454 -0.4601  0.5271
 8241TIP3    H124656   2.145   5.863   2.921 -0.3337  0.2890  0.2942
 8241TIP3    H224657   2.070   5.954   3.015  0.1270 -0.4993  1.4313
 8242TIP3   OH224658   1.081   5.182   4.880  0.5423 -0.2442 -0.3514
 8242TIP3    H124659   1.066   5.269   4.916  2.9534  0.0621  0.0326
 8242TIP3    H224660   0.995   5.151   4.853 -1.0773  0.2757  3.9031
 8243TIP3   OH224661   2.198   4.444   5.242  0.2118  0.3961  0.0227
 8243TIP3    H124662   2.159   4.414   5.160  1.0392  1.7664 -0.8737
 8243TIP3    H224663   2.247   4.368   5.274 -2.1156 -0.9604  0.5303
 8244TIP3   OH224664   2.125   4.943   6.340 -0.7121 -0.2372 -0.4189
 8244TIP3    H124665   2.213   4.980   6.335 -0.5287 -0.8735 -1.9471
 8244TIP3    H224666   2.099   4.955   6.432  1.9438 -2.3142  0.6606
 8245TIP3   OH224667   3.830   7.394   5.538  0.0065  0.2492 -0.2064
 8245TIP3    H124668   3.754   7.387   5.595  0.9390 -0.3120  0.9958
 8245TIP3    H224669   3.815   7.474   5.487  0.0045  1.7276  2.0686
 8246TIP3   OH224670   3.844   6.416   4.910 -0.3516 -0.0597 -0.3778
 8246TIP3    H124671   3.782   6.343   4.911 -2.3219  1.5599 -1.9235
 8246TIP3    H224672   3.840   6.451   4.999 -1.7898  0.1189 -0.4966
 8247TIP3   OH224673   1.286   7.599   4.277  0.2077  0.1639  0.5243
 8247TIP3    H124674   1.263   7.543   4.351 -0.5803  0.9483  0.8814
 8247TIP3    H224675   1.207   7.651   4.261  1.4678  2.3720  1.2780
 8248TIP3   OH224676   4.215   4.715   5.810  0.5818  0.1632 -0.6666
 8248TIP3    H124677   4.238   4.707   5.902  0.2211  1.5286 -0.4399
 8248TIP3    H224678   4.259   4.642   5.767 -0.0513 -1.0520  0.7299
 8249TIP3   OH224679   0.806   7.707   2.642  0.1223 -0.5463  0.7938
 8249TIP3    H124680   0.880   7.717   2.703  0.5450  3.9313 -0.2461
 8249TIP3    H224681   0.734   7.676   2.697  1.5506 -0.4472  2.8061
 8250TIP3   OH224682   2.594   6.097   5.273  0.1101 -0.4283 -1.1941
 8250TIP3    H124683   2.531   6.027   5.289 -0.5742 -0.3665 -3.4515
 8250TIP3    H224684   2.541   6.176   5.266  1.0551  0.7709  3.5664
 8251TIP3   OH224685   2.337   6.205   4.853  0.6191  0.5858  0.7688
 8251TIP3    H124686   2.425   6.241   4.861  0.6085  0.6388  0.6440
 8251TIP3    H224687   2.345   6.135   4.788  0.3821  1.1969  0.0659
 8252TIP3   OH224688   1.717   4.900   3.715 -0.2051  0.2678 -0.0220
 8252TIP3    H124689   1.780   4.963   3.750  0.7459 -1.8029  2.1243
 8252TIP3    H224690   1.770   4.841   3.661 -0.8155  0.2884 -0.6521
 8253TIP3   OH224691   1.442   5.670   4.395 -0.2480  0.1542  0.2209
 8253TIP3    H124692   1.533   5.644   4.390 -1.0352 -2.5469 -0.5001
 8253TIP3    H224693   1.422   5.669   4.489  0.6802  1.6804  0.4597
 8254TIP3   OH224694   2.968   7.208   5.502 -0.2909 -0.6782 -0.5171
 8254TIP3    H124695   2.883   7.184   5.465 -0.0480 -2.1082 -0.1868
 8254TIP3    H224696   2.972   7.162   5.585  0.0932  0.7736  0.2776
 8255TIP3   OH224697   2.150   6.590   5.983  0.3973 -0.8044  0.1087
 8255TIP3    H124698   2.079   6.526   5.992  0.2803 -0.8197 -0.9045
 8255TIP3    H224699   2.208   6.553   5.917 -0.4069  0.7851 -1.5405
 8256TIP3   OH224700   2.760   6.207   4.375 -0.4662 -0.3766 -0.0910
 8256TIP3    H124701   2.685   6.149   4.393 -0.7638 -0.5221 -1.6638
 8256TIP3    H224702   2.836   6.158   4.407 -0.9470 -0.6827  0.5927
 8257TIP3   OH224703   1.869   6.127   4.356 -0.4574  0.1301 -0.0977
 8257TIP3    H124704   1.777   6.127   4.383 -0.8248  2.0895 -1.2599
 8257TIP3    H224705   1.870   6.080   4.273 -0.0842 -1.6031  0.8661
 8258TIP3   OH224706   3.264   4.291   4.884 -0.7755 -0.0135  0.1838
 8258TIP3    H124707   3.277   4.360   4.819 -0.5263  0.7515  1.0419
 8258TIP3    H224708   3.254   4.337   4.967  3.1610 -1.0993  1.3960
 8259TIP3   OH224709   6.675   0.023   3.940 -0.1207  0.3449  0.0179
 8259TIP3    H124710   6.731  -0.045   3.976 -0.3728  0.8533  1.4103
 8259TIP3    H224711   6.728   0.103   3.945 -0.0015  0.3562 -1.1571
 8260TIP3   OH224712   0.850   4.322   4.720 -0.5927  0.2335 -0.3088
 8260TIP3    H124713   0.832   4.228   4.718 -2.4571  0.5070  2.0347
 8260TIP3    H224714   0.941   4.328   4.748 -0.8786 -0.8529  0.8929
 8261TIP3   OH224715   1.156   5.852   4.583  0.2203 -0.1464  0.6636
 8261TIP3    H124716   1.226   5.804   4.627 -0.1905 -1.5492 -0.1498
 8261TIP3    H224717   1.076   5.807   4.609  0.1513 -2.8072 -3.5577
 8262TIP3   OH224718   3.327   0.796   5.580 -0.5424  0.4655  0.0553
 8262TIP3    H124719   3.357   0.745   5.505 -1.4539 -1.6208  1.0754
 8262TIP3    H224720   3.231   0.790   5.576 -0.5835 -0.1232  1.6948
 8263TIP3   OH224721   2.407   6.078   3.961  0.8459 -0.5854  0.7868
 8263TIP3    H124722   2.437   6.168   3.944  2.3336 -1.1186  0.4570
 8263TIP3    H224723   2.417   6.033   3.877  1.1141 -1.3249  1.2064
 8264TIP3   OH224724   2.887   7.632   2.529  0.0566 -0.3778 -0.2004
 8264TIP3    H124725   2.806   7.674   2.560  0.1727 -0.9616  0.9321
 8264TIP3    H224726   2.931   7.604   2.609  2.5115  1.9497 -0.6662
 8265TIP3   OH224727   0.906   6.054   3.879  0.2444 -0.0363  0.4662
 8265TIP3    H124728   0.923   5.960   3.890  2.3721  0.5797  2.9166
 8265TIP3    H224729   0.811   6.062   3.891 -0.0166 -1.9104 -0.0871
 8266TIP3   OH224730   2.750   4.814   6.635  1.0900 -0.3628  1.1274
 8266TIP3    H124731   2.765   4.747   6.702  0.6402 -0.2768  1.3131
 8266TIP3    H224732   2.801   4.889   6.665  0.4412 -0.1314  1.6697
 8267TIP3   OH224733   2.699   4.924   3.071 -0.7441 -0.0982  0.4755
 8267TIP3    H124734   2.700   5.017   3.095  0.3009 -0.4211  1.7604
 8267TIP3    H224735   2.774   4.914   3.012 -1.6853  0.1436 -0.7779
 8268TIP3   OH224736   3.150   5.025   4.072  0.0613 -0.3704  0.6228
 8268TIP3    H124737   3.140   4.940   4.114 -2.3926 -0.5359 -0.2271
 8268TIP3    H224738   3.173   5.006   3.981 -1.6619 -0.1804  0.1281
 8269TIP3   OH224739   1.667   3.269   1.527 -0.0469  0.2559  0.0434
 8269TIP3    H124740   1.642   3.178   1.507 -2.4474  0.7118  0.8195
 8269TIP3    H224741   1.680   3.309   1.441  0.5648 -0.6827 -0.3199
 8270TIP3   OH224742   2.749   6.675   3.531 -0.2573 -0.0143  0.3855
 8270TIP3    H124743   2.726   6.757   3.574  1.7432 -0.0849  1.6058
 8270TIP3    H224744   2.714   6.685   3.442  0.8825  2.5829  0.1979
 8271TIP3   OH224745   1.971   4.234   4.356 -0.2078 -0.2428 -0.1615
 8271TIP3    H124746   2.037   4.174   4.321  0.7668  0.1404  0.9881
 8271TIP3    H224747   1.970   4.308   4.295  1.1259  0.1907  0.3208
 8272TIP3   OH224748   1.101   5.383   5.494  0.1141  0.5329  0.2136
 8272TIP3    H124749   1.171   5.377   5.559  0.3406  1.9540  0.1230
 8272TIP3    H224750   1.129   5.325   5.423 -1.0566 -2.5558  2.1757
 8273TIP3   OH224751   1.101   5.257   4.029  0.1154  0.2297  0.1524
 8273TIP3    H124752   1.149   5.189   3.982  1.2370 -0.8017  2.6969
 8273TIP3    H224753   1.057   5.307   3.960  1.4236 -1.4130 -1.9509
 8274TIP3   OH224754   3.608   2.905   4.031 -0.5730 -0.3072 -0.5038
 8274TIP3    H124755   3.599   2.811   4.046  0.4422 -0.2104  0.8187
 8274TIP3    H224756   3.604   2.914   3.936  0.1885 -1.7872 -0.7042
 8275TIP3   OH224757   3.475   5.569   4.103  0.0898 -0.2031 -0.7295
 8275TIP3    H124758   3.485   5.663   4.121  0.7518 -0.7233  1.9261
 8275TIP3    H224759   3.400   5.543   4.156  1.5757 -1.6782  0.7242
 8276TIP3   OH224760   1.254   4.800   3.132 -0.3559 -0.8286  0.2887
 8276TIP3    H124761   1.281   4.709   3.140  0.5621 -0.5548  0.3232
 8276TIP3    H224762   1.274   4.839   3.217 -2.3121 -0.9858  0.8609
 8277TIP3   OH224763   8.041   5.043   4.996 -0.6153 -0.4554  0.4314
 8277TIP3    H124764   8.125   5.085   5.010 -0.6191 -0.1199 -0.5223
 8277TIP3    H224765   7.978   5.100   5.040 -0.7817  1.2589 -1.9236
 8278TIP3   OH224766   2.814   5.732   5.404  0.1729 -0.1989 -0.3254
 8278TIP3    H124767   2.742   5.783   5.368  0.3237  0.4761  0.3303
 8278TIP3    H224768   2.785   5.641   5.397 -0.5216  0.0368 -0.5351
 8279TIP3   OH224769   1.261   4.422   4.502 -0.6080  0.0505 -0.3262
 8279TIP3    H124770   1.348   4.456   4.522 -0.1294 -1.6487  0.6867
 8279TIP3    H224771   1.258   4.338   4.548 -2.7442  0.0346 -0.4519
 8280TIP3   OH224772   1.426   5.669   4.116  0.1436  1.0197 -0.3921
 8280TIP3    H124773   1.398   5.664   4.207  1.1881  2.4728  0.0311
 8280TIP3    H224774   1.410   5.581   4.081  0.2580  0.2828  1.3497
 8281TIP3   OH224775   6.974   3.539   0.084 -0.1937  0.2376  0.8502
 8281TIP3    H124776   6.904   3.581   0.134  0.3498  1.9358  0.2041
 8281TIP3    H224777   7.047   3.599   0.090  0.1805  0.0299 -1.2231
 8282TIP3   OH224778   3.069   6.180   5.903  0.3813 -0.4194 -0.1644
 8282TIP3    H124779   3.140   6.239   5.928  0.4766 -0.6780  0.1768
 8282TIP3    H224780   3.089   6.098   5.949 -0.9852 -0.0038  1.1755
 8283TIP3   OH224781   2.597   4.959   2.725  0.0935 -0.2866 -0.2995
 8283TIP3    H124782   2.670   4.965   2.663 -0.1480 -0.8765 -0.6383
 8283TIP3    H224783   2.547   4.883   2.697  0.3775 -0.9814  1.0473
 8284TIP3   OH224784   0.427   5.042   0.299  0.2082  0.1621  0.4508
 8284TIP3    H124785   0.435   4.958   0.254 -1.9632 -0.3166  0.9081
 8284TIP3    H224786   0.415   5.019   0.391  0.0270  0.9865  0.6359
 8285TIP3   OH224787   1.854   7.088   2.932 -0.4009 -0.2117 -0.0283
 8285TIP3    H124788   1.936   7.064   2.888 -0.2894 -1.7414  0.9717
 8285TIP3    H224789   1.785   7.059   2.871 -0.2192 -0.0722 -0.3029
 8286TIP3   OH224790   2.320   6.786   5.674 -0.1812  0.2383  0.6356
 8286TIP3    H124791   2.269   6.793   5.594 -0.8688 -0.6509  0.9799
 8286TIP3    H224792   2.271   6.838   5.738 -1.8088 -2.2395  1.5024
 8287TIP3   OH224793   1.108   5.362   4.502  0.1150 -0.1320 -0.3421
 8287TIP3    H124794   1.100   5.354   4.597 -2.0401 -1.7891 -0.6416
 8287TIP3    H224795   1.150   5.280   4.475  3.4834  1.5846 -0.5518
 8288TIP3   OH224796   3.642   6.323   5.437  0.0552 -0.6503  0.0822
 8288TIP3    H124797   3.706   6.338   5.368  1.4809 -1.4878  1.1905
 8288TIP3    H224798   3.659   6.234   5.468 -1.7955 -0.9727  0.2516
 8289TIP3   OH224799   3.262   6.746   4.856  0.2879 -0.4705 -0.1617
 8289TIP3    H124800   3.227   6.668   4.898 -0.2496  0.3464  0.9125
 8289TIP3    H224801   3.357   6.732   4.855  0.2954 -0.5324  1.2322
 8290TIP3   OH224802   0.710   4.592   3.749 -0.3496 -0.2426 -0.2483
 8290TIP3    H124803   0.636   4.569   3.806  1.6981 -1.1230  2.1585
 8290TIP3    H224804   0.762   4.654   3.801  1.7823 -1.3766 -0.9753
 8291TIP3   OH224805   2.000   4.867   5.755  0.2536  0.3052 -0.3979
 8291TIP3    H124806   1.969   4.944   5.802 -2.0919 -1.4942  1.1509
 8291TIP3    H224807   1.993   4.796   5.819 -0.6609 -1.7584 -2.7007
 8292TIP3   OH224808   1.341   5.981   3.443  0.7949  0.2674 -0.1601
 8292TIP3    H124809   1.389   6.051   3.488 -0.4325  0.5810  0.6970
 8292TIP3    H224810   1.324   6.015   3.356  3.2108 -0.3462 -0.9107
 8293TIP3   OH224811   1.199   4.996   5.603 -0.4770  0.0771  0.0297
 8293TIP3    H124812   1.278   5.049   5.608 -0.4850  0.1413 -0.5831
 8293TIP3    H224813   1.231   4.906   5.597 -0.4551  0.0985 -0.1635
 8294TIP3   OH224814   1.254   4.725   2.594 -0.0787 -0.5636  0.1665
 8294TIP3    H124815   1.184   4.729   2.530 -0.1720 -3.5587  0.0174
 8294TIP3    H224816   1.332   4.704   2.543  0.4856  0.4574  0.6087
 8295TIP3   OH224817   3.337   7.478   5.732 -0.1277 -0.7532  0.1367
 8295TIP3    H124818   3.406   7.492   5.797  0.3100 -0.7810 -0.3189
 8295TIP3    H224819   3.370   7.409   5.676 -0.8391 -1.2747  0.3398
 8296TIP3   OH224820   2.489   5.149   2.891  0.1468  0.1641 -0.4259
 8296TIP3    H124821   2.564   5.187   2.937 -0.5342  3.3052 -1.7633
 8296TIP3    H224822   2.520   5.063   2.862  1.9006 -0.2052  2.3634
 8297TIP3   OH224823   3.170   5.040   6.166 -0.1605 -0.1857 -0.4470
 8297TIP3    H124824   3.140   4.989   6.242  0.8343 -0.3576 -0.1625
 8297TIP3    H224825   3.235   4.984   6.124 -0.4224  0.0755 -1.2124
 8298TIP3   OH224826   2.709   6.919   3.685  0.3728 -0.1226 -0.1069
 8298TIP3    H124827   2.622   6.961   3.688 -0.3150 -1.3249 -2.0885
 8298TIP3    H224828   2.759   6.973   3.624  1.3852  1.1820  1.8412
 8299TIP3   OH224829   2.968   4.644   6.458  0.0695 -0.4371 -0.2467
 8299TIP3    H124830   2.877   4.667   6.475  0.2896  0.2496  0.0069
 8299TIP3    H224831   2.988   4.578   6.525  0.2316  0.5680  0.7047
 8300TIP3   OH224832   6.292   5.639   4.062  0.4777 -0.6119 -0.0499
 8300TIP3    H124833   6.229   5.567   4.070  2.7205 -2.6544 -0.4527
 8300TIP3    H224834   6.246   5.705   4.010 -0.7471 -2.7670 -1.7972
 8301TIP3   OH224835   4.318   4.909   6.300 -0.6961  0.3244 -0.5503
 8301TIP3    H124836   4.344   4.833   6.352 -2.6936  0.5888  0.8753
 8301TIP3    H224837   4.328   4.984   6.360 -0.2561  1.0006 -1.4510
 8302TIP3   OH224838   2.460   4.820   4.928 -0.2046 -0.2350  0.4116
 8302TIP3    H124839   2.366   4.834   4.945 -0.7592 -0.1976 -2.4070
 8302TIP3    H224840   2.472   4.726   4.939 -1.4646 -0.8702 -2.8491
 8303TIP3   OH224841   2.648   4.312   5.510 -0.0598 -0.1151 -0.8189
 8303TIP3    H124842   2.647   4.217   5.505 -0.5463 -0.1185 -0.6926
 8303TIP3    H224843   2.557   4.336   5.530  0.0896  0.3653 -0.7064
 8304TIP3   OH224844   3.336   5.122   4.504 -0.1091 -0.3544 -0.2121
 8304TIP3    H124845   3.342   5.176   4.425  2.2356 -2.0631 -1.2394
 8304TIP3    H224846   3.284   5.047   4.478 -0.8712 -0.0487  0.4019
 8305TIP3   OH224847   3.825   5.521   5.846  0.3029 -0.5798 -0.1134
 8305TIP3    H124848   3.835   5.615   5.831  2.4355 -0.8012 -0.2127
 8305TIP3    H224849   3.730   5.506   5.843 -0.0075  1.4089 -1.0223
 8306TIP3   OH224850   5.143   5.785   5.088 -0.4704 -0.0267 -0.2915
 8306TIP3    H124851   5.111   5.709   5.039  0.1526  0.8503 -2.0938
 8306TIP3    H224852   5.209   5.825   5.032 -0.1357  1.3417  1.0196
 8307TIP3   OH224853   0.332   3.142   0.383 -0.2872 -0.2904 -0.4854
 8307TIP3    H124854   0.316   3.082   0.310  0.8637  0.0807 -1.0521
 8307TIP3    H224855   0.247   3.185   0.397 -0.6731 -0.7909 -1.2201
 8308TIP3   OH224856   2.389   4.450   6.043 -0.2286 -0.6670 -0.8666
 8308TIP3    H124857   2.340   4.379   6.001  1.4382 -0.3687 -3.3927
 8308TIP3    H224858   2.321   4.507   6.079 -1.6589 -1.7761 -1.7369
 8309TIP3   OH224859   0.825   2.701   1.846  0.1340  0.3985 -0.1514
 8309TIP3    H124860   0.843   2.634   1.780 -0.5300  0.8153 -0.7547
 8309TIP3    H224861   0.758   2.662   1.902  1.6403 -0.4725  1.0676
 8310TIP3   OH224862   0.805   5.504   5.006  0.2614  0.0317  0.1161
 8310TIP3    H124863   0.780   5.576   5.063 -1.5462  0.1534 -0.7851
 8310TIP3    H224864   0.743   5.434   5.028  1.0634 -0.7258 -0.0406
 8311TIP3   OH224865   8.426   7.512   2.866  0.0282 -0.4185  0.1122
 8311TIP3    H124866   8.457   7.590   2.820 -1.1676 -0.7543 -1.2906
 8311TIP3    H224867   8.438   7.440   2.804 -0.2559 -1.1227  0.8585
 8312TIP3   OH224868   2.110   5.283   6.027  0.3766 -0.4987 -0.7937
 8312TIP3    H124869   2.180   5.267   6.090 -0.0670 -1.8953 -0.6411
 8312TIP3    H224870   2.052   5.345   6.071  0.3897 -0.9936 -0.0691
 8313TIP3   OH224871   3.134   6.448   5.250  0.0257  0.3376  0.3102
 8313TIP3    H124872   3.069   6.394   5.297  1.8170 -1.4968  0.7524
 8313TIP3    H224873   3.112   6.435   5.157 -2.2435  2.3399  0.5187
 8314TIP3   OH224874   3.943   6.230   5.656  0.0142 -0.0364  0.3198
 8314TIP3    H124875   4.015   6.176   5.689  1.4890  1.7350  0.0737
 8314TIP3    H224876   3.899   6.175   5.591  1.6899 -0.8292 -0.1644
 8315TIP3   OH224877   4.287   7.478   3.499 -0.3425 -0.5302  0.5564
 8315TIP3    H124878   4.238   7.498   3.419  0.1930  4.4631  1.3468
 8315TIP3    H224879   4.369   7.440   3.467 -0.6477  0.2871 -1.2536
 8316TIP3   OH224880   7.523   7.263   4.271 -0.3737  0.6481  0.4250
 8316TIP3    H124881   7.529   7.352   4.237  1.5162  0.0606 -0.9015
 8316TIP3    H224882   7.603   7.251   4.322  0.8509 -1.2054 -1.8162
 8317TIP3   OH224883   1.900   6.339   4.176 -0.2155  0.2292 -0.5451
 8317TIP3    H124884   1.923   6.290   4.097 -1.2856  0.0384 -0.7513
 8317TIP3    H224885   1.902   6.275   4.246 -1.5157 -0.1090 -0.7982
 8318TIP3   OH224886   2.132   4.979   3.575  0.4314 -0.0321 -0.0624
 8318TIP3    H124887   2.154   4.888   3.555 -0.5696 -0.0940 -0.9369
 8318TIP3    H224888   2.177   5.030   3.507  0.4694  0.0777  0.0449
 8319TIP3   OH224889   3.964   5.575   6.434  0.5037  0.4633 -0.2612
 8319TIP3    H124890   3.956   5.556   6.341 -0.1995  0.9113 -0.2999
 8319TIP3    H224891   4.050   5.541   6.458 -0.1404 -1.5368 -0.6164
 8320TIP3   OH224892   3.552   6.631   4.836  0.8854  0.2043  0.4199
 8320TIP3    H124893   3.592   6.655   4.752 -2.0536  1.5375 -0.6757
 8320TIP3    H224894   3.487   6.564   4.813 -1.5872  2.2324  1.1997
 8321TIP3   OH224895   2.092   6.762   1.797  0.3894  0.2114 -0.0990
 8321TIP3    H124896   2.006   6.802   1.784  0.2523 -0.6693 -2.0374
 8321TIP3    H224897   2.072   6.673   1.826  0.6926  1.4385  4.2077
 8322TIP3   OH224898   1.808   4.364   3.367  0.7171 -0.0649  0.0299
 8322TIP3    H124899   1.847   4.404   3.290  0.6686  1.2551  0.6649
 8322TIP3    H224900   1.878   4.311   3.405  0.6890 -0.8588 -1.0026
 8323TIP3   OH224901   1.637   4.977   3.464 -0.2223 -0.0023  0.5213
 8323TIP3    H124902   1.566   5.039   3.484  0.8371  1.5306 -0.3894
 8323TIP3    H224903   1.703   4.993   3.532  0.5475  0.6863 -0.3725
 8324TIP3   OH224904   4.249   7.106   4.262  0.9045  0.2697  0.3639
 8324TIP3    H124905   4.253   7.087   4.169 -0.5297 -0.8387  0.5034
 8324TIP3    H224906   4.158   7.091   4.286  1.1638  0.9389  1.8664
 8325TIP3   OH224907   3.799   6.437   6.409  0.6513 -0.2924  0.0003
 8325TIP3    H124908   3.870   6.374   6.422  1.9365  0.6498 -2.1933
 8325TIP3    H224909   3.727   6.385   6.375  1.2612 -0.8047 -0.5338
 8326TIP3   OH224910   8.062   1.708   6.394 -0.0532  0.4967  0.2798
 8326TIP3    H124911   8.127   1.777   6.381 -0.5391  0.6715 -1.3770
 8326TIP3    H224912   8.103   1.630   6.357 -0.1561  0.2584  0.6721
 8327TIP3   OH224913   3.319   5.627   5.960  0.2421  0.0435  0.1182
 8327TIP3    H124914   3.271   5.545   5.975  0.2213  0.0999  0.3486
 8327TIP3    H224915   3.267   5.673   5.894 -2.1718  1.9004  3.1928
 8328TIP3   OH224916   3.376   4.521   3.695  0.0293 -0.1555 -0.5349
 8328TIP3    H124917   3.311   4.484   3.755  1.8254 -1.7868  0.4765
 8328TIP3    H224918   3.336   4.601   3.662 -1.5024  0.1385  1.9199
 8329TIP3   OH224919   1.906   5.423   3.366  0.2076  0.2744  0.3769
 8329TIP3    H124920   1.853   5.356   3.323  1.2272 -1.0162  1.0960
 8329TIP3    H224921   1.845   5.468   3.425 -0.5385  0.1392 -0.2858
 8330TIP3   OH224922   5.173   1.359   1.087  0.0124 -0.1705  0.1395
 8330TIP3    H124923   5.262   1.396   1.089 -0.7536  1.7898 -0.9406
 8330TIP3    H224924   5.186   1.265   1.101  2.4180 -0.1840 -1.8344
 8331TIP3   OH224925   3.902   6.749   3.812  0.1886  0.4710  0.3907
 8331TIP3    H124926   3.879   6.735   3.720  1.8217  1.0466 -0.1195
 8331TIP3    H224927   3.846   6.688   3.861  0.9616 -1.5143 -1.1478
 8332TIP3   OH224928   4.015   3.798   2.319  0.5285  0.1516 -0.4750
 8332TIP3    H124929   4.013   3.706   2.343 -1.3447 -0.4882 -2.8918
 8332TIP3    H224930   3.943   3.838   2.368 -0.4342 -0.2627 -1.5182
 8333TIP3   OH224931   2.891   4.561   4.986 -0.1192 -0.3407  0.3835
 8333TIP3    H124932   2.854   4.640   5.024  0.1053 -1.0057  2.0372
 8333TIP3    H224933   2.816   4.503   4.971 -0.1905 -0.1386 -0.0323
 8334TIP3   OH224934   3.786   0.073   5.132  0.2129  0.3385  0.0985
 8334TIP3    H124935   3.809   0.155   5.088  0.9134 -1.6698 -3.4592
 8334TIP3    H224936   3.844   0.008   5.093 -1.6710 -2.2119  1.4035
 8335TIP3   OH224937   1.485   7.883   6.297 -0.3086  0.3227  0.0245
 8335TIP3    H124938   1.397   7.849   6.312 -0.5448  1.0389  0.2855
 8335TIP3    H224939   1.538   7.843   6.366 -0.0483 -1.4911 -1.1705
 8336TIP3   OH224940   3.093   4.917   3.834  0.2721 -0.3212  0.2684
 8336TIP3    H124941   3.138   4.834   3.852  0.6167 -0.3652 -0.7401
 8336TIP3    H224942   3.001   4.894   3.827  0.3773 -0.6436 -0.0904
 8337TIP3   OH224943   0.778   3.928   2.289 -0.2593 -0.0545  0.0052
 8337TIP3    H124944   0.811   3.947   2.377  0.8330 -1.9825  0.0620
 8337TIP3    H224945   0.825   3.989   2.232  2.2944 -1.6275  0.2979
 8338TIP3   OH224946   2.215   7.507   4.843  0.4392  0.2539 -0.6728
 8338TIP3    H124947   2.187   7.521   4.933  0.2945 -0.6089 -0.5763
 8338TIP3    H224948   2.147   7.452   4.805  1.6951 -1.4136 -0.5955
 8339TIP3   OH224949   2.010   6.845   5.970  1.0351  0.5477  0.2384
 8339TIP3    H124950   2.038   6.882   5.887 -0.0907  0.6392 -0.1160
 8339TIP3    H224951   2.070   6.772   5.987  0.4737 -0.2805 -1.2885
 8340TIP3   OH224952   3.181   0.512   4.944  0.6319 -0.1005  0.1233
 8340TIP3    H124953   3.119   0.570   4.899  0.3707 -0.0923  0.4879
 8340TIP3    H224954   3.213   0.453   4.876  0.3768  0.0308 -0.1104
 8341TIP3   OH224955   2.073   6.296   6.133  0.1502  0.7318 -0.4462
 8341TIP3    H124956   2.140   6.296   6.064  1.0431 -1.8003  0.3801
 8341TIP3    H224957   2.053   6.204   6.146 -2.9106  1.4101 -0.0651
 8342TIP3   OH224958   3.595   6.280   4.706  0.0346  0.3738 -0.1561
 8342TIP3    H124959   3.550   6.264   4.789  2.5677  0.5253  1.2868
 8342TIP3    H224960   3.542   6.235   4.641 -1.4731 -0.5612  1.6752
 8343TIP3   OH224961   4.023   6.727   6.602 -0.1434  0.3564  0.1563
 8343TIP3    H124962   3.941   6.706   6.647 -0.1225  0.8148  0.4048
 8343TIP3    H224963   3.996   6.755   6.515 -0.1930 -0.3766 -0.0743
 8344TIP3   OH224964   2.998   5.261   4.619  0.0921  0.4855 -0.4024
 8344TIP3    H124965   2.947   5.185   4.590 -2.0712  1.7326 -0.0306
 8344TIP3    H224966   3.029   5.301   4.537 -0.9522  0.6248 -0.7467
 8345TIP3   OH224967   2.448   6.021   6.024  0.2531  0.0332 -0.0516
 8345TIP3    H124968   2.462   5.959   6.096  0.4718 -0.4181 -0.4740
 8345TIP3    H224969   2.455   5.967   5.945  0.0743  0.5344 -0.4112
 8346TIP3   OH224970   6.745   0.862   5.219  0.1448  0.1278  0.5179
 8346TIP3    H124971   6.703   0.795   5.274  0.0408 -0.4174 -0.2162
 8346TIP3    H224972   6.804   0.812   5.162 -0.6144  0.5581 -0.6658
 8347TIP3   OH224973   3.162   7.689   5.383 -0.1847  0.5114 -0.1252
 8347TIP3    H124974   3.151   7.600   5.415  1.6754  0.2179 -0.2056
 8347TIP3    H224975   3.136   7.744   5.456 -0.6914 -0.1135  0.1672
 8348TIP3   OH224976   3.936   1.110   4.935  0.0058  1.2487 -0.3002
 8348TIP3    H124977   3.900   1.036   4.885 -0.3328  0.3501  1.2415
 8348TIP3    H224978   3.867   1.176   4.934 -0.4590  0.7632 -0.0014
 8349TIP3   OH224979   1.579   6.810   5.495 -0.1221 -0.1356 -0.3214
 8349TIP3    H124980   1.495   6.802   5.451 -0.9227  2.1974  0.6789
 8349TIP3    H224981   1.640   6.762   5.440 -2.0836 -1.7547 -1.1157
 8350TIP3   OH224982   6.445   0.296   4.641  0.4097 -0.3184  0.4011
 8350TIP3    H124983   6.443   0.224   4.704  0.8653  0.5090  1.3774
 8350TIP3    H224984   6.384   0.269   4.572 -2.3389  0.0327  2.6042
 8351TIP3   OH224985   2.838   7.022   4.837  0.3333  0.2725  0.2565
 8351TIP3    H124986   2.748   7.050   4.853 -0.6647 -2.9588  0.5981
 8351TIP3    H224987   2.849   7.028   4.742 -0.3924  0.2275  0.1694
 8352TIP3   OH224988   2.334   6.566   6.651  0.0463  0.4298 -0.2762
 8352TIP3    H124989   2.318   6.495   6.714  0.5667  0.7837  0.2501
 8352TIP3    H224990   2.303   6.530   6.568  0.8110 -0.6258 -0.1160
 8353TIP3   OH224991   2.133   6.000   3.499 -0.6648 -0.0675 -0.2363
 8353TIP3    H124992   2.059   6.054   3.473 -1.2779 -1.3484 -1.1901
 8353TIP3    H224993   2.108   5.911   3.475 -0.0664 -0.9275  2.1635
 8354TIP3   OH224994   2.701   5.316   4.130  0.2659 -0.3848 -0.2069
 8354TIP3    H124995   2.751   5.398   4.118 -0.2601  0.1103  0.9562
 8354TIP3    H224996   2.638   5.336   4.199 -1.3262 -1.1249 -1.4190
 8355TIP3   OH224997   1.386   3.309   4.921 -0.6806  0.6220 -0.2876
 8355TIP3    H124998   1.397   3.281   4.831 -1.0641 -3.8346  0.9350
 8355TIP3    H224999   1.292   3.325   4.929 -1.1185 -1.8804  0.0195
 8356TIP3   OH225000   1.021   3.943   3.989  0.0978 -0.4661  0.4617
 8356TIP3    H125001   0.967   4.010   3.947  0.9861 -0.2883 -0.4257
 8356TIP3    H225002   0.973   3.861   3.976  0.6336 -0.4985 -1.4205
 8357TIP3   OH225003   0.934   4.390   3.018 -0.2872 -0.2133 -0.0899
 8357TIP3    H125004   0.950   4.481   3.044  0.6517 -0.3761 -0.0811
 8357TIP3    H225005   1.000   4.340   3.066 -1.4163 -1.0073  0.6580
 8358TIP3   OH225006   1.916   5.467   6.089 -0.3689  0.3099 -0.3897
 8358TIP3    H125007   1.849   5.510   6.142 -2.1914 -0.9734 -1.5762
 8358TIP3    H225008   1.879   5.466   6.001  2.4055  1.9830 -1.6416
 8359TIP3   OH225009   1.570   4.352   3.874  0.2042 -0.2972 -0.0964
 8359TIP3    H125010   1.480   4.343   3.904 -0.0037  2.5371  0.2493
 8359TIP3    H225011   1.563   4.369   3.780  0.4736 -1.5677 -0.3559
 8360TIP3   OH225012   1.694   6.125   3.237  0.0795 -0.1698 -0.2472
 8360TIP3    H125013   1.664   6.214   3.253 -0.0598 -0.3983  0.8418
 8360TIP3    H225014   1.617   6.078   3.208  0.4211  0.3523 -2.0161
 8361TIP3   OH225015   2.121   2.918   4.771 -0.0248  0.3432 -0.2571
 8361TIP3    H125016   2.063   2.842   4.767  0.9466 -0.3277 -2.6721
 8361TIP3    H225017   2.066   2.990   4.739 -0.7533  0.5507  1.4253
 8362TIP3   OH225018   1.654   5.203   4.303 -0.0456 -0.0992 -0.2107
 8362TIP3    H125019   1.672   5.124   4.252  0.9555 -0.7352  1.1095
 8362TIP3    H225020   1.675   5.275   4.244 -2.6664 -0.7697 -2.0657
 8363TIP3   OH225021   3.065   0.303   2.696 -0.7623  0.3826  0.2042
 8363TIP3    H125022   3.131   0.234   2.695 -1.5044 -0.3361  0.9036
 8363TIP3    H225023   3.110   0.378   2.735 -0.1440  0.1107  0.0181
 8364TIP3   OH225024   1.374   7.192   1.371  0.0461  0.2978  0.2103
 8364TIP3    H125025   1.465   7.168   1.358 -0.3040 -0.0743 -1.8484
 8364TIP3    H225026   1.372   7.288   1.361  0.0729  0.2030 -0.7604
 8365TIP3   OH225027   1.174   1.226   0.747 -0.2677 -0.1120 -0.6150
 8365TIP3    H125028   1.138   1.142   0.719 -0.5408  0.1746 -1.1376
 8365TIP3    H225029   1.121   1.291   0.701 -1.1162  0.3937  1.0252
 8366TIP3   OH225030   3.035   4.838   4.954  0.2390  0.0056  0.9105
 8366TIP3    H125031   3.128   4.824   4.934 -0.1619 -2.0801  0.3751
 8366TIP3    H225032   2.989   4.811   4.874 -0.8645  0.2920  1.4403
 8367TIP3   OH225033   0.032   5.087   3.444  0.2014  0.1326 -0.4449
 8367TIP3    H125034   0.004   5.037   3.521  1.7216 -0.5340 -0.2930
 8367TIP3    H225035  -0.009   5.042   3.370 -1.8549  1.2174  0.0281
 8368TIP3   OH225036   2.938   4.222   5.807  0.0752  0.5571 -0.0686
 8368TIP3    H125037   2.856   4.265   5.829 -0.8988 -1.2195 -0.1268
 8368TIP3    H225038   2.924   4.190   5.717  0.4766 -0.5711  0.2685
 8369TIP3   OH225039   5.030   2.567   5.042 -0.4978  0.6770 -0.3621
 8369TIP3    H125040   5.080   2.570   5.123  0.8010 -0.2175 -1.1084
 8369TIP3    H225041   5.012   2.473   5.029 -1.2226  0.8733 -0.7953
 8370TIP3   OH225042   1.980   6.071   2.823 -0.1613  0.3271  0.1915
 8370TIP3    H125043   1.942   6.079   2.910  1.8391 -0.0452  1.1181
 8370TIP3    H225044   1.951   5.986   2.792 -3.0363  1.5501 -0.5997
 8371TIP3   OH225045   5.066   5.296   5.282  0.7025 -0.2105 -0.5443
 8371TIP3    H125046   5.099   5.327   5.198 -0.2020  0.6851 -0.5789
 8371TIP3    H225047   5.041   5.375   5.330  0.4896 -0.7528  0.2639
 8372TIP3   OH225048   2.934   6.269   3.493 -0.2210  0.2359  0.5850
 8372TIP3    H125049   2.907   6.346   3.542  0.0449  0.2191  0.7569
 8372TIP3    H225050   2.991   6.221   3.553 -0.6128 -0.2378  0.5808
 8373TIP3   OH225051   2.974   3.767   2.591 -0.3306 -0.7635  0.6053
 8373TIP3    H125052   2.907   3.771   2.659  1.2824  0.2790  2.1832
 8373TIP3    H225053   2.939   3.821   2.520 -0.6232  0.8351  1.9254
 8374TIP3   OH225054   4.352   6.914   2.856  0.0863 -0.2438  0.3628
 8374TIP3    H125055   4.301   6.946   2.783 -1.6530 -0.4560  1.4536
 8374TIP3    H225056   4.321   6.964   2.932  3.4641  1.6297  0.6142
 8375TIP3   OH225057   2.069   6.643   2.676 -0.4251 -0.0267  0.4336
 8375TIP3    H125058   2.124   6.684   2.742  0.7898  1.3019 -1.3616
 8375TIP3    H225059   2.081   6.549   2.690  0.1491  0.2417  1.7981
 8376TIP3   OH225060   2.768   5.280   5.026  0.3067 -0.3567 -0.1498
 8376TIP3    H125061   2.785   5.204   5.081  0.3642  0.9947  1.7602
 8376TIP3    H225062   2.851   5.295   4.980  0.6553 -0.7729  0.3282
 8377TIP3   OH225063   5.886   0.273   6.194  0.1529 -0.3740  0.3987
 8377TIP3    H125064   5.924   0.301   6.277  0.6187  0.2173 -0.0091
 8377TIP3    H225065   5.868   0.180   6.205 -0.0994 -0.2224  1.2775
 8378TIP3   OH225066   3.078   6.907   4.760  0.6284  0.4135 -0.2289
 8378TIP3    H125067   3.142   6.852   4.804  2.2218  3.6038  1.6139
 8378TIP3    H225068   2.994   6.880   4.797  1.2794 -1.2681  0.0697
 8379TIP3   OH225069   4.102   5.393   2.899 -0.4530  0.9352 -0.6376
 8379TIP3    H125070   4.016   5.397   2.858 -0.6448 -0.4386 -0.3765
 8379TIP3    H225071   4.122   5.484   2.922 -1.1850  1.4583 -2.0234
 8380TIP3   OH225072   2.784   5.583   2.800 -0.2352  0.1609  0.0965
 8380TIP3    H125073   2.781   5.543   2.887  1.8828  0.8783  0.5198
 8380TIP3    H225074   2.854   5.537   2.754  0.9002  2.0198 -0.0861
 8381TIP3   OH225075   3.363   6.489   3.222  0.0394 -0.1331 -0.1279
 8381TIP3    H125076   3.378   6.409   3.272 -0.0468 -0.0795 -0.0157
 8381TIP3    H225077   3.449   6.512   3.187  0.0663 -0.2696 -0.1534
 8382TIP3   OH225078   2.751   5.289   3.625  0.2893 -0.4336  0.2599
 8382TIP3    H125079   2.821   5.229   3.599 -0.3418  0.0100 -2.7231
 8382TIP3    H225080   2.790   5.376   3.615 -0.3680 -0.2148 -0.4492
 8383TIP3   OH225081   3.665   5.521   3.903  0.2996  0.0636 -0.3278
 8383TIP3    H125082   3.621   5.543   3.985  2.1394  3.7952 -0.2520
 8383TIP3    H225083   3.758   5.513   3.927  0.5268 -1.4981 -1.5990
 8384TIP3   OH225084   5.445   6.187   3.288  0.0636  0.8343  0.2960
 8384TIP3    H125085   5.365   6.203   3.338 -0.8095  1.9387 -1.4016
 8384TIP3    H225086   5.416   6.139   3.211  0.8442  2.2494 -0.9153
 8385TIP3   OH225087   5.690   6.330   3.318 -0.0452  0.3978 -0.1972
 8385TIP3    H125088   5.765   6.274   3.298 -0.7231  0.0465 -1.8366
 8385TIP3    H225089   5.614   6.281   3.286 -1.0608  0.4457  2.0494
 8386TIP3   OH225090   1.814   5.801   4.009 -0.0515  0.4364  0.3308
 8386TIP3    H125091   1.801   5.707   4.024 -0.3572  0.5674  0.9231
 8386TIP3    H225092   1.884   5.806   3.945  1.9367 -0.1523  2.3905
 8387TIP3   OH225093   7.311   0.665   3.023 -0.3084 -0.2953  0.5613
 8387TIP3    H125094   7.217   0.669   3.009 -0.2132  0.5637  0.1150
 8387TIP3    H225095   7.321   0.642   3.115 -0.9460 -0.0703  0.6875
 8388TIP3   OH225096   2.335   5.980   4.435  0.2744 -0.2654  0.3400
 8388TIP3    H125097   2.346   5.974   4.340  0.6952  0.2373  0.3592
 8388TIP3    H225098   2.291   5.898   4.458  1.7756 -1.2109 -0.0506
 8389TIP3   OH225099   3.458   5.587   5.297  0.5707  0.1662 -0.8088
 8389TIP3    H125100   3.389   5.539   5.252 -0.1708 -0.6113  1.1167
 8389TIP3    H225101   3.524   5.521   5.319 -0.2879  0.0547  1.5285
 8390TIP3   OH225102   4.052   5.841   3.877 -0.4090  0.3698  0.0215
 8390TIP3    H125103   4.101   5.765   3.908  2.5854  1.3743 -2.0407
 8390TIP3    H225104   4.037   5.894   3.956  0.8226 -0.5013  0.8524
 8391TIP3   OH225105   3.248   6.688   6.392  0.1276  0.4648 -0.4567
 8391TIP3    H125106   3.303   6.616   6.424 -0.8977 -0.2830 -0.3362
 8391TIP3    H225107   3.182   6.699   6.461 -0.2994  0.8583 -0.9284
 8392TIP3   OH225108   2.830   5.187   5.657 -0.2540 -0.3186  0.2654
 8392TIP3    H125109   2.800   5.109   5.611 -1.6586 -0.1448  0.8728
 8392TIP3    H225110   2.878   5.153   5.733 -2.0235 -0.6033  1.2755
 8393TIP3   OH225111   3.040   6.634   2.225 -0.0463  0.0982  0.7615
 8393TIP3    H125112   3.074   6.607   2.140 -1.0438 -0.5299  0.5456
 8393TIP3    H225113   3.104   6.602   2.288 -0.4508 -1.4738  0.3933
 8394TIP3   OH225114   5.987   7.481   3.967 -0.1154 -0.2043 -0.0847
 8394TIP3    H125115   5.921   7.463   3.900 -0.4087  0.6843 -0.0314
 8394TIP3    H225116   6.044   7.547   3.928  0.3220 -0.4480  0.1445
 8395TIP3   OH225117   4.886   4.213   6.210  0.4204  0.0594  0.0421
 8395TIP3    H125118   4.847   4.224   6.297  0.7142  1.8836 -0.0343
 8395TIP3    H225119   4.898   4.302   6.178 -0.2769 -0.6113 -2.1533
 8396TIP3   OH225120   6.000   0.673   3.033 -0.2838  0.1887 -0.3498
 8396TIP3    H125121   5.961   0.586   3.047 -1.0411  0.5159 -0.4359
 8396TIP3    H225122   6.094   0.657   3.035 -0.4198 -0.6384 -0.3437
 8397TIP3   OH225123   2.010   4.948   1.119 -0.1514 -0.6665 -0.2339
 8397TIP3    H125124   2.009   4.951   1.214  1.8421 -0.6493 -0.2089
 8397TIP3    H225125   1.918   4.936   1.095 -0.5773 -1.4238  1.7010
 8398TIP3   OH225126   5.205   7.189   2.739  1.1075  0.0315  0.5250
 8398TIP3    H125127   5.132   7.160   2.685  1.4207  0.5429 -0.1749
 8398TIP3    H225128   5.233   7.110   2.786  0.4094 -0.2639  0.4487
 8399TIP3   OH225129   3.620   6.011   5.220 -0.4912  0.4977  0.2464
 8399TIP3    H125130   3.682   5.939   5.204 -2.5367 -1.8330  2.4348
 8399TIP3    H225131   3.643   6.077   5.154  1.1440 -2.3506 -2.1756
 8400TIP3   OH225132   3.931   5.720   3.399 -0.0499  0.0505 -0.0383
 8400TIP3    H125133   4.019   5.711   3.435  0.4080 -0.0561 -1.1728
 8400TIP3    H225134   3.891   5.634   3.413 -0.0939  0.1993  0.7764
 8401TIP3   OH225135   5.260   5.276   3.272 -0.0809  0.2759 -0.3240
 8401TIP3    H125136   5.168   5.269   3.296 -0.0746  0.1414 -0.3375
 8401TIP3    H225137   5.294   5.346   3.328  0.0848 -0.4713  0.5322
 8402TIP3   OH225138   5.456   5.987   4.131  0.2879  0.0186 -0.3414
 8402TIP3    H125139   5.417   6.074   4.129  1.8785  0.7959  1.2265
 8402TIP3    H225140   5.382   5.927   4.123 -0.8034  1.5087 -1.5546
 8403TIP3   OH225141   5.364   3.873   4.714  0.2600 -0.4582  0.0237
 8403TIP3    H125142   5.413   3.885   4.632  0.7719 -1.1769  0.2147
 8403TIP3    H225143   5.307   3.798   4.696 -0.1347 -0.1703  0.0896
 8404TIP3   OH225144   1.177   6.270   2.954 -0.7591 -0.4624  0.1123
 8404TIP3    H125145   1.155   6.340   2.892  0.1577 -0.3465 -0.0837
 8404TIP3    H225146   1.104   6.269   3.015 -1.1066  0.2125 -0.2827
 8405TIP3   OH225147   6.907   0.167   3.990 -0.0446 -0.0636  0.0481
 8405TIP3    H125148   6.948   0.105   3.930  1.5303  0.2434  0.7868
 8405TIP3    H225149   6.966   0.170   4.065 -0.2561  2.1174  0.1431
 8406TIP3   OH225150   4.623   6.781   3.808  0.3211  0.0281 -0.0320
 8406TIP3    H125151   4.566   6.756   3.881  1.7725  2.0642  1.8790
 8406TIP3    H225152   4.564   6.819   3.743 -0.9478 -1.4302  0.2257
 8407TIP3   OH225153   3.128   6.618   4.110 -0.2239  0.3916 -0.3927
 8407TIP3    H125154   3.193   6.646   4.175 -0.1122  0.5890 -0.5888
 8407TIP3    H225155   3.044   6.646   4.146 -0.1867  0.2628 -0.2059
 8408TIP3   OH225156   2.925   7.054   5.714 -0.3172  0.0083  0.0006
 8408TIP3    H125157   3.009   7.079   5.751  0.7100 -1.5178 -1.2071
 8408TIP3    H225158   2.882   7.004   5.783 -0.1868  0.7076  0.5872
 8409TIP3   OH225159   2.577   7.139   4.859 -0.2765  0.2227  0.4966
 8409TIP3    H125160   2.519   7.167   4.788  1.0026 -1.1276 -1.1176
 8409TIP3    H225161   2.520   7.093   4.920 -1.0539 -0.3787 -0.6664
 8410TIP3   OH225162   3.033   5.704   1.663  0.3916 -0.2993 -0.2362
 8410TIP3    H125163   2.960   5.735   1.609  1.2006  0.5619 -0.8641
 8410TIP3    H225164   3.104   5.689   1.600  0.5315 -1.8291  0.2744
 8411TIP3   OH225165   5.985   6.885   4.652 -0.2707 -0.4336  0.1842
 8411TIP3    H125166   6.061   6.942   4.668  1.3257 -2.4572 -0.0236
 8411TIP3    H225167   6.023   6.800   4.632 -2.6451 -1.7688  1.2109
 8412TIP3   OH225168   2.089   2.507   0.195 -0.1437 -0.3743  0.5664
 8412TIP3    H125169   2.017   2.445   0.177  0.0314 -0.1431 -1.0027
 8412TIP3    H225170   2.168   2.455   0.183 -0.0338 -0.6158  2.2530
 8413TIP3   OH225171   4.059   6.786   2.828  0.3235 -0.1616 -0.5244
 8413TIP3    H125172   4.080   6.693   2.826 -0.1460 -0.2709 -0.4957
 8413TIP3    H225173   4.057   6.812   2.736 -2.4966 -0.8678 -0.7030
 8414TIP3   OH225174   1.463   6.122   4.044 -0.4794  0.1063  0.2649
 8414TIP3    H125175   1.528   6.180   4.084 -0.9982  1.4453 -0.7947
 8414TIP3    H225176   1.387   6.127   4.101 -0.4626  0.3476  0.2663
 8415TIP3   OH225177   2.948   6.847   3.130  0.1583 -0.5282  0.0082
 8415TIP3    H125178   2.989   6.933   3.141 -1.1141 -0.0453  1.2086
 8415TIP3    H225179   2.980   6.795   3.203 -0.0391 -0.6775 -0.0108
 8416TIP3   OH225180   2.597   4.606   5.983 -0.2477 -0.0441 -0.2225
 8416TIP3    H125181   2.620   4.636   6.071 -0.6567 -0.6816  0.1053
 8416TIP3    H225182   2.535   4.534   5.997  0.6552 -0.9958 -0.9854
 8417TIP3   OH225183   5.348   0.779   5.216  0.3801  0.4876  0.1549
 8417TIP3    H125184   5.298   0.859   5.230  0.4255  0.7768 -1.2411
 8417TIP3    H225185   5.438   0.808   5.202  0.0075  0.4152 -2.6966
 8418TIP3   OH225186   4.661   6.165   3.984 -0.0626 -0.1659 -0.3524
 8418TIP3    H125187   4.710   6.245   3.966  1.5217 -0.9061  0.6026
 8418TIP3    H225188   4.574   6.196   4.012  1.3389  1.3228  2.5438
 8419TIP3   OH225189   4.032   5.996   2.746  0.0028  0.9288  0.5557
 8419TIP3    H125190   4.105   6.002   2.684 -0.6269  0.1549 -0.2858
 8419TIP3    H225191   3.991   5.912   2.726 -1.4796  1.6295  0.6076
 8420TIP3   OH225192   3.415   5.135   5.278 -0.1422 -0.3344 -0.2646
 8420TIP3    H125193   3.422   5.071   5.349 -0.0569  2.0042  1.9186
 8420TIP3    H225194   3.505   5.165   5.264 -0.4712  1.0452  0.4386
 8421TIP3   OH225195   3.319   6.685   4.300 -0.1967  0.0734 -0.3960
 8421TIP3    H125196   3.405   6.669   4.339 -0.5867 -0.8100  0.1010
 8421TIP3    H225197   3.300   6.777   4.321  1.3293  0.7656 -1.8996
 8422TIP3   OH225198   2.149   5.424   3.207  0.0382  0.1762  0.0019
 8422TIP3    H125199   2.177   5.515   3.209 -0.4239  0.3150  0.1884
 8422TIP3    H225200   2.064   5.424   3.251 -0.4859 -0.1578 -0.9812
 8423TIP3   OH225201   3.232   7.277   3.497  0.5395  0.2772  0.2366
 8423TIP3    H125202   3.161   7.340   3.495 -0.5204 -0.9151 -0.0776
 8423TIP3    H225203   3.306   7.322   3.456 -0.9433  0.4233 -2.3727
 8424TIP3   OH225204   4.209   5.257   5.644 -0.1790  0.0852 -0.0824
 8424TIP3    H125205   4.124   5.245   5.685 -0.5404  4.5392  0.7097
 8424TIP3    H225206   4.271   5.254   5.717  0.0380 -0.3926 -0.2880
 8425TIP3   OH225207   3.655   6.225   5.024 -0.1847  0.2215  0.0643
 8425TIP3    H125208   3.566   6.237   4.992 -0.0634  1.3045  0.1187
 8425TIP3    H225209   3.667   6.294   5.089  0.0248 -1.1398  1.5099
 8426TIP3   OH225210   4.149   6.739   3.604 -0.6727 -0.1494  0.3244
 8426TIP3    H125211   4.188   6.768   3.687  0.3786 -0.6413  0.0215
 8426TIP3    H225212   4.178   6.648   3.596  0.0152  0.1714 -1.0303
 8427TIP3   OH225213   1.716   1.228   0.230  0.4745 -0.1644  0.4359
 8427TIP3    H125214   1.641   1.285   0.213 -0.1455 -0.9109  0.6298
 8427TIP3    H225215   1.703   1.198   0.320  1.3332  0.1816  0.6797
 8428TIP3   OH225216   3.692   5.453   2.962  0.1904  0.3231  0.2888
 8428TIP3    H125217   3.599   5.455   2.939  0.4646  0.1423 -0.8381
 8428TIP3    H225218   3.694   5.485   3.053 -0.9136  0.8348  0.1504
 8429TIP3   OH225219   2.823   3.875   3.884  0.0772  0.9450  0.1528
 8429TIP3    H125220   2.796   3.927   3.960 -0.0038  1.8649 -0.4990
 8429TIP3    H225221   2.838   3.787   3.919  2.8765  2.0029  1.7774
 8430TIP3   OH225222   3.717   5.823   4.778 -0.3050  0.6433  0.0636
 8430TIP3    H125223   3.691   5.731   4.770 -0.2450  0.6377 -0.0662
 8430TIP3    H225224   3.636   5.872   4.766 -0.1266  0.6575 -1.1479
 8431TIP3   OH225225   2.636   5.562   4.388 -0.5426 -0.2221  0.4332
 8431TIP3    H125226   2.540   5.558   4.388 -0.5614  0.2980 -0.3882
 8431TIP3    H225227   2.656   5.650   4.418 -0.3733  0.8433 -2.6544
 8432TIP3   OH225228   1.552   5.153   3.774 -0.0908 -0.5131 -0.0140
 8432TIP3    H125229   1.549   5.058   3.788  1.5709 -0.8081 -1.4179
 8432TIP3    H225230   1.490   5.168   3.703 -1.6640 -0.2818  1.3760
 8433TIP3   OH225231   2.160   6.268   2.433 -0.0735 -0.3747  0.5832
 8433TIP3    H125232   2.135   6.177   2.450 -1.7914 -0.3297 -1.4465
 8433TIP3    H225233   2.255   6.269   2.439 -0.2316 -1.4849  4.3786
 8434TIP3   OH225234   5.747   5.891   3.069 -0.0910  0.2603  0.4613
 8434TIP3    H125235   5.783   5.947   3.138 -0.2613  2.0604 -0.8625
 8434TIP3    H225236   5.712   5.953   3.005  1.4099 -1.3363 -1.9597
 8435TIP3   OH225237   0.298   4.008   2.148 -0.4500 -0.6575  0.3159
 8435TIP3    H125238   0.317   3.915   2.132 -0.4931 -0.8639  1.4470
 8435TIP3    H225239   0.383   4.051   2.148 -0.5175 -0.4858 -1.4715
 8436TIP3   OH225240   5.277   7.287   4.171 -0.1273 -0.1807  0.2941
 8436TIP3    H125241   5.234   7.322   4.249 -0.2269 -0.5224  0.3937
 8436TIP3    H225242   5.305   7.364   4.122  0.5475  0.0265  1.0019
 8437TIP3   OH225243   4.521   5.244   2.477 -0.0065 -0.7139 -0.4699
 8437TIP3    H125244   4.467   5.180   2.430  0.3247 -0.3771 -1.3171
 8437TIP3    H225245   4.589   5.191   2.519 -0.5079 -1.0539 -0.0717
 8438TIP3   OH225246   1.001   5.442   4.277  0.4966  0.0308  0.0424
 8438TIP3    H125247   1.034   5.407   4.360 -0.8482 -1.8830 -0.2136
 8438TIP3    H225248   1.080   5.469   4.230  1.3898 -0.4212  1.2546
 8439TIP3   OH225249   3.737   5.929   3.389 -0.0198 -0.2281 -0.5289
 8439TIP3    H125250   3.651   5.897   3.416  0.1911  0.7180  1.4096
 8439TIP3    H225251   3.789   5.850   3.378 -1.1641 -0.8135 -1.8756
 8440TIP3   OH225252   4.278   5.691   4.846 -0.0541  0.3261 -0.0176
 8440TIP3    H125253   4.350   5.642   4.807  0.2720  1.2672 -0.6398
 8440TIP3    H225254   4.205   5.629   4.849  0.6153 -0.4617  0.0763
 8441TIP3   OH225255   4.135   4.741   2.476 -0.8934  0.6156  0.0950
 8441TIP3    H125256   4.109   4.649   2.478  0.3877  0.2180 -1.1282
 8441TIP3    H225257   4.078   4.781   2.411  0.7546 -0.0377 -1.8166
 8442TIP3   OH225258   2.998   6.109   3.855 -0.6712  0.0946 -0.8551
 8442TIP3    H125259   3.038   6.182   3.902 -1.5923  1.5273 -2.2272
 8442TIP3    H225260   3.040   6.110   3.769 -1.6966 -0.0919 -1.3654
 8443TIP3   OH225261   1.448   5.150   3.030 -0.1451  0.1483  0.6425
 8443TIP3    H125262   1.455   5.243   3.008  0.5040  0.3717  1.7768
 8443TIP3    H225263   1.511   5.137   3.101  0.6138 -1.3964 -0.2728
 8444TIP3   OH225264   3.907   5.473   4.662 -0.4316 -0.0281  1.2698
 8444TIP3    H125265   3.821   5.501   4.694 -0.9485  1.4374 -1.2505
 8444TIP3    H225266   3.888   5.402   4.601  0.1301  0.3354  0.6658
 8445TIP3   OH225267   4.305   7.005   2.611 -0.7300  0.1665 -0.6455
 8445TIP3    H125268   4.301   7.058   2.531  1.4153 -0.5864 -1.2917
 8445TIP3    H225269   4.398   7.002   2.633 -1.1977 -0.3861  1.4013
 8446TIP3   OH225270   7.432   1.056   5.715  0.2155 -0.0227 -0.1401
 8446TIP3    H125271   7.450   1.069   5.622  0.5738 -3.6195 -0.6431
 8446TIP3    H225272   7.361   1.118   5.734 -0.4215  0.2178 -2.9967
 8447TIP3   OH225273   8.168   0.603   4.726 -0.4741 -0.1734  0.2530
 8447TIP3    H125274   8.099   0.550   4.686 -0.2795 -0.0513 -0.2522
 8447TIP3    H225275   8.239   0.541   4.742 -0.7575 -0.3274  0.9097
 8448TIP3   OH225276   3.494   5.790   1.593 -0.2366 -0.3399  0.0207
 8448TIP3    H125277   3.552   5.714   1.603  1.0412  0.6038 -0.2321
 8448TIP3    H225278   3.486   5.825   1.682  2.3062  1.5243 -0.4468
 8449TIP3   OH225279   5.334   7.022   3.552  0.4974  0.4506 -0.1149
 8449TIP3    H125280   5.277   6.982   3.618  1.0981 -0.3059 -0.0418
 8449TIP3    H225281   5.280   7.026   3.474 -0.5454  2.2649  0.6735
 8450TIP3   OH225282   2.774   3.376   0.173  0.1548 -0.0962 -0.2687
 8450TIP3    H125283   2.761   3.282   0.172  0.9287 -0.2569  1.7074
 8450TIP3    H225284   2.720   3.408   0.245 -2.8276  1.4649 -3.0612
 8451TIP3   OH225285   1.412   6.927   4.098 -0.1651  0.0506 -0.2126
 8451TIP3    H125286   1.455   7.007   4.127 -0.7044  0.0274  0.6867
 8451TIP3    H225287   1.477   6.882   4.045  1.0661 -0.1361  1.4013
 8452TIP3   OH225288   4.100   7.373   2.401 -0.0825  0.7847 -0.7952
 8452TIP3    H125289   4.129   7.441   2.461  0.2606  0.1210 -0.1993
 8452TIP3    H225290   4.172   7.310   2.399  0.1620  1.0863 -2.3661
 8453TIP3   OH225291   3.200   5.040   5.717  0.2283 -0.2818  0.2761
 8453TIP3    H125292   3.187   4.996   5.801 -0.1009 -1.6368 -0.4693
 8453TIP3    H225293   3.160   4.981   5.652  0.8876  0.5154 -0.8826
 8454TIP3   OH225294   4.031   5.050   5.191  0.3734 -0.0565 -0.0655
 8454TIP3    H125295   4.071   5.025   5.275 -4.1762 -1.9155  1.7307
 8454TIP3    H225296   4.042   4.973   5.135  1.5577  0.4032 -0.4725
 8455TIP3   OH225297   3.629   6.628   5.113  0.0081 -0.2822  0.7457
 8455TIP3    H125298   3.595   6.636   5.024  1.4707 -1.1160  0.0938
 8455TIP3    H225299   3.612   6.713   5.153 -1.7967 -0.3036  0.0966
 8456TIP3   OH225300   3.264   5.795   4.180  0.6190 -0.0553  0.2235
 8456TIP3    H125301   3.329   5.861   4.202  2.1384 -0.7357 -2.0875
 8456TIP3    H225302   3.251   5.804   4.086 -3.3343  0.6469  0.7629
 8457TIP3   OH225303   4.174   5.651   4.008 -0.0975 -0.1078 -0.4749
 8457TIP3    H125304   4.185   5.557   3.995 -0.6796 -0.5112  1.7650
 8457TIP3    H225305   4.247   5.676   4.065 -0.8338  0.5097  0.1993
 8458TIP3   OH225306   3.248   4.624   5.833 -0.1320 -0.1439 -0.4042
 8458TIP3    H125307   3.272   4.568   5.760  0.2384 -1.9016  1.0411
 8458TIP3    H225308   3.186   4.572   5.885  1.4565  0.1338  1.8281
 8459TIP3   OH225309   5.339   4.588   4.816  0.0255 -0.3113  0.2871
 8459TIP3    H125310   5.275   4.524   4.785  1.5821 -1.4980 -0.5331
 8459TIP3    H225311   5.320   4.597   4.909 -2.3483  0.5509 -0.2314
 8460TIP3   OH225312   4.242   4.575   3.483  0.0068  0.1340 -0.3469
 8460TIP3    H125313   4.332   4.590   3.452  0.3152 -0.8018  0.0811
 8460TIP3    H225314   4.217   4.491   3.444 -0.5253  0.1801 -0.1065
 8461TIP3   OH225315   4.795   7.054   3.088 -0.1299 -0.3913  0.0740
 8461TIP3    H125316   4.787   7.131   3.145  2.7157 -0.3751  0.5621
 8461TIP3    H225317   4.831   7.090   3.006  0.1488 -1.0350 -0.0879
 8462TIP3   OH225318   5.479   6.613   6.794 -0.0658  0.5133  0.1654
 8462TIP3    H125319   5.525   6.674   6.853 -0.1513  0.1554  0.6061
 8462TIP3    H225320   5.388   6.614   6.826  0.4146 -1.7066  1.7439
 8463TIP3   OH225321   1.357   5.265   2.136  0.0225  0.1460  0.6467
 8463TIP3    H125322   1.312   5.330   2.081 -2.6010 -0.2922  2.1983
 8463TIP3    H225323   1.353   5.302   2.224  1.7582 -0.4417  0.9849
 8464TIP3   OH225324   2.492   6.049   4.642  0.0805  0.2486  0.1390
 8464TIP3    H125325   2.442   6.022   4.564  0.8604  0.4216 -0.4314
 8464TIP3    H225326   2.583   6.030   4.618  0.2882 -0.0292  1.1530
 8465TIP3   OH225327   1.833   5.566   2.980 -0.1002 -0.1834 -0.1146
 8465TIP3    H125328   1.798   5.608   2.901 -0.8470  2.1552  1.3964
 8465TIP3    H225329   1.894   5.500   2.947  0.7814  1.7884 -2.6241
 8466TIP3   OH225330   5.268   1.130   4.002  0.2428  0.2851  0.4026
 8466TIP3    H125331   5.301   1.102   4.088 -0.1003 -0.2589  0.3613
 8466TIP3    H225332   5.279   1.053   3.946  2.0632  1.1743 -0.5058
 8467TIP3   OH225333   3.442   7.171   3.971  0.8668  0.1570  0.0330
 8467TIP3    H125334   3.422   7.189   3.879  0.2690 -1.0860 -0.0861
 8467TIP3    H225335   3.520   7.115   3.968  1.1214  0.4960  0.2980
 8468TIP3   OH225336   2.643   5.659   6.088 -0.6076 -0.0921  0.6605
 8468TIP3    H125337   2.684   5.613   6.015  0.2564  1.6429  0.0110
 8468TIP3    H225338   2.708   5.723   6.115 -2.9179  2.9235 -0.5737
 8469TIP3   OH225339   2.882   6.087   3.045 -0.0382  0.4411 -0.5560
 8469TIP3    H125340   2.839   6.005   3.019  1.4709 -0.0692 -1.5313
 8469TIP3    H225341   2.864   6.094   3.139  0.8915 -1.6939 -0.1839
 8470TIP3   OH225342   3.549   4.288   3.558  0.0771  0.0348 -0.2332
 8470TIP3    H125343   3.565   4.381   3.548  0.8555  0.0178  0.7971
 8470TIP3    H225344   3.636   4.248   3.558 -0.1242 -0.4517  1.5237
 8471TIP3   OH225345   3.988   6.017   2.125 -0.1260  0.6815 -1.0124
 8471TIP3    H125346   4.069   5.988   2.084 -0.2994 -0.8308 -0.3470
 8471TIP3    H225347   4.013   6.091   2.180  0.9974 -0.3749 -0.0668
 8472TIP3   OH225348   4.379   6.075   4.822 -0.1540 -0.4761  0.0420
 8472TIP3    H125349   4.308   6.014   4.804 -0.6694  0.1902 -0.1866
 8472TIP3    H225350   4.353   6.156   4.779 -0.1659  0.3414  1.5378
 8473TIP3   OH225351   5.225   0.124   4.391 -0.5257 -0.1899  0.4907
 8473TIP3    H125352   5.165   0.192   4.359 -0.0051 -0.3652 -0.9021
 8473TIP3    H225353   5.278   0.168   4.457  0.2595  0.9573 -0.8749
 8474TIP3   OH225354   7.711   0.969   0.574 -0.3470 -0.1691  0.2315
 8474TIP3    H125355   7.684   0.879   0.593 -2.9014  0.6040  0.4826
 8474TIP3    H225356   7.657   1.023   0.632 -0.2526  1.6152 -1.2919
 8475TIP3   OH225357   5.658   6.237   4.600  0.1981  0.2632  0.4862
 8475TIP3    H125358   5.567   6.230   4.570  0.4452  2.8676 -1.0448
 8475TIP3    H225359   5.652   6.284   4.683 -0.1993 -3.8575  2.8851
 8476TIP3   OH225360   6.465   1.828   5.015  0.4637  1.1468 -0.1070
 8476TIP3    H125361   6.560   1.839   5.003  0.8144 -1.0679  0.4376
 8476TIP3    H225362   6.441   1.896   5.078  1.3783  2.7408 -1.4145
 8477TIP3   OH225363   2.677   6.383   3.393 -0.1808  0.0056 -0.0875
 8477TIP3    H125364   2.745   6.403   3.328  0.7236 -0.3829  0.7194
 8477TIP3    H225365   2.609   6.338   3.343 -0.0336  0.7729 -0.9872
 8478TIP3   OH225366   1.037   6.552   3.186 -0.3814  0.4493 -0.0942
 8478TIP3    H125367   1.034   6.537   3.091  1.6209 -0.7088 -0.0076
 8478TIP3    H225368   1.030   6.647   3.195 -0.5054  0.5815 -1.4226
 8479TIP3   OH225369   3.345   6.553   4.634  0.2856 -0.0416 -0.3399
 8479TIP3    H125370   3.322   6.475   4.583 -0.4248  0.3544 -0.6226
 8479TIP3    H225371   3.278   6.617   4.613  0.9150  0.6840 -0.1675
 8480TIP3   OH225372   3.616   5.283   4.401 -0.0972  0.2353  0.4638
 8480TIP3    H125373   3.597   5.241   4.484 -2.3843  1.7805  0.7646
 8480TIP3    H225374   3.576   5.225   4.335  0.6988 -0.3771  0.5080
 8481TIP3   OH225375   3.135   2.334   3.771  0.3110  0.1489  0.1876
 8481TIP3    H125376   3.175   2.393   3.707  0.3988  1.7006  1.6444
 8481TIP3    H225377   3.076   2.390   3.821 -2.0023 -1.6393 -0.4370
 8482TIP3   OH225378   2.163   6.796   3.704  0.5129 -0.1260  0.5214
 8482TIP3    H125379   2.096   6.810   3.771  0.4440 -0.8927  0.6102
 8482TIP3    H225380   2.149   6.707   3.673  1.8925 -0.5334  0.9926
 8483TIP3   OH225381   3.553   3.974   2.810 -0.4377  0.3546  0.3886
 8483TIP3    H125382   3.602   4.055   2.795  0.3873 -0.1862  0.1158
 8483TIP3    H225383   3.591   3.938   2.890  0.2185 -0.5103 -0.2999
 8484TIP3   OH225384   5.422   4.951   5.935  0.3893 -0.2929  0.2874
 8484TIP3    H125385   5.359   4.894   5.891 -0.7228  0.1256  1.3083
 8484TIP3    H225386   5.434   4.912   6.021 -0.0068  0.7119  0.8163
 8485TIP3   OH225387   2.595   5.389   3.843 -0.0144 -0.5701 -0.8444
 8485TIP3    H125388   2.644   5.395   3.925 -1.4626 -0.6627  0.0488
 8485TIP3    H225389   2.651   5.336   3.786  0.6900 -1.1189  0.3267
 8486TIP3   OH225390   5.122   7.903   0.151 -0.6833 -0.1739  0.1224
 8486TIP3    H125391   5.105   7.996   0.138  1.5994  0.2964  0.2203
 8486TIP3    H225392   5.217   7.895   0.143 -1.1542 -3.1520 -3.8877
 8487TIP3   OH225393   3.795   5.944   3.783  0.1873  0.3316 -0.3025
 8487TIP3    H125394   3.880   5.910   3.814 -0.1708 -0.2819  0.0217
 8487TIP3    H225395   3.755   5.870   3.738 -0.1502  0.6427 -0.5118
 8488TIP3   OH225396   3.227   4.921   3.196 -0.0867 -0.4260 -0.2613
 8488TIP3    H125397   3.296   4.954   3.252  0.6928 -1.6673 -0.4724
 8488TIP3    H225398   3.166   4.877   3.256 -0.2720 -0.0352 -0.1651
 8489TIP3   OH225399   3.558   4.748   3.733 -0.3099 -0.7617 -0.4125
 8489TIP3    H125400   3.648   4.758   3.762 -0.1669 -1.5911 -0.5556
 8489TIP3    H225401   3.547   4.654   3.720 -1.1871 -0.6638 -0.4229
 8490TIP3   OH225402   2.417   5.499   3.401 -0.0890  0.4482  0.3748
 8490TIP3    H125403   2.326   5.486   3.428  0.0821 -0.0046  0.7293
 8490TIP3    H225404   2.421   5.590   3.372 -1.2857 -0.2235 -2.0807
 8491TIP3   OH225405   3.861   5.076   3.356  0.1300 -0.1891  0.1412
 8491TIP3    H125406   3.908   4.993   3.362  0.5261 -0.0052 -0.3595
 8491TIP3    H225407   3.768   5.051   3.351  0.3004 -0.6373 -0.8788
 8492TIP3   OH225408   2.900   7.572   3.958 -0.1447  0.3339 -0.4356
 8492TIP3    H125409   2.983   7.529   3.981  0.9390  1.1835 -2.5670
 8492TIP3    H225410   2.924   7.631   3.887 -2.3234  1.7011 -0.0619
 8493TIP3   OH225411   4.187   6.451   6.429  0.4360  0.1117  0.0358
 8493TIP3    H125412   4.151   6.457   6.518 -0.6916  1.2599 -0.4772
 8493TIP3    H225413   4.124   6.396   6.381  0.0645  1.0210 -0.5248
 8494TIP3   OH225414   2.667   5.924   3.483  1.0433 -0.0214  0.1508
 8494TIP3    H125415   2.680   5.829   3.492 -2.1522 -0.5527 -0.2081
 8494TIP3    H225416   2.641   5.952   3.571 -0.0962  0.1520 -0.2435
 8495TIP3   OH225417   6.580   0.107   3.711  0.3695 -0.3848 -0.1392
 8495TIP3    H125418   6.647   0.080   3.648 -0.0652  0.1195 -0.8298
 8495TIP3    H225419   6.613   0.077   3.795  2.2449  1.2759 -0.2500
 8496TIP3   OH225420   5.953   0.260   2.666 -0.1085 -0.0286  0.1631
 8496TIP3    H125421   5.871   0.304   2.641  1.0873  1.6769 -0.9102
 8496TIP3    H225422   5.958   0.184   2.608  0.0977  1.0594 -1.2864
 8497TIP3   OH225423   4.732   5.376   4.737 -0.0214  0.1852 -0.7202
 8497TIP3    H125424   4.815   5.339   4.705 -0.2790 -0.4146 -0.6936
 8497TIP3    H225425   4.678   5.300   4.759  0.4176  0.5816  1.8636
 8498TIP3   OH225426   7.795   1.442   6.289  0.8955 -0.3819 -0.2686
 8498TIP3    H125427   7.751   1.361   6.264 -2.6734  1.3815 -0.0883
 8498TIP3    H225428   7.852   1.462   6.215 -0.3946 -1.5591 -1.6066
 8499TIP3   OH225429   2.925   5.765   4.781 -0.8371 -0.2357 -0.0709
 8499TIP3    H125430   2.994   5.698   4.779 -0.0207  0.6394 -2.0972
 8499TIP3    H225431   2.931   5.802   4.869  0.8712 -0.5994 -0.0125
 8500TIP3   OH225432   4.363   0.766   2.626 -0.2036 -0.6838  0.1077
 8500TIP3    H125433   4.376   0.681   2.668 -2.4278 -1.0200  0.1825
 8500TIP3    H225434   4.316   0.746   2.545  0.6523  0.3242 -0.6407
 8501TIP3   OH225435   1.888   3.481   2.726 -0.0477  0.2776  0.0209
 8501TIP3    H125436   1.922   3.430   2.800 -1.8611  0.1913  0.8219
 8501TIP3    H225437   1.865   3.416   2.660  0.1019  0.2468 -0.0014
 8502TIP3   OH225438   3.819   6.390   4.268 -0.1025 -0.6134 -0.2702
 8502TIP3    H125439   3.884   6.324   4.245 -0.3394 -1.4824  1.4638
 8502TIP3    H225440   3.871   6.468   4.289  0.2048 -0.3953 -1.7630
 8503TIP3   OH225441   3.969   5.375   2.610 -0.0465 -0.4435  0.1218
 8503TIP3    H125442   4.007   5.293   2.577  1.4805  0.0680  0.6078
 8503TIP3    H225443   4.013   5.443   2.560 -0.4685  0.1524  0.5611
 8504TIP3   OH225444   5.013   6.072   3.608  0.3361 -0.6245 -0.0144
 8504TIP3    H125445   4.947   6.099   3.545  0.5936 -3.3891 -1.5751
 8504TIP3    H225446   5.075   6.144   3.611 -1.6594  1.1355 -0.0671
 8505TIP3   OH225447   3.862   6.627   6.165  0.0255 -0.3231 -0.1904
 8505TIP3    H125448   3.767   6.638   6.176  0.0816 -0.1548  0.1188
 8505TIP3    H225449   3.893   6.599   6.252  0.1579 -1.0318 -0.4667
 8506TIP3   OH225450   2.983   6.397   4.277  0.2196 -0.3321  0.8847
 8506TIP3    H125451   2.897   6.361   4.297  0.0434  0.3890  1.4512
 8506TIP3    H225452   2.968   6.491   4.270  1.1354 -0.0823  2.0248
 8507TIP3   OH225453   3.594   5.763   6.902  0.5858 -0.0931  0.1453
 8507TIP3    H125454   3.557   5.680   6.871 -0.3082 -0.0253  0.9786
 8507TIP3    H225455   3.661   5.785   6.838 -0.7487 -0.3023 -1.3583
 8508TIP3   OH225456   4.533   4.126   3.128  0.1347  0.0588  0.3047
 8508TIP3    H125457   4.563   4.038   3.149 -0.4576 -0.2525 -0.1281
 8508TIP3    H225458   4.569   4.143   3.041  1.5749  0.8711  1.0511
 8509TIP3   OH225459   6.105   6.771   2.957  0.2003  0.1950 -0.1603
 8509TIP3    H125460   6.070   6.823   3.030  1.6972 -0.9483  1.4282
 8509TIP3    H225461   6.047   6.790   2.883 -2.5585 -0.1614  1.8425
 8510TIP3   OH225462   4.014   7.886   1.716 -0.0654 -0.0352  0.3223
 8510TIP3    H125463   4.100   7.926   1.703  0.3897 -0.7642  1.0044
 8510TIP3    H225464   3.966   7.949   1.769 -0.2146  0.7156 -0.6999
 8511TIP3   OH225465   4.703   5.836   2.814  0.1991 -0.0168 -0.4979
 8511TIP3    H125466   4.639   5.883   2.761  0.2160 -1.4388 -1.8126
 8511TIP3    H225467   4.782   5.832   2.759  0.5107 -0.7103 -0.0032
 8512TIP3   OH225468   4.185   5.667   5.722  0.0169  0.3247 -0.0010
 8512TIP3    H125469   4.202   5.667   5.628  1.3255  1.8104  0.2164
 8512TIP3    H225470   4.113   5.728   5.733  1.0646  1.5546  0.1438
 8513TIP3   OH225471   6.437   0.104   5.684  0.4649  0.0450  0.7411
 8513TIP3    H125472   6.512   0.075   5.632  0.2188 -0.5430  0.7100
 8513TIP3    H225473   6.473   0.171   5.742  0.7614  0.6499 -0.1230
 8514TIP3   OH225474   4.727   4.844   6.932 -0.4398 -0.2769  0.3349
 8514TIP3    H125475   4.770   4.761   6.910  0.0887  0.2229 -0.5944
 8514TIP3    H225476   4.686   4.872   6.850  0.8307  1.2099  0.1574
 8515TIP3   OH225477   4.602   7.880   5.197  0.3348 -0.0077  0.1931
 8515TIP3    H125478   4.544   7.809   5.225 -0.6878  0.7589  0.0359
 8515TIP3    H225479   4.587   7.887   5.102  2.4239 -1.3668 -0.2715
 8516TIP3   OH225480   4.438   6.311   4.306  1.2880 -0.2929 -0.2220
 8516TIP3    H125481   4.388   6.384   4.270  0.8337 -0.9073 -0.8522
 8516TIP3    H225482   4.529   6.341   4.305  1.0757  0.3562 -0.2366
 8517TIP3   OH225483   2.497   4.760   1.750  0.0259  0.6076  0.4775
 8517TIP3    H125484   2.464   4.826   1.812  0.0072  0.8633  0.1962
 8517TIP3    H225485   2.566   4.715   1.798 -0.0594  0.7360  0.7234
 8518TIP3   OH225486   4.178   6.058   5.752  0.1701 -0.5384  0.0002
 8518TIP3    H125487   4.255   6.114   5.766  1.1838 -2.0882  0.8504
 8518TIP3    H225488   4.182   6.033   5.660  1.4121 -1.5878  0.3138
 8519TIP3   OH225489   3.957   5.787   4.626 -0.0014  0.2460  0.4417
 8519TIP3    H125490   3.890   5.817   4.687 -1.3996  0.4480 -1.1529
 8519TIP3    H225491   3.928   5.699   4.601  1.1720 -0.2905  0.9391
 8520TIP3   OH225492   4.984   6.564   4.087  0.1451 -0.1808 -0.0581
 8520TIP3    H125493   4.937   6.581   4.168  0.2907  0.3368 -0.0766
 8520TIP3    H225494   4.967   6.641   4.033  1.2565  0.1693  0.0583
 8521TIP3   OH225495   3.384   6.487   3.597  0.3666  0.1824 -0.0783
 8521TIP3    H125496   3.395   6.566   3.650  0.7146  0.6848 -0.8887
 8521TIP3    H225497   3.458   6.431   3.621 -0.5052 -0.3931  1.3357
 8522TIP3   OH225498   2.086   4.355   5.016  0.9332  0.4777  0.8324
 8522TIP3    H125499   2.028   4.320   4.948 -2.3866  1.7632  2.8767
 8522TIP3    H225500   2.131   4.429   4.974 -1.6146  1.7177  0.2002
 8523TIP3   OH225501   8.185   6.806   0.541  0.0181 -0.2229  0.1009
 8523TIP3    H125502   8.257   6.746   0.519 -1.6230 -2.2883  0.2426
 8523TIP3    H225503   8.181   6.867   0.467 -0.4951 -2.3854 -1.6846
 8524TIP3   OH225504   4.335   6.323   3.827  0.0922 -0.8235  0.3281
 8524TIP3    H125505   4.376   6.261   3.767  0.5920  0.0951 -0.3021
 8524TIP3    H225506   4.329   6.277   3.910  1.4916 -1.3240  0.1653
 8525TIP3   OH225507   1.697   6.570   4.116 -0.2164  0.5808  0.5212
 8525TIP3    H125508   1.651   6.604   4.193 -1.2458  0.4580 -0.0410
 8525TIP3    H225509   1.732   6.485   4.145  1.5002  1.6294  1.6131
 8526TIP3   OH225510   4.808   0.784   1.426 -0.4387 -0.0605 -0.7200
 8526TIP3    H125511   4.780   0.792   1.517  0.5345  0.2901 -0.4475
 8526TIP3    H225512   4.839   0.693   1.418 -1.0606 -0.2682 -0.8672
 8527TIP3   OH225513   1.599   7.161   4.700 -0.7814  0.7251  0.3551
 8527TIP3    H125514   1.581   7.210   4.620 -2.8855 -0.4483  0.0727
 8527TIP3    H225515   1.677   7.203   4.737  0.3213  1.1553 -2.3726
 8528TIP3   OH225516   7.450   1.245   5.970  0.3819  0.7928  0.1002
 8528TIP3    H125517   7.498   1.214   5.892 -0.7595 -4.0055  1.1437
 8528TIP3    H225518   7.364   1.270   5.936  0.2536 -0.2579 -0.3932
 8529TIP3   OH225519   8.116   1.147   4.441  0.1199 -0.0772  0.6174
 8529TIP3    H125520   8.073   1.188   4.516  1.1659  0.5939  0.8681
 8529TIP3    H225521   8.078   1.191   4.365  2.0403  2.2425  0.9183
 8530TIP3   OH225522   4.996   6.092   4.974  0.4283  0.2696 -0.3805
 8530TIP3    H125523   5.016   6.105   5.067 -0.5035  1.0355 -0.2736
 8530TIP3    H225524   4.945   6.012   4.972  2.1253 -0.8278 -0.4720
 8531TIP3   OH225525   3.755   4.954   5.498  0.0946 -0.2423  0.1958
 8531TIP3    H125526   3.669   4.934   5.535  0.1228 -1.9984 -0.5932
 8531TIP3    H225527   3.737   5.008   5.421 -0.3409 -0.9307 -0.1886
 8532TIP3   OH225528   5.159   5.628   2.999  0.0882 -0.6252  0.4352
 8532TIP3    H125529   5.069   5.608   3.026  0.2724 -0.1120  1.4172
 8532TIP3    H225530   5.194   5.684   3.068  0.2421  1.5348 -1.3357
 8533TIP3   OH225531   4.371   5.621   4.253 -0.3692  0.3679  0.1130
 8533TIP3    H125532   4.305   5.583   4.311  0.1928  1.3564  1.4109
 8533TIP3    H225533   4.409   5.546   4.208 -1.7532 -0.2894  0.0108
 8534TIP3   OH225534   3.497   6.378   4.399  0.0971 -0.1183 -0.4852
 8534TIP3    H125535   3.580   6.351   4.359  0.6028  0.2376  0.3082
 8534TIP3    H225536   3.516   6.464   4.436 -0.6170 -0.0659 -0.2477
 8535TIP3   OH225537   5.273   6.967   2.885 -0.2917 -0.8509  0.1713
 8535TIP3    H125538   5.368   6.966   2.877 -0.2962  1.2806 -0.3553
 8535TIP3    H225539   5.256   6.935   2.974  0.9548 -0.4192  0.5693
 8536TIP3   OH225540   4.656   6.721   0.794 -0.1738  0.0635  0.1966
 8536TIP3    H125541   4.726   6.762   0.845 -1.0007 -0.3320  1.6703
 8536TIP3    H225542   4.702   6.673   0.725  0.9219  1.2686  0.0621
 8537TIP3   OH225543   0.911   5.388   3.870 -0.1157 -0.3635 -0.2346
 8537TIP3    H125544   0.861   5.426   3.942  0.1545 -0.7754  0.1807
 8537TIP3    H225545   0.858   5.314   3.840 -0.0784 -0.3868 -0.2436
 8538TIP3   OH225546   3.058   6.147   4.183 -0.3205 -0.1430 -0.5427
 8538TIP3    H125547   3.064   6.237   4.214  1.0190 -0.4447  0.1022
 8538TIP3    H225548   3.135   6.135   4.127 -1.2119 -0.4795 -1.7357
 8539TIP3   OH225549   2.880   5.674   5.660 -0.0380 -0.0315  0.3351
 8539TIP3    H125550   2.892   5.585   5.626 -1.3955 -0.2907  0.5390
 8539TIP3    H225551   2.844   5.724   5.587 -1.3838 -0.1853  0.8963
 8540TIP3   OH225552   6.487   6.169   4.196  0.0518  0.2724 -0.1306
 8540TIP3    H125553   6.538   6.189   4.274  0.3783 -0.8769 -0.0474
 8540TIP3    H225554   6.542   6.108   4.146 -1.2414 -0.9874 -0.0351
 8541TIP3   OH225555   5.234   6.908   3.146  0.1681  0.2739 -0.6515
 8541TIP3    H125556   5.194   6.940   3.227  1.0286 -0.6270  0.1361
 8541TIP3    H225557   5.328   6.906   3.165  0.3952  0.2400 -1.7436
 8542TIP3   OH225558   2.761   6.597   5.942  0.1652  0.2233 -0.3277
 8542TIP3    H125559   2.731   6.580   6.031  3.0713 -0.2182  0.6351
 8542TIP3    H225560   2.719   6.679   5.918 -0.7533  0.2950  1.4103
 8543TIP3   OH225561   4.037   5.743   5.417 -0.4414  0.6548  0.1315
 8543TIP3    H125562   4.048   5.838   5.420  0.6867  0.5074  1.2011
 8543TIP3    H225563   4.090   5.715   5.343  0.8226  0.6572  1.0333
 8544TIP3   OH225564   5.209   5.566   4.453  0.2703  0.0928  0.2904
 8544TIP3    H125565   5.304   5.567   4.443  0.1465  2.3186 -0.9826
 8544TIP3    H225566   5.185   5.473   4.444  2.2514 -0.4085 -0.0228
 8545TIP3   OH225567   3.413   5.857   5.312 -0.5612 -0.4134 -0.2252
 8545TIP3    H125568   3.488   5.917   5.318 -1.1415  0.2132  0.8779
 8545TIP3    H225569   3.452   5.770   5.317  0.1402 -0.0972 -0.0839
 8546TIP3   OH225570   5.991   6.869   3.189 -0.2188 -0.2881 -0.8030
 8546TIP3    H125571   5.919   6.810   3.166 -1.5182  1.2603 -0.7660
 8546TIP3    H225572   5.991   6.871   3.284 -1.5622  1.4107 -0.8160
 8547TIP3   OH225573   3.200   5.377   2.912 -0.0631  0.6348 -0.0024
 8547TIP3    H125574   3.195   5.294   2.959 -1.3986  0.1703 -0.9508
 8547TIP3    H225575   3.165   5.442   2.973 -2.6021 -0.0945 -0.6622
 8548TIP3   OH225576   8.468   1.386  -0.026 -0.1205  0.1170  0.3114
 8548TIP3    H125577   8.406   1.313  -0.022 -1.8457  1.5944  1.2536
 8548TIP3    H225578   8.526   1.372   0.049  0.4785 -1.0472 -0.3424
 8549TIP3   OH225579   1.256   6.670   3.013  0.0699  0.1562  0.1095
 8549TIP3    H125580   1.242   6.683   3.107 -1.7749  1.1579 -0.2753
 8549TIP3    H225581   1.328   6.730   2.991  1.2289 -0.8664  1.0727
 8550TIP3   OH225582   4.350   5.184   4.300  0.2166  0.3910 -0.3205
 8550TIP3    H125583   4.395   5.100   4.306  1.2832  0.9729 -0.0669
 8550TIP3    H225584   4.378   5.232   4.378  0.4549  1.3715 -1.0018
 8551TIP3   OH225585   3.158   5.665   4.661 -0.2360 -0.5194  0.4409
 8551TIP3    H125586   3.078   5.639   4.615 -0.0016 -0.9370  0.2661
 8551TIP3    H225587   3.204   5.720   4.597  0.0713 -1.0685  0.1882
 8552TIP3   OH225588   1.106   3.041   5.881  0.2160 -0.3970  0.3407
 8552TIP3    H125589   1.061   3.000   5.955 -0.4409 -1.9565 -0.8739
 8552TIP3    H225590   1.080   3.132   5.884 -1.1949 -0.8139  1.0272
 8553TIP3   OH225591   5.277   6.516   3.319  0.4778 -0.0984 -0.2463
 8553TIP3    H125592   5.204   6.550   3.267  1.4885  0.2492 -1.4526
 8553TIP3    H225593   5.243   6.435   3.357 -0.8896  0.6047  0.0775
 8554TIP3   OH225594   2.178   3.420   2.969 -0.2768 -0.4486  0.2116
 8554TIP3    H125595   2.188   3.515   2.957  0.7570 -0.3454  1.6897
 8554TIP3    H225596   2.084   3.405   2.962 -0.3776  0.5850 -0.7645
 8555TIP3   OH225597   0.084   2.963   0.853 -0.0537 -0.0506  0.3387
 8555TIP3    H125598   0.082   2.987   0.760 -0.3272  1.2375  0.6655
 8555TIP3    H225599   0.068   3.045   0.899  0.6788 -0.5808  1.5504
 8556TIP3   OH225600   2.981   7.560   4.944  0.3638  0.1723 -0.3185
 8556TIP3    H125601   2.975   7.492   4.876 -0.1511  0.0004 -0.0955
 8556TIP3    H225602   2.911   7.541   5.005  0.8923  0.2692  0.3313
 8557TIP3   OH225603   7.142   0.182   3.112  0.3941 -0.5452  0.1115
 8557TIP3    H125604   7.081   0.114   3.139  0.4550 -0.2712  0.9600
 8557TIP3    H225605   7.226   0.136   3.105  0.1434 -0.8673 -0.8012
 8558TIP3   OH225606   6.860   1.018   4.659  0.7936 -0.4328 -0.3234
 8558TIP3    H125607   6.769   0.998   4.638  1.0139 -0.8042 -0.9673
 8558TIP3    H225608   6.857   1.058   4.746  0.0498 -0.7221 -0.2111
 8559TIP3   OH225609   5.090   5.732   1.748  0.3279  0.6770  0.3887
 8559TIP3    H125610   5.134   5.688   1.675 -0.8986 -3.3108  1.9014
 8559TIP3    H225611   5.018   5.781   1.707  0.5096 -0.3557 -1.2161
 8560TIP3   OH225612   1.619   4.398   6.465 -0.8524  0.4913  0.1245
 8560TIP3    H125613   1.697   4.391   6.409 -1.9533 -1.1760 -1.2706
 8560TIP3    H225614   1.628   4.482   6.509  2.1481 -0.0288  0.6119
 8561TIP3   OH225615   5.640   1.830   4.775  0.1885  0.3045 -0.5052
 8561TIP3    H125616   5.569   1.765   4.780  1.2149 -0.7523  0.7014
 8561TIP3    H225617   5.653   1.859   4.865  3.1809 -1.6458 -0.2201
 8562TIP3   OH225618   2.550   5.723   4.029  0.0232  0.5466 -0.3063
 8562TIP3    H125619   2.627   5.671   4.052 -0.9797  0.0800  2.2121
 8562TIP3    H225620   2.565   5.751   3.939  1.6169 -2.2378 -0.9546
 8563TIP3   OH225621   3.591   5.799   4.016 -0.2775 -0.0398  0.0652
 8563TIP3    H125622   3.599   5.809   3.921 -0.4957  2.1012  0.2561
 8563TIP3    H225623   3.678   5.772   4.045  0.3050  1.1642 -0.5290
 8564TIP3   OH225624   6.164   6.716   2.223  0.2674  0.1044 -0.3579
 8564TIP3    H125625   6.153   6.803   2.260 -1.9537 -0.7737  1.1583
 8564TIP3    H225626   6.151   6.728   2.129  0.0334  1.4103 -0.1672
 8565TIP3   OH225627   2.994   5.281   4.099 -0.4687 -0.0605  0.0843
 8565TIP3    H125628   2.995   5.188   4.077 -0.3688 -0.4877  1.8447
 8565TIP3    H225629   2.909   5.312   4.066  0.1321 -0.3912 -1.8884
 8566TIP3   OH225630   5.152   1.528   1.506 -0.3430 -0.1017 -0.0183
 8566TIP3    H125631   5.075   1.582   1.523 -1.8114 -2.0974 -0.2627
 8566TIP3    H225632   5.167   1.480   1.588 -0.1062 -0.6418 -0.3765
 8567TIP3   OH225633   2.826   6.986   3.933 -0.3884  0.0653 -0.4388
 8567TIP3    H125634   2.758   6.961   3.996  0.1722 -0.6823 -0.1343
 8567TIP3    H225635   2.789   6.963   3.848 -0.4317 -0.5340 -0.2566
 8568TIP3   OH225636   2.372   5.563   4.351  0.0876  0.2521  0.0440
 8568TIP3    H125637   2.316   5.600   4.420  0.1957  1.3411 -0.4277
 8568TIP3    H225638   2.342   5.607   4.271  1.3875  0.5914 -0.2705
 8569TIP3   OH225639   4.339   4.668   4.837 -0.0506 -0.1739  0.1620
 8569TIP3    H125640   4.382   4.666   4.923  0.8023 -0.2845 -0.2672
 8569TIP3    H225641   4.290   4.751   4.837  0.1264 -0.0670  0.6612
 8570TIP3   OH225642   1.799   5.664   5.201  0.3793 -0.3268 -0.0124
 8570TIP3    H125643   1.756   5.629   5.123 -1.3495  1.0180  0.2995
 8570TIP3    H225644   1.854   5.735   5.169 -2.5363  2.1287  0.2673
 8571TIP3   OH225645   4.384   6.652   2.789  0.3510  0.1978  0.8454
 8571TIP3    H125646   4.387   6.745   2.810 -2.1560  0.5368 -0.1823
 8571TIP3    H225647   4.426   6.646   2.703 -1.2178  0.6930  0.0187
 8572TIP3   OH225648   1.769   4.058   4.924  0.2478 -0.1149 -0.1509
 8572TIP3    H125649   1.695   4.116   4.908  0.4095  0.6616  1.8737
 8572TIP3    H225650   1.829   4.077   4.852 -0.4042  1.0702 -0.4001
 8573TIP3   OH225651   4.898   4.147   3.314  0.5242 -0.2526 -0.2222
 8573TIP3    H125652   4.974   4.100   3.348 -0.3228 -0.8433  0.8779
 8573TIP3    H225653   4.867   4.199   3.388  0.1083  0.3239 -0.7936
 8574TIP3   OH225654   4.573   6.080   2.692  0.0757 -0.1644  0.1867
 8574TIP3    H125655   4.556   6.164   2.649  1.6748  0.4897  0.8068
 8574TIP3    H225656   4.519   6.082   2.771 -0.9085 -0.2935 -0.4735
 8575TIP3   OH225657   3.772   5.173   2.625 -0.4649 -0.5339 -0.1857
 8575TIP3    H125658   3.825   5.226   2.567  0.1114  0.6099  1.3583
 8575TIP3    H225659   3.734   5.105   2.568 -0.3002  0.8326 -1.9552
 8576TIP3   OH225660   6.894   1.006   3.581  0.1808 -0.0971 -0.4295
 8576TIP3    H125661   6.808   1.009   3.624 -0.1057 -1.2524 -0.8992
 8576TIP3    H225662   6.897   1.085   3.527 -0.5025  0.0480 -0.2590
 8577TIP3   OH225663   1.266   6.059   3.198 -0.9486  0.2032  0.1416
 8577TIP3    H125664   1.173   6.047   3.180 -0.8574 -3.0604  1.4600
 8577TIP3    H225665   1.310   6.008   3.130 -0.0870  1.7832 -0.5218
 8578TIP3   OH225666   3.468   6.851   3.980 -0.0219  0.2021 -0.3173
 8578TIP3    H125667   3.549   6.883   3.941  0.0364  0.6654  0.1751
 8578TIP3    H225668   3.491   6.765   4.016  1.2022  1.8094  2.9316
 8579TIP3   OH225669   5.875   0.154   4.054 -0.2036  0.3014 -0.2039
 8579TIP3    H125670   5.930   0.207   4.111  0.4790 -0.8060  0.1821
 8579TIP3    H225671   5.885   0.194   3.967  1.1902  0.1307 -0.1287
 8580TIP3   OH225672   3.655   7.453   2.394  0.3813 -0.1937  0.4713
 8580TIP3    H125673   3.571   7.407   2.391  0.9070 -1.0781 -2.5207
 8580TIP3    H225674   3.654   7.509   2.316  1.3016  2.0966  2.0814
 8581TIP3   OH225675   0.056   1.902   0.434  0.2580  0.5572  0.3836
 8581TIP3    H125676   0.039   1.995   0.419 -1.1414  0.7181  2.8026
 8581TIP3    H225677   0.019   1.859   0.357 -0.9085  1.8525  0.1983
 8582TIP3   OH225678   3.034   6.131   5.132  0.6322  0.5549  0.0300
 8582TIP3    H125679   3.085   6.053   5.155 -0.0846  0.0895  0.0262
 8582TIP3    H225680   3.022   6.177   5.215 -0.5115 -0.2700  0.3217
 8583TIP3   OH225681   1.755   6.274   2.386  0.3993 -0.0390 -0.3701
 8583TIP3    H125682   1.731   6.230   2.468  2.0323  0.2978  0.3160
 8583TIP3    H225683   1.798   6.355   2.415 -1.1336  1.2390 -1.5917
 8584TIP3   OH225684   4.635   5.702   5.353  0.2740  0.2858  0.3329
 8584TIP3    H125685   4.682   5.776   5.314 -0.4968  0.6348  0.0599
 8584TIP3    H225686   4.620   5.642   5.280  1.0597 -0.2297  0.5897
 8585TIP3   OH225687   4.752   6.978   3.663 -0.0207 -0.2865 -0.1538
 8585TIP3    H125688   4.748   6.921   3.739 -0.1365 -0.9491 -0.6435
 8585TIP3    H225689   4.674   6.954   3.612  0.6215 -0.5917 -0.9952
 8586TIP3   OH225690   8.121   0.268   2.285 -0.5736 -0.2664  0.1916
 8586TIP3    H125691   8.103   0.236   2.374 -0.7569  1.3897  0.7687
 8586TIP3    H225692   8.036   0.299   2.253 -0.3924 -0.3072 -0.3249
 8587TIP3   OH225693   5.339   5.712   3.380 -0.2609 -0.4623 -0.6408
 8587TIP3    H125694   5.384   5.628   3.387 -0.5568 -0.4816  1.3014
 8587TIP3    H225695   5.354   5.755   3.464 -0.3715  1.3163 -1.4914
 8588TIP3   OH225696   5.477   6.019   0.436 -0.1009 -0.2845  0.3235
 8588TIP3    H125697   5.567   5.992   0.453 -0.2366 -0.6841  0.4251
 8588TIP3    H225698   5.442   6.044   0.521  0.2889  1.0454  0.1034
 8589TIP3   OH225699   8.438   0.952   4.708  0.5434 -0.0745  0.7647
 8589TIP3    H125700   8.520   0.925   4.667  0.5226 -0.2295  0.8262
 8589TIP3    H225701   8.412   0.876   4.761 -0.5675 -0.7210 -0.6660
 8590TIP3   OH225702   6.410   0.479   3.198  0.5956  0.2634 -0.2453
 8590TIP3    H125703   6.469   0.531   3.253  0.6237 -1.3900  1.3449
 8590TIP3    H225704   6.368   0.418   3.259 -1.3146  0.1132 -1.6689
 8591TIP3   OH225705   5.486   5.035   3.669 -0.7445  0.2577  0.4806
 8591TIP3    H125706   5.416   5.060   3.608  0.4392  1.0353 -0.5730
 8591TIP3    H225707   5.563   5.082   3.638  0.9711 -2.8277 -0.0706
 8592TIP3   OH225708   4.368   7.829   4.257  0.6626  0.8616 -0.2356
 8592TIP3    H125709   4.361   7.734   4.257  1.2073  0.8143  0.8295
 8592TIP3    H225710   4.406   7.850   4.172  0.0175  0.1712 -0.6951
 8593TIP3   OH225711   1.222   0.356   4.551 -0.6934  0.2218 -0.1733
 8593TIP3    H125712   1.134   0.333   4.581 -0.8129 -0.4196 -1.0195
 8593TIP3    H225713   1.255   0.277   4.509  0.5310  0.2597  0.6884
 8594TIP3   OH225714   5.077   6.168   5.234  0.3613 -0.0374 -0.5640
 8594TIP3    H125715   5.089   6.260   5.256  2.0839 -0.4328  0.3020
 8594TIP3    H225716   5.087   6.122   5.317  0.9479 -1.1110 -1.2132
 8595TIP3   OH225717   7.487   5.268   2.353 -0.2500 -0.5918  0.4838
 8595TIP3    H125718   7.566   5.227   2.386 -0.1189 -0.3872  0.4232
 8595TIP3    H225719   7.430   5.275   2.430 -0.1436 -0.5827  0.5626
 8596TIP3   OH225720   4.089   6.433   5.199  0.0387 -0.3638  0.1656
 8596TIP3    H125721   4.129   6.385   5.127  0.8927 -0.1268  0.4736
 8596TIP3    H225722   4.033   6.498   5.156  1.4129  0.5285 -0.3205
 8597TIP3   OH225723   4.402   6.178   4.075  0.3916 -0.4875 -0.6254
 8597TIP3    H125724   4.378   6.085   4.079 -1.3869 -0.0524 -0.9450
 8597TIP3    H225725   4.414   6.204   4.166 -0.3095 -0.7233 -0.4660
 8598TIP3   OH225726   7.973   7.159   1.882 -0.2795  0.0873 -0.1646
 8598TIP3    H125727   8.053   7.130   1.839 -1.1326  1.2902 -2.6436
 8598TIP3    H225728   7.916   7.082   1.881  0.5221 -0.5315  0.8610
 8599TIP3   OH225729   6.754   5.090   1.885 -0.3936 -0.3126  0.3525
 8599TIP3    H125730   6.673   5.141   1.882 -0.5570 -0.6387 -2.0997
 8599TIP3    H225731   6.724   4.999   1.881  0.0622 -0.4465 -0.0421
 8600TIP3   OH225732   5.826   4.613   2.488 -0.6856 -0.1667 -0.1546
 8600TIP3    H125733   5.884   4.667   2.435  1.3920 -0.4817  1.7244
 8600TIP3    H225734   5.834   4.525   2.451  0.5286 -0.3278  0.4615
 8601TIP3   OH225735   5.992   6.069   4.137 -0.1172 -0.7227  0.1841
 8601TIP3    H125736   6.022   6.037   4.052  0.4611 -0.5521  0.3259
 8601TIP3    H225737   6.068   6.060   4.194 -0.4405 -0.6263  0.6265
 8602TIP3   OH225738   2.999   5.454   3.430 -0.3421 -0.7185 -0.1758
 8602TIP3    H125739   3.067   5.394   3.397 -0.3264 -0.6913 -0.1921
 8602TIP3    H225740   2.928   5.445   3.367 -1.4240 -2.7580  1.2621
 8603TIP3   OH225741   3.553   5.580   4.989  0.0324 -0.0702  0.1571
 8603TIP3    H125742   3.502   5.507   4.954  1.4545  0.8054 -3.9246
 8603TIP3    H225743   3.493   5.655   4.986 -0.1630 -0.2002  0.6403
 8604TIP3   OH225744   5.845   4.136   3.356  0.4986  0.1742  0.0961
 8604TIP3    H125745   5.857   4.191   3.279 -0.0828 -1.6169 -1.2960
 8604TIP3    H225746   5.928   4.144   3.404  1.2422  0.5344 -1.2252
 8605TIP3   OH225747   6.914   4.873   3.002  0.1559 -0.5616 -0.8995
 8605TIP3    H125748   6.962   4.867   2.920 -0.3697  0.4499 -1.2860
 8605TIP3    H225749   6.867   4.956   2.997  0.2711 -0.3918  0.5041
 8606TIP3   OH225750   5.366   5.069   3.418 -0.3025 -0.0747 -0.2158
 8606TIP3    H125751   5.333   5.148   3.376 -0.3610 -0.4536 -0.8943
 8606TIP3    H225752   5.437   5.038   3.361 -0.0677 -0.3374  0.2082
 8607TIP3   OH225753   2.675   0.865   4.817  0.3319  0.1642  0.1205
 8607TIP3    H125754   2.664   0.806   4.743 -0.9024 -0.5971  0.8936
 8607TIP3    H225755   2.660   0.953   4.781  0.8594 -0.1071 -0.7568
 8608TIP3   OH225756   2.480   6.254   3.145 -1.3317  0.0029  0.0416
 8608TIP3    H125757   2.496   6.169   3.187 -0.2251  0.3338  0.3153
 8608TIP3    H225758   2.412   6.295   3.198 -0.3306  0.1836  1.2061
 8609TIP3   OH225759   8.043   0.100   3.221  0.0141 -0.0932 -0.1657
 8609TIP3    H125760   8.015   0.165   3.285 -1.1212  0.8381 -1.5645
 8609TIP3    H225761   8.111   0.050   3.265  1.2545  2.3463  0.7942
 8610TIP3   OH225762   5.174   4.697   3.189 -0.3097 -0.1329  0.6446
 8610TIP3    H125763   5.248   4.646   3.224  0.0091 -0.8959 -1.0502
 8610TIP3    H225764   5.135   4.739   3.265 -0.9064 -3.3603  2.2125
 8611TIP3   OH225765   7.298   5.469   2.760 -0.2943  0.5719  0.0209
 8611TIP3    H125766   7.220   5.437   2.806  0.7510 -0.7707  0.8685
 8611TIP3    H225767   7.368   5.463   2.824  0.5818  1.5136 -0.8286
 8612TIP3   OH225768   5.977   0.358   4.821 -0.3637 -0.4086 -0.3205
 8612TIP3    H125769   6.018   0.352   4.908 -0.9337  0.2413 -0.0025
 8612TIP3    H225770   6.047   0.392   4.765  0.1914 -1.4101 -0.2534
 8613TIP3   OH225771   6.113   6.219   1.966 -0.2194  0.0842  0.5947
 8613TIP3    H125772   6.019   6.213   1.981 -0.3394  0.5644  0.0816
 8613TIP3    H225773   6.152   6.160   2.030 -0.8748 -0.1728  0.7600
 8614TIP3   OH225774   4.351   5.320   4.656 -0.2129  0.1726 -0.1944
 8614TIP3    H125775   4.379   5.382   4.723  0.5591 -1.4047  0.9918
 8614TIP3    H225776   4.419   5.324   4.589  0.3386 -0.1050  0.3458
 8615TIP3   OH225777   4.613   6.861   3.008 -0.4719  0.2097 -0.2506
 8615TIP3    H125778   4.680   6.928   3.015  1.0890 -1.1633 -1.6808
 8615TIP3    H225779   4.566   6.882   2.927  0.9044 -1.2037 -1.4228
 8616TIP3   OH225780   5.188   5.912   4.178 -0.0948  0.4002  0.1780
 8616TIP3    H125781   5.229   5.966   4.245 -0.9079  1.5231 -0.2124
 8616TIP3    H225782   5.122   5.970   4.138  0.4552 -0.2186 -1.6437
 8617TIP3   OH225783   5.996   4.518   2.722  0.1387  0.1919  0.4908
 8617TIP3    H125784   5.947   4.597   2.743 -1.2102 -0.5445  0.2021
 8617TIP3    H225785   5.928   4.452   2.706  1.2359 -0.8663  0.1579
 8618TIP3   OH225786   6.525   6.324   3.710 -0.1527 -0.3469  0.0708
 8618TIP3    H125787   6.445   6.352   3.667  0.1443 -0.1110 -0.3317
 8618TIP3    H225788   6.585   6.398   3.701 -0.1650 -0.1988  1.1023
 8619TIP3   OH225789   4.914   5.552   3.088  0.1402 -0.0711  0.5771
 8619TIP3    H125790   4.881   5.475   3.135 -1.2784  0.6909  0.8442
 8619TIP3    H225791   4.838   5.584   3.039  1.5405 -0.7862 -2.2056
 8620TIP3   OH225792   5.586   0.265   3.729  0.0326 -0.3550  0.4375
 8620TIP3    H125793   5.539   0.339   3.767  0.5067  0.2235 -0.1080
 8620TIP3    H225794   5.559   0.263   3.638  2.8662  1.4598 -0.5048
 8621TIP3   OH225795   4.610   6.369   3.108  0.2457 -0.3246 -0.5772
 8621TIP3    H125796   4.557   6.448   3.096  3.1721  1.7409 -0.5160
 8621TIP3    H225797   4.682   6.379   3.046  2.1790 -1.5368  1.3837
 8622TIP3   OH225798   3.452   5.302   4.678 -0.1187 -0.1530 -0.3108
 8622TIP3    H125799   3.495   5.253   4.748  0.9656 -0.2224 -1.0237
 8622TIP3    H225800   3.400   5.237   4.631 -0.9050 -0.0948  0.4602
 8623TIP3   OH225801   7.992   0.810   3.212 -0.2545 -0.2091 -0.1734
 8623TIP3    H125802   8.000   0.822   3.117  1.2053  0.4520  0.0060
 8623TIP3    H225803   7.906   0.845   3.233 -0.2654  0.3921 -1.1525
 8624TIP3   OH225804   6.683   6.692   4.693  0.0941 -0.0375  0.2218
 8624TIP3    H125805   6.767   6.738   4.691 -0.1057  0.3123 -0.1707
 8624TIP3    H225806   6.705   6.603   4.719  0.9272 -0.6993 -2.5918
 8625TIP3   OH225807   5.809   6.981   2.090  0.2669 -0.1741  0.4243
 8625TIP3    H125808   5.728   6.946   2.128 -2.1251  2.1868 -2.2377
 8625TIP3    H225809   5.840   7.045   2.154 -0.7259 -0.1279  0.8629
 8626TIP3   OH225810   5.913   6.664   4.313  0.0075  0.0789  0.3045
 8626TIP3    H125811   5.831   6.713   4.314 -0.5420 -0.8014 -0.0684
 8626TIP3    H225812   5.945   6.667   4.403 -0.3794  0.5159  0.4270
 8627TIP3   OH225813   5.342   5.709   1.861  0.2651  0.2517 -0.4183
 8627TIP3    H125814   5.257   5.729   1.821 -0.2889  2.1716  1.6380
 8627TIP3    H225815   5.399   5.690   1.786 -1.8273 -0.5964 -1.8682
 8628TIP3   OH225816   5.162   1.210   3.278 -0.1781  0.0245 -0.6317
 8628TIP3    H125817   5.169   1.303   3.256 -1.1059  0.2401 -0.0398
 8628TIP3    H225818   5.154   1.166   3.194 -0.2700  0.5346 -0.8935
 8629TIP3   OH225819   6.056   5.268   3.133 -0.2160 -0.8371  0.3556
 8629TIP3    H125820   6.037   5.360   3.149 -0.7214 -1.0041  0.7260
 8629TIP3    H225821   6.119   5.243   3.200  1.3773 -0.2699 -0.9030
 8630TIP3   OH225822   8.369   0.703   3.619  0.1835  0.0074 -0.0079
 8630TIP3    H125823   8.382   0.796   3.600 -0.5085  0.2379  0.5866
 8630TIP3    H225824   8.288   0.681   3.573  0.5349 -0.3933 -0.4343
 8631TIP3   OH225825   4.912   5.929   3.232  0.0241  0.5780 -0.1925
 8631TIP3    H125826   4.869   5.901   3.151  1.8228  0.2210 -1.0357
 8631TIP3    H225827   4.989   5.872   3.240 -0.9123 -0.4175  2.5556
 8632TIP3   OH225828   3.612   6.874   4.537  0.1505 -0.4121  0.0436
 8632TIP3    H125829   3.550   6.922   4.592 -0.8268 -2.3201  0.6321
 8632TIP3    H225830   3.697   6.892   4.577 -0.1816  0.8856  0.2083
 8633TIP3   OH225831   4.052   7.449   5.099  0.4417  0.2079  0.4433
 8633TIP3    H125832   4.066   7.422   5.190 -0.1153 -2.0910 -0.1193
 8633TIP3    H225833   3.959   7.474   5.096 -0.1027 -1.8366  0.0048
 8634TIP3   OH225834   3.772   7.742   3.899 -0.0713  0.2653 -0.0807
 8634TIP3    H125835   3.749   7.728   3.990  0.5675 -1.3242 -0.1325
 8634TIP3    H225836   3.861   7.777   3.902 -0.4844  1.3323 -0.0638
 8635TIP3   OH225837   4.739   7.956   2.362  0.2512 -0.1646  0.0923
 8635TIP3    H125838   4.766   8.044   2.388  0.1386  0.4871 -1.9208
 8635TIP3    H225839   4.729   7.961   2.267  0.5026 -2.4224 -0.0773
 8636TIP3   OH225840   7.736   7.532   1.894  0.1198  0.1691  0.0171
 8636TIP3    H125841   7.645   7.559   1.891  0.2947  0.9479  1.2787
 8636TIP3    H225842   7.784   7.612   1.915  1.1446 -0.1349 -1.0896
 8637TIP3   OH225843   5.512   7.460   4.232  0.3232 -0.2711  0.5302
 8637TIP3    H125844   5.575   7.483   4.301 -0.4804 -1.0446  1.5487
 8637TIP3    H225845   5.532   7.519   4.160  1.6921  0.0334  1.1468
 8638TIP3   OH225846   0.521   0.027   3.104  0.0889  0.1121  0.1512
 8638TIP3    H125847   0.561   0.105   3.066 -0.1692 -0.5597 -1.5724
 8638TIP3    H225848   0.541  -0.043   3.041 -1.2861 -0.8200  0.7157
 8639TIP3   OH225849   7.562   0.079   4.099  0.4292 -0.1048 -0.5060
 8639TIP3    H125850   7.490   0.133   4.132 -0.3083 -1.3403 -0.0428
 8639TIP3    H225851   7.625   0.075   4.170  0.0863 -0.5534 -0.2245
 8640TIP3   OH225852   6.938   6.962   4.458  0.1861 -0.1951  0.3531
 8640TIP3    H125853   6.883   7.038   4.443 -1.1487 -1.1545  0.2503
 8640TIP3    H225854   7.023   6.998   4.482  0.0460  1.3278 -1.2994
 8641TIP3   OH225855   2.748   2.831   0.378 -0.2553  0.0762  0.6531
 8641TIP3    H125856   2.770   2.757   0.435 -0.8565 -0.6778 -0.0889
 8641TIP3    H225857   2.659   2.813   0.348 -0.0737  0.6417 -0.2515
 8642TIP3   OH225858   4.915   6.633   3.212 -0.1859  0.5373  0.0622
 8642TIP3    H125859   4.860   6.634   3.134 -0.1024  0.4776  0.0033
 8642TIP3    H225860   4.854   6.617   3.284 -0.3843  1.4704  0.1036
 8643TIP3   OH225861   8.094   5.617   4.574  0.4320  0.3341  0.0326
 8643TIP3    H125862   8.080   5.621   4.479 -1.2835  1.0494  0.3074
 8643TIP3    H225863   8.010   5.591   4.610  0.9627  0.4811  1.4041
 8644TIP3   OH225864   5.326   4.963   2.911 -0.0883 -0.1046 -0.0020
 8644TIP3    H125865   5.342   5.046   2.955  1.4153 -0.0828 -0.5659
 8644TIP3    H225866   5.398   4.954   2.849 -0.3609 -1.7238 -0.1122
 8645TIP3   OH225867   5.945   5.197   2.669  0.4015 -0.0720 -0.1614
 8645TIP3    H125868   5.966   5.185   2.761 -0.6916 -0.6275  0.0190
 8645TIP3    H225869   5.980   5.118   2.626 -0.0527 -0.3334 -0.0590
 8646TIP3   OH225870   4.720   7.082   3.378  0.1130 -0.1518 -0.0562
 8646TIP3    H125871   4.639   7.035   3.360  0.6985 -0.0317 -3.1131
 8646TIP3    H225872   4.787   7.014   3.387  0.1936 -0.1135 -0.3557
 8647TIP3   OH225873   6.367   5.929   3.400 -0.5010  0.4603  0.1987
 8647TIP3    H125874   6.436   5.929   3.466 -0.2230 -0.5613 -0.0832
 8647TIP3    H225875   6.342   6.021   3.392 -0.7360  0.5551  1.9259
 8648TIP3   OH225876   3.657   7.624   1.472  0.0603  0.0444 -0.3809
 8648TIP3    H125877   3.687   7.674   1.396 -0.4690  0.7149 -0.1554
 8648TIP3    H225878   3.562   7.633   1.470  0.0849  0.6031  0.7283
 8649TIP3   OH225879   7.850   0.285   2.186 -0.2545 -0.0629 -0.5240
 8649TIP3    H125880   7.837   0.307   2.278  0.5005  0.3894 -0.5233
 8649TIP3    H225881   7.785   0.338   2.139  1.3906  2.0493 -0.5062
 8650TIP3   OH225882   5.606   5.586   4.193 -0.0440  0.7305  0.0858
 8650TIP3    H125883   5.564   5.539   4.264 -0.4035  0.5460 -0.2511
 8650TIP3    H225884   5.589   5.534   4.115  2.2240 -0.2370  0.1883
 8651TIP3   OH225885   6.019   7.678   4.879  0.3970 -0.2577 -0.3502
 8651TIP3    H125886   6.051   7.670   4.789  1.8505 -1.9051  0.2687
 8651TIP3    H225887   5.929   7.646   4.876  0.0239  0.8880 -1.4431
 8652TIP3   OH225888   4.441   5.940   2.406 -0.4133 -0.1749  0.3869
 8652TIP3    H125889   4.497   5.883   2.458 -0.4525 -1.8809 -1.3519
 8652TIP3    H225890   4.496   6.015   2.384 -0.5206  0.7482  3.1331
 8653TIP3   OH225891   5.197   5.980   1.820 -1.1403  0.7958  0.3074
 8653TIP3    H125892   5.151   5.897   1.827 -0.4329  0.5581  2.2635
 8653TIP3    H225893   5.250   5.986   1.899  0.4549  2.1199 -0.8046
 8654TIP3   OH225894   4.472   8.010   2.062  0.7480 -0.0506  0.1986
 8654TIP3    H125895   4.548   7.964   2.097  0.9391 -1.2845 -1.7786
 8654TIP3    H225896   4.501   8.047   1.979 -0.7321 -0.3637 -0.4890
 8655TIP3   OH225897   4.787   6.332   2.123  0.2778 -0.0895  0.1708
 8655TIP3    H125898   4.809   6.383   2.045  2.1577 -1.6886 -0.4000
 8655TIP3    H225899   4.857   6.351   2.185  0.1744 -0.7698  0.5099
 8656TIP3   OH225900   4.249   7.051   3.984  0.2100  0.3084  0.1142
 8656TIP3    H125901   4.204   7.115   3.929  1.1219  1.6485  0.9257
 8656TIP3    H225902   4.308   7.006   3.923 -0.4253  0.2096 -0.4487
 8657TIP3   OH225903   6.709   6.472   3.593  0.5014  0.1114 -0.3303
 8657TIP3    H125904   6.782   6.525   3.624  0.6770 -0.7065  0.6777
 8657TIP3    H225905   6.749   6.389   3.568 -0.2413 -0.8035  1.4434
 8658TIP3   OH225906   5.996   5.574   1.639  0.2807  0.9475 -0.7292
 8658TIP3    H125907   5.944   5.520   1.579  1.6354 -0.1760 -0.8949
 8658TIP3    H225908   6.063   5.515   1.673 -1.4552  1.1283  3.1793
 8659TIP3   OH225909   6.608   5.094   2.739 -0.6187 -0.2250 -0.7022
 8659TIP3    H125910   6.522   5.126   2.766  0.0741  0.5765  0.6352
 8659TIP3    H225911   6.630   5.146   2.662 -0.7036  0.6137 -0.1730
 8660TIP3   OH225912   6.444   4.633   2.033  0.0253 -0.2087 -0.5361
 8660TIP3    H125913   6.440   4.662   2.125 -0.2108 -0.7385 -0.3736
 8660TIP3    H225914   6.360   4.660   1.997  0.0609 -0.1251 -0.5559
 8661TIP3   OH225915   4.809   6.174   4.362  0.2942  0.4607  0.0827
 8661TIP3    H125916   4.808   6.256   4.313  0.3442 -0.4678 -1.5003
 8661TIP3    H225917   4.830   6.200   4.452 -2.5276  2.4935  0.2291
 8662TIP3   OH225918   6.189   7.836   4.378 -0.4663  0.7581 -0.3979
 8662TIP3    H125919   6.137   7.804   4.305  0.6086  0.3134 -0.9757
 8662TIP3    H225920   6.262   7.883   4.338  0.4492  0.0179  0.3503
 8663TIP3   OH225921   6.901   0.406   4.246  0.0174 -0.1518  0.2208
 8663TIP3    H125922   6.953   0.327   4.230 -0.2258 -0.3798  0.5599
 8663TIP3    H225923   6.880   0.439   4.159  1.2972  0.3110  0.0767
 8664TIP3   OH225924   7.477   0.320   1.579 -0.3547 -0.7834 -0.0355
 8664TIP3    H125925   7.400   0.375   1.593  0.7026  0.6249  0.4378
 8664TIP3    H225926   7.443   0.240   1.539 -1.7522  0.9291 -2.4021
 8665TIP3   OH225927   4.276   4.847   3.369 -0.3426  0.1254 -0.8794
 8665TIP3    H125928   4.340   4.851   3.297  0.5730  2.0282  0.0051
 8665TIP3    H225929   4.316   4.790   3.434  0.1699  0.8017 -0.6008
 8666TIP3   OH225930   6.289   4.941   1.080  0.2264 -0.3798  0.9108
 8666TIP3    H125931   6.367   4.992   1.057 -0.0046 -0.6873 -0.6258
 8666TIP3    H225932   6.323   4.856   1.108  0.4053 -0.8982 -0.8267
 8667TIP3   OH225933   5.343   5.363   1.713  0.5529  0.1663  0.3132
 8667TIP3    H125934   5.386   5.371   1.799 -1.4835 -0.5885  1.4276
 8667TIP3    H225935   5.334   5.453   1.682  2.1119  0.3922  0.4752
 8668TIP3   OH225936   4.832   4.910   4.039  0.2323 -0.1416 -0.1167
 8668TIP3    H125937   4.861   4.920   3.948  1.4331  0.6911  0.3412
 8668TIP3    H225938   4.886   4.839   4.074  1.0882  0.7646  0.4575
 8669TIP3   OH225939   5.796   5.845   3.947  0.2394  0.7448  0.1057
 8669TIP3    H125940   5.849   5.770   3.974 -1.7942 -0.4363  0.9119
 8669TIP3    H225941   5.818   5.914   4.010  0.6300  0.1783  0.5918
 8670TIP3   OH225942   3.789   8.036   3.354 -0.2083 -0.1452  0.1260
 8670TIP3    H125943   3.840   8.017   3.433 -0.7558 -1.4099  0.1835
 8670TIP3    H225944   3.778   7.952   3.311 -0.5673  0.4187 -0.9172
 8671TIP3   OH225945   6.196   4.918   3.353  0.4712  0.3171  0.3439
 8671TIP3    H125946   6.181   4.858   3.279  0.4312  0.0967  0.5293
 8671TIP3    H225947   6.117   4.971   3.358  0.1314 -0.2203  0.7421
 8672TIP3   OH225948   5.142   7.033   4.129  0.5895 -0.3890  0.0474
 8672TIP3    H125949   5.200   7.109   4.134 -0.9786  0.7684  1.5701
 8672TIP3    H225950   5.196   6.959   4.156  1.6161  0.4995  0.4747
 8673TIP3   OH225951   4.947   6.541   2.301 -0.2910 -0.4536 -0.0728
 8673TIP3    H125952   4.975   6.459   2.341 -0.3219 -0.7748 -0.7092
 8673TIP3    H225953   5.025   6.597   2.304  0.2165 -1.0874 -1.1571
 8674TIP3   OH225954   2.673   7.982   4.040  0.4390 -0.6324 -0.3172
 8674TIP3    H125955   2.660   7.939   3.956  0.4725  1.0994 -1.2288
 8674TIP3    H225956   2.594   7.960   4.090  0.9566 -2.6416 -0.3435
 8675TIP3   OH225957   6.098   5.790   2.103  0.4739 -0.0362 -0.0056
 8675TIP3    H125958   6.139   5.707   2.129  4.0498  0.7235 -2.8062
 8675TIP3    H225959   6.067   5.773   2.014  1.2001  1.5729 -0.5755
 8676TIP3   OH225960   4.319   6.477   5.807 -0.0626  0.0922  0.1193
 8676TIP3    H125961   4.383   6.479   5.737  1.4552 -0.0129  1.4766
 8676TIP3    H225962   4.254   6.544   5.783  1.3849  1.2832 -0.4972
 8677TIP3   OH225963   4.241   6.096   2.568 -0.3274  0.3866 -0.5439
 8677TIP3    H125964   4.291   6.026   2.526 -0.4429  0.3823 -0.6762
 8677TIP3    H225965   4.248   6.170   2.508  0.4174  0.7221 -0.0398
 8678TIP3   OH225966   4.333   7.738   2.681 -0.6417 -0.1704  0.1092
 8678TIP3    H125967   4.264   7.679   2.653  0.2394 -2.3096  2.2327
 8678TIP3    H225968   4.328   7.812   2.621 -1.6671 -2.4711 -2.7246
 8679TIP3   OH225969   8.418   6.362   2.432 -0.0595 -0.0238  0.2116
 8679TIP3    H125970   8.341   6.390   2.382 -0.8072  0.1883  1.4491
 8679TIP3    H225971   8.389   6.365   2.523  1.4096  0.0014  0.6851
 8680TIP3   OH225972   5.499   6.546   2.483 -0.1813  0.2585  0.4790
 8680TIP3    H125973   5.530   6.459   2.506 -1.9603 -0.2460  1.0416
 8680TIP3    H225974   5.570   6.584   2.431 -0.0180 -2.1266 -1.1284
 8681TIP3   OH225975   7.234   0.904   3.298 -0.3324  0.8273  0.3091
 8681TIP3    H125976   7.181   0.915   3.219 -1.4094  0.8543  1.0239
 8681TIP3    H225977   7.173   0.868   3.363  0.2598  1.8194  1.4422
 8682TIP3   OH225978   5.514   5.730   1.662 -0.0258 -0.0342 -0.2144
 8682TIP3    H125979   5.573   5.790   1.618  1.0240 -2.0847 -1.6506
 8682TIP3    H225980   5.509   5.653   1.604 -1.6908 -1.1476  1.3415
 8683TIP3   OH225981   4.357   7.909   3.288  0.5359  0.0534  0.0095
 8683TIP3    H125982   4.418   7.909   3.215 -0.5239  0.7091 -0.8893
 8683TIP3    H225983   4.272   7.926   3.249 -0.1568 -0.3164  1.3097
 8684TIP3   OH225984   8.034   0.157   1.991  0.5877 -0.3616  0.1884
 8684TIP3    H125985   7.987   0.212   2.053  0.3534  0.7522 -0.9496
 8684TIP3    H225986   8.126   0.169   2.014  0.3372 -3.0848  2.8654
 8685TIP3   OH225987   5.370   5.755   3.662  0.4253  0.7436  0.0538
 8685TIP3    H125988   5.316   5.722   3.734  0.7492  2.8047  1.2862
 8685TIP3    H225989   5.460   5.737   3.689  0.5307  1.1739  0.0001
 8686TIP3   OH225990   4.826   7.725   4.254 -0.4366 -0.6424  0.2286
 8686TIP3    H125991   4.790   7.643   4.219 -1.2133  0.6551 -2.1129
 8686TIP3    H225992   4.816   7.788   4.183  1.4573  1.1487  1.4897
 8687TIP3   OH225993   7.520   5.556   2.542  0.1466  0.7089 -0.6554
 8687TIP3    H125994   7.575   5.478   2.536  1.6940  1.3930  3.0645
 8687TIP3    H225995   7.430   5.523   2.544  0.7603 -0.9597  0.4494
 8688TIP3   OH225996   6.438   6.807   4.717 -0.1791 -0.1720  0.2355
 8688TIP3    H125997   6.533   6.807   4.705 -0.1143 -0.1011  0.7431
 8688TIP3    H225998   6.407   6.738   4.657 -0.0312  1.2662 -1.5265
 8689TIP3   OH225999   5.745   7.221   0.963 -0.6954  0.4071 -0.6739
 8689TIP3    H126000   5.782   7.292   0.910 -1.2790  0.9988 -0.2906
 8689TIP3    H226001   5.651   7.225   0.946 -0.5602 -1.5508 -2.2135
 8690TIP3   OH226002   5.068   4.820   3.441  0.0935 -0.0242  0.2154
 8690TIP3    H126003   5.042   4.907   3.472 -1.9552 -0.9993  1.2982
 8690TIP3    H226004   4.986   4.776   3.419  1.2627 -0.7325 -3.0512
 8691TIP3   OH226005   7.956   7.470   1.156  0.4566  0.5732 -0.2078
 8691TIP3    H126006   7.892   7.539   1.141 -0.3057 -0.3915 -1.3873
 8691TIP3    H226007   8.001   7.497   1.237 -0.6427  1.8228  0.0017
 8692TIP3   OH226008   5.763   7.066   2.807 -0.1748  0.2299 -0.3396
 8692TIP3    H126009   5.687   7.118   2.783  0.5557  1.3752 -0.1944
 8692TIP3    H226010   5.729   7.003   2.871 -0.9568  0.8861 -0.0995
 8693TIP3   OH226011   4.435   5.894   4.164  0.3149  0.4459  0.0865
 8693TIP3    H126012   4.515   5.930   4.200 -0.4652 -0.3131  2.6479
 8693TIP3    H226013   4.431   5.804   4.197 -0.7656 -0.0783 -1.3662
 8694TIP3   OH226014   4.818   6.381   1.838 -0.2320 -0.7713 -0.0131
 8694TIP3    H126015   4.880   6.312   1.860 -1.0723 -1.7381 -0.6286
 8694TIP3    H226016   4.873   6.457   1.816  0.6948 -1.2451  0.6546
 8695TIP3   OH226017   3.800   6.941   4.772  0.3566 -0.0478  0.3736
 8695TIP3    H126018   3.838   7.020   4.734  1.7182 -1.3259 -0.9945
 8695TIP3    H226019   3.850   6.869   4.732 -1.6201 -1.6480  0.7181
 8696TIP3   OH226020   6.997   5.980   3.172 -0.1077  0.4759 -0.2583
 8696TIP3    H126021   7.088   5.953   3.164 -0.1090 -0.1411  1.5757
 8696TIP3    H226022   6.982   5.987   3.267 -2.5291 -1.4213 -0.4317
 8697TIP3   OH226023   0.313   3.676   1.613 -0.4514 -0.1806 -0.7479
 8697TIP3    H126024   0.298   3.589   1.648  2.1586 -0.2559  0.3410
 8697TIP3    H226025   0.297   3.735   1.687 -1.2049  0.1775 -1.1952
 8698TIP3   OH226026   7.521   0.420   2.387 -0.4609 -0.1603  0.3849
 8698TIP3    H126027   7.513   0.457   2.299 -1.2713  0.8102  0.8577
 8698TIP3    H226028   7.593   0.470   2.427 -1.6732  1.0562  1.0843
 8699TIP3   OH226029   5.544   6.568   3.280  0.0709  0.4440 -0.4388
 8699TIP3    H126030   5.584   6.490   3.318 -0.6548 -0.0860 -0.7381
 8699TIP3    H226031   5.451   6.559   3.301 -0.1052  0.9246 -1.0097
 8700TIP3   OH226032   5.993   6.430   2.988  0.3703 -0.0400  0.2376
 8700TIP3    H126033   5.907   6.466   2.969 -0.3124 -1.4164  0.6691
 8700TIP3    H226034   5.991   6.341   2.951  1.4684 -0.2123  0.5727
 8701TIP3   OH226035   3.823   5.017   4.136  0.0698  0.3403  0.4012
 8701TIP3    H126036   3.878   5.017   4.214  0.9022 -0.8249 -0.1711
 8701TIP3    H226037   3.884   5.016   4.063 -0.7036  0.9601 -0.2721
 8702TIP3   OH226038   6.218   7.377   2.589 -0.0825  0.2707  0.5861
 8702TIP3    H126039   6.303   7.420   2.598 -1.2015  2.3247  1.8433
 8702TIP3    H226040   6.221   7.304   2.651  0.8816  0.1729  0.4213
 8703TIP3   OH226041   5.004   7.047   3.877 -0.1458 -0.0973  0.8097
 8703TIP3    H126042   5.079   7.072   3.930 -1.2131  2.1099  1.3489
 8703TIP3    H226043   4.932   7.039   3.940 -1.0644  0.9654 -0.0839
 8704TIP3   OH226044   5.392   5.950   2.826  0.1352 -0.0611  0.2294
 8704TIP3    H126045   5.486   5.950   2.842  0.4549 -1.0133 -1.6005
 8704TIP3    H226046   5.367   5.858   2.825 -0.7366  0.1694  0.2603
 8705TIP3   OH226047   6.127   7.417   3.394 -0.2056 -0.4030  0.2472
 8705TIP3    H126048   6.079   7.374   3.323 -0.1982  2.5609 -1.6153
 8705TIP3    H226049   6.092   7.506   3.397  2.6939  0.7490  1.2104
 8706TIP3   OH226050   7.593   1.450   2.753 -0.0937 -0.2540  0.1567
 8706TIP3    H126051   7.625   1.419   2.669  1.2566 -0.6664  0.8098
 8706TIP3    H226052   7.553   1.535   2.734  2.9495  1.1120 -0.4365
 8707TIP3   OH226053   7.347   5.770   1.453  0.5920  0.1826  0.4358
 8707TIP3    H126054   7.278   5.835   1.437  0.0417 -0.3023  0.8105
 8707TIP3    H226055   7.423   5.822   1.479  0.1932  0.6830  0.6118
 8708TIP3   OH226056   8.085   6.593   2.487 -0.5334 -0.2809 -0.0531
 8708TIP3    H126057   8.127   6.679   2.483  0.0057 -0.5488 -0.2151
 8708TIP3    H226058   8.121   6.546   2.411  0.6892 -1.3380  1.1631
 8709TIP3   OH226059   5.381   6.255   4.103  0.4199 -0.4042 -0.1600
 8709TIP3    H126060   5.321   6.260   4.178  0.5916 -0.4053 -0.0237
 8709TIP3    H226061   5.456   6.307   4.130  0.5005 -0.4431 -0.3143
 8710TIP3   OH226062   7.271   1.927   5.283 -0.5950 -0.0109 -0.1771
 8710TIP3    H126063   7.346   1.882   5.322 -0.8317 -1.5481 -1.4597
 8710TIP3    H226064   7.238   1.983   5.353  1.6186  0.5462  0.4710
 8711TIP3   OH226065   4.487   6.457   5.600 -0.2730 -0.0401  0.1599
 8711TIP3    H126066   4.565   6.441   5.654 -0.8317  0.0969  1.0148
 8711TIP3    H226067   4.522   6.470   5.512  0.5962 -0.8798  0.3727
 8712TIP3   OH226068   4.643   6.125   3.194  0.0060  0.4505 -0.1531
 8712TIP3    H126069   4.634   6.220   3.201 -2.0995  0.1647  1.9942
 8712TIP3    H226070   4.702   6.101   3.266 -1.3546 -0.0627  0.8232
 8713TIP3   OH226071   6.904   7.053   2.231  0.1404  0.0681 -0.2541
 8713TIP3    H126072   6.913   7.148   2.242 -1.6439  0.2861 -0.5217
 8713TIP3    H226073   6.965   7.030   2.161 -0.7455  1.2999 -1.4362
 8714TIP3   OH226074   5.934   5.725   3.412  0.8604  0.2297  0.2982
 8714TIP3    H126075   5.953   5.642   3.367 -0.6262 -0.6382  1.2151
 8714TIP3    H226076   5.839   5.723   3.426  1.0106  1.4544  1.5834
 8715TIP3   OH226077   6.959   5.701   1.952  0.4073  0.4434 -0.2245
 8715TIP3    H126078   6.921   5.737   2.033  1.0213 -0.0601  0.2926
 8715TIP3    H226079   6.954   5.773   1.889 -0.2438  0.7817  0.2122
 8716TIP3   OH226080   4.016   3.766   4.963  0.4972  0.4244 -0.6653
 8716TIP3    H126081   3.956   3.836   4.989  0.9134  0.4181  0.3278
 8716TIP3    H226082   4.094   3.781   5.016  0.8508 -0.3897 -0.9556
 8717TIP3   OH226083   5.063   7.658   4.505  0.5980 -0.1727 -0.3671
 8717TIP3    H126084   4.991   7.722   4.504 -0.2301 -1.1035 -0.8435
 8717TIP3    H226085   5.135   7.705   4.547  0.2244  1.3220 -1.3523
 8718TIP3   OH226086   5.677   6.210   1.637 -0.2835 -0.5001 -0.3172
 8718TIP3    H126087   5.686   6.285   1.696 -2.5352  0.1147 -0.6766
 8718TIP3    H226088   5.592   6.172   1.660  0.4795 -2.4951 -0.6632
 8719TIP3   OH226089   7.164   6.448   3.037 -0.4232  0.1280 -0.0566
 8719TIP3    H126090   7.141   6.450   2.944 -1.8514  1.3875  0.3109
 8719TIP3    H226091   7.093   6.399   3.078  0.7374 -1.3385  0.2483
 8720TIP3   OH226092   6.133   6.058   3.143  0.8724 -0.0634  0.1023
 8720TIP3    H126093   6.188   5.980   3.149 -2.2056 -2.3775 -0.6526
 8720TIP3    H226094   6.113   6.066   3.050  1.0965  1.6321  0.1814
 8721TIP3   OH226095   6.496   4.723   5.163 -0.3229 -0.2066  0.1119
 8721TIP3    H126096   6.418   4.687   5.204  0.0782  0.7485  1.7381
 8721TIP3    H226097   6.569   4.685   5.211  0.2915 -2.0593 -2.1819
 8722TIP3   OH226098   3.733   6.495   1.798 -0.6618  0.0134  0.0925
 8722TIP3    H126099   3.727   6.414   1.849  1.0541 -0.3093 -0.1776
 8722TIP3    H226100   3.665   6.551   1.834 -2.5290 -1.8891 -0.3413
 8723TIP3   OH226101   4.254   6.310   5.388 -0.6000  0.3260 -1.1354
 8723TIP3    H126102   4.269   6.382   5.450  0.1421  0.0519 -0.9915
 8723TIP3    H226103   4.164   6.324   5.357 -0.9146  0.5880 -0.1492
 8724TIP3   OH226104   6.725   6.922   1.303 -0.3245 -0.1073 -0.4219
 8724TIP3    H126105   6.738   6.936   1.209 -0.7501 -1.9451 -0.7775
 8724TIP3    H226106   6.721   6.827   1.313  1.4147  0.0183  1.7165
 8725TIP3   OH226107   5.714   6.896   3.731  0.0677 -0.4969 -0.5336
 8725TIP3    H126108   5.762   6.947   3.797 -0.8194 -0.6802  0.2533
 8725TIP3    H226109   5.628   6.883   3.769 -0.7547  0.1810 -2.1355
 8726TIP3   OH226110   6.567   5.095   4.008  0.1036  0.0094 -0.1251
 8726TIP3    H126111   6.647   5.086   4.060 -0.3804  0.7002  0.7618
 8726TIP3    H226112   6.598   5.116   3.920  0.9150 -0.2547  0.0951
 8727TIP3   OH226113   8.185   5.573   2.958  0.1980  0.7679  0.2148
 8727TIP3    H126114   8.109   5.522   2.930  1.0019 -1.1651  1.3975
 8727TIP3    H226115   8.160   5.664   2.944 -1.1168  0.0435 -2.3750
 8728TIP3   OH226116   6.258   5.425   1.661  1.1018 -0.4674  0.8119
 8728TIP3    H126117   6.284   5.355   1.601  0.7923  0.9424 -1.0055
 8728TIP3    H226118   6.321   5.495   1.645  2.1950 -0.7498  3.5284
 8729TIP3   OH226119   7.900   0.181   2.479 -0.1753 -0.6143  0.3050
 8729TIP3    H126120   7.892   0.210   2.570  1.4060 -2.0450  0.9173
 8729TIP3    H226121   7.812   0.150   2.455 -0.7663  0.4149  1.1019
 8730TIP3   OH226122   6.301   5.287   3.609 -0.1271  0.3802 -0.4601
 8730TIP3    H126123   6.256   5.368   3.634  1.3213  0.7712  1.0539
 8730TIP3    H226124   6.252   5.218   3.653 -1.2529  0.4438 -1.5950
 8731TIP3   OH226125   6.419   7.482   3.780 -0.0987 -0.1786  0.2001
 8731TIP3    H126126   6.419   7.387   3.772  1.7655 -0.1251 -0.5950
 8731TIP3    H226127   6.510   7.504   3.803 -0.6015  1.3757  0.7537
 8732TIP3   OH226128   5.799   4.617   3.427  0.0496 -0.0712  0.0785
 8732TIP3    H126129   5.768   4.537   3.386 -0.5242 -0.0143  0.3988
 8732TIP3    H226130   5.733   4.638   3.493 -1.1178  2.0361 -1.6775
 8733TIP3   OH226131   6.453   7.250   5.045 -0.1194  0.0764  0.3325
 8733TIP3    H126132   6.362   7.229   5.066  0.0584 -0.2776  0.7467
 8733TIP3    H226133   6.498   7.165   5.047  0.5189  0.4480  1.5767
 8734TIP3   OH226134   5.673   6.786   4.411  0.7141  0.0796  0.1150
 8734TIP3    H126135   5.648   6.851   4.345 -1.5739 -1.5922 -0.7343
 8734TIP3    H226136   5.636   6.821   4.493  1.6984  1.0864  0.1446
 8735TIP3   OH226137   6.306   5.819   4.408 -0.4806 -0.0779  0.1128
 8735TIP3    H126138   6.230   5.867   4.376 -0.7459  0.5699  1.6762
 8735TIP3    H226139   6.325   5.858   4.493  2.0747  0.2907 -0.5772
 8736TIP3   OH226140   4.064   5.505   4.878  0.2863  0.1121  0.8257
 8736TIP3    H126141   4.057   5.434   4.942  0.3898  0.1535  0.8843
 8736TIP3    H226142   4.008   5.478   4.806  2.1258 -1.1472 -0.1721
 8737TIP3   OH226143   6.231   5.698   5.220 -0.0261  0.1802 -0.2537
 8737TIP3    H126144   6.253   5.737   5.135  2.9090  0.7550  0.7251
 8737TIP3    H226145   6.212   5.607   5.200  0.6515  0.3128 -1.5421
 8738TIP3   OH226146   5.893   5.432   4.292 -0.4518 -0.5617  0.3825
 8738TIP3    H126147   5.839   5.360   4.259  1.2267 -2.2882  1.3029
 8738TIP3    H226148   5.854   5.455   4.376 -1.0642 -0.2941  0.0296
 8739TIP3   OH226149   5.870   4.906   3.363  0.2139 -0.2048  0.4627
 8739TIP3    H126150   5.845   4.819   3.394 -1.5442  1.2553  3.3694
 8739TIP3    H226151   5.794   4.937   3.315  0.4549  0.1058  0.2814
 8740TIP3   OH226152   8.042   1.547   3.448 -0.2756 -0.1786 -0.1033
 8740TIP3    H126153   8.127   1.515   3.480 -1.2106 -0.8459  1.8095
 8740TIP3    H226154   7.995   1.469   3.422 -1.9607 -0.2723  3.0521
 8741TIP3   OH226155   5.388   7.709   1.027 -0.1429  0.4693  0.1454
 8741TIP3    H126156   5.480   7.682   1.027 -0.2166  0.2110  0.3549
 8741TIP3    H226157   5.352   7.675   0.945  0.2992  1.7996 -0.6096
 8742TIP3   OH226158   4.592   5.160   4.817  0.4371 -0.1191  0.2593
 8742TIP3    H126159   4.643   5.080   4.814  2.4559  1.1161  0.9614
 8742TIP3    H226160   4.560   5.165   4.908 -0.9288 -0.8617 -0.1631
 8743TIP3   OH226161   5.600   7.370   2.997 -0.0787  0.8417 -0.1294
 8743TIP3    H126162   5.678   7.421   3.019  0.3370 -0.0468  0.5152
 8743TIP3    H226163   5.616   7.284   3.038 -1.6021  0.8046  0.4090
 8744TIP3   OH226164   7.495   7.644   3.265  0.0362  0.0863 -0.4025
 8744TIP3    H126165   7.458   7.714   3.319  1.1873  0.1712  0.2796
 8744TIP3    H226166   7.525   7.579   3.327 -0.7461 -0.8926 -1.0280
 8745TIP3   OH226167   4.747   7.310   2.620 -0.5299  0.6859 -0.0163
 8745TIP3    H126168   4.697   7.387   2.645 -1.3620  0.4766 -0.9922
 8745TIP3    H226169   4.827   7.346   2.580  0.2554  1.0121  1.7937
 8746TIP3   OH226170   5.111   7.088   0.684  0.0043 -0.1329 -0.1004
 8746TIP3    H126171   5.135   7.120   0.597  1.6603 -1.3100 -0.0959
 8746TIP3    H226172   5.043   7.023   0.669 -1.6968  1.6322 -0.2833
 8747TIP3   OH226173   7.712   4.667   3.662 -0.0304 -0.2270 -0.9206
 8747TIP3    H126174   7.703   4.730   3.591  1.2632 -1.1888 -1.9738
 8747TIP3    H226175   7.770   4.600   3.627  1.8093  0.0041  1.5134
 8748TIP3   OH226176   6.309   7.315   2.317 -0.1513 -0.2308 -0.5736
 8748TIP3    H126177   6.288   7.333   2.409  0.5896 -2.6633  0.1251
 8748TIP3    H226178   6.341   7.398   2.282 -0.8094  0.8163  1.2615
 8749TIP3   OH226179   5.872   7.043   1.602  0.8498 -0.2381  0.2458
 8749TIP3    H126180   5.883   7.102   1.677  2.0430  1.5217 -1.2828
 8749TIP3    H226181   5.949   6.986   1.605 -1.0228 -2.8281  2.5920
 8750TIP3   OH226182   5.717   5.380   3.247 -0.2745 -0.6578 -1.1094
 8750TIP3    H126183   5.781   5.393   3.317 -1.2515 -1.7415 -0.0054
 8750TIP3    H226184   5.726   5.458   3.192  0.0001  0.5378  0.5928
 8751TIP3   OH226185   7.963   6.702   3.605  0.0016 -0.1769 -0.5932
 8751TIP3    H126186   7.950   6.690   3.511  0.2961  0.8442 -0.7653
 8751TIP3    H226187   8.040   6.759   3.612 -0.9936  1.0886  0.2323
 8752TIP3   OH226188   7.032   4.531   2.918 -0.1032  0.3155  0.1995
 8752TIP3    H126189   7.031   4.548   3.012  1.8745 -1.6301  0.6193
 8752TIP3    H226190   7.118   4.562   2.889  0.3831 -1.5956 -0.4406
 8753TIP3   OH226191   3.702   7.797   4.639  0.5077  0.6328 -0.1404
 8753TIP3    H126192   3.644   7.868   4.611 -0.2033 -0.4337 -1.4273
 8753TIP3    H226193   3.662   7.764   4.719 -0.0531  0.6198 -0.4252
 8754TIP3   OH226194   6.161   7.654   3.854 -0.7921  0.1396  0.4301
 8754TIP3    H126195   6.190   7.735   3.811 -2.5299 -0.8923 -2.8656
 8754TIP3    H226196   6.229   7.590   3.833 -1.0480 -0.0681  0.2292
 8755TIP3   OH226197   6.720   5.904   3.225  0.0716  0.4189  0.0904
 8755TIP3    H126198   6.632   5.918   3.191 -0.5268 -2.1144  0.5114
 8755TIP3    H226199   6.776   5.904   3.147 -0.7371 -1.1243 -0.5175
 8756TIP3   OH226200   6.043   4.832   2.947 -0.6574 -0.3548  0.9284
 8756TIP3    H126201   6.035   4.866   2.858 -0.5272 -1.6297  0.4261
 8756TIP3    H226202   6.125   4.869   2.979  0.8305 -2.2785 -0.5457
 8757TIP3   OH226203   7.143   5.793   4.501  0.0744 -0.2010  0.3682
 8757TIP3    H126204   7.159   5.698   4.502 -3.2959 -0.8651 -1.5383
 8757TIP3    H226205   7.055   5.802   4.466  0.3976  3.6964  0.3647
 8758TIP3   OH226206   4.940   6.288   2.410 -0.2338  0.5506  0.0212
 8758TIP3    H126207   5.029   6.293   2.446  0.2043  0.9992 -1.0807
 8758TIP3    H226208   4.908   6.202   2.436  0.9016 -0.0081 -0.3980
 8759TIP3   OH226209   5.590   3.348   5.491  0.4504  0.3968 -0.1391
 8759TIP3    H126210   5.603   3.253   5.500  0.1592  0.4540  1.0626
 8759TIP3    H226211   5.563   3.376   5.579 -1.2110  1.3184 -0.9272
 8760TIP3   OH226212   3.698   5.108   4.611 -0.1805  0.1193  0.4825
 8760TIP3    H126213   3.755   5.050   4.560 -0.1804  1.3875 -1.0432
 8760TIP3    H226214   3.756   5.148   4.675  0.8244  1.7794 -1.3875
 8761TIP3   OH226215   6.396   6.890   3.184 -0.8069  0.2114 -0.1740
 8761TIP3    H126216   6.321   6.948   3.188 -0.3137  0.8395  0.0894
 8761TIP3    H226217   6.418   6.872   3.275 -0.5362  0.1618 -0.2485
 8762TIP3   OH226218   5.642   7.471   3.577  0.1700 -0.2349  0.3390
 8762TIP3    H126219   5.638   7.408   3.648 -2.1904 -0.3663  0.1488
 8762TIP3    H226220   5.560   7.457   3.528  1.7059 -0.1232 -2.3542
 8763TIP3   OH226221   5.857   5.557   3.724  0.0796 -0.1113  0.6036
 8763TIP3    H126222   5.868   5.553   3.819 -0.3025  1.1951  0.7245
 8763TIP3    H226223   5.819   5.644   3.709 -0.8952 -0.7364 -0.6413
 8764TIP3   OH226224   2.774   5.843   6.454 -0.1218 -0.0578 -0.4800
 8764TIP3    H126225   2.709   5.776   6.473 -0.4290  0.1689 -0.7132
 8764TIP3    H226226   2.793   5.832   6.361  1.4871 -1.2624 -0.0231
 8765TIP3   OH226227   0.912   0.235   4.396  0.2482 -0.5956  0.0197
 8765TIP3    H126228   0.826   0.269   4.372 -0.8520 -1.9847  1.9370
 8765TIP3    H226229   0.960   0.230   4.312 -0.9110  1.8090 -0.8198
 8766TIP3   OH226230   5.609   6.080   2.045  0.2093  0.3150  0.2599
 8766TIP3    H126231   5.520   6.091   2.012  0.5913  1.2633 -0.4779
 8766TIP3    H226232   5.619   5.985   2.053 -0.7299  0.1794 -0.0329
 8767TIP3   OH226233   3.860   3.969   2.481 -0.0595  0.1194  0.0274
 8767TIP3    H126234   3.772   3.942   2.455 -0.1035 -0.1091  0.4107
 8767TIP3    H226235   3.889   4.027   2.410 -0.9917  1.1684  0.4767
 8768TIP3   OH226236   6.259   5.854   1.746  0.3439  0.0928 -0.3787
 8768TIP3    H126237   6.188   5.799   1.781 -0.4751  1.5227  0.2460
 8768TIP3    H226238   6.295   5.899   1.822 -0.1531  1.7350 -1.0919
 8769TIP3   OH226239   4.938   6.336   5.947 -0.1860 -0.3115  0.2687
 8769TIP3    H126240   4.908   6.246   5.940  0.4358 -0.5877  1.0580
 8769TIP3    H226241   4.954   6.349   6.041  1.7856 -0.0724 -0.0706
 8770TIP3   OH226242   4.271   7.613   6.096  0.0995 -0.2910  0.5411
 8770TIP3    H126243   4.344   7.667   6.126 -0.9040  1.5404 -0.2302
 8770TIP3    H226244   4.312   7.545   6.042  1.4216 -0.6550  1.9811
 8771TIP3   OH226245   5.278   6.727   2.697  0.0204 -0.0822 -0.0369
 8771TIP3    H126246   5.244   6.814   2.716 -0.6668 -0.3147 -0.2014
 8771TIP3    H226247   5.285   6.724   2.602 -0.3976 -0.3719 -0.0591
 8772TIP3   OH226248   0.926   0.885   6.360  0.2730  0.2046  0.1190
 8772TIP3    H126249   0.844   0.858   6.403 -0.5609  2.4583  0.0283
 8772TIP3    H226250   0.930   0.832   6.281 -0.7598 -0.4121  0.4650
 8773TIP3   OH226251   6.224   6.865   3.681 -0.1896  0.0242 -0.1598
 8773TIP3    H126252   6.203   6.775   3.657 -0.1625 -0.2542  0.8501
 8773TIP3    H226253   6.180   6.879   3.765  1.3610  0.3359  0.6109
 8774TIP3   OH226254   6.651   3.755   3.930  0.3053  0.4300  0.3655
 8774TIP3    H126255   6.585   3.780   3.865  0.7012  1.1794  0.2531
 8774TIP3    H226256   6.610   3.776   4.014  0.7336  1.7146  0.2646
 8775TIP3   OH226257   6.867   7.973   3.351 -0.5123 -0.0993 -0.3041
 8775TIP3    H126258   6.874   7.937   3.439  0.9313  0.6370 -0.1059
 8775TIP3    H226259   6.891   7.901   3.293  0.2064 -0.0913 -0.0172
 8776TIP3   OH226260   7.065   1.459   3.552 -0.5131 -0.0377  0.0602
 8776TIP3    H126261   7.150   1.479   3.591  1.0842 -2.0060 -2.2416
 8776TIP3    H226262   7.039   1.540   3.509 -0.5981  1.0704  2.1560
 8777TIP3   OH226263   6.260   0.257   4.447 -0.2005 -0.8886  0.6362
 8777TIP3    H126264   6.165   0.252   4.459  0.0395 -0.4560  2.8110
 8777TIP3    H226265   6.270   0.277   4.354 -2.2231 -1.2921  0.2876
 8778TIP3   OH226266   5.565   7.629   4.017 -0.6472  0.0094 -0.1727
 8778TIP3    H126267   5.511   7.693   3.972  1.1843  0.6635 -1.4962
 8778TIP3    H226268   5.655   7.654   3.996  0.1476 -1.9254  0.7714
 8779TIP3   OH226269   5.272   7.944   2.975 -0.6456 -0.1510 -0.3238
 8779TIP3    H126270   5.241   7.933   3.065 -0.1831 -2.4661 -0.4273
 8779TIP3    H226271   5.247   7.863   2.931  1.5138 -0.1569 -1.5960
 8780TIP3   OH226272   6.369   6.205   3.382 -0.3397  0.1272  0.0035
 8780TIP3    H126273   6.398   6.264   3.312  1.3766 -1.8028 -0.9920
 8780TIP3    H226274   6.349   6.262   3.456 -0.0374  2.0378 -1.3511
 8781TIP3   OH226275   7.511   1.437   5.100  0.0944  0.1306  0.1625
 8781TIP3    H126276   7.498   1.527   5.131 -1.7729 -0.5871  1.5288
 8781TIP3    H226277   7.423   1.400   5.095  0.7719 -1.3455 -1.3221
 8782TIP3   OH226278   6.318   0.651   2.285  0.3358 -0.1362 -0.9779
 8782TIP3    H126279   6.339   0.601   2.205 -3.3295 -1.9445 -0.9596
 8782TIP3    H226280   6.318   0.585   2.354 -0.9273  0.5610 -0.3006
 8783TIP3   OH226281   5.335   5.837   4.884  0.0087  0.3780  0.8777
 8783TIP3    H126282   5.345   5.799   4.797 -1.5856  1.1416  0.3476
 8783TIP3    H226283   5.414   5.811   4.931  1.0852  0.3134 -0.9344
 8784TIP3   OH226284   8.371   4.648   3.342 -0.0688  0.5619 -0.5277
 8784TIP3    H126285   8.294   4.670   3.394  0.3804  1.0191 -0.0561
 8784TIP3    H226286   8.442   4.645   3.405  0.0343 -1.3945 -0.7256
 8785TIP3   OH226287   6.840   5.840   2.143  0.3772  0.4245 -0.0106
 8785TIP3    H126288   6.808   5.929   2.159 -0.1002  0.0264  1.2441
 8785TIP3    H226289   6.762   5.786   2.141  0.6147  0.0981 -1.3805
 8786TIP3   OH226290   4.168   5.923   4.729  0.3987 -0.5203 -0.0308
 8786TIP3    H126291   4.101   5.880   4.676  0.7106 -0.4432 -0.4942
 8786TIP3    H226292   4.200   5.854   4.788 -3.1540  0.5149  3.2662
 8787TIP3   OH226293   7.842   1.093   2.739 -0.3178  0.3982  0.1756
 8787TIP3    H126294   7.754   1.056   2.741 -0.1425  0.0318  1.3457
 8787TIP3    H226295   7.832   1.181   2.775 -0.3869  0.7433 -0.6889
 8788TIP3   OH226296   4.185   3.454   2.954  0.2252 -0.2712 -0.0843
 8788TIP3    H126297   4.127   3.396   2.906  0.4157  0.1613 -0.8528
 8788TIP3    H226298   4.273   3.422   2.933  0.2388 -2.3739  2.9152
 8789TIP3   OH226299   4.910   6.306   3.967 -0.0738 -0.0895  0.6293
 8789TIP3    H126300   4.905   6.378   4.030 -0.8466  0.5093 -0.1007
 8789TIP3    H226301   4.976   6.335   3.903 -0.2352 -0.1173  0.4500
 8790TIP3   OH226302   7.493   2.822   2.089  0.3220  0.1828  0.2262
 8790TIP3    H126303   7.398   2.807   2.093  0.3857 -0.1141  0.6929
 8790TIP3    H226304   7.525   2.758   2.025  0.3452 -0.4278  0.8473
 8791TIP3   OH226305   4.225   4.739   2.040  0.1185 -0.1520 -0.5053
 8791TIP3    H126306   4.274   4.698   1.969  0.4478  0.1390 -0.4455
 8791TIP3    H226307   4.173   4.668   2.077  0.6336 -0.5049 -0.4485
 8792TIP3   OH226308   4.045   6.326   3.469  0.2332 -0.1639  0.1493
 8792TIP3    H126309   4.096   6.262   3.420  0.2812 -0.4571  0.5784
 8792TIP3    H226310   3.996   6.375   3.402 -0.1315 -0.9323 -0.1422
 8793TIP3   OH226311   6.371   4.532   1.110 -0.4023  0.6357 -0.0023
 8793TIP3    H126312   6.438   4.472   1.079 -1.8522 -0.1108 -1.7963
 8793TIP3    H226313   6.419   4.612   1.135  1.1172  0.1283 -1.2539
 8794TIP3   OH226314   8.510   0.274   1.893  0.9072 -0.4195  0.1311
 8794TIP3    H126315   8.419   0.247   1.906  0.9948 -0.3444  0.8998
 8794TIP3    H226316   8.520   0.278   1.798  0.1373 -0.5302  0.0428
 8795TIP3   OH226317   5.609   7.604   1.891 -0.4401 -0.6009  0.1205
 8795TIP3    H126318   5.641   7.567   1.973 -1.1549 -4.2953 -1.1683
 8795TIP3    H226319   5.688   7.628   1.842  0.0910 -1.6457  0.4665
 8796TIP3   OH226320   5.642   5.828   4.292 -0.3098 -0.6955  0.1895
 8796TIP3    H126321   5.649   5.750   4.237  1.1898  0.7150 -1.6970
 8796TIP3    H226322   5.599   5.893   4.236  1.6925  0.9285  0.4668
 8797TIP3   OH226323   6.918   6.818   4.686  0.6344  0.3164 -0.4362
 8797TIP3    H126324   6.935   6.867   4.605  1.3641  1.2782  0.2924
 8797TIP3    H226325   7.004   6.787   4.714  0.5749  1.1443  0.6929
 8798TIP3   OH226326   4.513   7.520   1.937  0.2063  0.0507 -0.1372
 8798TIP3    H126327   4.454   7.543   1.865  0.7183  1.5645 -0.0902
 8798TIP3    H226328   4.455   7.495   2.009 -0.3355 -0.2489 -0.6753
 8799TIP3   OH226329   5.219   5.612   2.500 -0.5344  0.3232  0.4562
 8799TIP3    H126330   5.151   5.553   2.468  0.4726 -0.7363  0.2522
 8799TIP3    H226331   5.210   5.690   2.446  0.1530 -0.8604 -1.4209
 8800TIP3   OH226332   6.411   6.218   2.380 -0.1338  0.2308  0.3115
 8800TIP3    H126333   6.432   6.277   2.452 -1.9704  0.3455  0.7601
 8800TIP3    H226334   6.395   6.134   2.423 -1.0302  0.2494  0.0070
 8801TIP3   OH226335   3.091   3.865   6.837 -0.6120  0.6436  0.2621
 8801TIP3    H126336   3.083   3.960   6.848 -0.1698  0.4960  1.8764
 8801TIP3    H226337   3.180   3.852   6.805  0.1652  0.5999  2.3559
 8802TIP3   OH226338   5.192   5.819   3.202 -0.3708 -0.3211 -0.2112
 8802TIP3    H126339   5.242   5.778   3.272  0.6180 -1.4590 -1.5704
 8802TIP3    H226340   5.252   5.880   3.161 -0.0046 -1.8101 -1.9533
 8803TIP3   OH226341   1.726   7.269   0.626 -0.1338  0.2894  0.2090
 8803TIP3    H126342   1.700   7.286   0.536 -0.1286 -0.2797  0.0999
 8803TIP3    H226343   1.813   7.309   0.634  0.6222 -1.1685 -0.5437
 8804TIP3   OH226344   4.918   6.204   3.329 -0.0598  0.1927 -0.3878
 8804TIP3    H126345   4.925   6.118   3.288 -1.0564  0.2150 -0.6060
 8804TIP3    H226346   4.943   6.265   3.261  1.4904  0.0395  0.0160
 8805TIP3   OH226347   8.219   5.525   1.601 -0.1730  0.0285 -0.5616
 8805TIP3    H126348   8.159   5.453   1.621  1.1158 -0.8000  0.4235
 8805TIP3    H226349   8.306   5.485   1.603  0.5920  1.6680  0.3420
 8806TIP3   OH226350   6.409   6.764   2.939  0.8396 -0.0350  0.1015
 8806TIP3    H126351   6.401   6.794   3.030 -0.3065  0.3356 -0.1049
 8806TIP3    H226352   6.319   6.767   2.906  1.4862  1.4529 -1.5632
 8807TIP3   OH226353   0.057   7.343   3.422  0.1991  0.0988  0.2622
 8807TIP3    H126354   0.004   7.328   3.500  0.6160  3.2085  1.1839
 8807TIP3    H226355   0.139   7.297   3.440 -0.0945 -0.0668  1.2058
 8808TIP3   OH226356   7.675   7.133   3.326 -0.0693  0.1565  0.1623
 8808TIP3    H126357   7.718   7.150   3.410 -0.6424 -0.0658  0.5045
 8808TIP3    H226358   7.746   7.111   3.266  0.1364 -1.7981  1.1165
 8809TIP3   OH226359   8.009   8.011   3.940  0.0863  0.8252 -0.0171
 8809TIP3    H126360   7.934   8.071   3.931 -1.3867 -0.8235  1.0748
 8809TIP3    H226361   8.006   7.958   3.860  1.1268  1.8534 -0.7698
 8810TIP3   OH226362   8.126   6.835   1.826  0.1224  0.0319 -0.2025
 8810TIP3    H126363   8.161   6.819   1.914 -0.6116  0.7998  0.2244
 8810TIP3    H226364   8.061   6.766   1.814  1.1974 -0.9165 -0.6898
 8811TIP3   OH226365   7.528   6.245   3.831 -0.2723 -0.2342  0.4949
 8811TIP3    H126366   7.526   6.177   3.899 -1.8881 -0.9105 -0.2123
 8811TIP3    H226367   7.447   6.232   3.781  1.5649 -0.7094 -2.4977
 8812TIP3   OH226368   7.325   7.047   3.871  0.8580 -0.0467  0.7687
 8812TIP3    H126369   7.391   7.098   3.918  0.1783  0.2175  1.4353
 8812TIP3    H226370   7.370   7.018   3.792  2.1993 -0.9896  1.8554
 8813TIP3   OH226371   0.789   7.877   2.942  0.0077 -0.1109  0.5934
 8813TIP3    H126372   0.830   7.933   2.876 -0.7767  0.1777  0.3373
 8813TIP3    H226373   0.769   7.937   3.015 -0.3882 -0.1547  0.5206
 8814TIP3   OH226374   6.264   7.408   4.756 -0.4146  0.3962 -0.3321
 8814TIP3    H126375   6.346   7.445   4.789  0.0079  0.2438 -1.1826
 8814TIP3    H226376   6.246   7.333   4.812  1.0007 -0.6681 -1.2601
 8815TIP3   OH226377   1.968   0.360   5.012 -0.6579  0.0911 -0.6298
 8815TIP3    H126378   2.063   0.370   5.009 -0.4328 -1.6173  0.3533
 8815TIP3    H226379   1.949   0.292   4.947 -1.0365 -0.6387  0.2334
 8816TIP3   OH226380   6.460   5.592   3.461 -0.0852 -0.0456 -0.2909
 8816TIP3    H126381   6.473   5.588   3.367  3.6048  0.7285  0.1118
 8816TIP3    H226382   6.372   5.628   3.472  0.1711  1.6689 -3.4344
 8817TIP3   OH226383   1.914   0.669   4.394  0.0504 -0.2517 -0.2157
 8817TIP3    H126384   2.002   0.663   4.429 -0.2475 -0.4827  0.4897
 8817TIP3    H226385   1.869   0.731   4.452 -0.0696  0.3728 -0.9545
 8818TIP3   OH226386   5.792   7.222   3.144  0.5397  0.0649 -0.2017
 8818TIP3    H126387   5.796   7.127   3.158 -0.9961 -0.0589 -0.5179
 8818TIP3    H226388   5.779   7.258   3.232  0.2602 -0.0842 -0.1786
 8819TIP3   OH226389   7.729   7.621   2.767  0.0159  0.2884 -0.0295
 8819TIP3    H126390   7.795   7.554   2.787 -1.0246 -0.4781  0.9048
 8819TIP3    H226391   7.756   7.697   2.818  0.3336  0.0732  0.1294
 8820TIP3   OH226392   5.661   6.068   2.891 -0.2502 -0.0733  0.1051
 8820TIP3    H126393   5.639   6.160   2.877 -1.1585 -0.5202 -1.5624
 8820TIP3    H226394   5.732   6.051   2.829 -0.3475 -0.5998  0.1404
 8821TIP3   OH226395   1.149   7.386   4.411 -0.2337  0.1355 -0.0797
 8821TIP3    H126396   1.167   7.338   4.330 -0.0892 -0.0617  0.0675
 8821TIP3    H226397   1.187   7.332   4.480  0.8575  0.9824 -0.0068
 8822TIP3   OH226398   2.803   0.401   5.175  0.5604  0.2522 -0.1704
 8822TIP3    H126399   2.893   0.374   5.158  1.2194  0.9883  2.0540
 8822TIP3    H226400   2.750   0.330   5.139  2.0124 -0.1692 -1.5465
 8823TIP3   OH226401   5.701   5.853   1.500  0.0439 -0.3974 -0.6313
 8823TIP3    H126402   5.763   5.781   1.507  1.4074  0.8184  0.1215
 8823TIP3    H226403   5.747   5.918   1.445 -0.4541  0.6149  0.1466
 8824TIP3   OH226404   7.097   6.627   0.864  0.7195  0.6902 -0.4246
 8824TIP3    H126405   7.145   6.668   0.792  0.4390 -0.5197 -1.3122
 8824TIP3    H226406   7.009   6.665   0.860  0.8286  0.9386 -0.4506
 8825TIP3   OH226407   4.087   0.470   4.920  0.1975 -0.1458  0.3620
 8825TIP3    H126408   4.110   0.500   4.832 -0.0588 -1.1317 -0.0406
 8825TIP3    H226409   4.092   0.550   4.974  0.1724  0.4944 -0.5713
 8826TIP3   OH226410   0.756   7.465   3.268  0.0766  0.6827 -0.4371
 8826TIP3    H126411   0.787   7.482   3.180 -0.7242  1.5240 -0.5689
 8826TIP3    H226412   0.755   7.551   3.311 -2.7246  0.8476 -0.6874
 8827TIP3   OH226413   7.528   6.914   3.718  0.0039 -0.3207  0.3162
 8827TIP3    H126414   7.611   6.897   3.762 -0.0663 -1.9075 -0.1344
 8827TIP3    H226415   7.543   6.992   3.665  1.1451 -0.4959  0.3853
 8828TIP3   OH226416   0.779   4.904   0.530 -0.0882  0.4121  0.0229
 8828TIP3    H126417   0.784   4.990   0.572 -0.2012  1.1109 -1.3517
 8828TIP3    H226418   0.848   4.905   0.464  0.0643 -0.6477  0.1552
 8829TIP3   OH226419   0.155   7.477   1.077  0.1522  0.1149 -0.4534
 8829TIP3    H126420   0.112   7.421   1.141  0.7170 -1.2015 -1.1984
 8829TIP3    H226421   0.249   7.462   1.091  0.2978  0.4790 -1.0114
 8830TIP3   OH226422   7.930   7.764   1.471  0.1309 -0.2526  0.1041
 8830TIP3    H126423   8.001   7.779   1.534 -0.8800  1.5812  0.8236
 8830TIP3    H226424   7.932   7.669   1.456  0.5498 -0.6936  2.7040
 8831TIP3   OH226425   6.633   7.619   3.007 -0.0276  0.1468  0.4252
 8831TIP3    H126426   6.631   7.712   3.029 -1.4936  0.1861  0.1907
 8831TIP3    H226427   6.608   7.615   2.915 -1.4713 -0.5821  0.8293
 8832TIP3   OH226428   6.337   7.728   3.291  0.1075 -0.2063 -0.2606
 8832TIP3    H126429   6.322   7.708   3.383 -2.2060 -0.5935 -0.7050
 8832TIP3    H226430   6.421   7.686   3.272 -0.0905 -1.3810  1.2997
 8833TIP3   OH226431   1.462   1.089   4.242 -0.7996  0.2794  0.0485
 8833TIP3    H126432   1.526   1.040   4.294 -1.0661  0.2055  0.3124
 8833TIP3    H226433   1.497   1.088   4.153 -0.6483 -0.1262  0.1125
 8834TIP3   OH226434   6.688   6.553   4.320  0.4282 -0.3742 -0.2937
 8834TIP3    H126435   6.769   6.593   4.287  0.3502 -0.4929 -0.6325
 8834TIP3    H226436   6.619   6.593   4.267  0.3104 -0.6494 -0.3458
 8835TIP3   OH226437   6.863   7.933   4.941  0.3070  0.4017 -0.4423
 8835TIP3    H126438   6.803   7.859   4.931  1.6854 -1.0289  1.6643
 8835TIP3    H226439   6.812   7.999   4.989 -0.5281  0.3706 -1.2723
 8836TIP3   OH226440   7.692   6.762   3.054  0.1212 -0.2687 -0.0740
 8836TIP3    H126441   7.729   6.705   2.988  1.7702  1.7111 -0.9357
 8836TIP3    H226442   7.687   6.708   3.133  0.9085 -1.7906 -1.0452
 8837TIP3   OH226443   6.671   6.192   3.297  0.3864 -0.1085 -0.3924
 8837TIP3    H126444   6.674   6.097   3.284  2.1545 -0.4646  2.1974
 8837TIP3    H226445   6.579   6.215   3.284 -0.0061 -2.1206 -1.3800
 8838TIP3   OH226446   4.070   7.116   3.195 -0.1335 -0.3390  0.5711
 8838TIP3    H126447   4.075   7.102   3.290 -1.0870 -0.8235  0.5538
 8838TIP3    H226448   4.004   7.053   3.165 -0.6634  0.5991 -0.2494
 8839TIP3   OH226449   2.259   1.444   3.955  0.2833  0.9059 -0.4423
 8839TIP3    H126450   2.217   1.361   3.979 -0.5480  1.9866  1.9435
 8839TIP3    H226451   2.212   1.511   4.004  1.2508  2.7782 -1.9660
 8840TIP3   OH226452   2.732   1.268   3.022 -0.1433 -0.4302  0.6277
 8840TIP3    H126453   2.656   1.229   3.064 -0.2997 -0.2376  0.5205
 8840TIP3    H226454   2.806   1.213   3.051 -0.4350 -1.1675 -0.0021
 8841TIP3   OH226455   5.920   6.700   1.316 -0.3334  0.2775  0.2137
 8841TIP3    H126456   5.972   6.739   1.246 -1.1196 -0.3363 -0.7232
 8841TIP3    H226457   5.980   6.639   1.359  0.0722  0.4524 -0.1054
 8842TIP3   OH226458   7.083   5.401   3.691  0.6101  0.4529  0.0773
 8842TIP3    H126459   7.032   5.325   3.665  0.1208  0.5014  0.8936
 8842TIP3    H226460   7.136   5.422   3.614  0.7123 -0.6811 -0.1632
 8843TIP3   OH226461   7.049   7.815   2.738 -0.2705  0.0581 -0.0116
 8843TIP3    H126462   7.112   7.753   2.776 -1.2388 -1.6747 -1.2109
 8843TIP3    H226463   6.983   7.827   2.806  0.9562  1.3560  0.9904
 8844TIP3   OH226464   6.117   7.693   4.139 -0.0173 -0.0475 -0.2008
 8844TIP3    H126465   6.173   7.706   4.062  0.4910  0.4204  0.2348
 8844TIP3    H226466   6.118   7.599   4.154  0.9241 -0.0213 -0.0189
 8845TIP3   OH226467   6.843   5.392   3.249 -0.0202 -0.4225 -0.5837
 8845TIP3    H126468   6.793   5.431   3.177  2.7130  1.0659 -1.7598
 8845TIP3    H226469   6.848   5.462   3.315 -0.3080 -0.9026 -0.0495
 8846TIP3   OH226470   7.703   6.762   4.664 -0.0592 -0.2711 -0.9022
 8846TIP3    H126471   7.612   6.765   4.635  0.5971 -0.1136 -3.0438
 8846TIP3    H226472   7.752   6.737   4.586  1.6991 -0.7835  0.3331
 8847TIP3   OH226473   2.057   0.475   2.579  0.1242 -0.1145 -0.6907
 8847TIP3    H126474   2.135   0.432   2.612  0.2467  0.1531 -0.6269
 8847TIP3    H226475   1.985   0.436   2.629  0.3440  0.5468  0.1706
 8848TIP3   OH226476   7.867   7.782   2.030  0.1892 -0.4048  0.1101
 8848TIP3    H126477   7.807   7.780   2.105  1.8385  1.0059  1.5032
 8848TIP3    H226478   7.866   7.874   2.002  0.4193 -0.7148 -0.9278
 8849TIP3   OH226479   7.820   5.904   2.790  0.5634 -0.1341  0.1260
 8849TIP3    H126480   7.757   5.833   2.778 -0.4836  1.2716 -3.5561
 8849TIP3    H226481   7.780   5.961   2.856 -0.0420 -1.3548  0.8232
 8850TIP3   OH226482   7.434   6.107   1.915 -0.0427 -0.1210  0.1936
 8850TIP3    H126483   7.441   6.198   1.885  0.0994  0.4398  1.8868
 8850TIP3    H226484   7.362   6.108   1.978 -0.2557 -1.2626 -0.0261
 8851TIP3   OH226485   7.921   4.589   2.964 -0.4482  0.3478 -0.1110
 8851TIP3    H126486   7.989   4.648   2.997 -0.2097  0.2316 -0.3892
 8851TIP3    H226487   7.955   4.558   2.880  0.1887 -1.5169  0.8022
 8852TIP3   OH226488   1.137   7.147   2.225  0.1201 -0.1937  0.4567
 8852TIP3    H126489   1.232   7.148   2.242 -0.0457 -0.9510  1.4546
 8852TIP3    H226490   1.117   7.054   2.212 -0.6603 -0.1267  1.1974
 8853TIP3   OH226491   7.877   6.682   4.016  0.8591  0.3234 -0.5324
 8853TIP3    H126492   7.903   6.610   3.958 -0.3990 -1.0525  0.6019
 8853TIP3    H226493   7.926   6.666   4.097  2.2949  2.0159 -1.0299
 8854TIP3   OH226494   0.779   5.219   2.121 -0.3591  0.0475  0.1261
 8854TIP3    H126495   0.782   5.124   2.117 -1.1680 -0.0517  1.3637
 8854TIP3    H226496   0.714   5.238   2.189 -0.7544  1.4863 -0.6230
 8855TIP3   OH226497   7.546   6.529   3.833 -0.4647 -0.4030 -0.1585
 8855TIP3    H126498   7.558   6.434   3.825  1.3085 -0.0129 -2.5322
 8855TIP3    H226499   7.634   6.564   3.843 -0.8474  1.2231 -2.1840
 8856TIP3   OH226500   8.451   6.339   1.677 -0.1201  0.0874  0.7770
 8856TIP3    H126501   8.544   6.353   1.695  0.1534 -0.2947 -0.3148
 8856TIP3    H226502   8.409   6.339   1.763  0.9379 -0.0587  1.2911
 8857TIP3   OH226503   8.465   4.249   1.991  0.5560 -0.2889  0.5504
 8857TIP3    H126504   8.427   4.300   2.062 -0.1657  1.5587 -1.0956
 8857TIP3    H226505   8.396   4.186   1.967  0.4708 -0.3415  0.9364
 8858TIP3   OH226506   7.733   6.909   4.116 -0.4289 -0.3920  0.4282
 8858TIP3    H126507   7.790   6.860   4.057 -0.3896  0.1457  0.0193
 8858TIP3    H226508   7.791   6.942   4.184 -0.5558 -1.4645  1.0747
 8859TIP3   OH226509   7.958   7.271   1.585 -0.0401 -0.5050  0.4494
 8859TIP3    H126510   7.987   7.321   1.661  1.5666 -0.7753  0.0343
 8859TIP3    H226511   7.959   7.180   1.615 -3.3963 -0.3268  1.3464
 8860TIP3   OH226512   6.979   5.318   2.702  0.0409  0.3214 -0.6834
 8860TIP3    H126513   7.012   5.343   2.788 -0.4269  0.2520 -0.4810
 8860TIP3    H226514   6.947   5.399   2.663  0.9410  0.4765 -1.0951
 8861TIP3   OH226515   4.609   4.968   2.633 -0.5389  0.1802 -1.1591
 8861TIP3    H126516   4.626   4.986   2.726  1.8164 -0.7452 -1.3742
 8861TIP3    H226517   4.530   4.913   2.633 -0.4689  0.0512  0.3038
 8862TIP3   OH226518   1.177   0.029   0.461  0.6720 -0.3113 -0.3010
 8862TIP3    H126519   1.230   0.038   0.540  0.6458  2.8145 -0.5703
 8862TIP3    H226520   1.088   0.050   0.489  0.2072 -1.7948 -0.6335
 8863TIP3   OH226521   8.224   7.722   2.203 -0.7529  0.1053  0.0760
 8863TIP3    H126522   8.233   7.679   2.288 -3.5353 -1.8858 -0.5381
 8863TIP3    H226523   8.291   7.681   2.148 -0.9624 -0.8141  0.4975
 8864TIP3   OH226524   7.630   7.330   2.274 -0.1811  0.0735 -0.3397
 8864TIP3    H126525   7.630   7.263   2.206  1.0130  0.2125 -0.4936
 8864TIP3    H226526   7.608   7.283   2.355  1.0284 -0.5952 -0.3761
 8865TIP3   OH226527   6.583   6.558   2.856  0.2180  1.1762  0.4184
 8865TIP3    H126528   6.525   6.627   2.889  0.0097  1.0331  0.3539
 8865TIP3    H226529   6.670   6.597   2.860  0.4438  0.5307  2.9368
 8866TIP3   OH226530   5.488   5.366   1.980  0.1506  0.1827  0.0815
 8866TIP3    H126531   5.431   5.316   2.038 -2.4866  2.2855 -0.5830
 8866TIP3    H226532   5.503   5.448   2.027 -0.2730  1.0563 -1.2945
 8867TIP3   OH226533   7.642   3.926   2.851  0.7599 -0.0238  0.4021
 8867TIP3    H126534   7.652   3.891   2.762 -2.3242 -1.2998  0.4871
 8867TIP3    H226535   7.623   4.019   2.837 -0.4811 -0.3731 -0.3505
 8868TIP3   OH226536   1.177   5.720   2.306 -0.3728  0.1023  0.4562
 8868TIP3    H126537   1.122   5.768   2.245  0.1505  0.7380  0.4784
 8868TIP3    H226538   1.166   5.766   2.390 -0.4946 -0.3038  0.6680
 8869TIP3   OH226539   0.629   6.237   1.832 -0.4025  0.6415 -0.0601
 8869TIP3    H126540   0.627   6.173   1.761 -0.6801  2.4401 -1.7120
 8869TIP3    H226541   0.661   6.317   1.791  1.0130  1.2787  2.2174
 8870TIP3   OH226542   6.478   6.942   2.139  0.4291  0.0823  0.2522
 8870TIP3    H126543   6.558   6.991   2.120 -0.1802  0.5991 -1.0429
 8870TIP3    H226544   6.463   6.888   2.062 -0.1595 -0.4361  0.7226
 8871TIP3   OH226545   0.433   4.105   1.787 -0.4777  0.4566  0.3734
 8871TIP3    H126546   0.346   4.070   1.803 -0.1655 -0.3046  0.4416
 8871TIP3    H226547   0.490   4.028   1.784  0.4168  1.0472  1.7433
 8872TIP3   OH226548   0.043   7.740   2.733 -0.1582 -0.2276 -0.0167
 8872TIP3    H126549   0.126   7.762   2.691 -0.0211  1.7204  1.1785
 8872TIP3    H226550  -0.004   7.824   2.737 -2.0831 -1.2584 -0.4627
 8873TIP3   OH226551   6.707   5.629   1.696  0.0327  0.3122 -0.1104
 8873TIP3    H126552   6.762   5.558   1.729 -1.9464 -1.6429 -0.8969
 8873TIP3    H226553   6.751   5.657   1.616  1.5375  0.9161  0.8879
 8874TIP3   OH226554   5.665   4.267   3.500 -0.1025  0.3337 -0.9207
 8874TIP3    H126555   5.736   4.222   3.454  0.5251 -0.4376  0.7644
 8874TIP3    H226556   5.645   4.343   3.444  1.9696  0.5152 -1.4836
 8875TIP3   OH226557   8.367   7.549   2.040  0.3761  0.1637 -0.1626
 8875TIP3    H126558   8.304   7.515   1.976  1.3861  1.8151 -2.0867
 8875TIP3    H226559   8.452   7.514   2.011  0.8373  0.9403  0.2198
 8876TIP3   OH226560   8.190   3.798   4.176  0.0234 -0.3323 -0.1264
 8876TIP3    H126561   8.222   3.709   4.185 -2.1999 -0.9191  2.8453
 8876TIP3    H226562   8.098   3.788   4.151  0.2765  1.1880 -1.7907
 8877TIP3   OH226563   5.491   7.632   3.281  0.4520  0.5548 -0.2556
 8877TIP3    H126564   5.540   7.690   3.340  0.1462  0.7505 -0.1933
 8877TIP3    H226565   5.520   7.658   3.193  0.4865  0.6475 -0.2173
 8878TIP3   OH226566   3.541   0.091   0.933  0.7123  0.8115 -0.0632
 8878TIP3    H126567   3.458   0.119   0.973  2.4654  2.7013  2.3719
 8878TIP3    H226568   3.525  -0.000   0.908 -2.5994  1.5774 -1.0610
 8879TIP3   OH226569   6.184   7.100   3.196 -0.0872 -0.1550  0.1290
 8879TIP3    H126570   6.175   7.148   3.114  2.0242 -0.2356 -0.1885
 8879TIP3    H226571   6.098   7.063   3.213 -0.2365 -1.1885 -2.6945
 8880TIP3   OH226572   7.446   7.201   2.477 -0.2192  0.1666  0.8719
 8880TIP3    H126573   7.485   7.130   2.527 -1.0989 -1.1264 -0.2340
 8880TIP3    H226574   7.437   7.273   2.540  2.0211 -0.2014  1.6332
 8881TIP3   OH226575   4.170   5.667   3.513 -0.2040 -0.3626  0.1079
 8881TIP3    H126576   4.215   5.706   3.588  1.9781 -0.9724 -0.8304
 8881TIP3    H226577   4.239   5.654   3.448 -1.3609 -3.2095 -0.6494
 8882TIP3   OH226578   7.685   6.865   0.969 -0.3071 -0.8076 -0.1321
 8882TIP3    H126579   7.758   6.926   0.982 -0.1029 -1.1910  0.5560
 8882TIP3    H226580   7.653   6.884   0.881 -0.6337  0.7196  0.3031
 8883TIP3   OH226581   7.548   5.531   2.179  0.6689 -0.3005  0.5627
 8883TIP3    H126582   7.502   5.470   2.236  1.0284 -2.5321 -1.4376
 8883TIP3    H226583   7.641   5.517   2.198  0.7266  0.2841  0.7322
 8884TIP3   OH226584   7.872   7.236   3.521 -0.5195 -0.0856 -0.0876
 8884TIP3    H126585   7.837   7.187   3.595 -2.1028  1.7800  0.4389
 8884TIP3    H226586   7.861   7.328   3.545  0.6256  0.5431 -1.8589
 8885TIP3   OH226587   7.205   6.839   1.516  0.3158 -0.1497 -0.3806
 8885TIP3    H126588   7.272   6.820   1.450  0.1365  0.5906 -0.7918
 8885TIP3    H226589   7.193   6.934   1.510  0.2888 -0.0734  0.7148
 8886TIP3   OH226590   0.609   5.017   3.170  0.0688 -0.3520  0.3540
 8886TIP3    H126591   0.521   5.052   3.159 -0.5122 -1.8959 -0.0471
 8886TIP3    H226592   0.621   5.012   3.265 -0.6812 -1.1009  0.4152
 8887TIP3   OH226593   6.815   7.003   1.060  0.5411 -0.0198  0.0485
 8887TIP3    H126594   6.756   7.063   1.015  1.4719  2.8405  2.4478
 8887TIP3    H226595   6.903   7.039   1.044  1.0879 -0.4954  1.8169
 8888TIP3   OH226596   7.238   6.566   4.195 -0.0545  0.2775  0.2642
 8888TIP3    H126597   7.332   6.584   4.200  0.4357 -2.1847  0.5542
 8888TIP3    H226598   7.219   6.566   4.101 -0.0411  1.9847  0.2443
 8889TIP3   OH226599   7.081   4.798   1.542 -0.2904 -0.0159  0.1698
 8889TIP3    H126600   7.031   4.778   1.622  0.5678  0.0060  0.7260
 8889TIP3    H226601   7.108   4.713   1.508 -0.2587 -0.0066  0.1709
 8890TIP3   OH226602   5.241   7.335   1.577  0.9889 -0.0397 -0.1443
 8890TIP3    H126603   5.289   7.320   1.495  0.8895 -1.8024  0.0984
 8890TIP3    H226604   5.301   7.387   1.630  2.7679 -2.3705  0.2355
 8891TIP3   OH226605   7.980   6.479   1.417  0.1227 -0.4356 -0.2952
 8891TIP3    H126606   8.034   6.523   1.351 -1.1757  0.6551 -0.6610
 8891TIP3    H226607   7.905   6.446   1.368 -0.2227 -0.7293  0.4273
 8892TIP3   OH226608   0.868   7.026   3.080  0.2541  0.6910 -0.3503
 8892TIP3    H126609   0.896   7.110   3.042  1.7228  0.3346 -0.0917
 8892TIP3    H226610   0.790   7.047   3.131 -0.7229  1.4924 -2.1281
 8893TIP3   OH226611   5.674   6.404   2.247  0.2693 -0.7710 -0.5392
 8893TIP3    H126612   5.588   6.401   2.206 -0.2939  1.3502  0.3809
 8893TIP3    H226613   5.715   6.482   2.210  0.5415  0.0159  1.3544
 8894TIP3   OH226614   7.485   6.512   2.131  0.5128 -0.2646 -0.0252
 8894TIP3    H126615   7.509   6.603   2.143  0.5609 -0.2706 -0.0795
 8894TIP3    H226616   7.389   6.513   2.130  0.4703 -0.5540  2.5853
 8895TIP3   OH226617   6.228   5.513   2.779 -0.1488  0.1114 -0.6241
 8895TIP3    H126618   6.137   5.487   2.768 -0.1305  0.0845 -0.7139
 8895TIP3    H226619   6.272   5.436   2.813 -0.5077  0.6688  1.1305
 8896TIP3   OH226620   1.206   6.791   3.304  0.2218  0.3221 -0.0266
 8896TIP3    H126621   1.115   6.806   3.331 -0.2933 -0.1975 -1.3834
 8896TIP3    H226622   1.255   6.783   3.385 -0.2965  4.4474  0.8066
 8897TIP3   OH226623   6.342   7.240   3.389 -0.0931  0.0376  0.0902
 8897TIP3    H126624   6.255   7.278   3.406 -0.1958  0.5313 -1.4451
 8897TIP3    H226625   6.333   7.200   3.303  1.2632  0.2316 -0.1399
 8898TIP3   OH226626   8.267   7.559   1.547 -0.5507  0.2186 -0.7294
 8898TIP3    H126627   8.337   7.613   1.510 -0.5271  0.9436  0.3480
 8898TIP3    H226628   8.302   7.470   1.545  0.2047  0.5102 -0.6696
 8899TIP3   OH226629   7.344   6.039   3.470 -0.1677 -0.1558 -0.0750
 8899TIP3    H126630   7.335   6.135   3.473  1.5175 -0.0327  1.5606
 8899TIP3    H226631   7.423   6.025   3.418  0.4434 -0.6124  0.9812
 8900TIP3   OH226632   3.388   1.102   5.956  0.3551  0.5314  0.7108
 8900TIP3    H126633   3.419   1.121   5.867  0.4317  1.0133  0.8377
 8900TIP3    H226634   3.419   1.176   6.009 -0.8534  0.9405  0.8773
 8901TIP3   OH226635   8.169   5.963   3.551 -0.1498 -0.0989  0.1311
 8901TIP3    H126636   8.262   5.962   3.529  0.2220  0.9714  1.5615
 8901TIP3    H226637   8.124   5.971   3.467  1.0893  0.3061 -0.5007
 8902TIP3   OH226638   6.542   7.518   3.228 -0.2469 -0.2397  0.6437
 8902TIP3    H126639   6.614   7.532   3.290  1.0314 -0.4868 -0.7533
 8902TIP3    H226640   6.569   7.564   3.148 -1.2201 -1.0849 -0.1965
 8903TIP3   OH226641   7.176   4.815   1.909 -0.1227  0.0030 -0.6151
 8903TIP3    H126642   7.131   4.895   1.884 -0.1705 -0.0145 -0.5857
 8903TIP3    H226643   7.241   4.843   1.973  0.1418  0.0811 -0.9153
 8904TIP3   OH226644   6.807   4.559   2.783  0.0033 -0.2724 -0.0152
 8904TIP3    H126645   6.852   4.528   2.704  0.2380  0.1869 -0.0644
 8904TIP3    H226646   6.872   4.552   2.852  0.6012  1.6264 -0.3324
 8905TIP3   OH226647   8.468   0.977   4.109 -0.1027  0.4784  0.7678
 8905TIP3    H126648   8.450   1.055   4.056 -0.3455  0.3959  0.7285
 8905TIP3    H226649   8.393   0.919   4.093  0.3943 -0.0342  0.2960
 8906TIP3   OH226650   6.021   4.946   2.606  0.3001 -0.2343  0.0508
 8906TIP3    H126651   6.068   4.943   2.523  0.1129  0.3421 -0.0810
 8906TIP3    H226652   5.961   4.872   2.602  0.8456 -0.6779  0.0089
 8907TIP3   OH226653   0.164   6.627   2.030  0.0391  0.1584  0.3072
 8907TIP3    H126654   0.124   6.558   2.083 -1.7501 -0.0014 -1.1997
 8907TIP3    H226655   0.161   6.704   2.086 -1.4590 -0.0991  0.6144
 8908TIP3   OH226656   2.093   0.480   3.528 -0.4276 -0.3650 -0.2291
 8908TIP3    H126657   2.169   0.538   3.532 -1.0320  0.4218 -0.1570
 8908TIP3    H226658   2.023   0.529   3.571 -0.7068 -1.5169  0.6596
 8909TIP3   OH226659   1.343   0.243   1.711  0.4909 -0.2728  0.4169
 8909TIP3    H126660   1.410   0.216   1.647  0.9341 -1.0558  1.1959
 8909TIP3    H226661   1.388   0.305   1.768  0.1452  0.2877  0.0838
 8910TIP3   OH226662   1.310   0.210   5.109 -0.0809 -0.4722 -0.3015
 8910TIP3    H126663   1.237   0.252   5.063  0.4324 -1.8484 -2.4579
 8910TIP3    H226664   1.278   0.195   5.198 -1.0667  2.3705 -0.1063
 8911TIP3   OH226665   8.161   5.687   2.598 -0.1272 -0.2800 -0.0310
 8911TIP3    H126666   8.158   5.686   2.694  0.7487  0.6782  0.0199
 8911TIP3    H226667   8.086   5.741   2.573  0.0220  0.0162  0.1484
 8912TIP3   OH226668   0.442   7.694   3.527 -0.2139  0.2316  0.8435
 8912TIP3    H126669   0.427   7.601   3.514 -1.2194  0.5778 -0.5388
 8912TIP3    H226670   0.443   7.705   3.623 -2.8157 -0.7780  1.0182
 8913TIP3   OH226671   6.364   7.605   3.528  0.2460  0.0742  0.2523
 8913TIP3    H126672   6.401   7.563   3.605  1.7215  0.9150  0.0236
 8913TIP3    H226673   6.332   7.532   3.474  0.0730 -0.5681  1.2198
 8914TIP3   OH226674   1.531   3.029   1.628  0.5878 -0.1728 -0.5695
 8914TIP3    H126675   1.582   2.949   1.613 -0.5103 -0.7323 -1.4311
 8914TIP3    H226676   1.545   3.050   1.720 -0.2335 -2.1682  0.0390
 8915TIP3   OH226677   6.980   6.607   3.604  0.4017  0.4115  0.1612
 8915TIP3    H126678   6.950   6.669   3.670 -1.8231 -0.1687 -0.2660
 8915TIP3    H226679   6.943   6.639   3.522 -2.1251 -2.3225  0.1645
 8916TIP3   OH226680   5.444   6.619   2.992  0.2451  0.1899 -0.3271
 8916TIP3    H126681   5.349   6.609   3.001  0.3307 -1.3736 -1.0805
 8916TIP3    H226682   5.481   6.567   3.063  0.5932 -1.4390 -1.6782
 8917TIP3   OH226683   0.171   5.191   1.509  0.1253  0.4213  0.3405
 8917TIP3    H126684   0.118   5.269   1.527 -1.3057 -0.3594 -0.4502
 8917TIP3    H226685   0.252   5.225   1.471 -1.3524  1.4226 -2.0082
 8918TIP3   OH226686   0.166   7.012   1.234 -0.0055 -0.1735  0.0721
 8918TIP3    H126687   0.165   6.970   1.148 -0.1122 -0.6348  0.3000
 8918TIP3    H226688   0.248   6.983   1.274 -0.7942 -1.3924  0.8369
 8919TIP3   OH226689   2.652   1.514   4.223  0.4454  0.1745 -0.0660
 8919TIP3    H126690   2.688   1.474   4.144 -1.8207  0.8335 -1.4818
 8919TIP3    H226691   2.675   1.607   4.216  2.2787 -0.1673  1.2432
 8920TIP3   OH226692   7.041   7.022   3.865  0.0595 -0.2022 -0.6820
 8920TIP3    H126693   7.135   7.038   3.857 -0.2466  1.6418 -0.9329
 8920TIP3    H226694   7.018   7.054   3.952 -0.4835  0.2075 -0.9709
 8921TIP3   OH226695   1.369   0.639   5.748  0.1808  0.7462 -0.4818
 8921TIP3    H126696   1.421   0.570   5.706 -0.1575  1.5763 -2.3166
 8921TIP3    H226697   1.430   0.712   5.758 -0.0521  0.9584 -0.6182
 8922TIP3   OH226698   8.158   7.508   3.348  0.1324  0.1207  0.5552
 8922TIP3    H126699   8.219   7.537   3.280  0.6382 -2.9933 -0.3967
 8922TIP3    H226700   8.211   7.501   3.427  0.0211  1.6544  0.7733
 8923TIP3   OH226701   5.689   7.317   6.472  0.2683 -0.1050 -0.2787
 8923TIP3    H126702   5.743   7.265   6.531  1.1147  1.8573  0.7237
 8923TIP3    H226703   5.746   7.387   6.443 -0.2749 -0.7817 -3.1279
 8924TIP3   OH226704   8.168   0.142   6.580 -0.0611  0.0548 -0.4239
 8924TIP3    H126705   8.176   0.087   6.658  0.2385 -1.4955 -1.5349
 8924TIP3    H226706   8.253   0.136   6.537  0.1420  1.7877 -0.3131
 8925TIP3   OH226707   5.861   7.506   6.309  0.0009 -0.2889 -0.0133
 8925TIP3    H126708   5.925   7.455   6.259 -0.6794 -0.1518 -1.0396
 8925TIP3    H226709   5.889   7.597   6.299  0.7870 -0.3953  1.1978
 8926TIP3   OH226710   0.297   7.228   1.437  0.7045 -0.2809  0.6840
 8926TIP3    H126711   0.215   7.220   1.387  0.3641  0.6102  1.0957
 8926TIP3    H226712   0.272   7.213   1.528  1.1873 -1.0620  0.6968
 8927TIP3   OH226713   6.682   7.687   3.627 -0.3282  0.2922 -0.0258
 8927TIP3    H126714   6.754   7.707   3.688  0.5883  0.7030 -1.2361
 8927TIP3    H226715   6.603   7.708   3.677  0.3992  0.5172  1.0672
 8928TIP3   OH226716   8.320   6.043   2.292 -0.3218 -0.8755 -0.0525
 8928TIP3    H126717   8.263   6.094   2.234  0.1625  0.6151  0.7446
 8928TIP3    H226718   8.397   6.023   2.239  0.3642  0.9615  0.2342
 8929TIP3   OH226719   1.149   6.934   4.154  0.0139 -0.2033  0.8166
 8929TIP3    H126720   1.234   6.909   4.118  0.0607  0.7504  0.2351
 8929TIP3    H226721   1.089   6.931   4.080 -0.7263 -2.0567  1.4779
 8930TIP3   OH226722   8.025   7.218   3.834 -0.5030  0.0682 -0.1969
 8930TIP3    H126723   8.024   7.306   3.797 -1.2676 -0.4051 -1.3636
 8930TIP3    H226724   7.937   7.184   3.816 -1.6500  0.5869  4.0458
 8931TIP3   OH226725   5.908   7.449   4.507  0.6579  0.4909  0.1114
 8931TIP3    H126726   5.971   7.499   4.558  1.1193 -0.1010  0.1197
 8931TIP3    H226727   5.960   7.382   4.463 -0.0813 -0.5233  0.7661
 8932TIP3   OH226728   8.225   7.634   4.284 -0.0109  0.1880  0.2181
 8932TIP3    H126729   8.290   7.703   4.275  2.3026 -2.2014 -2.2197
 8932TIP3    H226730   8.161   7.652   4.214  2.1323 -1.6613 -2.3152
 8933TIP3   OH226731   0.786   5.650   3.415 -1.0903  0.3090  0.3134
 8933TIP3    H126732   0.734   5.644   3.495 -1.0344  1.4416  0.4417
 8933TIP3    H226733   0.807   5.559   3.393 -1.8225 -0.0590  1.1111
 8934TIP3   OH226734   5.694   7.460   1.251 -0.3312 -0.0382 -0.7048
 8934TIP3    H126735   5.610   7.416   1.266 -0.7644  1.2245  0.6772
 8934TIP3    H226736   5.748   7.432   1.324 -0.6681  1.8285  0.2912
 8935TIP3   OH226737   6.687   5.325   2.581 -0.0830  0.6488  0.0785
 8935TIP3    H126738   6.767   5.372   2.606  0.2718  1.3566 -2.2607
 8935TIP3    H226739   6.622   5.394   2.570 -0.3775  0.3106 -0.3314
 8936TIP3   OH226740   7.669   7.548   2.505 -0.4485 -0.2801 -0.5100
 8936TIP3    H126741   7.671   7.576   2.597 -0.1708  0.3170 -0.6966
 8936TIP3    H226742   7.575   7.544   2.484 -0.4801  0.9506 -0.6159
 8937TIP3   OH226743   7.203   4.408   1.919 -0.0006 -0.7637 -0.7605
 8937TIP3    H126744   7.258   4.357   1.978  1.4212  1.3042 -0.2701
 8937TIP3    H226745   7.206   4.360   1.836 -0.4209 -2.6109  0.2588
 8938TIP3   OH226746   7.026   6.131   1.604 -0.1415  0.3347 -0.0059
 8938TIP3    H126747   7.041   6.224   1.588  1.2703  0.1574  0.2811
 8938TIP3    H226748   6.931   6.121   1.596 -0.4507  2.0383  1.2232
 8939TIP3   OH226749   6.684   6.128   3.800 -0.1499  0.1838  0.3265
 8939TIP3    H126750   6.670   6.126   3.895 -1.8590 -0.5676  0.0859
 8939TIP3    H226751   6.628   6.199   3.769 -0.5860 -0.4097 -0.2639
 8940TIP3   OH226752   0.323   7.068   2.232 -0.0623 -0.4997  0.1527
 8940TIP3    H126753   0.290   7.158   2.235 -1.7266 -1.0811  0.1057
 8940TIP3    H226754   0.302   7.038   2.143  2.0749 -0.3756 -0.4247
 8941TIP3   OH226755   5.301   2.569   6.799  0.2551 -0.0490 -0.5235
 8941TIP3    H126756   5.292   2.622   6.878  0.5506  1.3275 -1.4061
 8941TIP3    H226757   5.255   2.618   6.731  1.3160 -0.4461 -1.5581
 8942TIP3   OH226758   7.230   7.762   1.923 -0.1804  0.9658  0.4630
 8942TIP3    H126759   7.240   7.815   1.843  0.1147 -1.6974 -1.3057
 8942TIP3    H226760   7.140   7.780   1.951 -1.3430 -0.3517 -2.2079
 8943TIP3   OH226761   5.924   6.581   4.890 -0.8200 -0.2505 -0.6186
 8943TIP3    H126762   5.856   6.643   4.866  0.1978  1.6527  1.2129
 8943TIP3    H226763   5.921   6.577   4.985  0.6502 -1.2701 -0.5935
 8944TIP3   OH226764   2.909   1.143   1.858 -0.2553 -0.8792  0.1225
 8944TIP3    H126765   2.895   1.082   1.785 -0.3193 -0.1133 -0.5130
 8944TIP3    H226766   2.861   1.222   1.833 -0.5140 -0.7125  1.1339
 8945TIP3   OH226767   5.122   7.794   2.368 -0.1282 -0.5578  0.6740
 8945TIP3    H126768   5.118   7.873   2.313  0.8115 -0.1773  1.1399
 8945TIP3    H226769   5.168   7.730   2.314  1.9695  0.2239  1.4763
 8946TIP3   OH226770   1.070   4.663   1.017 -0.3434 -1.2400 -0.6345
 8946TIP3    H126771   1.117   4.683   0.936  0.8313 -0.5555  0.1953
 8946TIP3    H226772   1.003   4.731   1.023  1.0064  0.0698  0.0870
 8947TIP3   OH226773   6.962   4.438   2.028  0.6239  0.2981  0.0733
 8947TIP3    H126774   6.949   4.349   2.062 -1.6143  1.0664  1.3505
 8947TIP3    H226775   7.053   4.441   2.001  1.2842 -1.7410  1.9643
 8948TIP3   OH226776   6.718   4.897   3.359 -0.1957  0.3150 -0.0907
 8948TIP3    H126777   6.667   4.908   3.279 -0.7513  0.7777  0.3282
 8948TIP3    H226778   6.739   4.986   3.388  1.4226  0.1196 -0.6248
 8949TIP3   OH226779   6.679   7.106   2.110 -0.0395  0.4486 -0.2305
 8949TIP3    H126780   6.732   7.130   2.034 -1.7571  1.0607 -1.2756
 8949TIP3    H226781   6.741   7.067   2.172  1.6180  1.1981 -1.3794
 8950TIP3   OH226782   8.162   6.428   3.288 -0.0092 -0.1655  0.6768
 8950TIP3    H126783   8.096   6.498   3.288  0.1718  0.0426 -1.1237
 8950TIP3    H226784   8.223   6.453   3.357 -0.5528  0.8670  0.7991
 8951TIP3   OH226785   6.732   6.049   2.888  0.0673 -0.1503  0.1999
 8951TIP3    H126786   6.804   6.023   2.831  1.4580 -1.5515  2.5108
 8951TIP3    H226787   6.759   6.133   2.926  0.4803 -0.6385  1.0071
 8952TIP3   OH226788   3.500   0.132   2.318 -0.4284 -0.2750 -0.2869
 8952TIP3    H126789   3.574   0.098   2.368  1.3962  0.9987 -2.0213
 8952TIP3    H226790   3.483   0.065   2.252 -0.3644 -0.2721 -0.3067
 8953TIP3   OH226791   8.438   7.003   4.004 -0.0669 -0.1627 -0.3283
 8953TIP3    H126792   8.388   7.083   4.018 -1.0983 -0.7113 -0.8141
 8953TIP3    H226793   8.447   6.996   3.909  1.3512  0.1730 -0.2384
 8954TIP3   OH226794   0.917   0.576   3.243 -0.3944  0.7529 -0.4433
 8954TIP3    H126795   0.907   0.657   3.293 -1.4809  1.4017 -1.6543
 8954TIP3    H226796   1.004   0.582   3.203 -0.4286  1.2808 -0.4416
 8955TIP3   OH226797   4.736   5.655   3.380 -0.3421 -0.0382  0.2441
 8955TIP3    H126798   4.698   5.574   3.416 -0.8081 -1.3622 -3.0540
 8955TIP3    H226799   4.803   5.625   3.319 -2.0070  1.9337 -2.6959
 8956TIP3   OH226800   5.789   7.788   2.993  0.3881  0.0035 -0.2443
 8956TIP3    H126801   5.871   7.815   2.950  0.7261  0.6986  0.8135
 8956TIP3    H226802   5.797   7.822   3.082 -0.3407 -1.3515  0.3536
 8957TIP3   OH226803   7.718   6.576   2.834 -0.0675 -0.2981  0.1792
 8957TIP3    H126804   7.796   6.624   2.807  0.4036  0.2816  2.4701
 8957TIP3    H226805   7.651   6.602   2.771  1.2431  0.1802 -1.0565
 8958TIP3   OH226806   7.267   5.483   3.504  0.2712 -0.8093 -0.5592
 8958TIP3    H126807   7.241   5.535   3.428  0.5532  0.5248  0.2371
 8958TIP3    H226808   7.360   5.503   3.516 -0.5752  1.8289  2.2809
 8959TIP3   OH226809   5.984   6.538   5.140  0.4293 -0.0676 -0.2951
 8959TIP3    H126810   5.980   6.447   5.112  1.5602  0.1901 -1.3289
 8959TIP3    H226811   6.041   6.538   5.216  0.4689 -0.2112 -0.3245
 8960TIP3   OH226812   3.284   0.141   1.018  0.4605  0.1547 -0.2806
 8960TIP3    H126813   3.219   0.118   0.952  2.4484  0.6571 -2.4697
 8960TIP3    H226814   3.276   0.236   1.028  0.0560  0.0582  0.3166
 8961TIP3   OH226815   2.028   1.021   2.237  0.0275 -0.3337  0.0265
 8961TIP3    H126816   2.036   1.117   2.238  0.6755 -0.3845 -0.2316
 8961TIP3    H226817   2.116   0.989   2.256  0.0731 -0.8836 -1.0509
 8962TIP3   OH226818   6.784   3.798   1.625 -0.1778 -0.0961 -0.1071
 8962TIP3    H126819   6.869   3.836   1.646 -0.4246  0.9449 -0.9683
 8962TIP3    H226820   6.791   3.771   1.533 -0.7693 -0.0022 -0.1880
 8963TIP3   OH226821   6.470   5.198   3.111  0.4141  0.5799  0.2377
 8963TIP3    H126822   6.391   5.217   3.163 -0.6999  0.1639 -1.2624
 8963TIP3    H226823   6.438   5.193   3.021  2.1044 -0.0069 -0.3414
 8964TIP3   OH226824   6.472   5.467   2.504 -0.2627 -0.2320 -0.0712
 8964TIP3    H126825   6.465   5.426   2.418 -0.3564 -0.3181 -0.0230
 8964TIP3    H226826   6.416   5.545   2.499  0.7195  0.4564 -0.4928
 8965TIP3   OH226827   7.852   4.059   4.018 -0.1604 -0.5573 -0.4355
 8965TIP3    H126828   7.798   4.138   4.025  0.8381  0.1958 -0.9845
 8965TIP3    H226829   7.938   4.092   3.990  1.3070 -1.4392  2.7672
 8966TIP3   OH226830   7.326   6.112   1.175 -0.1693  0.5849  0.1788
 8966TIP3    H126831   7.318   6.080   1.265 -0.6542  0.6618  0.1679
 8966TIP3    H226832   7.379   6.191   1.181 -0.3556  0.6919  0.4250
 8967TIP3   OH226833   5.155   6.429   5.324 -0.0788  0.0428 -0.1757
 8967TIP3    H126834   5.128   6.452   5.235  0.1009 -0.3801 -0.3417
 8967TIP3    H226835   5.082   6.457   5.379  0.0369  0.7913 -0.3969
 8968TIP3   OH226836   7.852   5.171   2.418 -0.0114 -0.4303  0.0547
 8968TIP3    H126837   7.888   5.100   2.472 -2.0483 -0.5011  1.3349
 8968TIP3    H226838   7.914   5.177   2.345  2.4265 -0.7708  2.0067
 8969TIP3   OH226839   8.282   7.686   2.467  0.1605 -0.0645  0.3943
 8969TIP3    H126840   8.236   7.604   2.484 -0.9753  0.5225  0.1668
 8969TIP3    H226841   8.234   7.752   2.518  0.7226  0.5617  0.1260
 8970TIP3   OH226842   0.751   7.151   2.305 -0.6858  0.2446 -0.1947
 8970TIP3    H126843   0.776   7.128   2.394 -1.4838  1.1059  0.2676
 8970TIP3    H226844   0.655   7.157   2.308 -0.6581  1.1824 -0.8863
 8971TIP3   OH226845   6.218   4.605   2.967  0.2950  0.1607 -0.0921
 8971TIP3    H126846   6.135   4.652   2.958 -0.2444 -0.6424  0.5682
 8971TIP3    H226847   6.273   4.663   3.020  0.7411  1.4248 -1.9111
 8972TIP3   OH226848   0.552   4.433   5.388 -0.1621 -0.4582  0.2729
 8972TIP3    H126849   0.513   4.370   5.328 -2.4082  0.0335  1.1702
 8972TIP3    H226850   0.520   4.518   5.359  0.7263  0.0246  0.6812
 8973TIP3   OH226851   6.542   5.954   0.864 -0.3553 -0.0218 -0.5422
 8973TIP3    H126852   6.453   5.954   0.900  0.0543  0.9131  0.5192
 8973TIP3    H226853   6.592   5.899   0.924 -0.4633 -1.4912 -1.7971
 8974TIP3   OH226854   8.419   6.639   3.416 -0.5644  0.1096  0.1298
 8974TIP3    H126855   8.468   6.598   3.487 -0.9756  1.5751  1.2846
 8974TIP3    H226856   8.440   6.587   3.339  1.3026 -0.4303  0.9790
 8975TIP3   OH226857   0.658   3.484   4.989 -0.0460 -0.6531  0.0310
 8975TIP3    H126858   0.746   3.504   4.957 -1.0300  0.6167 -1.9800
 8975TIP3    H226859   0.662   3.392   5.016  1.8101 -0.6813 -0.2887
 8976TIP3   OH226860   0.063   6.729   3.908  0.9997 -0.3158  0.2373
 8976TIP3    H126861   0.153   6.718   3.879  0.9665 -0.1056  0.0528
 8976TIP3    H226862   0.058   6.819   3.941  1.0614 -0.5829  0.9939
 8977TIP3   OH226863   0.936   7.514   4.299 -0.0165 -0.3900 -0.0063
 8977TIP3    H126864   0.938   7.477   4.210  0.9344  1.6776 -0.8812
 8977TIP3    H226865   1.020   7.489   4.337 -0.5174 -1.4716  0.4122
 8978TIP3   OH226866   8.024   6.391   4.557 -0.5165  0.0947  0.2785
 8978TIP3    H126867   8.072   6.328   4.611 -1.6593 -0.7582  0.3068
 8978TIP3    H226868   8.092   6.447   4.519  0.4055 -0.3087  1.3265
 8979TIP3   OH226869   1.082   6.717   5.627  0.0730 -0.0214  0.4796
 8979TIP3    H126870   1.027   6.736   5.552  1.3036 -0.7492 -0.6284
 8979TIP3    H226871   1.109   6.626   5.615  3.0795  0.8715 -0.0644
 8980TIP3   OH226872   2.207   6.504   4.887 -0.2870 -0.1584  0.0115
 8980TIP3    H126873   2.157   6.517   4.967  0.2307  0.2391  0.2732
 8980TIP3    H226874   2.202   6.410   4.871  0.4790 -0.3913  1.0868
 8981TIP3   OH226875   4.486   0.659   4.870  0.1041  0.0013 -0.4676
 8981TIP3    H126876   4.426   0.628   4.802  0.4911 -0.2969 -0.6743
 8981TIP3    H226877   4.455   0.616   4.950 -0.4776  0.5125 -0.4111
 8982TIP3   OH226878   0.676   5.781   3.748  0.4386  0.3631 -0.1707
 8982TIP3    H126879   0.750   5.754   3.803  0.1531  0.2060  0.1358
 8982TIP3    H226880   0.642   5.699   3.713 -0.2142  0.3517  0.4838
 8983TIP3   OH226881   0.945   6.747   4.886  0.1506  0.3322 -0.7211
 8983TIP3    H126882   1.028   6.795   4.888  0.5272 -0.3121  2.5666
 8983TIP3    H226883   0.891   6.790   4.952 -0.9477 -1.2165 -0.5826
 8984TIP3   OH226884   0.876   5.684   4.645  0.0976  0.0174  0.1159
 8984TIP3    H126885   0.827   5.686   4.563 -0.7774  2.4753  0.6408
 8984TIP3    H226886   0.829   5.744   4.703  2.7024  1.0894  1.2357
 8985TIP3   OH226887   8.318   7.070   3.088 -0.0163  0.0325 -0.4457
 8985TIP3    H126888   8.339   7.122   3.166  0.1907 -0.2214 -0.3340
 8985TIP3    H226889   8.223   7.073   3.082  0.0304  0.9737 -0.8122
 8986TIP3   OH226890   2.090   7.806   3.972 -0.0789 -0.8040  0.4472
 8986TIP3    H126891   2.000   7.803   4.002  0.5624 -0.1231  2.4725
 8986TIP3    H226892   2.137   7.744   4.028  1.2066  0.8106  1.2037
 8987TIP3   OH226893   3.283   6.089   4.035  0.2587  0.4678  0.4370
 8987TIP3    H126894   3.373   6.076   4.067 -0.0211  0.6134  1.2969
 8987TIP3    H226895   3.263   6.008   3.988  0.4451 -0.0187  1.1907
 8988TIP3   OH226896   1.736   5.122   4.056 -0.2425  0.0537  0.3464
 8988TIP3    H126897   1.741   5.086   3.967 -1.9258 -1.9862  1.0405
 8988TIP3    H226898   1.784   5.204   4.051 -0.9270  0.3357 -2.6445
 8989TIP3   OH226899   7.022   7.090   4.144 -0.1737 -0.3065  0.3839
 8989TIP3    H126900   7.037   7.184   4.151 -1.1918 -0.2509  1.9478
 8989TIP3    H226901   7.103   7.050   4.176 -0.6927  0.0313  2.1540
 8990TIP3   OH226902   1.190   6.441   5.618 -0.1908 -0.1856 -0.3550
 8990TIP3    H126903   1.248   6.401   5.554 -0.4989  0.9566 -1.3607
 8990TIP3    H226904   1.108   6.392   5.610  0.2964 -1.1125  0.3255
 8991TIP3   OH226905   0.957   0.137   3.644  0.4429 -0.1015 -0.2112
 8991TIP3    H126906   0.974   0.185   3.563 -0.1593 -2.1385 -1.5923
 8991TIP3    H226907   1.038   0.145   3.695  0.5522  1.8407 -0.6665
 8992TIP3   OH226908   8.483   6.666   4.351  0.2230  0.4402  0.3503
 8992TIP3    H126909   8.549   6.639   4.288 -1.5277 -1.9771 -0.5491
 8992TIP3    H226910   8.429   6.730   4.304 -1.2228 -1.5324 -0.7663
 8993TIP3   OH226911   1.297   6.327   5.400  0.0007  0.0692 -0.1198
 8993TIP3    H126912   1.353   6.391   5.357  1.4718 -1.2347 -0.2140
 8993TIP3    H226913   1.266   6.270   5.329  2.0483 -1.7984  0.4288
 8994TIP3   OH226914   2.800   0.823   2.705 -0.0958 -0.9411 -0.0655
 8994TIP3    H126915   2.847   0.896   2.745 -0.0058 -0.6300 -0.7297
 8994TIP3    H226916   2.869   0.762   2.679 -0.1001 -0.8074 -0.4003
 8995TIP3   OH226917   2.941  -0.007   4.505  0.0545 -0.3785  0.0022
 8995TIP3    H126918   3.033   0.012   4.522 -0.1597 -0.6163  1.4296
 8995TIP3    H226919   2.894   0.067   4.543 -0.3707 -0.4658 -0.3487
 8996TIP3   OH226920   1.963   0.941   3.739 -0.1120  0.5288 -0.1324
 8996TIP3    H126921   1.985   1.018   3.687  1.2583 -0.1948 -0.6506
 8996TIP3    H226922   2.013   0.870   3.698 -2.2331 -0.8554 -0.3668
 8997TIP3   OH226923   6.136   7.364   5.177 -0.1180  0.0942 -0.0793
 8997TIP3    H126924   6.179   7.438   5.134  0.7644  0.5833  1.6303
 8997TIP3    H226925   6.055   7.352   5.128  0.4680  1.1814 -1.3563
 8998TIP3   OH226926   1.565   7.330   5.473 -0.1416 -0.4167 -0.0766
 8998TIP3    H126927   1.478   7.356   5.445 -0.2309 -0.9269 -0.2669
 8998TIP3    H226928   1.573   7.239   5.447  0.4715 -0.3548 -0.1092
 8999TIP3   OH226929   0.396   6.818   2.806 -0.0576  0.1774  0.4678
 8999TIP3    H126930   0.447   6.836   2.727  1.3990  0.1562  1.3932
 8999TIP3    H226931   0.392   6.722   2.811 -1.2637  0.1668 -0.2600
 9000TIP3   OH226932   1.339   6.542   4.308 -0.1820 -0.3825  0.4794
 9000TIP3    H126933   1.260   6.579   4.347  0.5172 -0.6682  2.2017
 9000TIP3    H226934   1.411   6.582   4.357  0.7812  0.4489 -1.5645
 9001TIP3   OH226935   1.825   5.124   4.582  0.2142 -0.0860 -0.2798
 9001TIP3    H126936   1.839   5.031   4.568  0.6158  0.2334 -2.1749
 9001TIP3    H226937   1.784   5.155   4.501  0.4108  1.4421  0.1824
 9002TIP3   OH226938   2.312   7.638   3.154 -0.6351 -0.0002  0.1919
 9002TIP3    H126939   2.277   7.571   3.214  1.9394 -0.4120  1.2943
 9002TIP3    H226940   2.371   7.690   3.209  0.7182  0.4790 -1.6953
 9003TIP3   OH226941   0.831   5.407   5.351 -0.1532 -0.6735  0.1400
 9003TIP3    H126942   0.901   5.417   5.415 -0.5636 -0.7986  0.6158
 9003TIP3    H226943   0.777   5.336   5.385 -0.3598 -0.7637 -0.3624
 9004TIP3   OH226944   8.228   7.877   4.105  0.1431 -0.0972  0.1049
 9004TIP3    H126945   8.169   7.924   4.045  1.4776  1.8263  0.2647
 9004TIP3    H226946   8.271   7.812   4.050 -2.3395 -1.7704  0.0508
 9005TIP3   OH226947   0.788   6.061   5.281  0.8960 -0.1289 -0.1529
 9005TIP3    H126948   0.816   6.098   5.364 -2.1892  3.8375 -0.7227
 9005TIP3    H226949   0.713   6.006   5.303  1.6166 -1.0888 -0.0563
 9006TIP3   OH226950   8.090   7.153   2.672 -0.0569  0.6145 -0.1493
 9006TIP3    H126951   8.046   7.236   2.659 -1.4068  0.2142  1.6081
 9006TIP3    H226952   8.163   7.173   2.731 -0.0544  0.6570 -0.1674
 9007TIP3   OH226953   1.792   6.156   3.878 -0.0920 -0.4053 -0.5020
 9007TIP3    H126954   1.829   6.147   3.966  0.1140  0.4946 -0.4874
 9007TIP3    H226955   1.820   6.077   3.832 -0.3678 -0.9750  0.2982
 9008TIP3   OH226956   7.738   6.493   3.266  0.4596 -0.6223  0.1743
 9008TIP3    H126957   7.697   6.426   3.320  0.4708 -1.0162 -0.2944
 9008TIP3    H226958   7.733   6.458   3.177 -0.5096  0.4964 -0.2139
 9009TIP3   OH226959   6.484   7.804   3.788  0.4188 -0.3015 -0.4903
 9009TIP3    H126960   6.425   7.872   3.758 -1.8762 -0.7200  2.7300
 9009TIP3    H226961   6.536   7.846   3.856  3.4720 -0.1261 -2.8429
 9010TIP3   OH226962   1.267   5.726   5.599  0.0280  0.3067  0.2853
 9010TIP3    H126963   1.257   5.718   5.504 -1.8147 -1.4138  0.5893
 9010TIP3    H226964   1.339   5.668   5.620  0.8081  1.1134 -0.1073
 9011TIP3   OH226965   1.621   6.595   2.667  0.7121  0.3786 -0.1032
 9011TIP3    H126966   1.654   6.621   2.753 -0.5548  0.9748  0.2093
 9011TIP3    H226967   1.700   6.584   2.613  1.3264  3.5889  0.0943
 9012TIP3   OH226968   2.249   6.217   5.690  0.0549  0.0240 -0.4415
 9012TIP3    H126969   2.332   6.192   5.731 -0.3476  0.3548  0.6104
 9012TIP3    H226970   2.243   6.163   5.612  2.1062  1.2452 -1.5006
 9013TIP3   OH226971   1.196   7.324   2.776  0.0036 -0.2307  0.0186
 9013TIP3    H126972   1.153   7.308   2.692 -2.1389  0.0333  1.0331
 9013TIP3    H226973   1.213   7.236   2.811  1.1740 -0.3455 -0.8025
 9014TIP3   OH226974   1.854   5.946   3.699 -0.5032 -0.3006 -0.1411
 9014TIP3    H126975   1.796   5.876   3.670 -0.5772  0.5255 -2.0437
 9014TIP3    H226976   1.869   6.000   3.621 -0.7866  2.0607  1.3653
 9015TIP3   OH226977   1.598   6.873   4.618  0.0021 -0.1403  0.3324
 9015TIP3    H126978   1.600   6.961   4.657 -0.8896  0.2790 -0.5443
 9015TIP3    H226979   1.533   6.880   4.548 -1.2008 -1.9343  1.2631
 9016TIP3   OH226980   6.793   0.595   4.471  0.0144  0.4562  0.3253
 9016TIP3    H126981   6.874   0.544   4.475 -0.1327  0.0980 -0.9595
 9016TIP3    H226982   6.724   0.528   4.471 -0.2205  0.6991 -0.1674
 9017TIP3   OH226983   2.676   7.315   4.209 -0.3599 -0.2509  0.2326
 9017TIP3    H126984   2.625   7.318   4.290  1.4617  2.0003  1.3275
 9017TIP3    H226985   2.616   7.278   4.145 -2.5331 -0.0735  2.1101
 9018TIP3   OH226986   6.610   7.633   4.147 -0.3190 -0.1281  0.5503
 9018TIP3    H126987   6.540   7.568   4.152  0.2451 -0.7232  0.7925
 9018TIP3    H226988   6.649   7.619   4.061 -0.5212  0.2292  0.4010
 9019TIP3   OH226989   3.610   5.844   4.419  0.9998 -0.2468  0.8973
 9019TIP3    H126990   3.532   5.788   4.418 -0.3664  1.6133  0.7384
 9019TIP3    H226991   3.683   5.783   4.410 -0.4611 -1.9827  0.4608
 9020TIP3   OH226992  -0.000   7.548   4.697 -0.5195 -0.4288 -0.0754
 9020TIP3    H126993  -0.027   7.526   4.607 -0.7260 -0.4995  0.0019
 9020TIP3    H226994   0.038   7.467   4.731 -0.8460 -0.5338  0.0484
 9021TIP3   OH226995   3.142   7.074   3.776 -0.0713 -0.0898  0.1137
 9021TIP3    H126996   3.180   6.998   3.820  2.4384  0.0263 -1.7765
 9021TIP3    H226997   3.097   7.037   3.700 -1.6251  0.0462  0.9304
 9022TIP3   OH226998   4.125   0.910   2.713  0.1271 -0.0663 -0.3147
 9022TIP3    H126999   4.198   0.850   2.697  1.4815  1.5898 -0.4346
 9022TIP3    H227000   4.081   0.917   2.628  0.3457 -0.3599 -0.4523
 9023TIP3   OH227001   5.673   0.694   3.151 -0.5358 -0.3678 -0.4531
 9023TIP3    H127002   5.765   0.715   3.167 -0.6897  0.4115 -0.5803
 9023TIP3    H227003   5.655   0.731   3.065 -0.7065 -1.3563 -0.8419
 9024TIP3   OH227004   1.476   7.812   4.505 -0.0020 -0.1439 -0.2824
 9024TIP3    H127005   1.491   7.848   4.418  0.6883  0.4330  0.0736
 9024TIP3    H227006   1.564   7.796   4.540 -0.2811 -0.6404  0.1964
 9025TIP3   OH227007   8.015   6.979   4.342  0.2156  0.0553 -0.2321
 9025TIP3    H127008   8.002   6.985   4.437 -0.2143 -0.6206 -0.2508
 9025TIP3    H227009   8.098   7.025   4.327 -0.3306  1.2446  0.3146
 9026TIP3   OH227010   0.290   7.156   3.390  0.2814 -0.1121 -0.3389
 9026TIP3    H127011   0.360   7.118   3.445 -1.2604 -1.3074  0.8611
 9026TIP3    H227012   0.267   7.085   3.330 -1.0508 -0.3250  0.4031
 9027TIP3   OH227013   1.685   7.275   3.407 -0.5694  0.0908  0.7882
 9027TIP3    H127014   1.684   7.366   3.376  1.2443 -0.0250  0.3360
 9027TIP3    H227015   1.716   7.225   3.332 -0.1091 -0.7225  1.5129
 9028TIP3   OH227016   5.743   0.327   4.709  0.0616 -0.2987  0.0734
 9028TIP3    H127017   5.766   0.392   4.643 -0.6229  0.2675  0.3933
 9028TIP3    H227018   5.825   0.311   4.755  0.2767  0.1908 -0.1303
 9029TIP3   OH227019   3.328   1.685   1.772  0.1246  0.0091  0.7520
 9029TIP3    H127020   3.305   1.750   1.838 -0.5445  0.4949  0.0509
 9029TIP3    H227021   3.395   1.727   1.719  1.6801 -0.9034  1.9666
 9030TIP3   OH227022   3.707   0.238   4.575  0.3309  0.4027  0.3059
 9030TIP3    H127023   3.789   0.208   4.536  0.9083  2.6089 -0.2412
 9030TIP3    H227024   3.729   0.257   4.666  0.3934  0.8573  0.1964
 9031TIP3   OH227025   3.449   0.360   5.223 -0.0486 -0.0333  0.3612
 9031TIP3    H127026   3.534   0.404   5.211 -0.9769  1.8456  0.5484
 9031TIP3    H227027   3.472   0.267   5.232  2.0992  0.5737  1.6462
 9032TIP3   OH227028   1.685   7.692   5.055  0.2297  0.5910  0.1985
 9032TIP3    H127029   1.652   7.659   5.138  2.4576  0.9790  1.2663
 9032TIP3    H227030   1.780   7.681   5.060  0.5722  2.3336 -1.5413
 9033TIP3   OH227031   1.545   7.104   5.736  0.2600  0.0564 -0.5354
 9033TIP3    H127032   1.476   7.152   5.781  1.0446  0.1890  0.5336
 9033TIP3    H227033   1.532   7.125   5.643 -1.0330  0.1988 -0.3335
 9034TIP3   OH227034   1.791   7.823   4.024 -0.2698  0.0938  0.0852
 9034TIP3    H127035   1.790   7.727   4.019 -0.8836  0.1367 -0.7320
 9034TIP3    H227036   1.708   7.845   4.067  0.5542  0.2001  1.6706
 9035TIP3   OH227037   2.790   7.745   4.880  0.6301 -0.1004  0.2042
 9035TIP3    H127038   2.805   7.733   4.786 -1.0053 -2.0212  0.1655
 9035TIP3    H227039   2.859   7.693   4.922 -0.4117 -1.6206  0.0519
 9036TIP3   OH227040   1.577   4.871   4.478 -0.5963  0.4783 -0.3311
 9036TIP3    H127041   1.525   4.945   4.511 -1.9014  0.8276 -3.0713
 9036TIP3    H227042   1.655   4.872   4.533 -0.7349  3.7090 -0.0475
 9037TIP3   OH227043   2.247   7.350   3.995  0.0130  0.0072 -0.1023
 9037TIP3    H127044   2.165   7.306   3.977  0.4284 -0.7600 -0.1259
 9037TIP3    H227045   2.224   7.419   4.058 -0.5192 -0.6826  0.4658
 9038TIP3   OH227046   5.251   0.342   3.289 -0.0840 -0.0553  0.6944
 9038TIP3    H127047   5.299   0.279   3.236  0.6180  1.3539 -0.3669
 9038TIP3    H227048   5.159   0.314   3.282  0.3678 -1.7781  1.3982
 9039TIP3   OH227049   2.854   1.337   2.596  0.2436  0.2070  0.4230
 9039TIP3    H127050   2.770   1.327   2.641  0.2614 -0.5442  0.3063
 9039TIP3    H227051   2.880   1.427   2.612  0.3301 -0.0927  2.0612
 9040TIP3   OH227052   1.341   7.857   2.525 -0.4484 -0.3230  0.1541
 9040TIP3    H127053   1.392   7.885   2.448 -0.4597 -0.8795 -0.0580
 9040TIP3    H227054   1.405   7.857   2.597 -0.3321 -0.2409  0.0511
 9041TIP3   OH227055   1.673   7.533   3.664 -0.3773 -0.1730 -0.0569
 9041TIP3    H127056   1.592   7.482   3.662 -1.0613  0.9331 -2.7643
 9041TIP3    H227057   1.693   7.542   3.757 -2.8827 -1.2240  0.6285
 9042TIP3   OH227058   4.373   0.514   2.719 -0.0521  0.4427  0.2101
 9042TIP3    H127059   4.342   0.483   2.804  1.2073 -1.5579 -0.0125
 9042TIP3    H227060   4.326   0.460   2.655  0.7116  0.3074 -0.2566
 9043TIP3   OH227061   1.182   7.178   3.132  0.4813  0.2085  0.0189
 9043TIP3    H127062   1.253   7.126   3.170  0.2092  0.4105  0.8138
 9043TIP3    H227063   1.158   7.131   3.052  0.5849 -0.6092  0.4647
 9044TIP3   OH227064   5.581   0.601   4.536  0.4079 -0.1309 -0.2009
 9044TIP3    H127065   5.664   0.560   4.559 -0.6100 -2.2556 -0.1917
 9044TIP3    H227066   5.594   0.634   4.447  1.0389 -1.0934 -0.4723
 9045TIP3   OH227067   2.197   6.994   4.554  0.0499  0.2728 -0.6904
 9045TIP3    H127068   2.163   6.926   4.613  2.8375  0.2588  1.0047
 9045TIP3    H227069   2.261   6.948   4.499 -0.8315  0.7738 -2.1600
 9046TIP3   OH227070   1.730   7.946   2.008  0.1759  0.5647 -0.3550
 9046TIP3    H127071   1.653   7.904   2.047  0.9406 -1.4088 -0.9582
 9046TIP3    H227072   1.762   7.884   1.944  2.5601  1.1792  0.1913
 9047TIP3   OH227073   1.982   6.852   3.315  0.1859  0.0871 -0.0806
 9047TIP3    H127074   1.887   6.846   3.305  0.3989 -2.1772 -1.1254
 9047TIP3    H227075   1.997   6.850   3.410 -0.6824 -3.2086  0.0657
 9048TIP3   OH227076   2.565   6.925   3.108 -0.2189 -0.5481 -0.2773
 9048TIP3    H127077   2.612   6.967   3.180 -0.4431  0.1369 -0.5356
 9048TIP3    H227078   2.536   6.997   3.052  0.2187 -1.1042 -1.2190
 9049TIP3   OH227079   1.407   7.451   4.658  0.3549 -0.1872  0.4164
 9049TIP3    H127080   1.491   7.458   4.703  0.5173 -1.4879  0.3257
 9049TIP3    H227081   1.410   7.366   4.614 -0.6608  0.1346 -0.2960
 9050TIP3   OH227082   4.377   0.155   3.783  0.2751 -0.3124  0.2599
 9050TIP3    H127083   4.348   0.080   3.731  0.0832 -1.0018  1.3311
 9050TIP3    H227084   4.309   0.164   3.850  1.2030 -0.2875  1.2056
 9051TIP3   OH227085   2.017   6.577   4.268 -0.2023  0.5019 -0.1453
 9051TIP3    H127086   1.977   6.503   4.221 -1.0708  1.1925 -0.5105
 9051TIP3    H227087   2.006   6.554   4.361 -0.7323  0.3086 -0.2527
 9052TIP3   OH227088   2.691   7.610   4.209 -0.1173  0.0163 -0.0228
 9052TIP3    H127089   2.634   7.534   4.217  0.7557 -0.5118  1.4176
 9052TIP3    H227090   2.722   7.608   4.119  0.2060 -1.5811  0.1116
 9053TIP3   OH227091   6.323   0.731   3.396 -0.2840  0.2288  0.2313
 9053TIP3    H127092   6.359   0.805   3.445 -0.3053  0.1291  0.3975
 9053TIP3    H227093   6.342   0.655   3.450  1.8220 -0.1886 -1.0267
 9054TIP3   OH227094   1.736   5.256   3.604 -0.0827  0.1404  0.3169
 9054TIP3    H127095   1.716   5.346   3.579 -0.7890 -0.4685 -1.3658
 9054TIP3    H227096   1.666   5.232   3.664 -1.0518  0.0370 -0.8363
 9055TIP3   OH227097   3.031   7.007   5.097 -0.6830 -0.4090 -0.3413
 9055TIP3    H127098   2.992   7.000   5.010  0.7031  1.7276 -1.2122
 9055TIP3    H227099   3.089   7.084   5.090 -0.2110 -0.4789  2.3340
 9056TIP3   OH227100   2.467   7.540   6.141  0.1727 -0.6098 -0.4422
 9056TIP3    H127101   2.407   7.527   6.215  0.5249 -0.8763 -0.1999
 9056TIP3    H227102   2.423   7.500   6.066 -1.2557  1.7038 -0.8909
 9057TIP3   OH227103   2.933   7.888   3.830  0.3615  0.1143 -0.3060
 9057TIP3    H127104   2.840   7.876   3.813  0.1080 -0.3775  1.3726
 9057TIP3    H227105   2.942   7.982   3.845  0.6495  0.6256 -3.3174
 9058TIP3   OH227106   2.319   7.229   1.777 -0.1540  0.0236 -0.2760
 9058TIP3    H127107   2.247   7.167   1.785 -1.7648  1.9384  0.6639
 9058TIP3    H227108   2.289   7.307   1.824  2.1927  1.1731 -0.5859
 9059TIP3   OH227109   2.587   6.306   4.938  0.1147  0.0561 -0.4458
 9059TIP3    H127110   2.633   6.380   4.978 -0.5905 -0.7546  1.9101
 9059TIP3    H227111   2.642   6.230   4.957 -1.7278 -0.7965  1.6774
 9060TIP3   OH227112   4.371   0.374   5.782 -0.0681  0.0131 -0.3061
 9060TIP3    H127113   4.314   0.347   5.711 -0.4869 -0.3164  0.1488
 9060TIP3    H227114   4.388   0.293   5.831  1.4450 -0.0451 -0.8972
 9061TIP3   OH227115   0.594   7.180   4.403  0.2739 -0.4553 -0.2042
 9061TIP3    H127116   0.626   7.188   4.314  0.0045 -0.3739 -0.2937
 9061TIP3    H227117   0.647   7.110   4.441 -0.9891 -1.9111 -1.0625
 9062TIP3   OH227118   6.185   0.469   5.848 -0.0672  0.3020 -0.0972
 9062TIP3    H127119   6.117   0.421   5.894 -0.6429  1.6808  0.5306
 9062TIP3    H227120   6.199   0.421   5.767 -1.1480 -0.4886  0.1807
 9063TIP3   OH227121   6.958   0.563   3.721  0.1257 -0.1180  0.4855
 9063TIP3    H127122   6.983   0.493   3.660  1.2572 -1.1792  2.1264
 9063TIP3    H227123   7.029   0.626   3.717 -0.0133  0.0350  0.3921
 9064TIP3   OH227124   5.475   0.928   3.937  0.3185  0.2905 -0.0204
 9064TIP3    H127125   5.455   0.952   4.028  1.5414 -1.3891  0.7130
 9064TIP3    H227126   5.559   0.882   3.942  0.9952  1.2340 -2.1697
 9065TIP3   OH227127   8.253   7.903   4.546  0.0608  0.1477  0.3205
 9065TIP3    H127128   8.174   7.935   4.503 -0.2777 -1.8944 -0.6027
 9065TIP3    H227129   8.318   7.899   4.476  0.7231  0.8726  0.8803
 9066TIP3   OH227130   0.694   6.122   3.281  1.1948  0.6626 -0.2616
 9066TIP3    H127131   0.766   6.059   3.269 -0.2147 -0.8988 -0.7860
 9066TIP3    H227132   0.625   6.089   3.223  0.1212  2.2422  0.1109
 9067TIP3   OH227133   4.674   1.344   6.437 -0.2124  0.0603  0.2799
 9067TIP3    H127134   4.664   1.391   6.520  0.9627  0.4982  0.1919
 9067TIP3    H227135   4.715   1.262   6.462 -3.2293 -1.4334  0.5654
 9068TIP3   OH227136   2.287   0.722   3.351  0.4335 -0.1715 -0.4478
 9068TIP3    H127137   2.368   0.672   3.356 -0.8189 -2.3326 -1.2077
 9068TIP3    H227138   2.241   0.686   3.275 -0.8073  1.6899 -0.6157
 9069TIP3   OH227139   3.142   5.810   3.630  0.1791  0.2948  0.1320
 9069TIP3    H127140   3.062   5.758   3.642 -0.0281  0.4376 -0.6193
 9069TIP3    H227141   3.206   5.748   3.596  0.2292  0.3103  0.1962
 9070TIP3   OH227142   2.101   6.791   2.404  0.2600 -0.0513 -0.5115
 9070TIP3    H127143   2.112   6.806   2.498 -1.0094  3.0566 -0.8161
 9070TIP3    H227144   2.007   6.785   2.391  0.4360 -0.7477 -1.5734
 9071TIP3   OH227145   0.392   7.215   3.840  0.0266 -0.0255  0.8131
 9071TIP3    H127146   0.460   7.167   3.793  0.3474  0.7419  0.4897
 9071TIP3    H227147   0.311   7.195   3.794  0.2881  0.4412  0.1573
 9072TIP3   OH227148   8.493   5.407   4.483 -0.1390 -0.3162 -0.5732
 9072TIP3    H127149   8.412   5.397   4.432 -0.6292  0.7811 -0.0372
 9072TIP3    H227150   8.498   5.501   4.502  0.7359 -0.5172  0.2521
 9073TIP3   OH227151   3.205   6.780   3.881 -0.0109 -0.4584 -0.4911
 9073TIP3    H127152   3.145   6.749   3.813 -2.6285 -0.3303  1.6704
 9073TIP3    H227153   3.197   6.716   3.951  0.9176  0.6134  0.6144
 9074TIP3   OH227154   1.382   6.464   2.743 -0.0869  0.3611 -0.6288
 9074TIP3    H127155   1.389   6.508   2.828 -0.1553 -2.1872  0.7244
 9074TIP3    H227156   1.466   6.481   2.701  0.5104  0.4381  0.5535
 9075TIP3   OH227157   0.875   7.527   5.515 -0.1667  0.2622  0.0739
 9075TIP3    H127158   0.834   7.525   5.601 -1.5615  0.3834 -0.5626
 9075TIP3    H227159   0.868   7.618   5.487 -0.3893  0.0852 -0.4659
 9076TIP3   OH227160   3.493   7.154   5.102 -0.2014 -0.0396  0.2732
 9076TIP3    H127161   3.527   7.148   5.013 -0.4328 -1.7124  0.2793
 9076TIP3    H227162   3.401   7.177   5.091 -0.3058 -0.5639  0.0775
 9077TIP3   OH227163   1.216   5.549   3.295  0.2601  0.4407  0.6814
 9077TIP3    H127164   1.193   5.463   3.328  1.4023  0.7026  2.1831
 9077TIP3    H227165   1.162   5.610   3.346 -0.2324  0.6584 -0.0828
 9078TIP3   OH227166   1.534   7.958   6.612 -0.3956 -0.1485  0.2389
 9078TIP3    H127167   1.488   7.874   6.619 -0.5250 -0.2395 -1.4031
 9078TIP3    H227168   1.617   7.937   6.569  0.1616  0.3719  1.0460
 9079TIP3   OH227169   1.377   7.206   1.669 -0.0185  0.9331  0.4150
 9079TIP3    H127170   1.300   7.262   1.657  0.5651  1.5614 -0.4756
 9079TIP3    H227171   1.409   7.191   1.580  0.2770 -0.1916  0.7050
 9080TIP3   OH227172   1.237   7.356   5.118  0.0777 -0.4813 -1.1871
 9080TIP3    H127173   1.244   7.422   5.048  0.8852  0.2397 -0.4359
 9080TIP3    H227174   1.171   7.392   5.177  2.0995  0.7720  0.3903
 9081TIP3   OH227175   3.643   7.471   3.103 -0.0728  0.2554  0.1698
 9081TIP3    H127176   3.636   7.511   3.017  0.1941 -0.4025 -0.1639
 9081TIP3    H227177   3.556   7.482   3.141  0.3475  2.2443  0.5865
 9082TIP3   OH227178   4.474   1.152   3.429 -0.4462 -0.1697 -0.3342
 9082TIP3    H127179   4.497   1.219   3.494 -0.8401 -1.0125  0.6916
 9082TIP3    H227180   4.407   1.194   3.374 -1.2178  0.0521  0.7468
 9083TIP3   OH227181   5.119   0.615   4.062 -0.6169 -0.5747 -0.2614
 9083TIP3    H127182   5.038   0.649   4.101  0.3398 -0.4758  1.7346
 9083TIP3    H227183   5.157   0.561   4.131  1.8284  0.6926 -0.5573
 9084TIP3   OH227184   8.248   6.219   3.604 -0.1640 -0.7280 -0.1736
 9084TIP3    H127185   8.192   6.142   3.598  0.7178 -1.4360  0.5397
 9084TIP3    H227186   8.188   6.293   3.611 -1.0191 -1.3000 -1.4334
 9085TIP3   OH227187   5.536   1.250   1.275 -0.0869 -0.1266  0.2331
 9085TIP3    H127188   5.471   1.299   1.326  0.7254  1.0267  0.1894
 9085TIP3    H227189   5.587   1.202   1.341  0.5664  0.8837  0.4933
 9086TIP3   OH227190   4.848   0.864   4.519  0.0804  0.3794  0.8185
 9086TIP3    H127191   4.883   0.945   4.483 -1.0974  0.5425  0.0064
 9086TIP3    H227192   4.914   0.834   4.581  0.6482  1.8062  0.9044
 9087TIP3   OH227193   6.138   0.966   4.986  0.3395 -0.0744  0.0678
 9087TIP3    H127194   6.184   0.889   4.953  0.3357 -0.0847  0.0867
 9087TIP3    H227195   6.047   0.937   4.995  0.3104 -0.0250 -0.0634
 9088TIP3   OH227196   2.691   5.976   3.787  0.3070  1.2801 -0.9957
 9088TIP3    H127197   2.717   5.890   3.821  0.0336  1.0476 -1.3682
 9088TIP3    H227198   2.722   6.038   3.852 -0.2327  0.8326 -0.2984
 9089TIP3   OH227199   2.815   5.578   4.989 -0.5692  0.0008 -0.7499
 9089TIP3    H127200   2.822   5.489   5.023  1.5287 -0.5420 -2.5280
 9089TIP3    H227201   2.846   5.572   4.899  1.8425  2.9434 -0.2043
 9090TIP3   OH227202   1.228   7.523   6.153  0.4244  0.3860 -0.1204
 9090TIP3    H127203   1.191   7.610   6.166 -0.7262 -0.0028 -0.7080
 9090TIP3    H227204   1.258   7.523   6.062  0.3806  0.1498 -0.1367
 9091TIP3   OH227205   3.766   0.436   5.387  0.0701 -0.0331 -0.2031
 9091TIP3    H127206   3.783   0.343   5.406 -0.4195 -0.0715  0.0799
 9091TIP3    H227207   3.729   0.470   5.468 -2.2896 -0.2561 -1.1484
 9092TIP3   OH227208   2.414   7.132   4.648 -0.0425  0.6412 -0.5983
 9092TIP3    H127209   2.323   7.107   4.632 -0.0413  0.4744 -0.3491
 9092TIP3    H227210   2.466   7.062   4.608 -0.0121  1.0764 -1.3277
 9093TIP3   OH227211   2.812   7.804   4.382 -0.5530  0.5646 -0.4748
 9093TIP3    H127212   2.855   7.870   4.328  0.3656 -0.7092 -1.3325
 9093TIP3    H227213   2.775   7.742   4.318  1.2480 -1.4070  0.3259
 9094TIP3   OH227214   5.324   0.719   2.035  0.3184 -0.8777  0.4504
 9094TIP3    H127215   5.235   0.714   2.069  0.3061  1.9289  0.9645
 9094TIP3    H227216   5.314   0.762   1.950  1.1398 -0.8283  0.3799
 9095TIP3   OH227217   0.145   7.794   4.704  0.3606  0.4660 -0.0424
 9095TIP3    H127218   0.112   7.840   4.627  1.6604  1.6582  0.0848
 9095TIP3    H227219   0.116   7.703   4.693 -4.4540  1.7677  0.9882
 9096TIP3   OH227220   4.340   0.473   1.268 -0.2849  0.1346  0.1859
 9096TIP3    H127221   4.400   0.524   1.212  1.1015  0.6010  2.0458
 9096TIP3    H227222   4.310   0.402   1.212 -0.3077  1.5831 -1.7044
 9097TIP3   OH227223   1.049   6.786   5.369  0.4632 -0.4256 -0.8303
 9097TIP3    H127224   0.973   6.759   5.318  0.6095 -0.7279 -0.8869
 9097TIP3    H227225   1.070   6.874   5.336 -0.9905  0.4289  0.4684
 9098TIP3   OH227226   1.224   7.464   1.393  0.0266  0.0855  0.2520
 9098TIP3    H127227   1.151   7.451   1.332  2.6062 -1.9788 -2.5168
 9098TIP3    H227228   1.234   7.559   1.400 -1.9737  0.3722 -0.4409
 9099TIP3   OH227229   2.893   7.986   4.203  0.1972  0.3910 -0.5884
 9099TIP3    H127230   2.964   8.016   4.146  1.5704 -3.0920 -0.8258
 9099TIP3    H227231   2.816   7.985   4.146  1.0634 -0.7379 -1.7934
 9100TIP3   OH227232   1.085   3.061   0.495 -0.3797  0.4544  0.1185
 9100TIP3    H127233   1.166   3.094   0.533  0.2035  0.5801 -1.2076
 9100TIP3    H227234   1.040   3.018   0.568  0.2610  1.5093  1.1676
 9101TIP3   OH227235   0.375   7.213   3.061  0.6097 -0.0227  0.3913
 9101TIP3    H127236   0.375   7.235   2.968 -1.0665 -0.4304  0.2847
 9101TIP3    H227237   0.314   7.274   3.101 -1.3185 -2.0665  0.6640
 9102TIP3   OH227238   6.955   0.173   5.134  0.4154  0.4512  0.3896
 9102TIP3    H127239   7.049   0.171   5.153  0.3528  1.4701  0.8020
 9102TIP3    H227240   6.941   0.257   5.092  0.3850 -1.3735 -3.3995
 9103TIP3   OH227241   1.649   6.171   5.178 -0.7684 -0.2579 -0.6592
 9103TIP3    H127242   1.677   6.216   5.098 -1.4279 -1.2140 -1.4274
 9103TIP3    H227243   1.566   6.130   5.155 -1.6405  0.5629  0.9203
 9104TIP3   OH227244   0.738   7.454   3.823 -0.5294  0.1099  0.0631
 9104TIP3    H127245   0.712   7.539   3.788  0.3887  0.0512 -0.7861
 9104TIP3    H227246   0.799   7.419   3.758  0.6964 -0.3005  1.4205
 9105TIP3   OH227247   5.558   0.387   5.371 -0.3117  0.0044 -0.5052
 9105TIP3    H127248   5.498   0.460   5.388 -0.4791 -0.5257  1.2154
 9105TIP3    H227249   5.508   0.309   5.396  0.4076 -0.5940 -0.9308
 9106TIP3   OH227250   7.067   0.137   4.317  0.1625 -0.8441 -0.1659
 9106TIP3    H127251   7.111   0.201   4.373  2.1885 -2.3912  0.0947
 9106TIP3    H227252   7.124   0.130   4.240 -0.3618 -1.8770 -0.4710
 9107TIP3   OH227253   0.289   6.896   4.561 -0.0251 -0.3257  0.4156
 9107TIP3    H127254   0.367   6.897   4.616  1.3602  1.3107 -1.5729
 9107TIP3    H227255   0.220   6.862   4.619  1.6446  0.3150  2.8214
 9108TIP3   OH227256   2.388   0.070   2.805 -0.5549 -0.0042  0.0753
 9108TIP3    H127257   2.456   0.079   2.738  0.1541 -1.7337  0.5194
 9108TIP3    H227258   2.435   0.042   2.884 -1.4298  1.6196  1.2022
 9109TIP3   OH227259   4.876   0.473   3.807 -0.0503  0.4607 -0.4136
 9109TIP3    H127260   4.965   0.469   3.771 -0.1813 -0.4618 -0.6407
 9109TIP3    H227261   4.866   0.564   3.836  1.7750  0.0389  1.6438
 9110TIP3   OH227262   1.189   6.986   5.579  0.6193 -0.2986 -0.3926
 9110TIP3    H127263   1.178   6.899   5.618 -1.3101  0.3890  0.6425
 9110TIP3    H227264   1.221   7.040   5.651  0.0765  0.2543 -0.5613
 9111TIP3   OH227265   8.417   7.837   3.483 -0.8549  0.7078  0.5992
 9111TIP3    H127266   8.480   7.909   3.485  1.3580 -1.1457  0.5412
 9111TIP3    H227267   8.395   7.827   3.390  1.5401 -0.8809  0.1451
 9112TIP3   OH227268   3.492   0.027   4.672  0.4161  0.3572 -0.2129
 9112TIP3    H127269   3.560   0.084   4.635  0.5282  1.3790  1.5275
 9112TIP3    H227270   3.502   0.036   4.767 -0.0040 -2.0478  0.1093
 9113TIP3   OH227271   0.156   7.544   2.004  0.4320 -0.3168  0.7162
 9113TIP3    H127272   0.236   7.519   2.051  1.5449  0.6094 -0.6585
 9113TIP3    H227273   0.138   7.633   2.034 -0.5442 -0.7988  1.6060
 9114TIP3   OH227274   3.236   7.791   4.383  0.0054  0.3181 -0.2153
 9114TIP3    H127275   3.211   7.702   4.357 -1.5820  0.6482  0.1317
 9114TIP3    H227276   3.241   7.787   4.478 -0.9344  0.8074 -0.1405
 9115TIP3   OH227277   1.591   0.829   5.636 -0.2349 -0.2474 -0.3673
 9115TIP3    H127278   1.551   0.916   5.644  0.3218  0.0027 -0.2400
 9115TIP3    H227279   1.618   0.825   5.544  2.9798  1.1770  0.4377
 9116TIP3   OH227280   4.602   0.788   4.403  0.1752 -0.4256  0.3089
 9116TIP3    H127281   4.586   0.693   4.399 -0.4602 -0.3270  0.4607
 9116TIP3    H227282   4.685   0.796   4.448  1.2154 -1.0043 -1.4247
 9117TIP3   OH227283   5.659   0.408   5.844  0.6137  0.6501 -0.0805
 9117TIP3    H127284   5.684   0.497   5.871 -3.7148  1.2484  2.4006
 9117TIP3    H227285   5.659   0.357   5.925  1.8598 -1.3659 -1.3104
 9118TIP3   OH227286   1.201   6.037   2.810 -0.3579  0.7681 -0.0525
 9118TIP3    H127287   1.278   6.007   2.859 -0.0768  1.1449 -0.2601
 9118TIP3    H227288   1.176   6.119   2.853  1.2805  2.3313 -1.9326
 9119TIP3   OH227289   2.698   6.469   4.285  0.0562  0.0471 -0.4772
 9119TIP3    H127290   2.713   6.450   4.193  2.3063 -1.9121  0.2434
 9119TIP3    H227291   2.680   6.384   4.325 -1.7554  0.9775  0.7447
 9120TIP3   OH227292   1.341   6.380   0.626  0.6630  0.3285 -0.2523
 9120TIP3    H127293   1.421   6.425   0.599  0.7573  0.6776  0.5947
 9120TIP3    H227294   1.362   6.287   0.619  1.0045  0.4167 -0.4236
 9121TIP3   OH227295   5.338   2.132   3.690  0.0881 -0.3792  0.0903
 9121TIP3    H127296   5.397   2.157   3.619 -0.0902  0.3449  0.1902
 9121TIP3    H227297   5.320   2.214   3.736 -0.9311 -0.5923  0.0998
 9122TIP3   OH227298   5.101   0.572   5.551 -0.3940  0.1430  0.8551
 9122TIP3    H127299   5.139   0.603   5.633 -1.2766  0.6936  1.0657
 9122TIP3    H227300   5.012   0.608   5.551 -0.2224  0.6034 -0.5959
 9123TIP3   OH227301   0.840   7.569   4.539 -0.0122  0.4764  0.4786
 9123TIP3    H127302   0.842   7.528   4.453 -2.5351  0.8963  0.1627
 9123TIP3    H227303   0.850   7.663   4.521  0.7522  0.4482  0.7555
 9124TIP3   OH227304   3.150   7.722   3.761  0.0381 -0.4687  0.3310
 9124TIP3    H127305   3.183   7.714   3.851  1.4323  2.0574  0.0840
 9124TIP3    H227306   3.068   7.770   3.770  0.0797 -0.3878  0.2801
 9125TIP3   OH227307   5.462   2.774   5.076  0.0839  0.3930  0.3605
 9125TIP3    H127308   5.443   2.797   5.167 -0.9767  0.0110  0.2441
 9125TIP3    H227309   5.375   2.766   5.035  0.5122 -0.8469 -0.3248
 9126TIP3   OH227310   5.987   0.403   3.650  0.0743  0.0748  0.0766
 9126TIP3    H127311   6.012   0.326   3.599 -0.7262  0.9535 -1.7026
 9126TIP3    H227312   5.977   0.473   3.585  0.1461  1.5174  1.5834
 9127TIP3   OH227313   5.732   1.753   2.519  0.2861  0.2400 -0.1469
 9127TIP3    H127314   5.644   1.782   2.492  0.8471  0.6942 -1.5245
 9127TIP3    H227315   5.715   1.683   2.582 -1.0784 -1.5293 -2.3893
 9128TIP3   OH227316   6.527   0.409   2.270 -0.1025 -0.5285 -0.0344
 9128TIP3    H127317   6.473   0.417   2.349 -0.0783 -2.0167  0.1480
 9128TIP3    H227318   6.610   0.451   2.293 -0.3591 -0.2831  0.4619
 9129TIP3   OH227319   2.808   5.842   5.876 -0.1163  0.4000  0.1634
 9129TIP3    H127320   2.853   5.787   5.813 -0.3729  1.1842 -0.7134
 9129TIP3    H227321   2.715   5.818   5.866 -0.2793  1.2900 -0.5350
 9130TIP3   OH227322   5.647   1.283   6.281 -0.1206 -0.0698 -0.2507
 9130TIP3    H127323   5.552   1.285   6.266 -0.0244 -0.6422 -0.9556
 9130TIP3    H227324   5.685   1.273   6.194  0.4582 -3.0399  0.2776
 9131TIP3   OH227325   1.813   6.984   5.680  0.5245  0.0034 -0.5312
 9131TIP3    H127326   1.823   6.894   5.710 -0.7388 -0.4399 -1.3585
 9131TIP3    H227327   1.728   7.012   5.716  0.9925  0.9194 -0.1313
 9132TIP3   OH227328   4.124   6.922   5.700  0.2325  0.1580  0.1642
 9132TIP3    H127329   4.120   6.967   5.784 -1.3043 -0.1041  0.2379
 9132TIP3    H227330   4.133   6.829   5.723  2.8459  0.3230  0.0134
 9133TIP3   OH227331   3.685   6.841   4.279 -0.2296 -0.3734 -0.2653
 9133TIP3    H127332   3.704   6.850   4.373 -0.0671 -0.9569 -0.2428
 9133TIP3    H227333   3.609   6.898   4.265  0.7714  1.0387 -0.1228
 9134TIP3   OH227334   1.345   6.328   2.281 -0.4676 -0.4867  0.8591
 9134TIP3    H127335   1.280   6.257   2.279  0.3496 -1.2093 -0.1831
 9134TIP3    H227336   1.429   6.284   2.270  0.1362  0.5531  1.2519
 9135TIP3   OH227337   2.087   7.632   4.528 -0.1929  0.1860  0.7955
 9135TIP3    H127338   2.103   7.722   4.557 -0.4838 -0.9154  4.6379
 9135TIP3    H227339   2.173   7.590   4.533 -0.2489 -0.0447 -0.0215
 9136TIP3   OH227340   2.834   1.104   2.160 -0.1761 -0.2690 -0.4640
 9136TIP3    H127341   2.809   1.153   2.081  0.1425  0.8004  0.0758
 9136TIP3    H227342   2.787   1.148   2.231  0.0287 -0.8292  0.0229
 9137TIP3   OH227343   2.399   7.552   2.903 -0.0768  0.0674  0.4430
 9137TIP3    H127344   2.320   7.516   2.864 -0.1338  1.3567 -0.6583
 9137TIP3    H227345   2.372   7.579   2.991 -0.8435  0.4575  0.0902
 9138TIP3   OH227346   3.627   6.291   2.986 -0.0875  0.2176 -0.4635
 9138TIP3    H127347   3.627   6.249   3.072  0.2612 -0.6702 -0.8904
 9138TIP3    H227348   3.679   6.370   2.998  0.7460 -0.3756 -0.0740
 9139TIP3   OH227349   3.190   7.099   4.352  0.0985  0.0903  0.1442
 9139TIP3    H127350   3.227   7.057   4.275 -0.6162 -0.5480  0.1372
 9139TIP3    H227351   3.134   7.169   4.318  0.7415  0.5944  0.1289
 9140TIP3   OH227352   4.692   0.383   2.113  0.0970 -0.3405 -0.1271
 9140TIP3    H127353   4.768   0.415   2.064  1.0182 -0.0505  1.4661
 9140TIP3    H227354   4.717   0.295   2.142  0.0532 -0.0339  0.8688
 9141TIP3   OH227355   5.962   0.442   4.251  0.3695 -0.2384  0.5044
 9141TIP3    H127356   5.885   0.432   4.195  0.7675 -1.6957  0.2072
 9141TIP3    H227357   5.938   0.401   4.334  0.2651  0.7174  0.9501
 9142TIP3   OH227358   0.973   7.354   3.679 -0.0565  0.2020 -0.5199
 9142TIP3    H127359   1.015   7.413   3.616 -0.6857 -0.9421 -2.0361
 9142TIP3    H227360   0.928   7.289   3.625 -3.4615  1.1403  1.0361
 9143TIP3   OH227361   3.082   6.295   4.868 -0.0655  0.1466 -0.1529
 9143TIP3    H127362   3.007   6.236   4.857  0.9255 -1.4143  1.2988
 9143TIP3    H227363   3.075   6.326   4.958  2.1148 -1.5430  0.6163
 9144TIP3   OH227364   6.662   0.472   4.753 -0.4415 -0.3355 -0.4772
 9144TIP3    H127365   6.567   0.473   4.742 -0.4140 -0.3982 -0.7414
 9144TIP3    H227366   6.684   0.379   4.757 -0.2937 -0.3458 -1.3539
 9145TIP3   OH227367   4.508   0.939   4.879  0.8203  0.0037 -0.0055
 9145TIP3    H127368   4.510   0.844   4.890 -0.2487  0.0741  0.9396
 9145TIP3    H227369   4.416   0.959   4.860  0.6903  1.0137  1.5399
 9146TIP3   OH227370   3.287   0.620   2.376  0.3536 -0.2913 -0.3874
 9146TIP3    H127371   3.249   0.590   2.293 -0.8591  1.0481 -0.3309
 9146TIP3    H227372   3.261   0.711   2.383 -1.1181 -0.8781  2.3511
 9147TIP3   OH227373   3.068   7.052   3.492  0.2577 -0.2510  0.0138
 9147TIP3    H127374   3.014   7.064   3.414 -0.7757  1.0400  0.9057
 9147TIP3    H227375   3.135   7.121   3.486 -0.9034  1.0210  1.1360
 9148TIP3   OH227376   6.060   0.005   5.166 -0.2310 -0.1946 -0.0284
 9148TIP3    H127377   6.116   0.049   5.230 -0.0236  0.5849 -0.7479
 9148TIP3    H227378   5.989   0.066   5.150 -2.4561 -1.9854  2.4192
 9149TIP3   OH227379   2.066   4.694   3.722  0.4594 -0.1824 -0.2146
 9149TIP3    H127380   2.034   4.777   3.758 -0.1957 -0.2676 -0.5930
 9149TIP3    H227381   2.029   4.690   3.634  0.6947 -0.7611 -0.2882
 9150TIP3   OH227382   5.414   0.470   3.840  0.1117 -0.7610  0.1012
 9150TIP3    H127383   5.406   0.424   3.923 -2.9801 -3.0761 -1.3789
 9150TIP3    H227384   5.340   0.530   3.838  0.2062 -0.6722 -0.9586
 9151TIP3   OH227385   3.885   0.025   3.081  0.0246  0.1859 -0.2205
 9151TIP3    H127386   3.919  -0.050   3.129  1.5420  0.0238 -1.5153
 9151TIP3    H227387   3.802   0.046   3.125  0.3537 -1.2481  1.1295
 9152TIP3   OH227388   4.272   0.601   4.693 -0.0343 -0.2378 -0.3799
 9152TIP3    H127389   4.220   0.681   4.704 -1.3643 -1.2146  0.5424
 9152TIP3    H227390   4.280   0.590   4.599  2.3942  2.3989 -0.5769
 9153TIP3   OH227391   0.475   5.674   4.109  0.3483  0.2388  0.0580
 9153TIP3    H127392   0.446   5.712   4.192  1.2975  0.5134  0.2703
 9153TIP3    H227393   0.395   5.665   4.058 -0.0650  1.3221  0.4962
 9154TIP3   OH227394   4.691   0.567   3.030 -0.3164  0.1315 -0.6318
 9154TIP3    H127395   4.735   0.614   2.960  0.3545 -0.8085 -0.8526
 9154TIP3    H227396   4.650   0.492   2.986 -0.1507 -0.2934 -0.0734
 9155TIP3   OH227397   2.075   7.651   2.839  0.0292 -0.2739 -0.1798
 9155TIP3    H127398   2.004   7.712   2.857  0.1559  0.1750 -1.1581
 9155TIP3    H227399   2.031   7.573   2.803  0.0424  0.0938 -1.0064
 9156TIP3   OH227400   1.443   7.281   3.572 -0.1828  0.0368  0.4556
 9156TIP3    H127401   1.527   7.242   3.548  0.6635  1.5328  0.8827
 9156TIP3    H227402   1.410   7.319   3.490 -0.0754  0.0928  0.4375
 9157TIP3   OH227403   1.204   7.618   4.612 -0.1076  0.0357 -0.3700
 9157TIP3    H127404   1.286   7.570   4.619 -0.3972 -0.3139  0.8009
 9157TIP3    H227405   1.136   7.553   4.632 -0.7187  0.1362 -2.1040
 9158TIP3   OH227406   3.218   7.332   3.790  0.6096 -0.5885  0.1370
 9158TIP3    H127407   3.163   7.260   3.760 -1.0134  0.6124  0.1521
 9158TIP3    H227408   3.292   7.333   3.729 -1.0268 -0.1941 -1.9008
 9159TIP3   OH227409   2.623   6.966   4.528 -0.5473  0.2001  0.3767
 9159TIP3    H127410   2.691   7.020   4.488 -0.1950 -0.1285  0.5249
 9159TIP3    H227411   2.655   6.876   4.519 -0.3355  0.1363  1.6146
 9160TIP3   OH227412   1.617   6.626   1.898 -0.4772  0.3836  0.4350
 9160TIP3    H127413   1.610   6.548   1.844 -0.5992  1.1733 -0.6929
 9160TIP3    H227414   1.554   6.611   1.969 -0.4835 -0.5420  0.2466
 9161TIP3   OH227415   1.031   4.204   6.133 -0.1048  0.6471 -0.1221
 9161TIP3    H127416   0.937   4.185   6.130  0.1395 -0.5437 -0.3549
 9161TIP3    H227417   1.036   4.299   6.118 -1.2431  0.6642 -0.4818
 9162TIP3   OH227418   1.913   7.481   2.666 -0.6236 -1.0967 -0.1538
 9162TIP3    H127419   1.839   7.541   2.679 -1.1328 -1.4825 -1.1669
 9162TIP3    H227420   1.899   7.445   2.578  1.0464 -0.8044 -0.5552
 9163TIP3   OH227421   2.844   6.182   4.779 -0.5983 -0.1969 -0.0386
 9163TIP3    H127422   2.810   6.178   4.868 -1.9979  0.6841 -0.5242
 9163TIP3    H227423   2.804   6.107   4.735  1.0841 -1.3910  0.3774
 9164TIP3   OH227424   1.594   5.481   6.626 -0.3834 -0.1706  0.0972
 9164TIP3    H127425   1.613   5.530   6.706  1.3579  0.4578 -0.6745
 9164TIP3    H227426   1.569   5.549   6.562  1.0489 -0.3633 -0.6902
 9165TIP3   OH227427   2.658   6.894   4.122  0.7728  0.4839  0.6965
 9165TIP3    H127428   2.566   6.905   4.098  0.9375  0.6012  0.1115
 9165TIP3    H227429   2.656   6.831   4.195  0.4919 -2.3975 -1.6694
 9166TIP3   OH227430   8.217   6.589   2.053  0.0320 -0.1418 -0.1779
 9166TIP3    H127431   8.288   6.647   2.027 -0.7033  0.0702 -1.7546
 9166TIP3    H227432   8.144   6.647   2.073  0.0490 -0.4018  0.6757
 9167TIP3   OH227433   2.848   4.751   4.489 -0.0874  0.4108  0.0187
 9167TIP3    H127434   2.835   4.684   4.422  0.5901  1.0503 -0.7673
 9167TIP3    H227435   2.802   4.718   4.566  2.2218 -2.0902  0.3942
 9168TIP3   OH227436   0.431   6.000   6.514 -0.1869 -0.1797 -0.0897
 9168TIP3    H127437   0.404   5.963   6.599  2.4766 -1.0371  0.4316
 9168TIP3    H227438   0.367   5.966   6.452 -1.2861 -0.7890  1.3402
 9169TIP3   OH227439   6.057   1.437   4.369  0.3248 -0.5585 -0.2496
 9169TIP3    H127440   6.146   1.436   4.404 -0.3667 -1.4716  1.5887
 9169TIP3    H227441   6.044   1.526   4.337  1.2209  0.1761  1.3419
 9170TIP3   OH227442   3.376   6.421   4.142 -0.3002 -0.3715 -0.0101
 9170TIP3    H127443   3.372   6.372   4.223  0.8616 -0.9791 -0.3082
 9170TIP3    H227444   3.289   6.461   4.133 -1.0601 -1.8890  0.5251
 9171TIP3   OH227445   5.853   0.549   4.562 -0.2041 -0.5651 -0.4091
 9171TIP3    H127446   5.903   0.583   4.636  2.5000 -3.6449 -0.7110
 9171TIP3    H227447   5.892   0.590   4.485 -2.0658  1.5174 -0.2951
 9172TIP3   OH227448   4.209   5.994   5.495 -0.1103  0.3438  0.1719
 9172TIP3    H127449   4.239   6.078   5.460  0.5070 -0.2875 -0.8166
 9172TIP3    H227450   4.288   5.941   5.502 -0.2285  0.4021  2.4324
 9173TIP3   OH227451   0.606   7.856   3.193  0.7225  0.5185  0.6658
 9173TIP3    H127452   0.563   7.777   3.161  0.2569  0.6628  0.9425
 9173TIP3    H227453   0.675   7.823   3.251  0.1182  0.3368  1.2837
 9174TIP3   OH227454   5.348   0.945   3.033 -0.2319  0.8783  0.3618
 9174TIP3    H127455   5.413   1.007   3.067 -1.5045  2.5329 -0.1615
 9174TIP3    H227456   5.339   0.880   3.102  1.2900  1.1427  0.8371
 9175TIP3   OH227457   3.823   0.613   4.646 -0.2603  0.4031  0.3941
 9175TIP3    H127458   3.760   0.612   4.574 -2.7159 -2.7614  2.4520
 9175TIP3    H227459   3.895   0.558   4.616 -0.7205  0.0651 -0.0818
 9176TIP3   OH227460   5.137   1.852   4.418 -0.2269  0.3245 -0.1274
 9176TIP3    H127461   5.069   1.810   4.470  0.8623  0.0216  1.1017
 9176TIP3    H227462   5.218   1.837   4.468  0.7931  0.3696 -1.7091
 9177TIP3   OH227463   5.893   1.289   4.594 -0.0927 -0.2162  0.4127
 9177TIP3    H127464   5.942   1.347   4.652  1.0444  0.1533 -0.8949
 9177TIP3    H227465   5.808   1.331   4.584 -0.4469 -0.5166  2.1763
 9178TIP3   OH227466   6.672   1.437   2.708  0.1111 -0.4817  0.3948
 9178TIP3    H127467   6.685   1.346   2.734  1.8478  0.0003  1.2616
 9178TIP3    H227468   6.666   1.485   2.790 -0.6114  0.2305 -0.0608
 9179TIP3   OH227469   6.243   0.387   4.147 -0.0962 -0.2320 -0.3793
 9179TIP3    H127470   6.148   0.392   4.141 -0.0396 -1.3160 -2.6571
 9179TIP3    H227471   6.271   0.361   4.059  2.1626 -1.6975  0.7445
 9180TIP3   OH227472   0.715   0.058   3.633 -0.6612 -0.3500 -0.1951
 9180TIP3    H127473   0.806   0.084   3.646 -0.3511 -1.8485  0.6083
 9180TIP3    H227474   0.682   0.121   3.569 -0.0084  2.2531  1.9212
 9181TIP3   OH227475   5.026   6.938   3.613 -0.0875  0.4413 -0.0196
 9181TIP3    H127476   5.086   6.961   3.684 -0.6597 -0.8728  0.9224
 9181TIP3    H227477   4.940   6.968   3.644 -0.1540  0.9434 -0.6873
 9182TIP3   OH227478   0.035   0.111   3.866 -0.0755  0.4359  0.5144
 9182TIP3    H127479   0.079   0.078   3.944 -0.3928 -1.2627 -0.0150
 9182TIP3    H227480   0.031   0.036   3.807 -2.3167  0.9802 -0.0600
 9183TIP3   OH227481   5.546   1.059   3.174  0.0525 -0.9543 -0.2105
 9183TIP3    H127482   5.548   1.154   3.169 -1.4374 -0.9298 -0.3716
 9183TIP3    H227483   5.632   1.032   3.140  0.6327  0.3317  0.1975
 9184TIP3   OH227484   5.395   7.221   3.737  0.5163  0.1623  0.3162
 9184TIP3    H127485   5.368   7.159   3.669  0.2197  0.2871  0.3203
 9184TIP3    H227486   5.491   7.214   3.739  0.3466 -2.3515  2.2633
 9185TIP3   OH227487   3.437   7.972   4.957 -0.5009 -0.5475 -0.2306
 9185TIP3    H127488   3.349   8.000   4.982 -0.1585 -1.1714  1.7777
 9185TIP3    H227489   3.492   8.050   4.969 -1.0017  0.3015 -3.0117
 9186TIP3   OH227490   3.366   5.741   4.825  0.2798  0.4127 -0.0851
 9186TIP3    H127491   3.273   5.738   4.804 -0.0562  1.5224  1.1904
 9186TIP3    H227492   3.402   5.804   4.763 -0.1259  1.2316  0.5010
 9187TIP3   OH227493   5.410   1.421   3.549  0.4355 -0.4355 -0.5992
 9187TIP3    H127494   5.334   1.373   3.517 -0.0956 -1.1441  1.6104
 9187TIP3    H227495   5.447   1.364   3.617  0.7036  1.5647  0.9770
 9188TIP3   OH227496   6.171   0.611   4.379 -0.6405  0.1932  0.5131
 9188TIP3    H127497   6.107   0.573   4.319 -0.7989  2.1347 -0.5897
 9188TIP3    H227498   6.125   0.684   4.420  0.5680  1.0223  0.4071
 9189TIP3   OH227499   3.146   7.510   3.989 -0.2652  0.5268 -0.5419
 9189TIP3    H127500   3.202   7.459   3.930 -1.8871 -2.5183  0.4494
 9189TIP3    H227501   3.163   7.474   4.076 -1.5299  1.6360  0.1835
 9190TIP3   OH227502   6.694   2.082   4.040 -0.4433  0.0989 -0.4183
 9190TIP3    H127503   6.656   2.056   3.956 -0.8893 -1.5109  0.2563
 9190TIP3    H227504   6.788   2.087   4.023 -0.4948 -0.5808 -0.9462
 9191TIP3   OH227505   6.363   1.518   4.449  0.4937 -0.0463 -0.1989
 9191TIP3    H127506   6.345   1.604   4.489  1.2639  0.0484 -0.0521
 9191TIP3    H227507   6.434   1.482   4.501  0.3895 -0.6357 -0.4660
 9192TIP3   OH227508   5.526   1.600   2.013 -0.6473  0.0104 -0.0364
 9192TIP3    H127509   5.600   1.631   2.065 -1.5788  0.1225  1.2376
 9192TIP3    H227510   5.458   1.666   2.025 -1.4304 -0.7662 -0.1195
 9193TIP3   OH227511   7.490   0.933   4.663  0.6113  0.6114 -0.4355
 9193TIP3    H127512   7.451   0.900   4.582  0.7650  0.0356 -0.2844
 9193TIP3    H227513   7.583   0.910   4.656  0.7547  1.1696 -0.3968
 9194TIP3   OH227514   4.290   6.893   1.784 -0.1807  0.4543  0.0513
 9194TIP3    H127515   4.287   6.802   1.814 -1.2235 -0.0989 -1.6529
 9194TIP3    H227516   4.201   6.910   1.751 -0.0442  2.1469  0.5427
 9195TIP3   OH227517   3.097   6.460   3.168  0.0285  0.0149 -0.3225
 9195TIP3    H127518   3.187   6.485   3.190 -0.1555  1.4752 -1.1627
 9195TIP3    H227519   3.045   6.536   3.194 -1.1034 -1.2143  1.0884
 9196TIP3   OH227520   3.855   7.582   6.551 -0.4589  0.3556 -0.1725
 9196TIP3    H127521   3.917   7.546   6.488 -0.6699  0.2150 -0.3019
 9196TIP3    H227522   3.770   7.552   6.520 -0.5860  0.4973  0.0384
 9197TIP3   OH227523   0.401   1.058   3.897 -0.5693 -0.4266 -0.6375
 9197TIP3    H127524   0.313   1.021   3.910  0.2268 -1.8603  0.8800
 9197TIP3    H227525   0.457   0.981   3.881  0.6423  0.3604 -0.2420
 9198TIP3   OH227526   5.181   1.146   2.264  0.2784 -0.0255  0.0047
 9198TIP3    H127527   5.249   1.083   2.284  0.5832  0.2780 -0.0740
 9198TIP3    H227528   5.154   1.126   2.175 -0.8793 -1.1919  0.6032
 9199TIP3   OH227529   4.798   7.399   0.334 -0.1462  0.0216  0.7110
 9199TIP3    H127530   4.893   7.386   0.332  0.0638  1.3342  1.2627
 9199TIP3    H227531   4.771   7.370   0.420 -0.3152 -0.7892  0.3843
 9200TIP3   OH227532   2.772   7.294   2.943  0.0913  0.0041  0.2296
 9200TIP3    H127533   2.706   7.226   2.955  2.6541 -2.8635 -1.3038
 9200TIP3    H227534   2.723   7.369   2.909 -2.7843 -1.0057  1.9333
 9201TIP3   OH227535   6.743   0.988   4.157  0.1622  0.4174  0.2869
 9201TIP3    H127536   6.671   0.999   4.219  0.4211 -0.0899  0.6840
 9201TIP3    H227537   6.773   0.898   4.171  1.3697  0.8550  0.6681
 9202TIP3   OH227538   5.079   1.734   2.199 -0.3708  0.1282 -0.6462
 9202TIP3    H127539   5.061   1.826   2.177  0.3491  0.4926  0.2493
 9202TIP3    H227540   5.059   1.686   2.119  0.8939  1.2751 -1.6799
 9203TIP3   OH227541   3.099   8.006   2.552 -0.0555 -0.1810 -0.0888
 9203TIP3    H127542   3.012   8.004   2.591 -0.4767 -0.4556 -1.0197
 9203TIP3    H227543   3.122   7.914   2.538  0.1102 -0.0864 -0.4409
 9204TIP3   OH227544   6.260   0.661   1.698 -0.2250  0.1911  0.3115
 9204TIP3    H127545   6.328   0.611   1.654 -0.2042 -0.6712  1.2839
 9204TIP3    H227546   6.300   0.746   1.716 -0.2023  0.5172 -1.2045
 9205TIP3   OH227547   5.251   1.271   2.558  0.0326  0.7428 -0.0848
 9205TIP3    H127548   5.226   1.215   2.485 -2.0556  1.7792 -0.2174
 9205TIP3    H227549   5.342   1.248   2.577 -0.4225 -1.8386 -0.8776
 9206TIP3   OH227550   6.403   0.690   4.543 -0.3889  0.5647 -0.6571
 9206TIP3    H127551   6.327   0.649   4.502 -1.0802  0.7922  0.3744
 9206TIP3    H227552   6.478   0.642   4.509 -1.0796 -0.4397 -0.7689
 9207TIP3   OH227553   6.291   1.734   4.603  1.1093 -0.0684 -0.2980
 9207TIP3    H127554   6.207   1.775   4.584  1.3504  0.3953 -0.3671
 9207TIP3    H227555   6.293   1.724   4.698  1.0515  0.0816 -0.2817
 9208TIP3   OH227556   6.675   1.084   1.384 -0.4436  0.6517  0.2252
 9208TIP3    H127557   6.716   1.110   1.466 -0.2218 -0.8061  0.5855
 9208TIP3    H227558   6.645   0.994   1.399  1.3442 -0.3742 -1.8832
 9209TIP3   OH227559   2.254   7.869   4.617  0.1184 -0.7071 -0.1219
 9209TIP3    H127560   2.339   7.909   4.635  0.2917 -1.7656  1.5665
 9209TIP3    H227561   2.190   7.929   4.654  0.2321 -0.6802  0.0326
 9210TIP3   OH227562   5.854   0.592   5.943  0.3636  0.3369 -0.4097
 9210TIP3    H127563   5.902   0.511   5.930  1.2655  0.8759 -0.4702
 9210TIP3    H227564   5.911   0.660   5.909 -1.4216  0.7759 -2.6376
 9211TIP3   OH227565   5.800   5.945   0.998 -0.3296  0.3022  0.1389
 9211TIP3    H127566   5.719   5.914   1.039 -1.4527 -0.7036 -2.7002
 9211TIP3    H227567   5.859   5.871   1.003  0.6316  1.1992  2.6600
 9212TIP3   OH227568   5.845   1.320   3.704 -0.7767 -0.1613  0.4925
 9212TIP3    H127569   5.900   1.308   3.781  2.2566  0.6735 -1.4227
 9212TIP3    H227570   5.763   1.354   3.738  0.7408  0.9061  3.2870
 9213TIP3   OH227571   5.027   4.876   4.388 -0.1449 -0.0200  0.0135
 9213TIP3    H127572   5.071   4.819   4.450 -0.1930 -0.2273 -0.1408
 9213TIP3    H227573   5.087   4.949   4.375 -0.2391  0.1395  0.4819
 9214TIP3   OH227574   2.266   7.286   3.182 -0.2242 -0.1044 -0.2795
 9214TIP3    H127575   2.318   7.227   3.236 -0.2353 -1.0522 -1.2812
 9214TIP3    H227576   2.247   7.361   3.239  0.3899 -0.7410  0.7769
 9215TIP3   OH227577   4.249   7.738   4.672 -0.4871  0.1311  0.0802
 9215TIP3    H127578   4.212   7.665   4.723 -1.1336 -0.8266 -1.7202
 9215TIP3    H227579   4.187   7.751   4.600 -0.8116  3.0452  0.8517
 9216TIP3   OH227580   3.464   7.339   2.662 -0.1083  0.9915 -0.1706
 9216TIP3    H127581   3.537   7.280   2.679 -0.2108  0.8856 -0.0862
 9216TIP3    H227582   3.393   7.304   2.716 -1.1059 -0.6630 -2.4626
 9217TIP3   OH227583   1.962   7.197   4.196 -0.3358 -0.1553 -0.0190
 9217TIP3    H127584   2.030   7.182   4.131  1.5345 -0.0851  1.8579
 9217TIP3    H227585   1.914   7.273   4.164  1.0701  0.3691 -0.9158
 9218TIP3   OH227586   6.396   0.811   3.971 -0.0762  0.1941  0.2624
 9218TIP3    H127587   6.403   0.747   4.042 -0.1709 -0.2470 -0.1262
 9218TIP3    H227588   6.328   0.776   3.913  1.8641 -0.8127 -1.4690
 9219TIP3   OH227589   5.209   0.422   1.765 -0.5680 -0.2413  0.6793
 9219TIP3    H127590   5.270   0.381   1.827 -0.1639 -0.0381  0.4180
 9219TIP3    H227591   5.124   0.383   1.785 -0.3816 -0.4029  1.1592
 9220TIP3   OH227592   5.286   1.714   0.944 -0.0878 -0.4446  0.2795
 9220TIP3    H127593   5.295   1.719   0.848  0.6389 -1.1543  0.3040
 9220TIP3    H227594   5.344   1.642   0.969  0.4537  0.3515  1.3474
 9221TIP3   OH227595   6.038   0.876   6.652  0.5134  0.1588 -0.4457
 9221TIP3    H127596   6.060   0.792   6.693  0.4761 -1.1836 -3.0811
 9221TIP3    H227597   5.946   0.868   6.628  1.0070  0.1812 -2.4427
 9222TIP3   OH227598   4.597   7.399   3.089  0.5702 -0.1144  0.5503
 9222TIP3    H127599   4.553   7.355   3.016 -0.5463  1.3569  0.3291
 9222TIP3    H227600   4.687   7.412   3.059  0.0216  0.8077 -0.7176
 9223TIP3   OH227601   6.796   2.721   2.599  0.1126  0.0964 -0.3187
 9223TIP3    H127602   6.776   2.679   2.683  1.0715  0.1680 -0.0470
 9223TIP3    H227603   6.712   2.755   2.569  0.1427  2.0438  1.6990
 9224TIP3   OH227604   3.226   7.219   5.047  0.0263  0.2776  0.0923
 9224TIP3    H127605   3.195   7.210   4.957 -0.2068  0.8809  0.1085
 9224TIP3    H227606   3.203   7.308   5.071  0.3366  0.2061  0.6588
 9225TIP3   OH227607   4.152   0.969   4.139  0.0748  0.3679  0.1188
 9225TIP3    H127608   4.140   0.992   4.231 -1.6566 -1.4483  0.3902
 9225TIP3    H227609   4.114   1.042   4.091 -1.4924  0.0836  0.9019
 9226TIP3   OH227610   2.027   7.153   3.309 -0.0536 -0.6969  0.3935
 9226TIP3    H127611   2.083   7.226   3.283  0.0852 -1.0375 -0.2868
 9226TIP3    H227612   2.088   7.081   3.325 -0.1995 -0.7023  0.9386
 9227TIP3   OH227613   8.033   0.763   4.063 -0.1857  0.7371 -0.2290
 9227TIP3    H127614   7.994   0.835   4.014 -1.7064  0.3489  0.4109
 9227TIP3    H227615   8.035   0.793   4.154 -1.8807 -0.4530  0.2210
 9228TIP3   OH227616   6.537   0.940   2.038 -0.4421  0.2088 -0.1152
 9228TIP3    H127617   6.452   0.922   2.078  0.0225 -0.4826  0.5670
 9228TIP3    H227618   6.600   0.893   2.092  0.4793  1.4491 -0.0906
 9229TIP3   OH227619   3.636   5.279   3.586  0.1165 -0.1640  0.1496
 9229TIP3    H127620   3.676   5.195   3.608 -1.1398 -0.6056  0.7757
 9229TIP3    H227621   3.554   5.281   3.635  0.1434  1.4491  0.1717
 9230TIP3   OH227622   2.349   6.603   3.379 -0.5417  0.4344  0.5774
 9230TIP3    H127623   2.434   6.642   3.356  0.4699 -3.0191 -1.9341
 9230TIP3    H227624   2.286   6.648   3.322  0.2095  0.1974 -0.4542
 9231TIP3   OH227625   4.179   7.747   2.923  0.1733 -0.1393 -0.4566
 9231TIP3    H127626   4.133   7.669   2.894  1.8952 -0.5263 -2.3117
 9231TIP3    H227627   4.259   7.714   2.965  0.9195  0.5903 -1.2620
 9232TIP3   OH227628   1.932   7.455   2.156 -0.0381 -0.3946 -0.0233
 9232TIP3    H127629   1.989   7.384   2.128 -1.3778 -1.3557 -0.3848
 9232TIP3    H227630   1.906   7.499   2.075  1.8663  1.3867  0.2944
 9233TIP3   OH227631   4.276   5.983   3.754  0.1221 -0.1570 -0.7481
 9233TIP3    H127632   4.350   5.940   3.797  1.0305  0.4041 -1.7008
 9233TIP3    H227633   4.198   5.949   3.798  0.9878 -0.2213  0.7545
 9234TIP3   OH227634   4.576   7.088   2.663  0.5137  0.0454  0.0927
 9234TIP3    H127635   4.632   7.164   2.650  1.8650 -0.5663  2.0924
 9234TIP3    H227636   4.613   7.021   2.606  0.9713  0.0723  0.3545
 9235TIP3   OH227637   2.540   7.132   2.941  0.3542  0.1048 -0.0786
 9235TIP3    H127638   2.559   7.067   2.873  1.2619  0.0857  0.1839
 9235TIP3    H227639   2.449   7.156   2.926  0.6512  0.4087 -1.5753
 9236TIP3   OH227640   6.875   6.313   4.523 -0.0872 -0.0254 -0.9844
 9236TIP3    H127641   6.963   6.291   4.554 -0.1251 -0.0730 -0.9087
 9236TIP3    H227642   6.888   6.381   4.458 -0.0921  0.8908 -0.0373
 9237TIP3   OH227643   2.219   7.954   1.853 -0.3544  0.0161  0.7034
 9237TIP3    H127644   2.178   7.991   1.775 -1.0059  3.2719  2.4974
 9237TIP3    H227645   2.302   8.001   1.860  1.2489 -2.6376  0.1666
 9238TIP3   OH227646   2.577   6.747   3.334 -0.1665  0.1085 -0.8530
 9238TIP3    H127647   2.583   6.734   3.240  1.6352 -1.2865 -0.5623
 9238TIP3    H227648   2.582   6.842   3.346  1.3712  0.1816 -2.0268
 9239TIP3   OH227649   7.194   0.217   4.088 -0.6374 -0.3992 -0.0963
 9239TIP3    H127650   7.276   0.212   4.137 -0.8585  0.9095  0.4219
 9239TIP3    H227651   7.206   0.292   4.029 -1.0670 -0.8431 -0.7517
 9240TIP3   OH227652   6.021   1.689   4.246  0.4499  0.0734 -0.2761
 9240TIP3    H127653   6.073   1.770   4.255  0.4373  0.2482 -1.5795
 9240TIP3    H227654   5.932   1.715   4.269 -0.1162  1.1711 -3.4208
 9241TIP3   OH227655   4.679   7.877   1.569  0.0374  0.0721 -0.1013
 9241TIP3    H127656   4.632   7.820   1.631  1.1306 -0.4660  0.2535
 9241TIP3    H227657   4.768   7.884   1.605  0.1179  1.4411 -0.5183
 9242TIP3   OH227658   8.352   6.243   4.327 -0.2384 -0.6302 -0.0667
 9242TIP3    H127659   8.435   6.214   4.289  0.0652 -0.8624  0.7619
 9242TIP3    H227660   8.377   6.316   4.385 -0.3597 -1.9643  1.6852
 9243TIP3   OH227661   2.972   7.297   3.185 -0.7267 -0.1886  0.3343
 9243TIP3    H127662   3.030   7.367   3.215 -1.8247  0.2025  1.6190
 9243TIP3    H227663   2.906   7.342   3.132 -1.7543 -0.1315  1.6130
 9244TIP3   OH227664   7.308   0.820   5.442 -0.1144  0.4775  0.1928
 9244TIP3    H127665   7.256   0.887   5.398 -0.2999  0.0178 -0.2939
 9244TIP3    H227666   7.367   0.787   5.374 -1.4217 -1.2802 -0.1287
 9245TIP3   OH227667   5.710   2.649   2.991 -0.5447 -0.4581 -0.1336
 9245TIP3    H127668   5.736   2.617   2.905  0.5034 -1.0215  0.3830
 9245TIP3    H227669   5.779   2.710   3.016  0.2644 -1.8737  1.1968
 9246TIP3   OH227670   3.320   7.616   2.867 -0.2457 -0.4611 -0.2877
 9246TIP3    H127671   3.323   7.696   2.919 -1.7153 -1.3582  1.2392
 9246TIP3    H227672   3.409   7.579   2.875  0.0291  0.2866  0.1817
 9247TIP3   OH227673   6.715   1.115   3.901  0.7647  0.5969  0.1835
 9247TIP3    H127674   6.641   1.103   3.960 -0.9251  0.6403 -1.8613
 9247TIP3    H227675   6.789   1.131   3.959 -1.0598  1.8766  2.2547
 9248TIP3   OH227676   6.587   0.251   2.576  0.5665 -0.2478 -0.7624
 9248TIP3    H127677   6.549   0.172   2.613  0.4493 -0.6585 -1.7246
 9248TIP3    H227678   6.581   0.316   2.646  2.0222 -1.4864  0.5356
 9249TIP3   OH227679   2.717   6.991   2.469  0.4058 -0.6511  0.1125
 9249TIP3    H127680   2.712   7.061   2.404 -2.0013  0.4382  1.4202
 9249TIP3    H227681   2.735   6.912   2.418 -0.3087  0.3611 -1.7371
 9250TIP3   OH227682   2.573   7.007   3.422  0.5348  0.4056 -0.5326
 9250TIP3    H127683   2.552   7.046   3.507 -0.1098 -1.3520  0.1481
 9250TIP3    H227684   2.626   7.072   3.378  1.6501  0.9807  1.5964
 9251TIP3   OH227685   7.114   1.238   3.263 -0.9699  0.1128 -0.0623
 9251TIP3    H127686   7.063   1.219   3.342 -0.0484 -0.5182  0.3860
 9251TIP3    H227687   7.188   1.290   3.294 -0.8106  0.1947 -0.5749
 9252TIP3   OH227688   5.986   0.764   1.751  0.0766  0.4106 -0.1762
 9252TIP3    H127689   5.961   0.810   1.670  2.3160  1.0411 -0.5405
 9252TIP3    H227690   6.078   0.742   1.738 -0.0602 -1.1618  1.4421
 9253TIP3   OH227691   6.130   0.412   6.152 -0.2463 -0.4121 -0.3733
 9253TIP3    H127692   6.145   0.331   6.200 -0.9773 -0.7566 -0.7221
 9253TIP3    H227693   6.133   0.386   6.060  1.2098  0.2571 -0.5202
 9254TIP3   OH227694   3.388   7.490   3.179 -0.0501 -0.3207  0.0117
 9254TIP3    H127695   3.420   7.489   3.269 -0.0068 -0.4223 -0.0052
 9254TIP3    H227696   3.349   7.403   3.166 -0.2768 -0.2200  0.0130
 9255TIP3   OH227697   6.694   2.742   2.008  0.8040 -0.3445 -0.6500
 9255TIP3    H127698   6.670   2.833   2.021  0.2987 -0.6083  0.3118
 9255TIP3    H227699   6.649   2.716   1.927  0.6782  0.1561 -0.7393
 9256TIP3   OH227700   0.571   7.212   2.782  0.0783  0.3448  0.1248
 9256TIP3    H127701   0.640   7.147   2.796  0.0825  0.3429  0.0974
 9256TIP3    H227702   0.536   7.190   2.695  2.8347  2.8983 -1.7407
 9257TIP3   OH227703   2.471   6.362   2.882 -0.3156 -0.2948 -0.0985
 9257TIP3    H127704   2.409   6.382   2.953 -0.2440  1.1099 -0.4040
 9257TIP3    H227705   2.522   6.288   2.914 -1.2496 -0.5850  0.7273
 9258TIP3   OH227706   1.270   6.880   1.665 -0.1443 -0.6257  0.3798
 9258TIP3    H127707   1.359   6.910   1.681 -0.5993  0.7882  0.4108
 9258TIP3    H227708   1.280   6.793   1.627  1.1727 -1.1452  1.8961
 9259TIP3   OH227709   2.510   7.110   3.683 -0.7900  0.2121 -0.2068
 9259TIP3    H127710   2.444   7.105   3.752  1.2202 -1.4111  1.6640
 9259TIP3    H227711   2.531   7.203   3.676 -0.3002  0.2867  2.0797
 9260TIP3   OH227712   5.688   1.557   5.236  0.1042  0.5234  0.1547
 9260TIP3    H127713   5.736   1.624   5.285  0.2121 -0.9793  2.2035
 9260TIP3    H227714   5.619   1.605   5.191  2.7403  2.5518 -1.8531
 9261TIP3   OH227715   4.106   6.812   2.513  0.7759 -0.1175  0.1831
 9261TIP3    H127716   4.172   6.863   2.561  0.9584  0.0552 -0.2525
 9261TIP3    H227717   4.047   6.879   2.478  0.6072 -0.2500  0.2179
 9262TIP3   OH227718   1.832   7.630   1.547  0.2858 -0.3281  0.2664
 9262TIP3    H127719   1.814   7.558   1.608  2.9938 -0.4207  0.9878
 9262TIP3    H227720   1.788   7.604   1.466 -1.5002 -1.2369  1.4836
 9263TIP3   OH227721   3.751   5.618   6.621 -0.1075  0.0050 -0.3213
 9263TIP3    H127722   3.824   5.591   6.566 -0.1501  1.1329 -0.9475
 9263TIP3    H227723   3.788   5.682   6.681 -0.4874  0.2383 -0.3356
 9264TIP3   OH227724   7.488   2.013   2.687 -0.2745 -0.3941  0.3269
 9264TIP3    H127725   7.565   1.961   2.707  2.3954  1.9081 -3.3654
 9264TIP3    H227726   7.493   2.088   2.746  1.3870  0.6667 -1.1096
 9265TIP3   OH227727   1.104   7.404   3.923 -0.2325 -0.9775  0.8695
 9265TIP3    H127728   1.198   7.386   3.922 -0.1990 -0.8992  1.8270
 9265TIP3    H227729   1.076   7.395   3.832  1.1743  1.5469  0.1377
 9266TIP3   OH227730   0.911   7.431   2.403  0.4377  0.5977 -0.0853
 9266TIP3    H127731   0.845   7.497   2.382  0.3647  0.1895 -1.1990
 9266TIP3    H227732   0.921   7.381   2.322  1.5833  0.1944  0.2911
 9267TIP3   OH227733   3.050   7.297   2.860  0.2092 -0.0143  0.0297
 9267TIP3    H127734   2.972   7.273   2.909  1.1198 -1.0284  1.0175
 9267TIP3    H227735   3.069   7.219   2.807 -0.8909  1.1427 -2.1346
 9268TIP3   OH227736   5.750   1.061   4.750  0.2266  0.1409 -0.1400
 9268TIP3    H127737   5.821   1.125   4.744  0.0589  0.2246 -1.2282
 9268TIP3    H227738   5.780   0.999   4.817 -0.3311  2.2376  2.1461
 9269TIP3   OH227739   6.406   0.677   2.673  0.4679 -0.2840  0.4033
 9269TIP3    H127740   6.454   0.750   2.711  0.3629  0.1290 -0.2514
 9269TIP3    H227741   6.333   0.717   2.626  0.3387 -0.8122  0.1446
 9270TIP3   OH227742   6.053   0.066   4.709  0.5604 -0.0847 -0.0670
 9270TIP3    H127743   6.021  -0.016   4.672  1.9913 -1.1364  0.9131
 9270TIP3    H227744   5.988   0.091   4.774 -0.1323 -0.1780 -0.7276
 9271TIP3   OH227745   5.605   1.954   2.989  0.5599  0.4218 -0.6284
 9271TIP3    H127746   5.656   2.012   2.932 -1.4680  3.0484  0.1607
 9271TIP3    H227747   5.523   2.000   3.003 -0.4500 -1.8956  1.4233
 9272TIP3   OH227748   6.992   0.813   4.022 -0.2098 -0.0225 -0.0280
 9272TIP3    H127749   6.922   0.856   3.972 -0.2612 -0.7842 -0.6308
 9272TIP3    H227750   6.948   0.742   4.068 -0.2507  1.0053  1.5390
 9273TIP3   OH227751   2.369   7.167   5.315 -0.1374  0.2254 -0.6790
 9273TIP3    H127752   2.430   7.173   5.389  0.1660 -0.6686 -0.8580
 9273TIP3    H227753   2.294   7.120   5.350 -0.0483 -0.0866 -0.9081
 9274TIP3   OH227754   5.737   1.947   1.998  0.5582  0.0122 -0.2609
 9274TIP3    H127755   5.776   2.004   2.064  1.3176 -0.6931 -0.0789
 9274TIP3    H227756   5.706   1.871   2.048  0.2506 -0.0790 -0.5911
 9275TIP3   OH227757   6.362   0.240   3.598  0.0502  0.1457  0.4165
 9275TIP3    H127758   6.307   0.210   3.670  1.0713 -1.0216  0.7356
 9275TIP3    H227759   6.450   0.210   3.621  0.4347 -0.0021 -1.1822
 9276TIP3   OH227760   1.712   7.818   4.657 -0.0471 -0.3411  0.0246
 9276TIP3    H127761   1.750   7.732   4.676 -0.6885 -0.2906  1.5989
 9276TIP3    H227762   1.788   7.876   4.651  0.2695 -0.6133  1.1950
 9277TIP3   OH227763   3.142   7.533   3.555 -0.0325 -0.1788 -1.0669
 9277TIP3    H127764   3.222   7.583   3.565 -0.1729 -0.2867  0.7084
 9277TIP3    H227765   3.089   7.556   3.631 -0.6583 -1.9773 -0.9167
 9278TIP3   OH227766   5.649   5.965   3.422 -0.2959  0.0399 -0.2563
 9278TIP3    H127767   5.595   6.043   3.412  0.7488  0.6483 -1.2043
 9278TIP3    H227768   5.738   5.998   3.432  0.1398 -1.0277 -0.5549
 9279TIP3   OH227769   1.187   7.870   4.506  0.0349 -0.3107  0.1511
 9279TIP3    H127770   1.282   7.862   4.515 -0.1016 -2.6682 -0.2479
 9279TIP3    H227771   1.152   7.788   4.543 -1.8827  0.7868  0.8466
 9280TIP3   OH227772   5.782   1.679   4.517  0.0554  0.1366 -0.1956
 9280TIP3    H127773   5.707   1.692   4.576 -0.4234  0.0868 -0.7929
 9280TIP3    H227774   5.758   1.727   4.438  0.4601 -0.2566 -0.5543
 9281TIP3   OH227775   8.383   1.396   4.340  0.2426 -0.3155 -0.3255
 9281TIP3    H127776   8.439   1.430   4.410 -0.5054 -0.6293  0.4399
 9281TIP3    H227777   8.374   1.303   4.360  1.1229 -0.6846 -1.6101
 9282TIP3   OH227778   6.558   0.920   3.749 -0.5324  0.2529  0.0669
 9282TIP3    H127779   6.509   0.879   3.821  1.3883  0.6901  1.6562
 9282TIP3    H227780   6.589   1.003   3.786 -0.7999  1.1851 -1.7680
 9283TIP3   OH227781   6.668   1.222   4.300  0.1300 -0.0997 -0.1046
 9283TIP3    H127782   6.586   1.178   4.322  1.2541 -2.2195  0.0039
 9283TIP3    H227783   6.709   1.165   4.234  2.2373  0.0897  1.0067
 9284TIP3   OH227784   3.202   6.980   5.538  0.6035  1.3011  0.5120
 9284TIP3    H127785   3.201   6.978   5.634 -1.1040  1.5214  0.5127
 9284TIP3    H227786   3.171   7.068   5.516  2.9600  1.9825 -0.2341
 9285TIP3   OH227787   3.252   7.351   3.006  0.1642  0.1786 -0.0406
 9285TIP3    H127788   3.170   7.325   2.963  1.4326 -0.3151 -2.2282
 9285TIP3    H227789   3.256   7.445   2.993  0.6325  0.0086 -1.2191
 9286TIP3   OH227790   5.157   6.758   1.459 -0.8667  0.1660  0.3332
 9286TIP3    H127791   5.104   6.682   1.434  2.5169 -2.5066  0.8205
 9286TIP3    H227792   5.109   6.798   1.532 -2.0182 -2.4431  1.0774
 9287TIP3   OH227793   5.938   6.352   4.041  0.3860 -0.2695  0.3551
 9287TIP3    H127794   5.869   6.365   3.977  1.4943  0.9383 -0.6283
 9287TIP3    H227795   5.916   6.269   4.084 -1.0769 -0.4248 -0.6652
 9288TIP3   OH227796   3.713   7.563   3.485  0.2370 -0.4345  0.5309
 9288TIP3    H127797   3.782   7.501   3.464  2.6032  2.4383 -0.5022
 9288TIP3    H227798   3.748   7.615   3.558 -0.9250  0.8591  0.2002
 9289TIP3   OH227799   6.980   1.090   6.241 -0.8646 -0.0549 -0.2776
 9289TIP3    H127800   7.004   1.180   6.264 -2.0193  0.3221 -0.4861
 9289TIP3    H227801   6.911   1.067   6.303 -1.3177 -0.4054 -0.8985
 9290TIP3   OH227802   2.749   6.755   2.957 -0.2008 -0.1230  0.0387
 9290TIP3    H127803   2.814   6.806   3.004 -0.1197  1.0410 -1.2973
 9290TIP3    H227804   2.667   6.772   3.003 -0.2547  1.6031 -0.6839
 9291TIP3   OH227805   6.142   1.002   5.310  0.0283  0.1048  0.1911
 9291TIP3    H127806   6.085   1.072   5.279  0.4150 -0.7882 -2.7021
 9291TIP3    H227807   6.083   0.936   5.346 -0.4961  0.8353  0.6671
 9292TIP3   OH227808   6.854   0.833   2.742  0.3395  0.2312  0.1053
 9292TIP3    H127809   6.868   0.739   2.730  2.7461  0.5840 -0.1335
 9292TIP3    H227810   6.813   0.840   2.828  2.3479 -0.9020  1.2068
 9293TIP3   OH227811   5.807   0.027   6.279  0.0497  0.2357 -0.0715
 9293TIP3    H127812   5.743  -0.018   6.334  1.0463 -2.1113 -0.7592
 9293TIP3    H227813   5.890   0.015   6.325  0.4852  0.5082 -0.7905
 9294TIP3   OH227814   7.901   1.753   1.165 -0.1768  0.1327 -0.3749
 9294TIP3    H127815   7.940   1.690   1.105 -1.1528 -1.5137  0.6898
 9294TIP3    H227816   7.809   1.727   1.172 -0.6776  1.8483 -0.1409
 9295TIP3   OH227817   2.073   7.336   2.853 -0.3368 -0.1146 -0.3065
 9295TIP3    H127818   2.024   7.359   2.932  0.1049 -0.0835 -0.0395
 9295TIP3    H227819   2.016   7.363   2.781 -0.6981 -0.0476  0.0023
 9296TIP3   OH227820   7.982   1.923   2.365  0.4564  0.7475  0.3249
 9296TIP3    H127821   7.944   1.837   2.383  0.7986  0.5441  0.0866
 9296TIP3    H227822   7.916   1.985   2.393 -0.7447  0.3925 -1.6340
 9297TIP3   OH227823   3.659   7.785   3.288 -0.3018 -0.5469  0.4906
 9297TIP3    H127824   3.666   7.702   3.335  0.3086 -1.1848 -0.7015
 9297TIP3    H227825   3.670   7.761   3.196 -2.2043  0.5980 -0.0475
 9298TIP3   OH227826   1.504   3.440   6.690  0.0729  0.2620 -0.2198
 9298TIP3    H127827   1.594   3.410   6.704  0.0049  0.1959  0.0855
 9298TIP3    H227828   1.500   3.461   6.597  1.2350  2.9612  0.2724
 9299TIP3   OH227829   5.105   0.405   3.546  0.3124  0.0473 -0.1126
 9299TIP3    H127830   5.074   0.318   3.571  0.1121  0.0078 -0.4926
 9299TIP3    H227831   5.164   0.388   3.472  0.0617  0.2598 -0.3612
 9300TIP3   OH227832   6.618   0.288   2.034  0.2506 -0.4473  0.0697
 9300TIP3    H127833   6.556   0.232   2.080  0.7506 -0.5482  0.6290
 9300TIP3    H227834   6.607   0.374   2.075  2.1740 -1.0032  1.8524
 9301TIP3   OH227835   4.500   6.915   3.277 -0.0951 -0.0038  0.1533
 9301TIP3    H127836   4.516   6.910   3.183 -0.1463  2.4699 -0.0012
 9301TIP3    H227837   4.411   6.880   3.287  0.4208 -1.5506 -0.5321
 9302TIP3   OH227838   5.007   7.425   2.735 -0.0023 -0.6713  0.4460
 9302TIP3    H127839   4.986   7.515   2.710  3.2885 -0.1162 -0.5760
 9302TIP3    H227840   5.023   7.380   2.652  0.3128 -1.6845  1.0424
 9303TIP3   OH227841   4.377   5.480   2.989 -0.5075  0.0286  0.4221
 9303TIP3    H127842   4.343   5.537   3.058 -0.0804 -0.0664  0.7076
 9303TIP3    H227843   4.425   5.538   2.931 -0.4139  0.0209  0.4930
 9304TIP3   OH227844   6.345   0.513   3.538 -0.5211 -0.0756 -0.5811
 9304TIP3    H127845   6.329   0.421   3.559  0.8317 -0.0595  0.6474
 9304TIP3    H227846   6.436   0.516   3.510 -0.8431  0.7417 -1.5665
 9305TIP3   OH227847   7.635   0.076   3.835 -0.0304 -0.2073 -0.0845
 9305TIP3    H127848   7.705   0.135   3.806  1.3234 -1.9410 -0.4958
 9305TIP3    H227849   7.617   0.102   3.925  1.6198 -0.1122  0.2424
 9306TIP3   OH227850   4.348   6.258   4.629 -0.2641 -0.1015 -0.1893
 9306TIP3    H127851   4.341   6.248   4.534  1.0482 -0.8835 -0.2072
 9306TIP3    H227852   4.433   6.299   4.643 -0.2461 -0.4173  0.6679
 9307TIP3   OH227853   6.526   1.087   5.222 -0.7196 -0.1602  0.2695
 9307TIP3    H127854   6.474   1.078   5.302 -0.1273 -0.8489  0.5799
 9307TIP3    H227855   6.611   1.047   5.243 -0.1199  0.7947 -0.2897
 9308TIP3   OH227856   0.622   1.785   5.653  0.2848 -0.2607  0.8079
 9308TIP3    H127857   0.595   1.739   5.732  0.4269 -1.7610  0.0091
 9308TIP3    H227858   0.562   1.753   5.585  0.4788  0.6374  0.2041
 9309TIP3   OH227859   3.857   6.194   2.674  0.0549 -0.2310  0.0891
 9309TIP3    H127860   3.911   6.115   2.681 -0.3955 -0.4876  0.7132
 9309TIP3    H227861   3.769   6.165   2.695  0.0393  0.6081  1.2527
 9310TIP3   OH227862   2.260   4.772   3.423  0.6157 -0.6831 -0.2505
 9310TIP3    H127863   2.167   4.752   3.412  0.5493  0.1739 -1.4119
 9310TIP3    H227864   2.299   4.752   3.337  1.2356  0.3346 -0.2186
 9311TIP3   OH227865   2.338   7.509   4.585  0.1640 -0.0475  0.1385
 9311TIP3    H127866   2.427   7.544   4.578  0.1360  0.2453  1.1770
 9311TIP3    H227867   2.339   7.458   4.666 -1.3473  2.1562  1.6056
 9312TIP3   OH227868   8.462   0.312   4.287 -0.0231  0.4448 -0.1538
 9312TIP3    H127869   8.431   0.379   4.228  2.8066  1.8162 -0.1733
 9312TIP3    H227870   8.476   0.235   4.231 -0.1581  0.8382 -0.7295
 9313TIP3   OH227871   6.518   1.177   1.092  0.0629 -0.1424 -0.1170
 9313TIP3    H127872   6.429   1.179   1.056  1.3414 -2.8721 -3.6849
 9313TIP3    H227873   6.519   1.097   1.146  0.4186 -0.2054 -0.2200
 9314TIP3   OH227874   1.887   7.189   3.575  0.7119  0.2204  0.4162
 9314TIP3    H127875   1.964   7.212   3.522  0.5578  0.7424  0.4225
 9314TIP3    H227876   1.814   7.231   3.530  0.7639  1.8811  1.8573
 9315TIP3   OH227877   5.980   0.793   3.712 -0.0721  0.0018 -0.7414
 9315TIP3    H127878   5.933   0.733   3.654 -1.0855  0.7012 -0.6484
 9315TIP3    H227879   5.913   0.853   3.745  0.9063  1.1016 -0.7160
 9316TIP3   OH227880   7.347   0.282   3.476 -0.0867  0.2344  0.6139
 9316TIP3    H127881   7.251   0.287   3.483 -0.1276 -0.7022  0.6996
 9316TIP3    H227882   7.378   0.308   3.562 -0.3079 -0.8687  1.0339
 9317TIP3   OH227883   5.774   0.972   3.096 -0.1540  0.3279  0.5782
 9317TIP3    H127884   5.817   0.906   3.151 -2.5127 -0.6183  1.3394
 9317TIP3    H227885   5.832   0.981   3.020  1.0964 -1.3079  1.3059
 9318TIP3   OH227886   6.291   0.194   2.103 -0.6279  0.2046 -0.1904
 9318TIP3    H127887   6.291   0.287   2.122 -1.6477  0.2207 -0.2108
 9318TIP3    H227888   6.203   0.164   2.129  0.0827 -0.9753  0.9520
 9319TIP3   OH227889   5.543   6.936   3.946 -0.1112  0.5087 -0.1192
 9319TIP3    H127890   5.589   6.852   3.954 -0.0826  0.5476  0.1203
 9319TIP3    H227891   5.513   6.955   4.034 -1.9121 -0.2762 -0.5291
 9320TIP3   OH227892   3.277   6.259   2.520 -0.4800 -0.0729  0.0723
 9320TIP3    H127893   3.229   6.242   2.438 -1.9534  0.9539  0.6985
 9320TIP3    H227894   3.329   6.180   2.534  0.5473  0.1367 -2.3744
 9321TIP3   OH227895   6.731   0.672   3.596 -0.1724  0.3180 -0.0686
 9321TIP3    H127896   6.819   0.638   3.614 -0.0836  0.9369  0.6892
 9321TIP3    H227897   6.719   0.742   3.660 -2.0964 -1.2448  1.3302
 9322TIP3   OH227898   4.187   0.472   1.696 -0.1894  0.8371  0.0708
 9322TIP3    H127899   4.092   0.486   1.690 -0.4651 -1.2925 -0.7260
 9322TIP3    H227900   4.198   0.408   1.766  0.6247  0.7197 -0.1634
 9323TIP3   OH227901   3.644   7.154   3.441 -0.1359 -0.5997  0.0013
 9323TIP3    H127902   3.561   7.111   3.422 -0.2991  0.1655 -1.0897
 9323TIP3    H227903   3.692   7.091   3.494 -0.2943 -2.2295 -1.7086
 9324TIP3   OH227904   4.120   7.672   4.432  0.1442  0.6867  0.3592
 9324TIP3    H127905   4.025   7.687   4.429 -0.1013 -0.5614  1.7706
 9324TIP3    H227906   4.130   7.578   4.419  1.2398  0.8727 -0.2159
 9325TIP3   OH227907   3.878   7.682   3.667 -0.3846  0.0841  0.2054
 9325TIP3    H127908   3.945   7.613   3.677 -2.1453 -1.6470  0.3465
 9325TIP3    H227909   3.838   7.689   3.753 -3.0296 -1.7005 -0.8317
 9326TIP3   OH227910   5.969   1.545   3.390  0.7557  0.6855 -0.0704
 9326TIP3    H127911   6.010   1.613   3.336  0.7972  0.3194 -0.5050
 9326TIP3    H227912   5.917   1.493   3.328  1.4831 -0.2544  0.0930
 9327TIP3   OH227913   6.458   6.871   4.071 -0.7908 -0.3281  0.6624
 9327TIP3    H127914   6.407   6.950   4.052 -0.8653 -0.4158  0.4984
 9327TIP3    H227915   6.527   6.872   4.005  0.9168  1.1241  2.4086
 9328TIP3   OH227916   3.558   5.490   5.812 -0.3703  0.5629  0.7678
 9328TIP3    H127917   3.470   5.521   5.834  0.2429  1.7466  1.6574
 9328TIP3    H227918   3.576   5.529   5.727 -0.7661  0.1906  0.5121
 9329TIP3   OH227919   4.448   6.027   3.366  0.1623  0.4635 -0.3211
 9329TIP3    H127920   4.513   5.987   3.424  1.2383  1.1067 -1.0610
 9329TIP3    H227921   4.499   6.063   3.294 -1.0198  1.0324 -0.8922
 9330TIP3   OH227922   5.758   7.792   0.384 -0.0422 -0.7274  0.1374
 9330TIP3    H127923   5.719   7.840   0.311 -2.5670 -0.9557  1.2879
 9330TIP3    H227924   5.794   7.860   0.441  0.4643 -0.4660 -0.4848
 9331TIP3   OH227925   0.753   0.279   4.134 -0.1325  0.1677 -0.3294
 9331TIP3    H127926   0.703   0.236   4.065 -2.2649 -0.1033  1.3273
 9331TIP3    H227927   0.827   0.320   4.089 -0.3531 -1.7176 -2.4778
 9332TIP3   OH227928   5.997   0.256   4.493 -0.4534  0.1457 -0.2374
 9332TIP3    H127929   6.000   0.216   4.580  0.5371 -0.1490 -0.3950
 9332TIP3    H227930   5.953   0.192   4.438  0.1719 -0.2808 -0.2515
 9333TIP3   OH227931   4.397   6.285   1.423 -0.2723 -0.0241  0.1588
 9333TIP3    H127932   4.367   6.375   1.436  0.2890 -0.3157  4.0092
 9333TIP3    H227933   4.487   6.294   1.392  0.5970  0.7701  2.7967
 9334TIP3   OH227934   7.232   3.032   3.311 -0.1383 -0.5518 -0.1047
 9334TIP3    H127935   7.184   3.021   3.393  0.1331  0.1278  0.1513
 9334TIP3    H227936   7.167   3.014   3.243  0.2911 -3.7404  0.2463
 9335TIP3   OH227937   5.805   0.862   2.235  0.1305  0.6138 -0.1563
 9335TIP3    H127938   5.787   0.952   2.208 -0.0870  0.2016 -1.3887
 9335TIP3    H227939   5.729   0.812   2.205  1.1738 -0.3330 -1.2854
 9336TIP3   OH227940   0.660  -0.006   4.542 -0.6572 -0.0937  0.3717
 9336TIP3    H127941   0.567  -0.027   4.543 -0.0155 -3.3651  0.0338
 9336TIP3    H227942   0.674   0.041   4.460 -1.8912 -0.1787  0.1103
 9337TIP3   OH227943   5.600   7.262   2.712 -0.0593 -0.1074  0.0904
 9337TIP3    H127944   5.657   7.333   2.740 -1.8708  1.0952  0.7438
 9337TIP3    H227945   5.530   7.305   2.663 -0.2942 -1.6005 -0.9318
 9338TIP3   OH227946   1.930   0.209   2.233  0.0454 -0.1264 -0.2799
 9338TIP3    H127947   1.986   0.209   2.311  0.7085 -0.2365 -0.7506
 9338TIP3    H227948   1.847   0.247   2.263  1.3856  2.9695 -0.3202
 9339TIP3   OH227949   4.642   7.968   2.750 -0.0271  0.0616 -0.3522
 9339TIP3    H127950   4.608   8.057   2.758 -0.7105 -0.1590 -0.7822
 9339TIP3    H227951   4.593   7.930   2.677 -1.7404 -1.5906  1.5993
 9340TIP3   OH227952   4.477   7.221   2.894  0.5046 -0.2518  0.1086
 9340TIP3    H127953   4.508   7.173   2.817  1.5328 -0.7939  0.8333
 9340TIP3    H227954   4.392   7.183   2.914  0.7991 -0.9952 -0.0195
 9341TIP3   OH227955   0.853   0.566   2.636  0.4004  0.3350  0.5543
 9341TIP3    H127956   0.782   0.507   2.612 -0.2036  1.1839  0.2294
 9341TIP3    H227957   0.829   0.597   2.723  1.8313 -1.5833  1.6719
 9342TIP3   OH227958   7.047   0.637   2.974  0.0223 -0.5123 -0.0919
 9342TIP3    H127959   7.060   0.556   3.023 -1.3286 -0.4510  0.3881
 9342TIP3    H227960   6.961   0.668   3.001  0.0998  0.5606 -1.0298
 9343TIP3   OH227961   6.211   0.656   3.769  0.2926  0.8173  0.1405
 9343TIP3    H127962   6.138   0.717   3.760 -3.4733 -3.3557  0.4252
 9343TIP3    H227963   6.239   0.638   3.680 -1.7520 -0.5697 -0.2420
 9344TIP3   OH227964   6.921   7.535   2.939  0.1369 -0.3293 -0.5109
 9344TIP3    H127965   6.903   7.462   2.880 -0.6396  0.7461 -1.6254
 9344TIP3    H227966   6.848   7.534   3.002  0.1122 -0.5087 -0.5443
 9345TIP3   OH227967   5.326   0.487   2.999 -0.3010 -0.2987  0.4907
 9345TIP3    H127968   5.243   0.484   2.951  0.2539 -0.0671 -0.4925
 9345TIP3    H227969   5.366   0.570   2.975  0.5753 -0.7519  0.3541
 9346TIP3   OH227970   2.528   7.642   5.020  0.4429 -0.2552  0.3189
 9346TIP3    H127971   2.476   7.699   4.963  0.0137 -0.6445  0.3226
 9346TIP3    H227972   2.615   7.684   5.023  0.3216  0.0345 -0.2148
 9347TIP3   OH227973   8.279   0.137   2.891 -0.7060  0.0106 -0.0387
 9347TIP3    H127974   8.195   0.094   2.878  0.5937 -2.1564 -1.5476
 9347TIP3    H227975   8.316   0.094   2.968 -1.4333  1.7425  1.3097
 9348TIP3   OH227976   2.628   0.711   4.537  0.2761 -0.0376 -0.2761
 9348TIP3    H127977   2.570   0.768   4.486 -0.2573 -0.6536 -0.3694
 9348TIP3    H227978   2.619   0.625   4.496  0.4071 -0.3773  0.4051
 9349TIP3   OH227979   3.520   7.386   3.400  0.3010  0.1980  0.4045
 9349TIP3    H127980   3.556   7.300   3.421 -0.0378  0.3313  1.5709
 9349TIP3    H227981   3.591   7.447   3.419  1.4684 -0.0087 -2.9569
 9350TIP3   OH227982   5.053   7.381   4.513 -0.6230  0.3618  0.5072
 9350TIP3    H127983   5.147   7.363   4.502 -1.1450 -0.6361 -2.7747
 9350TIP3    H227984   5.048   7.477   4.517  0.7033  0.3877  3.0001
 9351TIP3   OH227985   7.077   1.381   2.580 -0.2143  0.3487 -0.4141
 9351TIP3    H127986   7.058   1.288   2.572 -1.4849  0.4144  1.4855
 9351TIP3    H227987   7.102   1.393   2.672  3.2437  1.3436 -1.4164
 9352TIP3   OH227988   7.232   5.401   3.924 -0.4791 -0.2417 -0.1609
 9352TIP3    H127989   7.294   5.474   3.919 -2.0016  1.3329  2.5364
 9352TIP3    H227990   7.184   5.405   3.842 -0.2607  1.5793 -0.2280
 9353TIP3   OH227991   6.828   7.856   2.565  0.3975 -0.4407 -0.5363
 9353TIP3    H127992   6.916   7.835   2.598 -0.3079 -1.3085  0.8439
 9353TIP3    H227993   6.808   7.942   2.601  0.2814 -0.6863 -0.0042
 9354TIP3   OH227994   7.864   1.366   1.147  0.0775  0.1235  0.2523
 9354TIP3    H127995   7.921   1.420   1.092 -2.2937  0.2043 -2.2905
 9354TIP3    H227996   7.899   1.277   1.138 -0.7840 -0.0271 -2.2455
 9355TIP3   OH227997   2.074   0.077   3.003 -0.2007  0.3543 -0.0317
 9355TIP3    H127998   1.981   0.079   2.981 -0.2696 -0.6219  0.1733
 9355TIP3    H227999   2.084   0.145   3.070 -0.6529  0.8507 -0.4577
 9356TIP3   OH228000   4.094   7.928   2.230 -0.0645  0.8049  0.0931
 9356TIP3    H128001   4.069   8.017   2.208 -2.1906  0.3268  0.5303
 9356TIP3    H228002   4.013   7.878   2.228  1.1378 -1.2037 -0.4637
 9357TIP3   OH228003   2.713   7.137   3.204 -0.9109  0.0313  0.0265
 9357TIP3    H128004   2.723   7.199   3.276 -0.7744  1.1428 -0.9361
 9357TIP3    H228005   2.779   7.163   3.140  0.0350 -1.9376  0.1860
 9358TIP3   OH228006   7.506   7.395   3.407  0.2696  0.0937 -0.3115
 9358TIP3    H128007   7.416   7.373   3.381 -0.1456 -0.4359  1.5178
 9358TIP3    H228008   7.561   7.355   3.340 -0.7381 -1.9239  0.0350
 9359TIP3   OH228009   2.297   0.327   2.316 -0.1311  0.2975  0.0315
 9359TIP3    H128010   2.345   0.331   2.233 -0.9436 -0.6560 -0.4880
 9359TIP3    H228011   2.340   0.393   2.371  1.1718  0.1155 -0.7391
 9360TIP3   OH228012   5.547   7.688   3.028 -0.5158 -0.6849  0.4697
 9360TIP3    H128013   5.524   7.649   2.944 -0.5251 -0.5572  0.4138
 9360TIP3    H228014   5.626   7.738   3.010 -1.3366  0.5303  0.2203
 9361TIP3   OH228015   7.122   0.323   0.915 -0.2631  0.0070  0.0600
 9361TIP3    H128016   7.217   0.315   0.917 -0.1721  0.8453 -0.6486
 9361TIP3    H228017   7.091   0.239   0.882  0.1911 -0.4997  0.9084
 9362TIP3   OH228018   0.508   0.788   2.957  0.3549 -0.1786 -0.7529
 9362TIP3    H128019   0.533   0.850   2.889  1.8446 -1.3249 -1.2944
 9362TIP3    H228020   0.521   0.835   3.039  1.4025  0.2707 -1.1617
 9363TIP3   OH228021   6.660   0.039   1.870 -0.3131  0.1663 -0.1171
 9363TIP3    H128022   6.661   0.132   1.893 -2.0644  0.2514 -0.3069
 9363TIP3    H228023   6.657  -0.007   1.954 -2.5604  0.3761 -0.0580
 9364TIP3   OH228024   5.563   7.911   2.706  0.1946  0.5469 -0.2093
 9364TIP3    H128025   5.532   7.998   2.733 -0.9979 -0.2310  0.9990
 9364TIP3    H228026   5.656   7.923   2.689  0.2655  1.8343  0.9890
 9365TIP3   OH228027   3.328   7.895   0.569  0.4751 -0.1079 -0.1492
 9365TIP3    H128028   3.347   7.811   0.611  1.7967  0.8041  1.1052
 9365TIP3    H228029   3.396   7.904   0.503 -0.0594 -0.3174 -0.7346
 9366TIP3   OH228030   0.228   0.508   2.580  0.3154  0.4878  0.0389
 9366TIP3    H128031   0.273   0.493   2.663 -0.4239 -0.6750  0.2449
 9366TIP3    H228032   0.150   0.559   2.604 -0.9716 -1.5818  0.3686
 9367TIP3   OH228033   6.429   6.843   2.536  0.2662 -0.0710 -0.9082
 9367TIP3    H128034   6.424   6.789   2.614 -0.3723  0.6338 -0.4596
 9367TIP3    H228035   6.425   6.781   2.463 -0.8495 -0.5927 -0.4019
 9368TIP3   OH228036   8.121   2.336   1.286  0.4831  0.0531  0.3513
 9368TIP3    H128037   8.043   2.299   1.328  1.1593 -0.8892  0.7941
 9368TIP3    H228038   8.120   2.301   1.197  0.9784 -0.8169  0.6877
 9369TIP3   OH228039   5.229   6.752   4.210  0.5555 -0.1481 -0.0168
 9369TIP3    H128040   5.299   6.711   4.159 -1.1278 -2.1260 -0.8420
 9369TIP3    H228041   5.148   6.716   4.172 -0.8769  1.5157  1.3766
 9370TIP3   OH228042   0.420   1.959   3.002  0.1594  0.2497 -0.1956
 9370TIP3    H128043   0.441   1.943   3.094  0.0135 -0.7228 -0.3349
 9370TIP3    H228044   0.446   1.879   2.957  0.7030  0.9126 -1.0814
 9371TIP3   OH228045   1.506   0.393   1.892  0.5971 -0.2038 -0.1566
 9371TIP3    H128046   1.488   0.450   1.966 -1.5067 -0.7977 -0.1873
 9371TIP3    H228047   1.587   0.347   1.915  0.6860  0.6150  1.1553
 9372TIP3   OH228048   1.727   0.378   2.555  0.2101  0.1016  0.2761
 9372TIP3    H128049   1.690   0.442   2.494  2.5402 -0.0577 -1.4156
 9372TIP3    H228050   1.715   0.294   2.511 -3.4876 -0.7874  2.8126
 9373TIP3   OH228051   6.361   7.502   0.288  0.0005 -0.0861  0.2861
 9373TIP3    H128052   6.276   7.541   0.269  0.4408  1.0079  0.5163
 9373TIP3    H228053   6.348   7.454   0.370 -0.6680 -0.8294 -0.2519
 9374TIP3   OH228054   6.499   7.238   4.365 -0.5196 -0.0977  0.0906
 9374TIP3    H128055   6.492   7.293   4.443 -0.7379  0.8988 -0.6277
 9374TIP3    H228056   6.410   7.202   4.353  0.1120 -2.3654  1.8083
 9375TIP3   OH228057   4.962   6.164   1.854 -1.0202 -0.0081 -0.6568
 9375TIP3    H128058   4.908   6.094   1.891 -0.4376 -0.2682 -0.2841
 9375TIP3    H228059   5.033   6.119   1.808  0.7368  0.2935  1.6060
 9376TIP3   OH228060   4.913   6.593   2.725  0.3205  0.1243  0.4127
 9376TIP3    H128061   4.872   6.513   2.693  0.2536  0.2867  0.0929
 9376TIP3    H228062   5.005   6.568   2.741  0.3338  0.0249  0.1752
 9377TIP3   OH228063   7.882  -0.007   2.207  0.1457 -0.2407  0.5320
 9377TIP3    H128064   7.822  -0.015   2.133  0.2018 -0.4815  0.5116
 9377TIP3    H228065   7.911   0.084   2.205 -1.2767  0.2391  1.3667
 9378TIP3   OH228066   4.558   7.357   0.787 -0.1228  0.1982 -1.4778
 9378TIP3    H128067   4.479   7.304   0.799 -1.3991  2.2122 -0.7789
 9378TIP3    H228068   4.615   7.331   0.860  0.3922 -2.1054 -2.6388
 9379TIP3   OH228069   4.638   7.882   0.944 -0.0029 -0.3104 -0.4162
 9379TIP3    H128070   4.576   7.827   0.991  0.5737 -1.2318 -0.7158
 9379TIP3    H228071   4.633   7.968   0.987 -2.5975  0.0800 -1.3950
 9380TIP3   OH228072   2.624   0.785   3.187  0.3897 -0.0503  0.3446
 9380TIP3    H128073   2.549   0.780   3.127  0.8334  0.6024 -0.2775
 9380TIP3    H228074   2.667   0.700   3.178 -0.3500 -0.4823  0.8124
 9381TIP3   OH228075   5.908   6.942   4.388  0.3493  0.0372 -0.4500
 9381TIP3    H128076   5.841   6.950   4.456  1.8951 -1.3187  1.2841
 9381TIP3    H228077   5.987   6.917   4.435  2.0931  1.5586 -2.4763
 9382TIP3   OH228078   4.384   6.564   3.049 -0.3720  0.0647  0.0465
 9382TIP3    H128079   4.380   6.575   2.954  2.0787  2.0938  0.1254
 9382TIP3    H228080   4.365   6.651   3.084  1.4050 -0.0258  1.3106
 9383TIP3   OH228081   2.616   7.373   2.520  0.5038 -0.2451  0.1543
 9383TIP3    H128082   2.590   7.419   2.440 -1.4029 -1.0174  0.2828
 9383TIP3    H228083   2.639   7.441   2.582  1.9229  0.3667 -1.0276
 9384TIP3   OH228084   4.916   6.900   3.291  0.3699 -0.3116 -0.4059
 9384TIP3    H128085   4.942   6.811   3.266  1.2274 -0.0618 -0.4143
 9384TIP3    H228086   4.886   6.940   3.209 -4.5994 -2.0946  0.3536
 9385TIP3   OH228087   3.778   7.591   2.174  0.1862  0.5942 -0.2077
 9385TIP3    H128088   3.839   7.605   2.101  1.5951 -0.3533  0.7786
 9385TIP3    H228089   3.752   7.680   2.200  1.7618  1.0391 -0.1186
 9386TIP3   OH228090   8.150   1.307   2.571 -0.7877  0.6907  0.5725
 9386TIP3    H128091   8.065   1.318   2.613 -0.3999 -2.2673  2.2919
 9386TIP3    H228092   8.130   1.272   2.484 -1.3674  1.1845  0.5037
 9387TIP3   OH228093   6.846   0.469   3.313 -0.6194  0.0232 -0.8717
 9387TIP3    H128094   6.787   0.544   3.323 -2.9512 -2.0268  1.8838
 9387TIP3    H228095   6.791   0.401   3.274 -0.0995 -1.8512  1.4802
 9388TIP3   OH228096   3.479   6.499   2.515 -0.2260  0.0129 -0.1466
 9388TIP3    H128097   3.388   6.486   2.540 -0.1936  1.3312  0.7455
 9388TIP3    H228098   3.476   6.515   2.421 -0.7407 -1.5190 -0.3974
 9389TIP3   OH228099   5.864   7.532   3.719  0.1712  0.0173 -0.0924
 9389TIP3    H128100   5.800   7.493   3.660  0.6257 -0.4560 -0.2825
 9389TIP3    H228101   5.938   7.555   3.663  0.6164 -0.4562  0.2847
 9390TIP3   OH228102   5.574   6.718   2.708 -0.1394 -0.4057 -0.5735
 9390TIP3    H128103   5.574   6.680   2.621 -0.5407  1.5225 -1.4576
 9390TIP3    H228104   5.484   6.749   2.721 -0.2423 -1.2527  0.7831
 9391TIP3   OH228105   7.353   1.163   2.969 -0.4207  0.2944 -0.1139
 9391TIP3    H128106   7.436   1.144   3.012  0.1513  0.5362 -1.0950
 9391TIP3    H228107   7.288   1.110   3.017  0.3437 -0.1596  0.4281
 9392TIP3   OH228108   6.276   0.172   5.321  0.7575  0.4262 -0.1903
 9392TIP3    H128109   6.338   0.100   5.308  0.7440  0.4951 -0.6394
 9392TIP3    H228110   6.271   0.215   5.236 -0.1600  0.2166 -0.2459
 9393TIP3   OH228111   7.723   2.760   2.727 -0.3100 -0.0884  0.0951
 9393TIP3    H128112   7.769   2.837   2.695  0.0633 -0.5613 -0.5250
 9393TIP3    H228113   7.633   2.788   2.739 -0.0851  0.5553  0.2879
 9394TIP3   OH228114   4.931   7.579   3.732  0.3580 -0.3635 -0.0345
 9394TIP3    H128115   4.847   7.605   3.771 -0.5118  0.8907 -2.6353
 9394TIP3    H228116   4.957   7.654   3.679  1.9591 -1.6589 -1.1317
 9395TIP3   OH228117   6.568   1.044   2.522 -0.2600 -0.0403  0.6328
 9395TIP3    H128118   6.493   1.048   2.463  0.3610 -4.1403 -0.5992
 9395TIP3    H228119   6.640   1.084   2.474 -0.6358 -0.0741  0.0421
 9396TIP3   OH228120   5.223   7.967   1.016 -0.7241 -0.1308  0.7889
 9396TIP3    H128121   5.160   7.959   0.944  0.1165 -0.1700  0.0426
 9396TIP3    H228122   5.272   7.885   1.014  0.9627  0.8724 -0.2102
 9397TIP3   OH228123   5.500   6.421   1.305  0.0400  0.2704 -0.0547
 9397TIP3    H128124   5.498   6.511   1.338  0.3312  0.5845 -0.8787
 9397TIP3    H228125   5.593   6.402   1.293  0.0032 -0.3007  0.5467
 9398TIP3   OH228126   7.761   1.471   3.687  0.0177 -0.0134  0.1521
 9398TIP3    H128127   7.702   1.482   3.762  0.8683 -0.1802  0.8488
 9398TIP3    H228128   7.783   1.560   3.660 -0.6917  0.0538 -0.2305
 9399TIP3   OH228129   5.031   5.393   1.390  0.0895 -0.1241  0.5217
 9399TIP3    H128130   4.970   5.404   1.317  0.9596  1.9104  0.0506
 9399TIP3    H228131   5.113   5.367   1.349 -0.2722 -2.2815  1.1042
 9400TIP3   OH228132   0.758   0.621   2.919  0.2473 -0.2007 -0.2958
 9400TIP3    H128133   0.709   0.678   2.977 -1.3485 -0.2704 -1.5381
 9400TIP3    H228134   0.750   0.534   2.959 -0.1490 -0.1124 -0.1812
 9401TIP3   OH228135   8.417   0.043   3.117 -0.1075  0.3366 -0.5082
 9401TIP3    H128136   8.359   0.029   3.191  2.1810  2.4780  1.7791
 9401TIP3    H228137   8.487  -0.021   3.128 -1.0352 -1.0475 -2.2819
 9402TIP3   OH228138   0.334   0.704   3.669 -0.2998 -0.2820 -0.0116
 9402TIP3    H128139   0.386   0.624   3.680 -2.4744 -1.9175 -1.2579
 9402TIP3    H228140   0.260   0.693   3.730 -0.8106  0.6115 -0.4553
 9403TIP3   OH228141   7.433   7.576   3.945 -0.3415  0.1318  0.4738
 9403TIP3    H128142   7.442   7.671   3.956  0.4210  0.0840  0.3412
 9403TIP3    H228143   7.340   7.559   3.956 -0.7170  1.1014 -1.0160
 9404TIP3   OH228144   0.482   0.432   3.045  0.6740  0.4889  0.1954
 9404TIP3    H128145   0.564   0.382   3.047 -0.5915 -1.6077  1.3081
 9404TIP3    H228146   0.493   0.498   3.114  1.3244  0.0222  0.5507
 9405TIP3   OH228147   6.949   7.880   4.229  0.2366 -0.1024 -0.1580
 9405TIP3    H128148   6.971   7.961   4.183  0.0134 -0.7229 -1.3684
 9405TIP3    H228149   7.033   7.851   4.265  0.3469  0.5814  0.1527
 9406TIP3   OH228150   0.916   1.707   5.745  0.0802 -0.4723  0.0674
 9406TIP3    H128151   0.825   1.701   5.716 -0.0223  0.4435  0.1790
 9406TIP3    H228152   0.954   1.775   5.690  0.7734 -1.0437 -0.1638
 9407TIP3   OH228153   7.593   1.716   2.540  0.2750  0.3334  0.2389
 9407TIP3    H128154   7.507   1.674   2.539  0.5215 -0.1723  0.3955
 9407TIP3    H228155   7.600   1.754   2.628  1.1506 -1.5731  1.0174
 9408TIP3   OH228156   7.366   1.238   3.868 -0.3756 -0.0877 -0.0457
 9408TIP3    H128157   7.306   1.174   3.832 -1.2905  0.9928 -0.4739
 9408TIP3    H228158   7.438   1.243   3.805 -0.0814 -1.0113  0.2140
 9409TIP3   OH228159   8.389   0.687   5.723  0.2024  0.6187 -0.3375
 9409TIP3    H128160   8.365   0.649   5.808  0.4013 -3.0214 -1.8245
 9409TIP3    H228161   8.485   0.686   5.723  0.2234  1.8301 -0.1209
 9410TIP3   OH228162   1.307   0.174   3.135  0.1555 -0.1789  0.1534
 9410TIP3    H128163   1.293   0.097   3.190 -0.7710  0.2865  0.5775
 9410TIP3    H228164   1.399   0.198   3.151  0.3477 -0.9736  0.2875
 9411TIP3   OH228165   2.749   6.523   5.641 -0.0771  0.5026 -0.2704
 9411TIP3    H128166   2.750   6.603   5.693 -1.5536 -0.7747  1.8069
 9411TIP3    H228167   2.807   6.463   5.688 -2.5794 -1.1660  0.7840
 9412TIP3   OH228168   3.185   7.308   0.137  0.2666  0.2302 -0.2684
 9412TIP3    H128169   3.264   7.329   0.187 -0.3078 -0.2404  0.8675
 9412TIP3    H228170   3.117   7.298   0.204 -0.6591  0.2196 -1.2036
 9413TIP3   OH228171   4.870   7.774   0.844  0.1999 -0.2827  0.2342
 9413TIP3    H128172   4.930   7.844   0.819 -0.7637  0.8314  0.9842
 9413TIP3    H228173   4.785   7.818   0.855 -0.0884 -1.2936  2.2152
 9414TIP3   OH228174   6.055   0.207   3.495 -0.0561 -0.3658  0.9895
 9414TIP3    H128175   5.971   0.190   3.452 -1.5701  0.7254  3.4008
 9414TIP3    H228176   6.077   0.123   3.537  0.8339 -1.0865 -0.8776
 9415TIP3   OH228177   5.712   6.718   2.433  0.7061  0.1059 -0.2584
 9415TIP3    H128178   5.687   6.772   2.358  1.5132  0.6394 -0.1551
 9415TIP3    H228179   5.743   6.782   2.498 -1.1967 -0.2219  1.0277
 9416TIP3   OH228180   6.311   0.000   4.659  0.1970 -0.0077  0.2264
 9416TIP3    H128181   6.216   0.009   4.662  0.0633 -0.9232 -0.8813
 9416TIP3    H228182   6.338   0.004   4.751 -1.0202 -0.8565  0.6366
 9417TIP3   OH228183   7.519   1.021   3.315  0.1369  0.0050  0.0789
 9417TIP3    H128184   7.424   1.020   3.327  0.0412  1.7578 -0.4239
 9417TIP3    H228185   7.537   1.107   3.277  1.5774 -1.4362 -2.6832
 9418TIP3   OH228186   6.877   1.306   3.099  0.0813  0.1381 -0.3085
 9418TIP3    H128187   6.862   1.225   3.050 -0.1677 -0.5352  0.8731
 9418TIP3    H228188   6.943   1.282   3.164 -1.1442  0.4748  1.0704
 9419TIP3   OH228189   7.452   7.569   2.311  0.1756  0.3651  0.4296
 9419TIP3    H128190   7.370   7.525   2.290  0.4181 -0.4068  1.0911
 9419TIP3    H228191   7.519   7.502   2.299  0.6649  0.8712  0.3133
 9420TIP3   OH228192   4.988   7.359   2.481  0.1052 -0.1195  0.1208
 9420TIP3    H128193   4.955   7.437   2.436 -1.5550 -1.9189 -1.8632
 9420TIP3    H228194   4.972   7.287   2.420 -0.3108 -2.3375  2.7389
 9421TIP3   OH228195   0.196   1.912   4.604 -0.0875 -0.2615 -0.5155
 9421TIP3    H128196   0.103   1.902   4.585 -0.2398  0.8037 -0.3575
 9421TIP3    H228197   0.240   1.857   4.539 -0.7476  0.7374 -1.8407
 9422TIP3   OH228198   5.431   7.791   2.268 -0.4121  0.2497 -0.0342
 9422TIP3    H128199   5.408   7.854   2.337 -0.1635 -0.4781  0.7138
 9422TIP3    H228200   5.422   7.706   2.310 -0.0220 -0.1873 -0.8408
 9423TIP3   OH228201   6.510   7.461   2.521 -0.1958 -0.5898  0.0205
 9423TIP3    H128202   6.542   7.385   2.472 -0.8663  0.5111 -2.1784
 9423TIP3    H228203   6.538   7.536   2.470 -4.1945  0.4815 -0.7246
 9424TIP3   OH228204   3.914   7.083   2.606  0.4814  0.4278  0.2162
 9424TIP3    H128205   3.935   7.072   2.513 -2.3420  2.6368 -0.7492
 9424TIP3    H228206   3.890   7.175   2.615  0.0732  0.1028  3.0359
 9425TIP3   OH228207   3.887   8.012   3.005 -0.1520 -0.5401 -0.4130
 9425TIP3    H128208   3.804   8.049   3.035 -0.7147 -1.5853 -0.6729
 9425TIP3    H228209   3.867   7.921   2.985  0.9418 -0.6602 -0.9853
 9426TIP3   OH228210   4.797   7.060   6.433 -0.8150  0.3475  0.1776
 9426TIP3    H128211   4.703   7.077   6.438 -0.6795  1.5262 -1.0743
 9426TIP3    H228212   4.829   7.118   6.364  0.3283 -2.2449 -1.5591
 9427TIP3   OH228213   7.739   1.068   1.410 -0.0613  0.1137 -0.6126
 9427TIP3    H128214   7.830   1.063   1.381  0.2465  0.3334  0.2662
 9427TIP3    H228215   7.745   1.104   1.499 -0.8460 -1.8306  0.2686
 9428TIP3   OH228216   8.009   0.030   2.696  0.4613  0.0839  0.1105
 9428TIP3    H128217   7.963   0.086   2.758  0.6474 -0.1573  0.4702
 9428TIP3    H228218   7.940  -0.006   2.640  0.5903  2.7096 -1.8059
 9429TIP3   OH228219   3.524   7.826   3.859  0.1535 -0.4018  0.4440
 9429TIP3    H128220   3.615   7.799   3.851  0.1431 -0.0534 -0.9935
 9429TIP3    H228221   3.508   7.830   3.953  1.4636 -0.9744  0.6989
 9430TIP3   OH228222   1.091   0.304   4.970 -0.1295  0.2241  0.1644
 9430TIP3    H128223   1.041   0.222   4.960  0.1924  0.1092 -0.5875
 9430TIP3    H228224   1.068   0.355   4.892 -0.0849  0.7217  0.4755
 9431TIP3   OH228225   4.128   7.964   3.116 -0.3535 -0.3397  0.1431
 9431TIP3    H128226   4.043   8.005   3.100 -0.5548 -0.4794  0.8165
 9431TIP3    H228227   4.134   7.892   3.053 -0.0877  0.5897 -0.9095
 9432TIP3   OH228228   1.304   3.777   6.412  0.1150  0.1089  0.2441
 9432TIP3    H128229   1.249   3.719   6.466  0.5180  0.2069  0.7644
 9432TIP3    H228230   1.246   3.848   6.387 -0.2241 -0.2164  0.0980
 9433TIP3   OH228231   1.657   0.859   2.584 -0.1423 -0.4899 -0.3230
 9433TIP3    H128232   1.652   0.882   2.491 -1.1595  0.5076 -0.0350
 9433TIP3    H228233   1.587   0.794   2.597  0.1637 -0.8188 -0.3030
 9434TIP3   OH228234   7.025   0.357   3.535  0.4310 -0.1759 -0.2947
 9434TIP3    H128235   6.968   0.358   3.458  0.3922  0.6452 -0.2675
 9434TIP3    H228236   7.021   0.267   3.567  1.6246 -0.8853 -2.1031
 9435TIP3   OH228237   2.083   0.754   1.807 -0.2676  0.2682  0.3542
 9435TIP3    H128238   2.154   0.695   1.830  0.8422  1.6284  0.5212
 9435TIP3    H228239   2.055   0.792   1.891 -0.9442  0.0207  0.2474
 9436TIP3   OH228240   0.466   1.088   0.356 -0.0925 -0.0609 -0.2909
 9436TIP3    H128241   0.479   1.080   0.451 -1.2753  1.1512 -0.0032
 9436TIP3    H228242   0.397   1.026   0.336 -0.5763  0.4299 -0.1682
 9437TIP3   OH228243   2.789   1.570   3.333  0.4006  0.1392 -0.2565
 9437TIP3    H128244   2.831   1.644   3.289  0.1279  0.3556 -0.1530
 9437TIP3    H228245   2.814   1.494   3.281 -1.0726  0.5596 -1.6107
 9438TIP3   OH228246   3.570   6.940   4.875  0.4363  0.3540  0.0043
 9438TIP3    H128247   3.550   6.907   4.963  0.1220 -0.2102 -0.2819
 9438TIP3    H228248   3.661   6.913   4.860  0.3855  0.1720  0.0254
 9439TIP3   OH228249   8.074   7.419   3.076  0.2576 -0.0217 -0.0509
 9439TIP3    H128250   8.056   7.325   3.079  2.6004 -0.4855  0.3023
 9439TIP3    H228251   7.999   7.459   3.120 -0.0013 -1.8339  1.1962
 9440TIP3   OH228252   2.042   1.125   4.888  0.3252 -0.5514 -0.4080
 9440TIP3    H128253   2.046   1.181   4.811 -0.4521  0.2402  0.1242
 9440TIP3    H228254   2.005   1.042   4.856 -0.3376 -0.0989 -0.8173
 9441TIP3   OH228255   3.876   7.343   3.455  0.3333 -0.1025  0.0852
 9441TIP3    H128256   3.794   7.294   3.469  1.1092 -1.8581 -1.3585
 9441TIP3    H228257   3.935   7.280   3.413  2.3099  1.2663  0.7432
 9442TIP3   OH228258   8.505   1.176   3.907 -0.1116 -0.4785  0.0983
 9442TIP3    H128259   8.521   1.252   3.962  2.4342 -0.2668 -0.8882
 9442TIP3    H228260   8.459   1.211   3.831  3.0360  0.5247 -1.4262
 9443TIP3   OH228261   3.769   6.126   5.960  0.6298 -0.5394  0.4789
 9443TIP3    H128262   3.759   6.221   5.963 -0.7497 -0.6241 -0.9967
 9443TIP3    H228263   3.800   6.103   6.048 -0.5917  1.0811  1.3616
 9444TIP3   OH228264   3.940   7.371   2.158 -0.1059  0.4892 -0.0196
 9444TIP3    H128265   4.009   7.361   2.224 -2.6692 -1.1422  2.5885
 9444TIP3    H228266   3.889   7.446   2.188  0.5626  1.7679 -1.9972
 9445TIP3   OH228267   7.607   7.075   2.988  0.6449  0.2501  0.4264
 9445TIP3    H128268   7.606   7.058   3.083  0.1281  0.0590  0.3840
 9445TIP3    H228269   7.555   7.004   2.950 -0.9617  1.5260  0.1891
 9446TIP3   OH228270   5.861   7.678   5.666  0.3296  0.2878 -0.0580
 9446TIP3    H128271   5.832   7.762   5.702 -2.7840 -0.5243 -0.5777
 9446TIP3    H228272   5.831   7.613   5.730 -1.1265 -0.7857 -1.8076
 9447TIP3   OH228273   5.518   7.907   4.771  0.1811  0.2017 -0.3754
 9447TIP3    H128274   5.537   7.869   4.686  0.4044 -0.6946  0.0669
 9447TIP3    H228275   5.490   7.833   4.825 -1.1561  0.9581 -0.0131
 9448TIP3   OH228276   3.669   5.619   3.186  0.1379  0.1345  0.0154
 9448TIP3    H128277   3.723   5.688   3.148 -0.8808  1.0617  0.2191
 9448TIP3    H228278   3.580   5.653   3.181 -0.5877 -1.8250 -1.3689
 9449TIP3   OH228279   5.201   6.500   2.815 -0.6089  0.1061  0.0358
 9449TIP3    H128280   5.180   6.548   2.896  1.3917  1.0231  0.0487
 9449TIP3    H228281   5.251   6.563   2.763  3.7666 -2.5082  0.8693
 9450TIP3   OH228282   6.819   0.779   3.276  0.4529  0.1221 -0.3172
 9450TIP3    H128283   6.809   0.873   3.289 -1.2378 -0.0496 -0.2429
 9450TIP3    H228284   6.751   0.756   3.212 -1.0808 -1.5176  1.8446
 9451TIP3   OH228285   1.627   0.161   2.404  0.5385  0.1846  0.2051
 9451TIP3    H128286   1.584   0.185   2.322  0.0920  0.3869  0.4931
 9451TIP3    H228287   1.557   0.123   2.457  1.2182 -1.6831 -0.2096
 9452TIP3   OH228288   8.363   0.959   0.211 -0.0470  0.1557 -0.0070
 9452TIP3    H128289   8.281   0.988   0.251  0.4140  2.4889 -0.6841
 9452TIP3    H228290   8.430   0.981   0.276  0.2615  0.2204 -0.3472
 9453TIP3   OH228291   0.637   1.216   5.574 -0.3884 -1.0434 -0.0766
 9453TIP3    H128292   0.547   1.196   5.546 -0.5130  1.0099 -1.2863
 9453TIP3    H228293   0.636   1.311   5.588  1.7962 -0.8949 -0.8453
 9454TIP3   OH228294   6.142   7.468   0.704  0.0863  0.2041  0.0715
 9454TIP3    H128295   6.068   7.496   0.651 -1.3985 -0.4291  1.7820
 9454TIP3    H228296   6.134   7.372   0.707  0.8566  0.1491  0.4647
 9455TIP3   OH228297   0.972   1.033   3.069 -0.1054 -0.1902 -0.0122
 9455TIP3    H128298   1.019   1.095   3.125  0.8738 -0.1004 -0.9105
 9455TIP3    H228299   1.021   1.034   2.987  0.3635 -2.7363  0.2138
 9456TIP3   OH228300   4.175   7.793   1.983 -0.3174  0.2122 -0.3684
 9456TIP3    H128301   4.192   7.762   2.072 -1.5935 -0.4373 -0.3420
 9456TIP3    H228302   4.174   7.888   1.990 -1.8118  0.1352  0.5820
 9457TIP3   OH228303   8.192   0.396   3.901 -0.3048  0.0664 -0.5509
 9457TIP3    H128304   8.241   0.467   3.942 -1.0427 -0.4956  1.3949
 9457TIP3    H228305   8.232   0.316   3.935 -1.0143 -0.4223 -0.8451
 9458TIP3   OH228306   6.541   1.180   4.746  0.2326 -0.1495  0.0750
 9458TIP3    H128307   6.503   1.117   4.807 -0.5613  1.6146  1.4573
 9458TIP3    H228308   6.609   1.224   4.797 -0.0841  0.9720 -0.4530
 9459TIP3   OH228309   6.661   1.389   1.205  0.1673  0.2625  0.0596
 9459TIP3    H128310   6.633   1.300   1.183 -0.6601  0.4458  0.3129
 9459TIP3    H228311   6.742   1.378   1.255  0.5830 -0.2924 -0.7455
 9460TIP3   OH228312   6.292   7.077   3.988 -0.0987  0.4052  0.1140
 9460TIP3    H128313   6.227   7.145   3.968 -1.0079 -0.6747 -0.6769
 9460TIP3    H228314   6.247   6.995   3.970  1.7300 -0.3500 -1.1953
 9461TIP3   OH228315   6.221   7.758   1.782  0.3031  0.1316  0.3502
 9461TIP3    H128316   6.217   7.806   1.865  2.5230  1.6458 -0.3732
 9461TIP3    H228317   6.214   7.666   1.807  0.9501  0.5754  2.2319
 9462TIP3   OH228318   7.780   0.932   3.316  0.0627 -0.2391 -0.0290
 9462TIP3    H128319   7.808   0.956   3.404 -0.2391 -1.3226  0.3686
 9462TIP3    H228320   7.685   0.944   3.318 -0.1424 -1.7671  0.2879
 9463TIP3   OH228321   7.433   7.450   0.869 -0.1888  0.2456 -0.2534
 9463TIP3    H128322   7.409   7.532   0.825  2.0673  0.2401 -1.5693
 9463TIP3    H228323   7.472   7.477   0.952 -1.8856  0.3663  0.5315
 9464TIP3   OH228324   7.871   1.098   3.109 -0.3450  0.2232 -0.1940
 9464TIP3    H128325   7.825   1.068   3.031  0.4952  0.6216 -0.8563
 9464TIP3    H228326   7.870   1.023   3.168 -0.9954 -0.0792 -0.5904
 9465TIP3   OH228327   7.285   0.562   5.554 -0.1252  0.2935  0.1132
 9465TIP3    H128328   7.262   0.651   5.527 -0.5958 -0.0612 -0.6769
 9465TIP3    H228329   7.257   0.507   5.481 -0.9538 -0.6280  1.1038
 9466TIP3   OH228330   6.692   7.207   4.035 -0.3859  0.2050 -0.2060
 9466TIP3    H128331   6.736   7.264   4.098  0.1183  2.4424 -2.4869
 9466TIP3    H228332   6.677   7.126   4.082  2.2112  0.9488  2.0126
 9467TIP3   OH228333   5.553   6.349   2.819  0.1496 -0.3483  0.2388
 9467TIP3    H128334   5.552   6.443   2.838  0.7036 -0.3600  0.3407
 9467TIP3    H228335   5.609   6.341   2.741  0.8980 -0.6894  0.7977
 9468TIP3   OH228336   4.818   7.590   0.655  0.0917  0.2272 -0.3255
 9468TIP3    H128337   4.847   7.647   0.727 -1.1022  0.6015 -0.1405
 9468TIP3    H228338   4.892   7.530   0.641  0.7345  0.8089  0.5259
 9469TIP3   OH228339   6.243   1.271   2.018 -0.4234  0.1423  0.1457
 9469TIP3    H128340   6.254   1.358   2.056  0.5361  0.0630  0.0818
 9469TIP3    H228341   6.332   1.246   1.991 -0.5388 -1.2119  0.9585
 9470TIP3   OH228342   3.151   1.351   4.831  0.1371  0.1675  0.0114
 9470TIP3    H128343   3.095   1.370   4.756 -1.4394 -0.3794  1.0279
 9470TIP3    H228344   3.092   1.353   4.907  1.5226 -0.2355  1.1323
 9471TIP3   OH228345   0.705   0.011   4.274 -0.6716 -0.7841  0.2855
 9471TIP3    H128346   0.697   0.099   4.239 -2.1178 -0.6521  0.9333
 9471TIP3    H228347   0.768  -0.032   4.215  0.1661  0.6977  0.0546
 9472TIP3   OH228348   3.735   6.504   2.622 -0.2233  0.5103  0.3966
 9472TIP3    H128349   3.661   6.522   2.564 -0.8297 -0.4633  0.8565
 9472TIP3    H228350   3.721   6.563   2.696 -0.0411  0.9786  0.0581
 9473TIP3   OH228351   2.506   7.740   3.311  0.3494 -0.1219  0.3107
 9473TIP3    H128352   2.562   7.664   3.298  0.4929 -0.9725  5.0055
 9473TIP3    H228353   2.566   7.815   3.314  0.3120  0.1199 -3.1757
 9474TIP3   OH228354   5.258   6.242   4.349 -0.3508 -0.1705  0.5226
 9474TIP3    H128355   5.280   6.173   4.411  0.4555 -0.4528 -0.0627
 9474TIP3    H228356   5.241   6.319   4.403  1.8019 -0.0263  1.0239
 9475TIP3   OH228357   6.498   6.505   3.415  0.0652  0.1476  0.2947
 9475TIP3    H128358   6.437   6.459   3.473  2.0541 -2.9344  0.1044
 9475TIP3    H228359   6.573   6.525   3.471  1.2338 -1.2084 -0.7430
 9476TIP3   OH228360   0.601   1.634   4.630  0.0483  0.1600  0.7441
 9476TIP3    H128361   0.540   1.611   4.700  0.5189 -2.5653  0.2798
 9476TIP3    H228362   0.590   1.566   4.564  0.1748  2.2525 -1.5172
 9477TIP3   OH228363   7.335   0.223   2.812  0.0339  0.2134 -1.0284
 9477TIP3    H128364   7.368   0.302   2.855 -0.3278 -0.0123 -0.3403
 9477TIP3    H228365   7.241   0.236   2.806  0.2011  0.7610 -2.8075
 9478TIP3   OH228366   2.987   6.728   3.382  0.4906  0.5811 -0.5289
 9478TIP3    H128367   3.043   6.671   3.434 -1.8754 -0.3049  1.1117
 9478TIP3    H228368   2.905   6.732   3.430 -0.9389  1.7170 -2.9640
 9479TIP3   OH228369   3.408   6.112   4.475  0.1847 -0.0613 -0.3652
 9479TIP3    H128370   3.388   6.203   4.455  0.3013  0.0090 -0.1651
 9479TIP3    H228371   3.484   6.092   4.420  1.1543  0.4451  0.7566
 9480TIP3   OH228372   6.757   0.117   2.412  0.9650  0.0680  0.6796
 9480TIP3    H128373   6.694   0.150   2.477  0.1479 -0.8672  0.3888
 9480TIP3    H228374   6.777   0.028   2.442  3.6627  1.0186  1.8327
 9481TIP3   OH228375   0.864   0.791   3.413 -0.0274 -0.4031  0.1833
 9481TIP3    H128376   0.779   0.823   3.442 -0.6967 -1.5256 -0.4934
 9481TIP3    H228377   0.902   0.749   3.490 -0.8570 -1.4577  0.0215
 9482TIP3   OH228378   5.726   6.339   3.598  1.0759 -0.1306 -0.5790
 9482TIP3    H128379   5.716   6.367   3.507  3.1250  1.7285 -0.2814
 9482TIP3    H228380   5.803   6.284   3.598  0.5476 -0.8805 -0.1074
 9483TIP3   OH228381   8.336   6.194   2.948  0.4237 -0.5289  0.3206
 9483TIP3    H128382   8.302   6.150   2.870  0.7136 -0.9575  0.4391
 9483TIP3    H228383   8.257   6.227   2.992  0.2258 -0.6782  0.0823
 9484TIP3   OH228384   8.134   1.149   3.867 -0.0833  0.2816 -0.1438
 9484TIP3    H128385   8.182   1.197   3.935 -0.8238  1.0806 -0.1666
 9484TIP3    H228386   8.139   1.205   3.790 -0.5818  0.1216 -0.2968
 9485TIP3   OH228387   5.668   6.323   2.522 -0.1328 -0.2214  0.2018
 9485TIP3    H128388   5.753   6.330   2.565 -0.0663  1.4544 -0.1785
 9485TIP3    H228389   5.685   6.346   2.431 -1.1513  0.9653  0.2985
 9486TIP3   OH228390   6.382   6.943   3.476  0.0752  0.4826 -0.1367
 9486TIP3    H128391   6.310   6.901   3.522 -0.2983  1.4777  0.1961
 9486TIP3    H228392   6.353   7.034   3.463  0.4524  0.3889 -1.7321
 9487TIP3   OH228393   2.330   0.496   2.763  0.5527 -0.4468 -0.6500
 9487TIP3    H128394   2.292   0.411   2.742  1.5647 -0.8863 -0.7053
 9487TIP3    H228395   2.419   0.492   2.729  1.0219  0.1670  0.4874
 9488TIP3   OH228396   5.101   7.568   3.027 -0.2613 -0.4348 -0.4900
 9488TIP3    H128397   5.165   7.598   3.091 -1.5619  1.6185 -0.1164
 9488TIP3    H228398   5.086   7.643   2.970 -2.2809 -0.8664 -0.5954
 9489TIP3   OH228399   5.258   7.833   5.097  0.0677 -0.3386 -0.1090
 9489TIP3    H128400   5.325   7.805   5.034 -0.0952  2.4338 -1.6119
 9489TIP3    H228401   5.189   7.768   5.089  1.1301 -1.3914 -0.9896
 9490TIP3   OH228402   7.010   6.571   0.135 -0.0496 -0.1784 -0.0490
 9490TIP3    H128403   6.981   6.604   0.220  0.5830 -1.7701  0.8079
 9490TIP3    H228404   7.085   6.626   0.112 -0.6797  0.7408  0.0539
 9491TIP3   OH228405   1.238   2.038   2.295 -0.1593 -0.2070 -0.1431
 9491TIP3    H128406   1.248   1.955   2.342 -0.6891 -1.0982 -1.5445
 9491TIP3    H228407   1.309   2.038   2.230  0.4634  0.9217  0.5340
 9492TIP3   OH228408   0.261   7.392   4.481  0.3139 -0.2457 -0.1102
 9492TIP3    H128409   0.345   7.363   4.515  1.4549  0.8916 -1.8661
 9492TIP3    H228410   0.242   7.331   4.409  0.0539  0.0014 -0.2522
 9493TIP3   OH228411   4.515   5.810   1.292  0.7184 -0.2062  0.0457
 9493TIP3    H128412   4.516   5.867   1.369  0.5268 -0.4172  0.2079
 9493TIP3    H228413   4.426   5.817   1.258  0.7946 -0.1372 -0.1395
 9494TIP3   OH228414   6.467   6.705   1.959 -0.4478  0.7914  0.1430
 9494TIP3    H128415   6.556   6.670   1.954 -0.3655  1.0559 -0.2277
 9494TIP3    H228416   6.411   6.627   1.963 -0.2281  0.6233 -0.0381
 9495TIP3   OH228417   7.174   7.557   2.413  0.2795  0.5349  0.6600
 9495TIP3    H128418   7.231   7.499   2.463  0.1727 -2.6120 -2.6754
 9495TIP3    H228419   7.087   7.542   2.449  0.1214 -2.1055 -0.6642
 9496TIP3   OH228420   0.101   6.111   4.291 -0.1915  0.1713  0.1032
 9496TIP3    H128421   0.099   6.059   4.211 -3.0753 -0.3981  0.4916
 9496TIP3    H228422   0.163   6.064   4.348 -0.1805 -0.9202 -0.7869
 9497TIP3   OH228423   8.435   0.884   2.101  0.0732  0.3737 -0.2370
 9497TIP3    H128424   8.430   0.873   2.196 -0.2956  0.0717 -0.2925
 9497TIP3    H228425   8.411   0.798   2.066 -0.4691  0.6827 -0.6211
 9498TIP3   OH228426   1.092   5.464   5.031  0.2766 -0.1738  0.8323
 9498TIP3    H128427   1.122   5.483   5.120 -0.5630  1.3365  0.8176
 9498TIP3    H228428   1.003   5.499   5.028  0.5746  0.4865 -0.8344
 9499TIP3   OH228429   0.667   0.364   4.383 -0.3680 -0.4058  0.6092
 9499TIP3    H128430   0.575   0.366   4.408 -0.9503  0.8910 -1.5018
 9499TIP3    H228431   0.667   0.338   4.291  1.2885  0.7713  0.2467
 9500TIP3   OH228432   2.119   0.651   2.396  0.0574  0.0823 -0.4424
 9500TIP3    H128433   2.153   0.582   2.453  0.3421  0.0107 -0.6980
 9500TIP3    H228434   2.135   0.619   2.307 -0.1989  0.2847 -0.5616
 9501TIP3   OH228435   0.872   7.066   0.974 -0.0019 -0.3725 -0.0869
 9501TIP3    H128436   0.914   7.036   1.055  2.7581 -1.0087 -1.6814
 9501TIP3    H228437   0.810   7.133   1.002  1.4362 -0.0718  2.4980
 9502TIP3   OH228438   7.163   7.144   3.440 -0.1067  0.2737 -0.0365
 9502TIP3    H128439   7.226   7.075   3.421 -0.1362  0.3677 -0.4701
 9502TIP3    H228440   7.095   7.133   3.374  0.0013  0.8631 -0.2399
 9503TIP3   OH228441   0.014   7.967   3.743 -0.2840 -0.0867  0.8753
 9503TIP3    H128442   0.008   7.873   3.757  1.6572 -0.6847 -1.8585
 9503TIP3    H228443   0.036   8.002   3.830  0.2400 -2.2864  1.6801
 9504TIP3   OH228444   5.170   6.910   1.905 -0.0998  0.4872  0.3859
 9504TIP3    H128445   5.086   6.905   1.860 -1.0613 -1.2227  2.2773
 9504TIP3    H228446   5.171   6.833   1.963  1.7336  1.7660  2.1416
 9505TIP3   OH228447   1.103   0.483   2.410 -0.0379  0.5793 -0.1200
 9505TIP3    H128448   1.148   0.453   2.331  0.0151  0.2476  0.0360
 9505TIP3    H228449   1.010   0.477   2.388 -0.0870 -1.5832  0.5882
 9506TIP3   OH228450   5.344   7.617   0.767 -0.1651  0.0158  0.4616
 9506TIP3    H128451   5.403   7.674   0.718 -1.9750  0.2254 -1.5499
 9506TIP3    H228452   5.265   7.611   0.712 -2.3194  0.3362  3.4122
 9507TIP3   OH228453   6.687   5.938   1.614  0.3021  0.3298 -0.2411
 9507TIP3    H128454   6.667   6.029   1.635  1.5790  0.6635 -0.3930
 9507TIP3    H228455   6.675   5.891   1.697  0.7395  0.8346  0.1150
 9508TIP3   OH228456   2.264   0.892   2.278  0.3068 -0.7300  0.3213
 9508TIP3    H128457   2.359   0.906   2.288  0.0485  0.1669  1.6359
 9508TIP3    H228458   2.250   0.804   2.313  0.4633 -0.3383  1.3850
 9509TIP3   OH228459   6.038   6.045   1.434 -0.3407  0.0886 -0.0808
 9509TIP3    H128460   6.089   6.093   1.500 -0.3980  1.3357 -0.9277
 9509TIP3    H228461   6.032   5.956   1.469 -1.7692  1.1102  2.3995
 9510TIP3   OH228462   6.675   5.754   2.447 -0.2259 -0.5453  0.0839
 9510TIP3    H128463   6.752   5.700   2.429 -0.1352 -1.1688  2.2931
 9510TIP3    H228464   6.660   5.745   2.541 -1.3263  1.8095  0.1653
 9511TIP3   OH228465   8.350   0.755   4.882  0.0066 -0.1845  0.0759
 9511TIP3    H128466   8.360   0.696   4.956 -2.1237 -0.2595  0.3414
 9511TIP3    H228467   8.281   0.715   4.828  0.6010  0.5441 -1.2586
 9512TIP3   OH228468   7.854   7.634   3.056 -0.4119  0.5166 -0.2476
 9512TIP3    H128469   7.784   7.695   3.035  0.0329  0.2068 -2.7199
 9512TIP3    H228470   7.932   7.670   3.014  0.1934 -0.9108 -0.3866
 9513TIP3   OH228471   5.903   7.521   3.142  0.5143 -0.3833 -0.0119
 9513TIP3    H128472   5.967   7.476   3.087  1.1791  1.5335 -0.8435
 9513TIP3    H228473   5.847   7.569   3.080 -0.9862 -1.0935  0.7770
 9514TIP3   OH228474   2.024   0.856   3.179 -0.3558  0.0423  0.0987
 9514TIP3    H128475   1.977   0.811   3.249  0.5448  0.3902  0.9408
 9514TIP3    H228476   2.045   0.788   3.115 -2.5109 -0.0119 -0.5712
 9515TIP3   OH228477   5.515   5.478   3.955 -0.3828 -0.2623  0.2225
 9515TIP3    H128478   5.440   5.535   3.939 -1.4283 -0.9787  2.4554
 9515TIP3    H228479   5.477   5.393   3.975  1.0203 -0.5893  1.5785
 9516TIP3   OH228480   6.075   7.901   3.330  0.0291 -0.1602 -0.7496
 9516TIP3    H128481   6.100   7.963   3.261  0.2817  0.3348 -0.2162
 9516TIP3    H228482   6.146   7.837   3.331  1.6318  1.5707  1.1620
 9517TIP3   OH228483   1.885   0.765   3.432  0.6135 -0.0385 -0.3253
 9517TIP3    H128484   1.810   0.821   3.449  0.8079  0.6301 -1.6616
 9517TIP3    H228485   1.891   0.710   3.510 -0.8745  0.3299  0.0694
 9518TIP3   OH228486   4.267   0.483   4.407  0.1577 -0.4453 -0.1052
 9518TIP3    H128487   4.214   0.478   4.328 -0.6555 -2.8069  0.5368
 9518TIP3    H228488   4.357   0.494   4.375 -0.2772 -0.4319 -1.3342
 9519TIP3   OH228489   8.326   0.648   4.395 -0.3929 -0.2856 -0.0886
 9519TIP3    H128490   8.381   0.612   4.465 -0.5028 -0.5758 -0.1522
 9519TIP3    H228491   8.279   0.721   4.436 -1.3369 -1.1899  0.4494
 9520TIP3   OH228492   7.847   7.854   2.871  0.2024  0.1429 -0.1402
 9520TIP3    H128493   7.807   7.926   2.919  0.0793  1.0383 -1.5492
 9520TIP3    H228494   7.932   7.888   2.843 -0.1428  0.0139 -1.4052
 9521TIP3   OH228495   2.442   0.571   2.418 -0.0273  0.4276 -0.0809
 9521TIP3    H128496   2.444   0.655   2.464 -1.0505  0.8904 -0.8412
 9521TIP3    H228497   2.502   0.515   2.466  0.5381  1.5521  0.5354
 9522TIP3   OH228498   6.694   7.506   3.918 -0.6231  0.2102 -0.1568
 9522TIP3    H128499   6.721   7.597   3.902 -0.7930  0.4153  0.7418
 9522TIP3    H228500   6.736   7.457   3.847  1.4142  0.6537  0.6867
 9523TIP3   OH228501   4.539   5.704   4.578 -0.6145 -0.2248 -0.2048
 9523TIP3    H128502   4.625   5.746   4.575 -0.4554 -0.3090  2.0106
 9523TIP3    H228503   4.523   5.673   4.489  1.8304 -0.5446 -0.5473
 9524TIP3   OH228504   7.579   7.802   3.037  0.5107 -0.0331 -0.1342
 9524TIP3    H128505   7.537   7.846   2.963 -0.4026  0.1296  0.4791
 9524TIP3    H228506   7.507   7.775   3.093  1.2603  0.7869  1.2353
 9525TIP3   OH228507   0.562   6.535   2.054  0.5722 -0.3918 -0.1693
 9525TIP3    H128508   0.535   6.586   2.131  0.0643 -0.0124 -0.5891
 9525TIP3    H228509   0.650   6.505   2.075 -0.5195 -2.4871  1.6639
 9526TIP3   OH228510   6.467   1.254   1.386 -0.5015  0.2244  0.3237
 9526TIP3    H128511   6.474   1.300   1.303 -0.9658 -0.6103 -0.1819
 9526TIP3    H228512   6.544   1.196   1.389 -1.0900 -0.5804 -0.0453
 9527TIP3   OH228513   6.445   7.637   2.000  1.0053 -0.4509  0.1345
 9527TIP3    H128514   6.518   7.590   1.960  1.6750 -1.0235  1.9771
 9527TIP3    H228515   6.453   7.727   1.967  1.7144 -0.8384 -0.7652
 9528TIP3   OH228516   5.955   7.091   2.328 -0.1150  0.0437 -0.2137
 9528TIP3    H128517   5.967   7.164   2.389 -0.4865 -0.3820  0.3819
 9528TIP3    H228518   6.044   7.072   2.296  0.4782 -1.3272  2.1017
 9529TIP3   OH228519   4.847   7.611   2.611  0.0258  0.1082  0.4706
 9529TIP3    H128520   4.752   7.616   2.601  0.0937 -1.2573 -1.2204
 9529TIP3    H228521   4.882   7.638   2.526  1.1883  1.1528  1.2530
 9530TIP3   OH228522   4.280   5.613   1.103 -1.0002 -0.2676  0.2224
 9530TIP3    H128523   4.285   5.694   1.153  0.9791 -0.2063 -0.0419
 9530TIP3    H228524   4.287   5.641   1.012 -0.8023 -0.6998  0.1055
 9531TIP3   OH228525   7.036   7.505   2.056 -0.2484 -0.1258  0.5199
 9531TIP3    H128526   7.081   7.474   1.977  0.1254 -0.2798  0.7909
 9531TIP3    H228527   7.023   7.598   2.041  0.2307 -0.0646  0.4719
 9532TIP3   OH228528   6.993   7.332   3.941 -0.4239 -0.0249  0.1238
 9532TIP3    H128529   7.022   7.314   3.852 -0.3442  1.1296 -0.0970
 9532TIP3    H228530   6.899   7.318   3.939 -0.3443 -0.5405 -0.0024
 9533TIP3   OH228531   8.019   0.865   4.310  0.0855 -0.5201  0.0523
 9533TIP3    H128532   7.977   0.939   4.355  0.6085  1.6849 -2.9444
 9533TIP3    H228533   8.099   0.850   4.360 -0.2646  0.6184  1.0045
 9534TIP3   OH228534   4.134   5.674   2.732 -0.6237 -0.3159  0.0566
 9534TIP3    H128535   4.103   5.700   2.645 -1.0497  0.3673  0.4050
 9534TIP3    H228536   4.055   5.674   2.786  0.0526  2.0716  1.1108
 9535TIP3   OH228537   7.792   4.638   3.931 -0.3796 -0.0362  0.1554
 9535TIP3    H128538   7.819   4.722   3.970  1.5493 -0.2621 -0.6240
 9535TIP3    H228539   7.761   4.662   3.843 -2.1856  0.1423  0.8182
 9536TIP3   OH228540   6.648   5.730   4.640 -0.5923  0.3190 -0.8654
 9536TIP3    H128541   6.720   5.784   4.672  0.0498 -0.2206 -1.3827
 9536TIP3    H228542   6.635   5.757   4.549 -0.3742 -0.2724 -1.0789
 9537TIP3   OH228543   4.145   7.625   2.482  0.2715 -0.1728 -0.5079
 9537TIP3    H128544   4.102   7.709   2.499 -0.9030 -0.8487 -0.1021
 9537TIP3    H228545   4.181   7.634   2.393  1.6793  1.3800  0.1984
 9538TIP3   OH228546   5.709   7.779   4.358 -0.2599 -0.5779 -0.3356
 9538TIP3    H128547   5.800   7.788   4.389 -0.1104 -0.1537 -0.8897
 9538TIP3    H228548   5.718   7.750   4.267 -0.6281  1.9919 -1.2265
 9539TIP3   OH228549   7.259   6.544   1.078 -0.1426 -0.2324  0.1494
 9539TIP3    H128550   7.262   6.575   1.169  0.8032 -0.4298  0.1917
 9539TIP3    H228551   7.203   6.608   1.033 -1.2522 -0.5635  1.0220
 9540TIP3   OH228552   5.897   5.056   2.124 -0.1473  0.3335 -0.7718
 9540TIP3    H128553   5.866   4.974   2.164  0.0640 -0.5854 -2.4227
 9540TIP3    H228554   5.847   5.125   2.168  0.3419 -0.5846  1.3233
 9541TIP3   OH228555   5.390   5.431   0.107  0.1580  0.4410 -0.1893
 9541TIP3    H128556   5.346   5.397   0.029  0.3781  2.3045 -1.1664
 9541TIP3    H228557   5.481   5.443   0.080  0.3126  0.7502  0.4654
 9542TIP3   OH228558   3.023   1.309   5.890  0.3155  0.0781 -0.2020
 9542TIP3    H128559   3.097   1.326   5.948  1.2414  0.4693 -1.4691
 9542TIP3    H228560   2.971   1.389   5.894  0.2030 -0.0146  0.3151
 9543TIP3   OH228561   3.606   2.754   5.280 -0.2539  0.6882 -0.0081
 9543TIP3    H128562   3.581   2.839   5.245 -0.8042  0.4935 -0.1018
 9543TIP3    H228563   3.539   2.734   5.345 -0.0091  0.4219  0.1672
 9544TIP3   OH228564   6.338   4.999   0.707  0.3519 -0.3786  0.5230
 9544TIP3    H128565   6.389   4.991   0.788  0.3554  0.8615  0.6535
 9544TIP3    H228566   6.334   5.093   0.691  1.4410 -0.6725 -1.6155
 9545TIP3   OH228567   0.341   1.509   5.294 -0.0466  0.1957 -0.0560
 9545TIP3    H128568   0.306   1.510   5.204  0.1358 -1.8935 -0.1879
 9545TIP3    H228569   0.435   1.523   5.283 -0.1976  1.1741 -0.0927
 9546TIP3   OH228570   4.439   2.455   6.495  0.3747 -0.0340  0.1397
 9546TIP3    H128571   4.427   2.523   6.428  0.9895 -1.1554 -1.1262
 9546TIP3    H228572   4.353   2.449   6.538 -0.2328  0.2001 -1.0150
 9547TIP3   OH228573   2.520   2.163   4.830 -0.1736  0.0428  0.1539
 9547TIP3    H128574   2.444   2.124   4.874  0.1569  0.5946  1.2554
 9547TIP3    H228575   2.495   2.168   4.738 -1.2578 -0.2970  0.4173
 9548TIP3   OH228576   3.753   1.542   4.963  0.0505 -0.0237 -0.0927
 9548TIP3    H128577   3.677   1.574   4.913  0.9445 -1.8491 -2.7521
 9548TIP3    H228578   3.727   1.455   4.992  0.1017  0.4567  1.4231
 9549TIP3   OH228579   2.434   0.745   5.465 -0.5451 -0.3023 -0.2121
 9549TIP3    H128580   2.438   0.649   5.458  0.3924 -0.2187 -0.9942
 9549TIP3    H228581   2.365   0.770   5.404 -2.5778 -0.6577  1.9047
 9550TIP3   OH228582   2.502   3.539   6.086  0.8122 -0.5320 -0.0117
 9550TIP3    H128583   2.533   3.620   6.128  0.5973 -0.4723  0.0345
 9550TIP3    H228584   2.447   3.498   6.153  0.4132 -0.4021 -0.2565
 9551TIP3   OH228585   0.427   3.051   6.855 -0.5305 -0.1720 -0.0233
 9551TIP3    H128586   0.334   3.028   6.861 -0.7820  0.9189  0.3009
 9551TIP3    H228587   0.453   3.066   6.945  0.6256 -2.9974  0.1564
 9552TIP3   OH228588   0.681   0.791   6.539 -0.0800 -0.0691  0.6112
 9552TIP3    H128589   0.749   0.770   6.604 -0.1111 -0.6263  0.4671
 9552TIP3    H228590   0.630   0.861   6.579 -0.0470 -0.3539  1.1545
 9553TIP3   OH228591   4.259   2.067   6.374 -0.6841  0.0276 -0.0705
 9553TIP3    H128592   4.348   2.044   6.350 -0.9428 -0.7309 -0.3371
 9553TIP3    H228593   4.210   1.985   6.364 -1.4551  0.4954 -0.1757
 9554TIP3   OH228594   5.727   5.911   0.513  0.0925  0.1015 -0.1571
 9554TIP3    H128595   5.762   5.900   0.602  0.4596 -2.0319 -0.5306
 9554TIP3    H228596   5.755   5.832   0.467  0.0306  1.2708 -2.2261
 9555TIP3   OH228597   0.933   2.141   5.893  0.0215  0.0804 -0.2288
 9555TIP3    H128598   1.004   2.126   5.955 -1.1820  3.0750  1.9713
 9555TIP3    H228599   0.858   2.097   5.932 -1.4579  4.4292  2.0161
 9556TIP3   OH228600   2.445   3.472   6.353 -0.0972 -0.2713  0.0130
 9556TIP3    H128601   2.539   3.456   6.352  0.1831  1.1935  0.9894
 9556TIP3    H228602   2.407   3.387   6.376  1.0749 -0.5443  1.0340
 9557TIP3   OH228603   3.509   2.329   6.870 -0.0446 -0.4123 -0.0078
 9557TIP3    H128604   3.544   2.259   6.925  0.1488 -1.9317 -2.0360
 9557TIP3    H228605   3.415   2.310   6.863  0.1344 -0.8783 -1.1553
 9558TIP3   OH228606   4.193   7.409   1.038  0.5909 -0.5234  0.0690
 9558TIP3    H128607   4.111   7.412   0.989  0.8343  0.6939 -0.3082
 9558TIP3    H228608   4.255   7.369   0.978  1.5618  3.4650 -1.7450
 9559TIP3   OH228609   4.179   6.616   2.320 -0.1923  0.3139  0.3961
 9559TIP3    H128610   4.262   6.648   2.283  0.1432 -0.5519  0.3881
 9559TIP3    H228611   4.151   6.684   2.380 -0.8326  1.8579 -1.5730
 9560TIP3   OH228612   3.522   1.598   4.814  0.1549  0.6022 -0.4042
 9560TIP3    H128613   3.436   1.639   4.822 -0.3985 -0.6599  0.3659
 9560TIP3    H228614   3.517   1.548   4.732 -0.9989 -2.0177  1.1863
 9561TIP3   OH228615   3.490   1.455   6.522  0.1094  0.8246 -0.2088
 9561TIP3    H128616   3.482   1.360   6.518 -0.2823  0.9004 -2.1853
 9561TIP3    H228617   3.568   1.475   6.470  0.9343  1.5136  1.2592
 9562TIP3   OH228618   4.349   2.352   5.684  0.0969 -0.1183  0.3338
 9562TIP3    H128619   4.320   2.384   5.598  0.5417  0.6497  0.4625
 9562TIP3    H228620   4.308   2.266   5.693 -0.8886  0.2976 -0.1527
 9563TIP3   OH228621   5.419   5.176   0.220  0.3908  0.1085  0.2083
 9563TIP3    H128622   5.473   5.133   0.154 -0.5775 -1.1009  0.1847
 9563TIP3    H228623   5.389   5.256   0.177  0.9004  0.0250 -0.3163
 9564TIP3   OH228624   6.867   5.462   1.817 -0.0944  0.3500 -0.5550
 9564TIP3    H128625   6.906   5.538   1.859  1.6671 -0.7274 -0.2014
 9564TIP3    H228626   6.941   5.406   1.793 -1.4574 -2.4613  1.5089
 9565TIP3   OH228627   2.523   2.617   5.488  0.1647  0.8319  0.1772
 9565TIP3    H128628   2.506   2.576   5.572 -0.0415 -1.3030 -0.8583
 9565TIP3    H228629   2.513   2.710   5.503 -0.3622  0.4269  2.3909
 9566TIP3   OH228630   3.492   1.180   6.560  0.0798 -0.2314  0.4287
 9566TIP3    H128631   3.404   1.161   6.595  0.0626  0.2785  0.6545
 9566TIP3    H228632   3.517   1.098   6.516 -1.5874  0.4263 -1.8881
 9567TIP3   OH228633   4.147   5.556   0.588  0.0062  0.4027 -0.5523
 9567TIP3    H128634   4.220   5.503   0.556  0.4249  1.3416 -1.1666
 9567TIP3    H228635   4.105   5.502   0.655  1.6476  0.1083  0.2513
 9568TIP3   OH228636   6.707   4.497   0.698  0.1805 -0.1643  0.0125
 9568TIP3    H128637   6.616   4.525   0.702  0.8451  2.0474  1.2275
 9568TIP3    H228638   6.746   4.552   0.630  1.0148  0.2784  0.8302
 9569TIP3   OH228639   4.471   5.008   1.747  0.3424 -0.2417 -0.1379
 9569TIP3    H128640   4.496   4.965   1.829  2.3805 -1.2278 -1.2436
 9569TIP3    H228641   4.524   4.964   1.680 -2.8332 -0.9722 -2.3059
 9570TIP3   OH228642   4.993   3.531   0.720  0.0568  0.8729 -0.3906
 9570TIP3    H128643   5.006   3.615   0.675 -1.2552  0.8387 -0.8429
 9570TIP3    H228644   4.902   3.507   0.701  1.2928 -2.1629 -2.7496
 9571TIP3   OH228645   4.595   5.248   1.091  0.6460  0.2865 -0.7412
 9571TIP3    H128646   4.566   5.158   1.110 -0.8577  0.9015 -0.0670
 9571TIP3    H228647   4.560   5.267   1.004 -0.5557  0.8496 -0.1382
 9572TIP3   OH228648   6.173   4.916   1.795  0.0128  0.1451  0.5991
 9572TIP3    H128649   6.139   5.003   1.773 -1.0095 -0.1511  0.9572
 9572TIP3    H228650   6.198   4.878   1.711  0.4177  0.7574  0.4339
 9573TIP3   OH228651   5.557   4.925   0.831 -0.3325  0.3105 -0.1218
 9573TIP3    H128652   5.591   4.836   0.832  2.3468  1.2650  1.5931
 9573TIP3    H228653   5.494   4.928   0.903 -0.6310 -0.2545 -0.3607
 9574TIP3   OH228654   2.842   7.138   1.917  0.6809  0.5642 -0.0457
 9574TIP3    H128655   2.751   7.139   1.887  0.7997  0.8990 -0.3920
 9574TIP3    H228656   2.841   7.079   1.992  0.3605 -0.1822 -0.6319
 9575TIP3   OH228657   4.043   3.031   6.405 -0.1398  0.3120 -0.0385
 9575TIP3    H128658   4.044   3.041   6.310 -0.7390  0.9679  0.0226
 9575TIP3    H228659   4.023   2.939   6.419  0.9972 -0.0215 -0.5624
 9576TIP3   OH228660   4.946   2.398   5.648  0.0334 -0.5004 -0.2749
 9576TIP3    H128661   4.998   2.383   5.727 -1.0190 -0.4228  0.4342
 9576TIP3    H228662   4.903   2.314   5.632  2.5390 -1.4540 -2.4845
 9577TIP3   OH228663   4.697   5.779   0.807 -0.1593 -0.4690 -0.0182
 9577TIP3    H128664   4.609   5.799   0.840 -0.1133 -1.0193  0.4507
 9577TIP3    H228665   4.694   5.802   0.714 -0.2431  1.3014  0.4007
 9578TIP3   OH228666   5.107   1.532   0.351  0.4470 -0.0875  0.3598
 9578TIP3    H128667   5.202   1.531   0.343  0.3335 -2.4822 -0.9867
 9578TIP3    H228668   5.077   1.454   0.304 -2.3909  2.0740 -1.6387
 9579TIP3   OH228669   5.241   5.183   0.667  0.1846 -0.4641 -0.3156
 9579TIP3    H128670   5.156   5.198   0.626 -1.0045 -2.3986  1.3069
 9579TIP3    H228671   5.300   5.162   0.595  0.0389  3.7296 -1.7720
 9580TIP3   OH228672   6.049   6.850   0.092 -0.2889  0.4694 -0.4783
 9580TIP3    H128673   6.021   6.856   0.001 -0.6929 -0.8192 -0.4517
 9580TIP3    H228674   6.049   6.756   0.111 -2.5570  0.8341  1.5740
 9581TIP3   OH228675   0.248   4.926   2.306 -0.3298  0.0820 -0.1431
 9581TIP3    H128676   0.184   4.898   2.371  0.9143 -0.6877  0.7920
 9581TIP3    H228677   0.255   4.853   2.245  0.1644 -0.1363  0.1662
 9582TIP3   OH228678   7.707   3.421   0.396  0.4088  0.1391  0.8041
 9582TIP3    H128679   7.658   3.343   0.370 -0.6711  0.6501  1.2496
 9582TIP3    H228680   7.795   3.390   0.414 -0.0441 -1.0018  1.1083
 9583TIP3   OH228681   4.647   0.194   6.725  0.0335 -0.0806 -0.0133
 9583TIP3    H128682   4.622   0.259   6.791  0.6918  0.8014 -0.6285
 9583TIP3    H228683   4.580   0.202   6.657  1.7843  2.0860 -1.5263
 9584TIP3   OH228684   1.962   1.541   6.493  0.4221 -0.0481  0.4231
 9584TIP3    H128685   1.912   1.545   6.574 -0.6256  1.4079 -0.2737
 9584TIP3    H228686   1.921   1.605   6.436  2.1952  0.1529 -0.6782
 9585TIP3   OH228687   6.446   5.843   0.104 -0.6629  0.3399  0.1884
 9585TIP3    H128688   6.402   5.789   0.039 -0.0341 -0.5122  0.4731
 9585TIP3    H228689   6.390   5.837   0.182 -2.1627  2.4765 -0.6763
 9586TIP3   OH228690   7.743   2.754   2.381  0.3200 -0.3645 -0.7403
 9586TIP3    H128691   7.798   2.723   2.308  3.2867  0.5995  0.9916
 9586TIP3    H228692   7.749   2.684   2.446 -1.5333 -0.7798 -0.9852
 9587TIP3   OH228693   2.643   1.727   5.372 -0.2907  0.3124 -0.3051
 9587TIP3    H128694   2.715   1.722   5.435  1.3117  0.9131 -2.0473
 9587TIP3    H228695   2.570   1.762   5.422  0.2909 -1.3402  1.7791
 9588TIP3   OH228696   8.217   6.234   1.549 -0.2311  0.1265  0.2110
 9588TIP3    H128697   8.163   6.289   1.606 -1.8060 -1.7163  0.5086
 9588TIP3    H228698   8.307   6.253   1.578 -0.8086  1.6042  1.1358
 9589TIP3   OH228699   6.797   5.706   0.343  0.2830 -0.3315  0.2040
 9589TIP3    H128700   6.814   5.786   0.292 -0.3996 -0.1869  0.1889
 9589TIP3    H228701   6.760   5.645   0.279  1.5174 -0.9339  0.0500
 9590TIP3   OH228702   3.303   0.174   6.657  0.0474  0.0950 -0.7679
 9590TIP3    H128703   3.334   0.083   6.653 -0.5045 -0.0882 -0.9368
 9590TIP3    H228704   3.338   0.215   6.579 -0.6131 -0.2647 -1.2576
 9591TIP3   OH228705   3.894   2.328   6.225  0.6840  0.6721  0.4647
 9591TIP3    H128706   3.965   2.336   6.289  1.6263  0.3686 -0.5376
 9591TIP3    H228707   3.931   2.275   6.154 -0.6570  0.2040  0.0975
 9592TIP3   OH228708   5.607   2.027   4.986  0.5411  0.0002 -0.7213
 9592TIP3    H128709   5.540   1.991   5.044  0.5209  0.2104 -0.6140
 9592TIP3    H228710   5.653   2.092   5.039  0.7989 -0.1082 -0.8103
 9593TIP3   OH228711   7.877   4.369   1.786  0.1621 -0.6382  0.0182
 9593TIP3    H128712   7.830   4.442   1.828  0.0578  0.2363 -1.5705
 9593TIP3    H228713   7.824   4.347   1.709  2.7528  0.9640 -2.3271
 9594TIP3   OH228714   2.739   0.533   6.859 -0.1379 -0.4450 -0.6194
 9594TIP3    H128715   2.818   0.481   6.841  1.3467  1.5283  0.0484
 9594TIP3    H228716   2.714   0.508   6.948  0.3810 -0.2542 -0.4183
 9595TIP3   OH228717   3.049   7.661   6.839 -0.0701  0.5365 -0.1691
 9595TIP3    H128718   3.030   7.733   6.899 -0.3051  0.7414 -0.4891
 9595TIP3    H228719   2.965   7.643   6.796  0.6122  1.8787 -2.0800
 9596TIP3   OH228720   1.797   1.479   4.412  0.0981  0.1273  0.7251
 9596TIP3    H128721   1.791   1.575   4.416  0.1008  0.1433  0.2867
 9596TIP3    H228722   1.706   1.450   4.405  0.2030  0.1674 -0.8565
 9597TIP3   OH228723   5.122   5.688   0.186 -0.4294 -0.3334 -0.1849
 9597TIP3    H128724   5.069   5.636   0.125 -2.2797 -0.8459  1.8040
 9597TIP3    H228725   5.138   5.629   0.260 -1.5541  1.5212  1.5890
 9598TIP3   OH228726   8.300   7.207   2.817 -0.0115  0.3534 -0.5533
 9598TIP3    H128727   8.357   7.141   2.856 -1.1447 -0.6267 -0.5334
 9598TIP3    H228728   8.307   7.282   2.877 -0.2700 -0.4598  0.5223
 9599TIP3   OH228729   2.619   1.650   5.775  0.5325  0.2510  0.0429
 9599TIP3    H128730   2.525   1.656   5.792  0.6585  1.3411  0.3516
 9599TIP3    H228731   2.631   1.561   5.739 -0.6125  0.1255 -0.0465
 9600TIP3   OH228732   0.029   5.324   0.413 -0.4346 -0.6513 -0.5526
 9600TIP3    H128733   0.014   5.246   0.467 -0.9222 -0.9572 -1.1189
 9600TIP3    H228734   0.121   5.346   0.427 -0.3323 -1.2413 -0.2721
 9601TIP3   OH228735   0.683   7.382   5.347 -0.2668  0.5655 -0.1000
 9601TIP3    H128736   0.740   7.431   5.406 -0.5456 -0.1478  0.7721
 9601TIP3    H228737   0.737   7.307   5.320 -0.5133  0.3243  0.0840
 9602TIP3   OH228738   7.092   6.089   0.709 -0.2238 -0.1849  0.1417
 9602TIP3    H128739   7.155   6.049   0.649 -1.1329 -0.8967 -0.3608
 9602TIP3    H228740   7.142   6.107   0.788  0.8122  0.0476 -0.5583
 9603TIP3   OH228741   0.095   4.979   1.672  0.1336 -0.1086 -0.2483
 9603TIP3    H128742   0.046   5.033   1.734  0.4389 -1.0109  0.7959
 9603TIP3    H228743   0.129   5.041   1.608 -2.3519  0.5456 -1.0073
 9604TIP3   OH228744   6.133   4.568   0.558  0.1944  0.0530  0.0947
 9604TIP3    H128745   6.056   4.625   0.552  0.1388 -0.1960 -1.8873
 9604TIP3    H228746   6.106   4.488   0.513  1.9930  0.4020 -1.6547
 9605TIP3   OH228747   6.656   4.583   0.295 -0.0658  0.9583  0.1440
 9605TIP3    H128748   6.612   4.513   0.345 -1.5184  1.7627  0.0172
 9605TIP3    H228749   6.740   4.594   0.339  1.5851 -3.0344 -1.6994
 9606TIP3   OH228750   5.740   0.454   6.799  0.2281 -0.3656  0.3907
 9606TIP3    H128751   5.808   0.402   6.755 -0.0495 -0.4299  0.0405
 9606TIP3    H228752   5.682   0.388   6.838  0.9527 -0.3087  1.5940
 9607TIP3   OH228753   4.766   0.698   6.125  0.3456  0.0833 -1.0510
 9607TIP3    H128754   4.688   0.746   6.096 -1.5152 -1.9235  0.4249
 9607TIP3    H228755   4.803   0.753   6.194 -0.7176  0.3183 -0.6422
 9608TIP3   OH228756   7.136   7.112   1.241 -0.0826 -0.1258 -0.0471
 9608TIP3    H128757   7.199   7.041   1.250 -0.4923 -0.4402  0.3507
 9608TIP3    H228758   7.064   7.075   1.189 -0.3846 -0.0608  0.3220
 9609TIP3   OH228759   5.409   4.195   0.614 -0.0333  0.3612  0.3268
 9609TIP3    H128760   5.357   4.263   0.572  0.6801  1.1036  0.6404
 9609TIP3    H228761   5.434   4.233   0.699  0.7654 -0.0982  0.3033
 9610TIP3   OH228762   7.722   6.950   0.087 -0.2693 -0.4798 -0.1568
 9610TIP3    H128763   7.670   7.029   0.072 -0.2190 -0.3741  0.2026
 9610TIP3    H228764   7.768   6.934   0.005  0.3052  0.3014  0.0115
 9611TIP3   OH228765   3.741   0.067   5.688  0.4673 -0.7522 -0.1618
 9611TIP3    H128766   3.704   0.125   5.754  0.9425  0.7098 -1.1519
 9611TIP3    H228767   3.676   0.067   5.617  1.0307 -0.4509 -0.6830
 9612TIP3   OH228768   3.699   0.689   5.973  0.1138  0.3027 -0.0879
 9612TIP3    H128769   3.752   0.718   5.899 -1.1001  1.7154 -0.4453
 9612TIP3    H228770   3.615   0.665   5.934 -0.5420  1.0665  0.8043
 9613TIP3   OH228771   7.940   6.245   2.313  0.1821  0.3884 -0.5389
 9613TIP3    H128772   7.855   6.274   2.280 -0.8197  0.2928  1.8876
 9613TIP3    H228773   7.944   6.152   2.290 -1.1525 -0.0308  0.9041
 9614TIP3   OH228774   2.768   2.053   6.207  0.6996  0.3360  0.0610
 9614TIP3    H128775   2.693   2.111   6.194 -0.4255 -0.8204  1.1554
 9614TIP3    H228776   2.738   1.968   6.175  1.0155 -0.4739  1.8809
 9615TIP3   OH228777   3.724   1.463   5.835  0.4182  0.0571 -0.1342
 9615TIP3    H128778   3.773   1.538   5.802  1.7811 -0.8640 -0.2356
 9615TIP3    H228779   3.757   1.388   5.785 -0.6211 -0.6787  0.2628
 9616TIP3   OH228780   7.910   4.292   1.227  0.0274  0.5568 -0.1741
 9616TIP3    H128781   7.862   4.265   1.149  0.2401 -0.2791 -0.0137
 9616TIP3    H228782   7.864   4.371   1.256 -1.5304 -0.4466  0.2022
 9617TIP3   OH228783   6.772   3.940   1.199 -0.2245  0.1143  0.2091
 9617TIP3    H128784   6.771   3.885   1.278 -0.9556 -0.0572  0.0871
 9617TIP3    H228785   6.741   3.883   1.129 -0.0086  0.3942 -0.1154
 9618TIP3   OH228786   7.888   4.833   1.852  0.5682 -0.0292 -0.0328
 9618TIP3    H128787   7.815   4.885   1.817  0.1155 -1.4225 -1.2079
 9618TIP3    H228788   7.846   4.754   1.887  1.4634 -0.6130 -0.2741
 9619TIP3   OH228789   7.535   4.832   1.198 -0.1231  0.2273 -0.3782
 9619TIP3    H128790   7.499   4.789   1.120  1.7669  0.4274 -1.4031
 9619TIP3    H228791   7.598   4.895   1.163  0.2564  0.8027  1.2985
 9620TIP3   OH228792   4.124   1.799   6.409  0.1906  0.2157 -0.0711
 9620TIP3    H128793   4.042   1.793   6.359  0.5631  1.0789 -0.8025
 9620TIP3    H228794   4.109   1.743   6.486 -1.4300  1.0501  0.2641
 9621TIP3   OH228795   6.081   3.562   2.765 -0.3119  0.1597 -0.6785
 9621TIP3    H128796   6.152   3.597   2.819  0.0399 -0.7422 -0.5470
 9621TIP3    H228797   6.125   3.519   2.692 -0.7006 -1.0461 -0.2074
 9622TIP3   OH228798   3.100   2.897   6.238 -0.1167  0.1204 -0.2925
 9622TIP3    H128799   3.068   2.807   6.231  1.2492 -0.4423  0.3358
 9622TIP3    H228800   3.184   2.897   6.191 -0.3467  1.1989 -0.7270
 9623TIP3   OH228801   2.990   1.254   6.825  0.3381 -0.1372 -0.1935
 9623TIP3    H128802   2.949   1.285   6.744  0.1172  1.0641  0.3742
 9623TIP3    H228803   3.084   1.270   6.812  0.4166 -0.9036 -0.6211
 9624TIP3   OH228804   5.820   4.546   0.987  0.0796 -0.6316 -0.3698
 9624TIP3    H128805   5.894   4.516   0.933 -0.2043 -1.1100 -0.4905
 9624TIP3    H228806   5.756   4.577   0.923 -0.1946 -1.0553 -0.3008
 9625TIP3   OH228807   2.515   6.791   6.745  0.0774  0.1512 -0.1329
 9625TIP3    H128808   2.467   6.712   6.769  1.2682 -0.3280  0.7383
 9625TIP3    H228809   2.508   6.795   6.650 -1.0638 -0.3105 -0.0717
 9626TIP3   OH228810   4.053   0.708   6.312  0.2066  0.1165  0.3035
 9626TIP3    H128811   4.051   0.654   6.391 -0.7519  0.8810  0.8110
 9626TIP3    H228812   3.998   0.661   6.250 -2.1522  1.4142  1.3589
 9627TIP3   OH228813   7.588   4.278   1.897  0.5286 -0.1965  0.8414
 9627TIP3    H128814   7.658   4.216   1.915 -0.2999 -0.2792  4.2425
 9627TIP3    H228815   7.509   4.235   1.931 -0.6926  1.1066 -0.2706
 9628TIP3   OH228816   4.876   0.827   6.496 -0.1138 -0.2472 -0.1073
 9628TIP3    H128817   4.962   0.868   6.507 -0.7506  0.5511  2.0656
 9628TIP3    H228818   4.895   0.734   6.485  1.0475 -0.0454  0.1158
 9629TIP3   OH228819   6.233   0.321   5.591  0.1646 -0.6730 -0.6239
 9629TIP3    H128820   6.284   0.243   5.570 -1.3614 -1.6032 -0.9672
 9629TIP3    H228821   6.162   0.322   5.527  0.6145  1.4645 -1.1491
 9630TIP3   OH228822   6.926   4.503   1.073 -0.0832 -0.2473  0.9705
 9630TIP3    H128823   6.925   4.442   1.000  2.0167  0.5139  0.2762
 9630TIP3    H228824   6.913   4.589   1.033  1.7336  0.2460  1.3993
 9631TIP3   OH228825   6.262   4.903   0.133  0.2327  0.0222 -0.5454
 9631TIP3    H128826   6.328   4.898   0.203 -0.3636 -0.1909  0.0060
 9631TIP3    H228827   6.280   4.827   0.078 -0.3243 -0.7289  0.2976
 9632TIP3   OH228828   3.198   0.794   5.955  0.0855 -0.5041  0.3499
 9632TIP3    H128829   3.162   0.761   5.872  0.4540 -1.1585  0.4476
 9632TIP3    H228830   3.150   0.875   5.971 -1.4387 -1.4291  0.5367
 9633TIP3   OH228831   7.550   4.668   0.702  0.3370 -0.9760  0.6297
 9633TIP3    H128832   7.608   4.675   0.626 -1.3062 -1.3985 -0.7110
 9633TIP3    H228833   7.513   4.579   0.695  0.9006 -1.3820  2.4839
 9634TIP3   OH228834   0.734   8.030   6.790  0.3747  0.3364 -0.3307
 9634TIP3    H128835   0.792   7.962   6.824  0.0294 -0.1456 -0.6903
 9634TIP3    H228836   0.661   8.033   6.852  1.2144  1.5746  0.6159
 9635TIP3   OH228837   6.263   5.543   0.356 -0.4438  0.0186 -0.2989
 9635TIP3    H128838   6.203   5.605   0.399  0.1659  0.5033 -0.1285
 9635TIP3    H228839   6.239   5.547   0.264 -1.2445 -0.4343 -0.1125
 9636TIP3   OH228840   2.896   0.920   6.210 -0.1256 -0.5804 -0.0466
 9636TIP3    H128841   2.973   0.935   6.155  0.2693 -0.1657  0.6027
 9636TIP3    H228842   2.833   0.986   6.181  0.0942 -0.3405  0.0187
 9637TIP3   OH228843   4.277   0.305   6.323  0.0440  0.2511 -0.2827
 9637TIP3    H128844   4.207   0.353   6.279  0.0649 -0.5838 -1.2511
 9637TIP3    H228845   4.341   0.287   6.253  0.5926 -0.1344  0.3158
 9638TIP3   OH228846   5.112   1.665   5.829 -0.0430  0.1584 -0.1399
 9638TIP3    H128847   5.197   1.710   5.830  0.1429 -0.1682 -1.0090
 9638TIP3    H228848   5.072   1.691   5.746 -1.3985  1.4217  0.8896
 9639TIP3   OH228849   1.039   3.877   3.043 -0.3212 -0.5149 -0.1685
 9639TIP3    H128850   1.013   3.792   3.007 -0.3444 -0.0622 -1.2554
 9639TIP3    H228851   0.957   3.927   3.048 -0.6775 -1.2787  2.5586
 9640TIP3   OH228852   2.853   1.208   5.674  0.0039  0.3104  0.1489
 9640TIP3    H128853   2.920   1.223   5.740 -0.0172 -0.5780  0.3759
 9640TIP3    H228854   2.892   1.146   5.613 -0.9662 -0.9928  0.8340
 9641TIP3   OH228855   5.539   0.311   6.515  0.0805  0.7423  1.0897
 9641TIP3    H128856   5.617   0.262   6.542  0.1440  0.9301  1.2486
 9641TIP3    H228857   5.573   0.378   6.455 -0.4989 -1.9813 -2.3866
 9642TIP3   OH228858   2.229   5.438   5.233  0.2808 -0.1691  0.3296
 9642TIP3    H128859   2.170   5.439   5.308  1.1274  0.4778  0.9895
 9642TIP3    H228860   2.311   5.472   5.266  1.2366 -1.6637 -0.4300
 9643TIP3   OH228861   7.483   5.241   1.180  0.0076 -0.0760  0.2085
 9643TIP3    H128862   7.557   5.232   1.240 -1.3113  1.1646  2.0675
 9643TIP3    H228863   7.480   5.334   1.157  0.2238 -0.4586 -1.4404
 9644TIP3   OH228864   2.687   2.459   6.770  0.1097 -0.4736 -0.3486
 9644TIP3    H128865   2.688   2.386   6.831  1.7913 -1.2563 -1.2973
 9644TIP3    H228866   2.594   2.483   6.763 -0.6620 -3.4877 -1.1814
 9645TIP3   OH228867   3.478   1.157   6.906  0.4879 -0.2254  0.0324
 9645TIP3    H128868   3.564   1.159   6.949 -0.1636  1.7670  1.3198
 9645TIP3    H228869   3.462   1.064   6.889  1.5855 -0.9063  2.4631
 9646TIP3   OH228870   6.713   3.506   0.234 -0.1777 -0.0180  0.3198
 9646TIP3    H128871   6.723   3.572   0.302 -1.4840  2.1697 -1.5384
 9646TIP3    H228872   6.619   3.489   0.231  0.1665 -2.1579  0.9308
 9647TIP3   OH228873   1.437   4.214   1.226  0.4118  0.0435 -0.0421
 9647TIP3    H128874   1.381   4.139   1.248  0.8610 -0.7389 -1.5229
 9647TIP3    H228875   1.402   4.246   1.143  0.2533  1.4567  0.5680
 9648TIP3   OH228876   3.545   1.840   5.859 -0.7071  0.1981 -0.1711
 9648TIP3    H128877   3.604   1.880   5.795 -0.8408  0.9622  0.1747
 9648TIP3    H228878   3.594   1.766   5.894  0.2394  1.1166  0.4666
 9649TIP3   OH228879   1.872   3.088   4.674 -0.1121  0.1627  0.3876
 9649TIP3    H128880   1.806   3.157   4.671  0.7988  1.0087 -0.2511
 9649TIP3    H228881   1.836   3.018   4.620 -0.7151  0.4209  0.4485
 9650TIP3   OH228882   2.968   7.919   6.661  0.1883  0.0222 -0.3455
 9650TIP3    H128883   3.002   7.944   6.747 -0.2335 -0.7693  0.0567
 9650TIP3    H228884   2.916   7.840   6.677  0.6603 -0.5305 -1.4246
 9651TIP3   OH228885   3.847   1.818   6.092  0.6601  0.1196  0.4142
 9651TIP3    H128886   3.802   1.894   6.130  0.3454 -0.5237  1.3183
 9651TIP3    H228887   3.780   1.750   6.088  0.1431  0.7289 -3.0452
 9652TIP3   OH228888   5.935   4.720   0.172  0.2886 -0.2102 -0.4765
 9652TIP3    H128889   5.920   4.629   0.145 -0.2530 -0.3652  0.3262
 9652TIP3    H228890   6.022   4.719   0.212  0.0148 -0.5192  0.1243
 9653TIP3   OH228891   4.505   0.381   6.074 -0.1047 -0.5844  0.5113
 9653TIP3    H128892   4.545   0.328   6.005 -0.8434 -1.0483  0.4317
 9653TIP3    H228893   4.436   0.430   6.030 -0.0830 -0.3128  0.7768
 9654TIP3   OH228894   6.738   6.423   0.087 -0.0137  0.2112  0.4092
 9654TIP3    H128895   6.771   6.381   0.008  2.9772  2.3549  0.4169
 9654TIP3    H228896   6.804   6.490   0.108 -2.2884  1.7771  2.9467
 9655TIP3   OH228897   2.397   1.513   4.931 -0.3478 -0.1533 -0.4940
 9655TIP3    H128898   2.440   1.545   5.010 -1.5269  2.3055 -0.8112
 9655TIP3    H228899   2.329   1.453   4.963 -0.2196  0.1182  0.2919
 9656TIP3   OH228900   3.234   1.398   6.420  0.2092 -0.1786 -0.2044
 9656TIP3    H128901   3.312   1.444   6.452  0.4267 -1.7879  1.6577
 9656TIP3    H228902   3.266   1.313   6.391 -0.7314 -0.5047 -0.2984
 9657TIP3   OH228903   2.224   2.780   6.833 -0.7086  0.4197  0.0151
 9657TIP3    H128904   2.149   2.725   6.810 -2.1658  1.4586  2.0059
 9657TIP3    H228905   2.234   2.840   6.759 -0.2290 -1.3639 -1.3768
 9658TIP3   OH228906   6.782   7.305   0.112  0.0535  0.0014  0.3118
 9658TIP3    H128907   6.756   7.342   0.196  0.9650  1.7791 -0.1471
 9658TIP3    H228908   6.742   7.363   0.047  1.0227 -0.1380 -0.4361
 9659TIP3   OH228909   7.349   5.399   0.166  0.4835 -0.0067  0.1489
 9659TIP3    H128910   7.297   5.450   0.228 -0.4678  1.0343 -1.4795
 9659TIP3    H228911   7.397   5.337   0.221 -3.0081 -1.5217  1.6484
 9660TIP3   OH228912   7.250   6.164   3.208 -0.2311  0.1317 -0.2320
 9660TIP3    H128913   7.250   6.233   3.142 -1.2423 -0.7957 -1.2154
 9660TIP3    H228914   7.314   6.100   3.176  0.2469  0.3102  0.3587
 9661TIP3   OH228915   3.766   6.055   0.089 -0.1955 -0.0305 -0.8743
 9661TIP3    H128916   3.731   5.970   0.061 -0.5467 -0.9050  2.1230
 9661TIP3    H228917   3.689   6.107   0.111  0.1279  0.3285 -0.5927
 9662TIP3   OH228918   0.715   5.410   0.261  0.3866 -0.0329 -0.0393
 9662TIP3    H128919   0.735   5.504   0.267  0.4810 -0.1748  1.9838
 9662TIP3    H228920   0.752   5.384   0.177 -0.9127  2.0435 -1.3057
 9663TIP3   OH228921   1.750   4.121   6.515  0.0767  0.3665  0.4478
 9663TIP3    H128922   1.689   4.194   6.527 -0.0701  0.2297  0.5424
 9663TIP3    H228923   1.750   4.104   6.421  2.2750  2.3310  0.0582
 9664TIP3   OH228924   5.377   0.684   6.794 -0.9067  0.1265  0.0211
 9664TIP3    H128925   5.323   0.611   6.824  0.5156 -0.3256  1.6222
 9664TIP3    H228926   5.448   0.642   6.744 -0.2464  0.4094  0.7004
 9665TIP3   OH228927   4.252   2.377   5.421  0.2754  0.0303 -0.1777
 9665TIP3    H128928   4.295   2.292   5.409 -0.8025 -0.5217 -0.1317
 9665TIP3    H228929   4.163   2.364   5.390  0.1061  1.1565 -0.1851
 9666TIP3   OH228930   5.223   6.297   0.572  0.2822  0.7975  0.2634
 9666TIP3    H128931   5.318   6.292   0.584  0.1526 -0.1804  0.8737
 9666TIP3    H228932   5.192   6.208   0.586 -0.6808  1.0270 -0.3831
 9667TIP3   OH228933   2.664   1.043   6.920 -0.1693  0.1447  0.0748
 9667TIP3    H128934   2.625   0.958   6.900  0.7059 -0.0280 -0.9098
 9667TIP3    H228935   2.611   1.106   6.870  0.4824 -0.0419 -0.8715
 9668TIP3   OH228936   8.289   5.523   0.477  0.3599  0.6373 -0.4439
 9668TIP3    H128937   8.373   5.485   0.450  0.5309  0.7711 -0.1109
 9668TIP3    H228938   8.254   5.563   0.398  0.1580 -0.2502 -0.8133
 9669TIP3   OH228939   6.627   4.831   0.145  0.3066  0.0569  0.2504
 9669TIP3    H128940   6.682   4.865   0.215 -1.0114  0.4492  1.1026
 9669TIP3    H228941   6.584   4.754   0.182 -0.8211  0.5868  0.0776
 9670TIP3   OH228942   6.395   3.918   1.390 -0.0956 -0.0948 -0.8407
 9670TIP3    H128943   6.466   3.869   1.349  0.5338  1.1241 -1.2348
 9670TIP3    H228944   6.405   3.901   1.484  1.6435  1.2381 -0.7485
 9671TIP3   OH228945   1.215   7.092   6.414 -0.6196  0.4943  0.2320
 9671TIP3    H128946   1.295   7.144   6.414 -0.6821  0.5914  0.3185
 9671TIP3    H228947   1.165   7.125   6.339 -0.7618  0.7172  0.4255
 9672TIP3   OH228948   3.703   0.904   6.800 -0.3091  0.1730  0.2746
 9672TIP3    H128949   3.757   0.855   6.738  0.8498  1.0008  0.6143
 9672TIP3    H228950   3.708   0.853   6.881 -0.5033 -0.0463  0.1508
 9673TIP3   OH228951   2.006   1.180   5.928 -0.3894  0.0461 -0.0245
 9673TIP3    H128952   2.062   1.258   5.926 -0.5593  0.1783  0.5756
 9673TIP3    H228953   1.979   1.172   6.019 -1.2166 -0.1170 -0.2857
 9674TIP3   OH228954   5.025   0.290   6.054  0.2914  0.0412  0.0587
 9674TIP3    H128955   5.039   0.201   6.086  2.1269  0.1805 -0.2882
 9674TIP3    H228956   4.931   0.306   6.067 -0.0135 -1.8495  0.3315
 9675TIP3   OH228957   6.172   3.656   2.105  0.2560 -0.2159  0.1244
 9675TIP3    H128958   6.253   3.707   2.102 -0.0179  0.1538 -1.6175
 9675TIP3    H228959   6.200   3.567   2.127  0.9195  0.2993  1.4077
 9676TIP3   OH228960   4.735   1.546   6.664  0.4408  0.2411  0.0555
 9676TIP3    H128961   4.672   1.531   6.735  1.3226 -1.7979  0.4395
 9676TIP3    H228962   4.769   1.634   6.680  1.0600 -0.4125  2.5434
 9677TIP3   OH228963   6.109   7.277   0.435  0.3660  0.1117  0.1060
 9677TIP3    H128964   6.098   7.248   0.526  1.4361 -0.5733  0.0226
 9677TIP3    H228965   6.037   7.234   0.388  1.6028 -2.0121  0.0868
 9678TIP3   OH228966   7.314   7.505   0.106  0.0256 -0.2770 -0.1399
 9678TIP3    H128967   7.400   7.505   0.064 -0.7476 -0.3265 -1.7728
 9678TIP3    H228968   7.256   7.547   0.042 -1.0713  0.1826  1.1375
 9679TIP3   OH228969   6.705   5.873   0.066  0.4979  0.2632  0.0659
 9679TIP3    H128970   6.610   5.872   0.076  0.5197  1.3766  0.4459
 9679TIP3    H228971   6.738   5.906   0.150  1.1761  0.5448 -0.3062
 9680TIP3   OH228972   0.167   7.000   2.542 -0.0744  0.1391 -0.2162
 9680TIP3    H128973   0.169   7.065   2.612 -0.3975  0.3461 -0.4001
 9680TIP3    H228974   0.077   6.968   2.540  0.3195 -1.0650  0.5592
 9681TIP3   OH228975   0.511   3.848   2.340  0.1692 -0.0558 -0.1730
 9681TIP3    H128976   0.595   3.890   2.319  2.3247 -3.3759  1.3152
 9681TIP3    H228977   0.483   3.808   2.257  0.4204  0.4621 -0.5095
 9682TIP3   OH228978   7.572   4.529   2.133 -0.3327  0.1034 -0.0612
 9682TIP3    H128979   7.615   4.443   2.132  0.9119  0.7375 -1.3122
 9682TIP3    H228980   7.523   4.529   2.215  1.4927 -0.9103  1.0780
 9683TIP3   OH228981   4.042   2.019   6.823  0.5997  0.3409 -0.2057
 9683TIP3    H128982   4.036   1.959   6.898 -0.2976 -0.6720 -1.0767
 9683TIP3    H228983   3.951   2.041   6.803  0.8506  0.7394 -0.8958
 9684TIP3   OH228984   7.774   4.328   1.535  0.2734  0.8099 -0.2568
 9684TIP3    H128985   7.782   4.410   1.487  1.1997 -0.1279 -1.7567
 9684TIP3    H228986   7.681   4.308   1.533  0.5933 -0.7238 -4.3400
 9685TIP3   OH228987   7.908   3.808   0.353  0.2516  0.4536  0.2038
 9685TIP3    H128988   7.882   3.740   0.415  0.1712 -0.1801 -0.5218
 9685TIP3    H228989   7.983   3.850   0.394  0.9991 -0.8126  0.1387
 9686TIP3   OH228990   0.074   5.259   0.903 -0.4623 -0.6534  0.1879
 9686TIP3    H128991   0.133   5.183   0.903 -0.7239 -0.8989  2.0075
 9686TIP3    H228992   0.105   5.313   0.976 -0.6073  0.7291 -0.7698
 9687TIP3   OH228993   0.572   7.936   6.593  0.1828 -0.4577 -0.4096
 9687TIP3    H128994   0.648   7.952   6.648  0.9828 -1.6365 -1.1690
 9687TIP3    H228995   0.605   7.939   6.503 -0.4891 -1.8356 -0.7243
 9688TIP3   OH228996   3.670   1.563   6.370 -0.2266  0.1136 -0.1458
 9688TIP3    H128997   3.689   1.609   6.287 -2.3336  2.2713  0.5015
 9688TIP3    H228998   3.749   1.576   6.422  0.6135 -0.1236 -1.3223
 9689TIP3   OH228999   0.271   1.886   0.125 -0.2642  0.7691 -0.1244
 9689TIP3    H129000   0.360   1.889   0.159  0.3298 -1.4032 -1.3668
 9689TIP3    H229001   0.282   1.863   0.033 -2.1543 -0.8790  0.0381
 9690TIP3   OH229002   6.307   6.468   1.898 -0.1007  0.3268  0.7442
 9690TIP3    H129003   6.236   6.414   1.932 -1.4845  0.9818 -1.0502
 9690TIP3    H229004   6.299   6.462   1.803  2.8699 -0.4011  0.4833
 9691TIP3   OH229005   0.400   6.368   1.920 -0.9658  0.4116  0.1475
 9691TIP3    H129006   0.467   6.300   1.918 -3.3474 -1.9923 -1.2220
 9691TIP3    H229007   0.443   6.443   1.962  1.8708 -1.7611  1.2833
 9692TIP3   OH229008   5.598   0.612   6.616  0.6918  0.2108 -0.2951
 9692TIP3    H129009   5.622   0.557   6.541 -1.0825 -1.0064  0.0121
 9692TIP3    H229010   5.648   0.577   6.689  1.5824  0.7051 -0.6536
 9693TIP3   OH229011   1.445   7.226   5.987  0.1186 -0.1596  0.3133
 9693TIP3    H129012   1.498   7.299   5.955 -1.6458  1.4754  1.0136
 9693TIP3    H229013   1.505   7.152   5.991  1.9212  1.2329 -0.5068
 9694TIP3   OH229014   7.194   4.791   2.259  0.0716 -0.0862 -0.1388
 9694TIP3    H129015   7.276   4.836   2.278  1.2428 -1.8378 -0.8453
 9694TIP3    H229016   7.163   4.830   2.178 -1.4925  2.7921  1.7554
 9695TIP3   OH229017   7.620   2.265   1.677 -0.3110 -0.0766  0.2571
 9695TIP3    H129018   7.551   2.294   1.617  1.2736  3.3454 -0.0267
 9695TIP3    H229019   7.662   2.192   1.631 -0.8493  0.7354 -1.6005
 9696TIP3   OH229020   1.871   7.898   6.781 -0.5193 -0.0340  0.0600
 9696TIP3    H129021   1.839   7.885   6.871  1.1538  0.0508  0.6905
 9696TIP3    H229022   1.837   7.983   6.755  2.4310  1.8835  2.2015
 9697TIP3   OH229023   7.614   5.679   1.601 -0.1999  0.3844 -0.5747
 9697TIP3    H129024   7.613   5.752   1.538  1.3859 -0.4853 -1.6362
 9697TIP3    H229025   7.643   5.604   1.550 -1.7615 -0.9944  0.5394
 9698TIP3   OH229026   4.020   2.904   5.226 -0.2379  0.3927 -0.2148
 9698TIP3    H129027   4.105   2.907   5.269 -0.5792 -1.1943  0.6108
 9698TIP3    H229028   4.039   2.877   5.136  0.4116  3.0667 -0.9236
 9699TIP3   OH229029   4.544   2.226   6.731  0.3944  0.2953 -0.4106
 9699TIP3    H129030   4.453   2.247   6.714  0.0595  0.1307  1.1385
 9699TIP3    H229031   4.541   2.148   6.788  1.4901  0.1965 -0.4658
 9700TIP3   OH229032   2.884   2.252   5.152  0.3232 -0.5192  0.1022
 9700TIP3    H129033   2.905   2.338   5.190  2.9231 -0.1619 -2.0444
 9700TIP3    H229034   2.824   2.272   5.081  0.7055 -0.5020 -0.2170
 9701TIP3   OH229035   6.715   6.759   0.153 -0.0094  0.0241  0.0351
 9701TIP3    H129036   6.768   6.805   0.089  0.4797 -0.5550  0.0211
 9701TIP3    H229037   6.632   6.742   0.108  0.1867 -0.0243 -0.3076
 9702TIP3   OH229038   1.289   0.539   1.021 -0.4396  0.2060  0.1813
 9702TIP3    H129039   1.285   0.468   1.085  0.3550 -0.0989 -0.1032
 9702TIP3    H229040   1.198   0.565   1.009 -0.7157 -0.5978  0.4713
 9703TIP3   OH229041   6.337   6.186   1.777 -0.0938  0.2709 -0.0110
 9703TIP3    H129042   6.400   6.128   1.818  0.3031  0.0341 -0.9368
 9703TIP3    H229043   6.258   6.178   1.830 -0.5298 -2.2763 -1.0065
 9704TIP3   OH229044   3.440   3.822   5.731 -0.2692 -0.4257  0.2101
 9704TIP3    H129045   3.515   3.860   5.777  0.0655 -1.8693  0.8789
 9704TIP3    H229046   3.393   3.773   5.799 -0.9235 -0.8388 -0.5413
 9705TIP3   OH229047   4.300   5.236   0.776 -0.5632  0.3591  0.4080
 9705TIP3    H129048   4.237   5.304   0.802 -0.7975 -0.5681  2.3467
 9705TIP3    H229049   4.278   5.161   0.832  0.4528 -0.9219 -0.8860
 9706TIP3   OH229050   3.078   1.922   6.638 -0.3009  0.0888 -0.3672
 9706TIP3    H129051   3.136   1.988   6.602 -0.4964 -1.2444 -3.2276
 9706TIP3    H229052   3.031   1.968   6.708  1.9199  2.0230 -0.0669
 9707TIP3   OH229053   6.715   6.190   1.302 -0.0963  0.0570  0.1374
 9707TIP3    H129054   6.752   6.217   1.218 -0.4024  1.0784  0.3126
 9707TIP3    H229055   6.734   6.264   1.360  1.4898 -1.2920  1.3667
 9708TIP3   OH229056   2.590   1.362   6.596 -0.0359 -0.2210 -0.6097
 9708TIP3    H129057   2.590   1.454   6.623  0.6032 -0.0472 -1.1850
 9708TIP3    H229058   2.531   1.319   6.658  1.2659  0.2117  0.9664
 9709TIP3   OH229059   2.892   1.614   5.689 -0.1109  0.0093 -0.2017
 9709TIP3    H129060   2.842   1.691   5.717  1.6367  0.1988  2.5589
 9709TIP3    H229061   2.982   1.633   5.713  0.2968 -3.0864  0.9926
 9710TIP3   OH229062   4.762   1.637   6.393 -0.4870 -0.7912  0.0104
 9710TIP3    H129063   4.723   1.570   6.449  0.2797 -1.2801 -0.0321
 9710TIP3    H229064   4.852   1.644   6.424 -0.7015  0.5761  0.3391
 9711TIP3   OH229065   2.785   2.118   6.708 -0.5879  0.1137  0.1507
 9711TIP3    H129066   2.827   2.049   6.760 -0.3680  0.4514  0.4172
 9711TIP3    H229067   2.764   2.075   6.625 -3.2227 -1.1277  1.4042
 9712TIP3   OH229068   7.040   4.198   0.359 -0.4157 -0.6143  0.3845
 9712TIP3    H129069   7.052   4.118   0.309  0.3652 -0.9937  1.1640
 9712TIP3    H229070   7.127   4.218   0.395 -0.6660  0.4069  0.4466
 9713TIP3   OH229071   4.067   1.029   2.974 -0.4606 -0.1304  0.1192
 9713TIP3    H129072   4.142   1.086   2.985 -2.2708  2.2074  0.6558
 9713TIP3    H229073   4.075   0.995   2.885  1.6136 -0.5493  0.4416
 9714TIP3   OH229074   7.917   5.156   0.578  0.1882  0.3313 -0.2333
 9714TIP3    H129075   7.992   5.188   0.529 -1.0210 -0.3507 -2.5772
 9714TIP3    H229076   7.843   5.165   0.518 -1.5887  0.8228  1.9649
 9715TIP3   OH229077   1.456   5.174   0.446  0.3567 -1.0504  0.5619
 9715TIP3    H129078   1.452   5.174   0.542  0.6896  0.3494  0.5750
 9715TIP3    H229079   1.370   5.140   0.419 -0.4834  0.4335  1.3305
 9716TIP3   OH229080   3.132   7.495   3.284  0.2636  0.3089  0.2474
 9716TIP3    H129081   3.143   7.516   3.377  0.9942  0.6863  0.0835
 9716TIP3    H229082   3.207   7.538   3.242  0.1439 -0.1872 -0.4652
 9717TIP3   OH229083   1.494   6.255   0.942  0.2254 -0.5687  0.4706
 9717TIP3    H129084   1.467   6.220   0.857  0.1225  0.2489  0.1629
 9717TIP3    H229085   1.485   6.350   0.932  1.3434 -0.4096  1.0113
 9718TIP3   OH229086   2.316   5.590   3.998 -0.0051 -0.5755  0.2596
 9718TIP3    H129087   2.399   5.635   3.984 -0.3715  0.2171  0.6028
 9718TIP3    H229088   2.282   5.574   3.910 -0.8800  1.7227  0.1361
 9719TIP3   OH229089   8.456   1.992   3.031  0.3677 -0.3337  0.2976
 9719TIP3    H129090   8.516   1.965   2.961  0.4932  0.2594  0.1704
 9719TIP3    H229091   8.513   2.018   3.103  0.2441 -0.6727  0.5194
 9720TIP3   OH229092   5.750   1.281   5.126  0.3000  0.0859 -0.3147
 9720TIP3    H129093   5.752   1.372   5.157  0.8567 -0.1263  0.3033
 9720TIP3    H229094   5.823   1.239   5.173  0.0246 -0.6840 -0.5734
 9721TIP3   OH229095   5.042   1.987   6.394  0.3407  1.1057  0.1418
 9721TIP3    H129096   5.076   1.901   6.423  1.3606  0.3339 -3.1637
 9721TIP3    H229097   4.954   1.968   6.362 -0.0932  1.6322  1.0079
 9722TIP3   OH229098   1.214   5.544   1.220  0.6461 -0.5972 -0.1115
 9722TIP3    H129099   1.200   5.639   1.217 -1.3163 -0.8715 -0.0254
 9722TIP3    H229100   1.187   5.518   1.308 -1.9615 -1.6875 -1.1962
 9723TIP3   OH229101   7.188   4.781   0.325  0.0724  0.2455 -0.0223
 9723TIP3    H129102   7.275   4.760   0.359  0.0583 -0.5924 -0.4953
 9723TIP3    H229103   7.186   4.741   0.238 -0.6770  0.5246 -0.1354
 9724TIP3   OH229104   7.551   5.917   0.746  0.2193  0.4422  0.0847
 9724TIP3    H129105   7.637   5.933   0.707  0.0690  0.9712 -0.0246
 9724TIP3    H229106   7.566   5.927   0.840  0.4197 -0.1234  0.1199
 9725TIP3   OH229107   3.000   0.433   6.771 -0.5095 -0.4924 -0.0010
 9725TIP3    H129108   3.053   0.465   6.845 -0.0182 -0.1901 -0.4754
 9725TIP3    H229109   3.064   0.394   6.711 -0.8967 -0.6672 -0.3051
 9726TIP3   OH229110   4.546   0.868   6.111 -0.2868  0.4258 -0.8191
 9726TIP3    H129111   4.534   0.881   6.016 -1.9187  1.6984 -0.4643
 9726TIP3    H229112   4.583   0.951   6.141 -1.3631  0.6372 -0.0723
 9727TIP3   OH229113   7.280   0.366   6.906 -0.3081  0.0406 -0.1411
 9727TIP3    H129114   7.341   0.440   6.899  1.4468 -1.2496  1.1651
 9727TIP3    H229115   7.210   0.398   6.963 -0.0824  1.0235 -0.4022
 9728TIP3   OH229116   6.213   1.507   5.385  0.4965  0.4355 -0.3235
 9728TIP3    H129117   6.151   1.580   5.396  1.8366  1.6035 -0.3008
 9728TIP3    H229118   6.183   1.461   5.307 -1.1369  0.2257  0.4046
 9729TIP3   OH229119   3.195   0.560   6.120 -0.5849  0.1905 -0.5260
 9729TIP3    H129120   3.140   0.595   6.190 -1.9329 -0.0293 -1.4668
 9729TIP3    H229121   3.205   0.633   6.059  0.4545  0.3293 -0.2132
 9730TIP3   OH229122   7.355   3.212   2.079  0.1321 -0.1403  0.1601
 9730TIP3    H129123   7.381   3.163   2.157 -0.9843 -0.7493  0.1597
 9730TIP3    H229124   7.410   3.176   2.009  0.3948 -0.3301  0.4616
 9731TIP3   OH229125   6.153   3.019   5.412 -0.0491 -0.6147 -0.4774
 9731TIP3    H129126   6.110   2.995   5.330 -0.3065 -1.9775  0.0471
 9731TIP3    H229127   6.187   2.936   5.446  0.9294  0.1010  0.2859
 9732TIP3   OH229128   3.013   1.680   6.294  0.1675 -0.5560  0.1451
 9732TIP3    H129129   3.035   1.758   6.243 -0.2328 -1.0562 -0.8185
 9732TIP3    H229130   3.067   1.686   6.372  0.8102  0.2172 -0.3496
 9733TIP3   OH229131   7.737   2.876   6.588 -0.1042  0.4176  0.0144
 9733TIP3    H129132   7.781   2.951   6.548 -1.3926  2.0537  1.5874
 9733TIP3    H229133   7.742   2.892   6.682  0.1629 -1.8280  0.4308
 9734TIP3   OH229134   7.983   4.042   0.094  0.2184  0.1232  0.4074
 9734TIP3    H129135   7.916   4.072   0.033  1.0523 -1.8777 -1.5472
 9734TIP3    H229136   7.968   4.094   0.173 -1.4756  2.0919 -1.1530
 9735TIP3   OH229137   1.448   6.220   0.219 -0.2668 -0.5297  0.3572
 9735TIP3    H129138   1.473   6.310   0.196  1.2696 -0.7811  0.9733
 9735TIP3    H229139   1.532   6.175   0.232 -1.0160 -2.1320 -0.2418
 9736TIP3   OH229140   6.248   0.879   6.383  0.5536  0.5337 -0.3434
 9736TIP3    H129141   6.162   0.900   6.347 -0.8345 -1.4616  1.6713
 9736TIP3    H229142   6.298   0.847   6.307 -1.7302 -1.8686 -0.9317
 9737TIP3   OH229143   7.253   5.083   0.349 -0.3005 -0.7906 -0.0952
 9737TIP3    H129144   7.336   5.039   0.331 -0.5464 -0.8086 -1.1686
 9737TIP3    H229145   7.187   5.014   0.345 -0.1405 -1.2197  3.0018
 9738TIP3   OH229146   1.729   5.774   0.114  0.3679  0.8004 -0.6300
 9738TIP3    H129147   1.725   5.706   0.048  1.4878  0.7129 -0.6179
 9738TIP3    H229148   1.816   5.764   0.154 -0.6492  0.1979  1.5373
 9739TIP3   OH229149   7.925   5.539   1.549 -0.4084  0.0029  0.1113
 9739TIP3    H129150   7.879   5.578   1.475  1.3191  1.3454 -0.2815
 9739TIP3    H229151   7.860   5.480   1.589 -2.1121  1.0399 -1.0400
 9740TIP3   OH229152   5.335   1.390   4.704 -0.1038  0.2106 -0.0186
 9740TIP3    H129153   5.326   1.331   4.629  1.1166 -0.7994  0.6232
 9740TIP3    H229154   5.392   1.344   4.764 -0.5735  1.2933  1.2772
 9741TIP3   OH229155   8.144   5.110   0.008 -0.0712  0.1924  0.0872
 9741TIP3    H129156   8.163   5.171  -0.064 -1.3230  0.8926  0.3338
 9741TIP3    H229157   8.086   5.159   0.066 -1.2580 -1.3176  0.1860
 9742TIP3   OH229158   4.480   0.552   6.610 -0.5668 -0.7007 -0.1554
 9742TIP3    H129159   4.504   0.459   6.605 -1.3136 -1.1231  3.1799
 9742TIP3    H229160   4.454   0.574   6.521  1.3855 -3.1929 -1.4086
 9743TIP3   OH229161   1.456   4.597   2.460  0.1720  0.5200 -0.0206
 9743TIP3    H129162   1.503   4.514   2.458  1.0020  0.9884 -0.0361
 9743TIP3    H229163   1.472   4.636   2.374 -1.9955 -0.2726 -0.8358
 9744TIP3   OH229164   4.701   1.935   6.619  0.3244  0.6806 -0.0174
 9744TIP3    H129165   4.639   1.863   6.618 -0.5153  1.3858  0.4278
 9744TIP3    H229166   4.766   1.912   6.552 -1.2660  0.6614 -1.6060
 9745TIP3   OH229167   2.966   1.904   5.364 -0.2353  0.1434 -0.5488
 9745TIP3    H129168   2.966   1.842   5.291  2.1339 -1.4639  0.7464
 9745TIP3    H229169   3.056   1.938   5.366 -0.8039  1.6407  0.4105
 9746TIP3   OH229170   3.941   7.167   5.404  0.2965 -0.0539 -0.1269
 9746TIP3    H129171   3.924   7.254   5.438  2.5508  0.7450 -0.9491
 9746TIP3    H229172   3.879   7.158   5.331 -0.5731  0.4842  0.5333
 9747TIP3   OH229173   4.388   2.718   5.500  0.2095  0.1165  0.5180
 9747TIP3    H129174   4.310   2.664   5.507  0.5738 -0.6399 -0.9758
 9747TIP3    H229175   4.358   2.808   5.515 -1.0809 -0.0935 -0.7228
 9748TIP3   OH229176   7.823   4.615   0.166 -0.5141  0.4333 -0.3793
 9748TIP3    H129177   7.873   4.618   0.085 -1.4715 -0.3335 -1.0170
 9748TIP3    H229178   7.886   4.634   0.235  0.3951  0.6553 -1.2688
 9749TIP3   OH229179   4.418   1.981   5.057 -0.1270  0.6630  0.0045
 9749TIP3    H129180   4.343   1.929   5.027 -1.0851  1.6621  0.6416
 9749TIP3    H229181   4.472   1.993   4.978 -0.4956 -0.2921 -0.3965
 9750TIP3   OH229182   6.183   0.006   5.763 -0.1815 -0.5317 -0.5151
 9750TIP3    H129183   6.266   0.053   5.775  0.3020 -1.9908  2.2029
 9750TIP3    H229184   6.184  -0.022   5.671  0.9955  1.9230 -1.2909
 9751TIP3   OH229185   1.680   6.301   6.788  0.2454 -0.8700 -0.2180
 9751TIP3    H129186   1.651   6.293   6.879  0.9547  0.3087  0.1205
 9751TIP3    H229187   1.602   6.328   6.740  0.3184  0.3639  0.3550
 9752TIP3   OH229188   6.979   5.956   1.835 -0.1458 -0.4818  0.0508
 9752TIP3    H129189   6.910   6.022   1.841 -1.5872 -1.8348 -1.2016
 9752TIP3    H229190   7.046   5.997   1.781 -0.6439  0.2801 -0.0031
 9753TIP3   OH229191   4.963   1.096   6.095  0.0275  0.0792  0.1446
 9753TIP3    H129192   5.021   1.059   6.029 -0.5881  0.8900 -0.8717
 9753TIP3    H229193   4.946   1.024   6.156  1.8351 -0.2550  0.2947
 9754TIP3   OH229194   4.124   2.307   6.331 -0.1762 -0.4273  0.3244
 9754TIP3    H129195   4.175   2.314   6.250  0.6244  0.9964  0.9478
 9754TIP3    H229196   4.166   2.235   6.379 -0.9207 -1.5711 -0.6857
 9755TIP3   OH229197   5.043   2.078   5.444 -0.0275 -0.4295  0.0039
 9755TIP3    H129198   5.137   2.082   5.459 -0.1149  1.9359  0.1028
 9755TIP3    H229199   5.012   2.009   5.503  1.3876  0.1265  1.4239
 9756TIP3   OH229200   5.208   1.471   3.197 -0.1338 -0.3138 -0.4458
 9756TIP3    H129201   5.141   1.538   3.210 -0.4763 -0.8014  0.4293
 9756TIP3    H229202   5.291   1.518   3.202 -0.4185  0.3678 -1.9972
 9757TIP3   OH229203   4.719   1.091   6.524  0.2301  0.1244  0.3676
 9757TIP3    H129204   4.681   1.123   6.606  0.0507  1.5071 -0.2397
 9757TIP3    H229205   4.780   1.023   6.551 -1.2116 -0.7578  1.5125
 9758TIP3   OH229206   5.332   3.456   5.989  0.0488  0.3773 -0.4828
 9758TIP3    H129207   5.335   3.517   5.915  2.6120  0.9932  0.0656
 9758TIP3    H229208   5.415   3.408   5.983 -0.0523 -0.0771  1.5779
 9759TIP3   OH229209   2.342   2.442   2.235  0.3214  0.4887 -0.4683
 9759TIP3    H129210   2.249   2.441   2.258  0.2197 -0.8968 -0.8848
 9759TIP3    H229211   2.344   2.459   2.141  0.4539  0.0896 -0.5431
 9760TIP3   OH229212   1.426   3.334   0.481  0.6040  0.0538 -0.0065
 9760TIP3    H129213   1.478   3.384   0.418  0.7505 -0.8064 -0.5725
 9760TIP3    H229214   1.471   3.250   0.490 -0.0314 -0.2551  0.4002
 9761TIP3   OH229215   5.862   0.799   6.287 -0.0878  0.0361  0.0126
 9761TIP3    H129216   5.949   0.804   6.246 -0.2999  1.0012 -0.3318
 9761TIP3    H229217   5.876   0.833   6.376 -0.2156  0.6829 -0.2129
 9762TIP3   OH229218   5.025   0.510   4.727  0.1714  0.2045 -0.3738
 9762TIP3    H129219   5.057   0.571   4.793 -0.0518  0.3823 -0.4260
 9762TIP3    H229220   5.051   0.423   4.759  1.5521  0.4079 -0.8921
 9763TIP3   OH229221   0.751   4.718   0.790  0.4144 -0.0460 -0.4489
 9763TIP3    H129222   0.714   4.746   0.706  0.4210 -0.5490 -0.6251
 9763TIP3    H229223   0.818   4.783   0.810  0.3069  0.1614 -0.7582
 9764TIP3   OH229224   6.687   0.139   5.556  0.0226 -0.0339 -0.7717
 9764TIP3    H129225   6.715   0.139   5.465  0.6600 -2.2558 -0.6211
 9764TIP3    H229226   6.676   0.231   5.579  3.2856  0.7404 -2.0681
 9765TIP3   OH229227   2.834   6.765   6.643  0.2913 -0.1326 -0.6444
 9765TIP3    H129228   2.868   6.854   6.634  0.0794  0.1094  0.8230
 9765TIP3    H229229   2.762   6.774   6.705  1.6257 -1.6823  1.1666
 9766TIP3   OH229230   2.097   4.931   0.855  0.2845  0.2462  0.3043
 9766TIP3    H129231   2.025   4.894   0.804 -0.8913  0.7914  1.5423
 9766TIP3    H229232   2.058   4.951   0.940  1.8338  0.8187  0.8863
 9767TIP3   OH229233   0.993   5.116   1.761  0.0071 -0.4031  0.2267
 9767TIP3    H129234   0.989   5.193   1.818 -0.4123 -1.5223  1.7331
 9767TIP3    H229235   0.924   5.058   1.793  0.9888 -1.8557 -0.2347
 9768TIP3   OH229236   0.481   3.758   0.655  0.0880  0.4340 -0.3824
 9768TIP3    H129237   0.517   3.747   0.567 -1.8712  0.8769 -1.2507
 9768TIP3    H229238   0.516   3.843   0.684 -0.7510  1.1701 -1.4779
 9769TIP3   OH229239   5.939   3.479   0.809  0.2983 -0.6898 -0.0081
 9769TIP3    H129240   6.006   3.522   0.755 -1.3617  0.3210 -1.2833
 9769TIP3    H229241   5.858   3.491   0.761 -0.5941 -3.1944  0.8257
 9770TIP3   OH229242   3.517   2.209   6.575 -0.2753  0.1175 -0.5649
 9770TIP3    H129243   3.536   2.251   6.491  2.1633  1.9380  0.8222
 9770TIP3    H229244   3.573   2.131   6.577  1.7601  1.5535  0.4635
 9771TIP3   OH229245   4.534   1.274   5.521 -0.1394  0.6958 -0.1372
 9771TIP3    H129246   4.515   1.357   5.477  1.0998  1.4183  0.6369
 9771TIP3    H229247   4.623   1.252   5.494  0.1594  0.4923  0.9555
 9772TIP3   OH229248   8.238   3.499   2.686  0.2405 -0.2164 -0.4752
 9772TIP3    H129249   8.226   3.530   2.776 -1.0560  0.2190 -0.7918
 9772TIP3    H229250   8.161   3.444   2.670  0.7472 -0.7383 -1.1412
 9773TIP3   OH229251   4.962   3.326   1.043  0.6534  0.0165  0.4588
 9773TIP3    H129252   4.867   3.320   1.030  1.0997 -2.6541 -2.1044
 9773TIP3    H229253   4.985   3.413   1.012 -0.9929  0.8426  1.4772
 9774TIP3   OH229254   0.379   5.623   0.514 -0.1621  0.1496 -0.0271
 9774TIP3    H129255   0.465   5.663   0.523 -0.6324  1.3879 -0.9376
 9774TIP3    H229256   0.328   5.685   0.462 -1.6851 -0.4604  0.6884
 9775TIP3   OH229257   7.288   1.592   5.908 -0.1548  0.1706  0.0025
 9775TIP3    H129258   7.210   1.553   5.947 -0.0586 -1.4375 -1.4020
 9775TIP3    H229259   7.357   1.580   5.974 -1.0943  1.7754  1.3305
 9776TIP3   OH229260   7.699   0.462   6.878  0.5356  0.1907 -0.4082
 9776TIP3    H129261   7.655   0.546   6.895  0.7439  0.3045 -0.4293
 9776TIP3    H229262   7.690   0.449   6.784  1.3791  0.6818 -0.5584
 9777TIP3   OH229263   1.203   7.417   5.615  0.2077  0.3501 -0.1043
 9777TIP3    H129264   1.127   7.475   5.607 -0.8828 -1.0038  0.0573
 9777TIP3    H229265   1.240   7.414   5.527 -0.6064  0.1575 -0.4522
 9778TIP3   OH229266   7.794   5.539   0.446  0.0889 -0.0348  0.3109
 9778TIP3    H129267   7.788   5.443   0.444 -1.3670  0.0058  1.6818
 9778TIP3    H229268   7.731   5.565   0.513  0.0358  1.9340 -0.4880
 9779TIP3   OH229269   5.767   1.762   5.827 -0.4025  0.4275  0.2249
 9779TIP3    H129270   5.761   1.666   5.828 -0.9166  0.4625  2.8064
 9779TIP3    H229271   5.708   1.789   5.757 -1.7807 -1.0543  0.8017
 9780TIP3   OH229272   7.272   4.248   0.151 -0.1891 -0.4583 -0.4163
 9780TIP3    H129273   7.345   4.294   0.111 -2.0415  1.5274 -1.6631
 9780TIP3    H229274   7.205   4.316   0.162 -2.4507 -2.5526 -0.8809
 9781TIP3   OH229275   4.316   7.860   6.375 -0.2269 -0.0043 -0.1615
 9781TIP3    H129276   4.398   7.843   6.421 -0.0119  0.2238 -0.4628
 9781TIP3    H229277   4.303   7.954   6.382 -0.6114 -0.0762  0.1362
 9782TIP3   OH229278   4.865   1.486   5.255 -0.3759 -0.1092  0.0039
 9782TIP3    H129279   4.899   1.413   5.203 -1.0102  0.5043 -1.3201
 9782TIP3    H229280   4.862   1.453   5.344  2.0354 -0.7596 -0.1125
 9783TIP3   OH229281   6.492   4.338   0.098  0.2080  0.0193  0.0694
 9783TIP3    H129282   6.569   4.324   0.042  0.2536  1.6158 -0.3012
 9783TIP3    H229283   6.420   4.299   0.050  0.2910  1.1454 -1.0094
 9784TIP3   OH229284   3.964   7.669   5.753 -0.3181  0.4431  0.4326
 9784TIP3    H129285   3.871   7.685   5.734 -0.0983  2.2192  0.7950
 9784TIP3    H229286   4.010   7.709   5.680  0.1410 -1.7010 -0.5025
 9785TIP3   OH229287   1.023   2.363   1.120  0.2698  0.0344 -0.7552
 9785TIP3    H129288   1.008   2.360   1.025  2.7023 -0.8583 -1.1426
 9785TIP3    H229289   1.107   2.318   1.132  0.0563  0.2835  1.8158
 9786TIP3   OH229290   0.339   5.539   1.004 -0.0200  1.2159 -0.1002
 9786TIP3    H129291   0.258   5.542   1.054  0.4014 -2.1183  0.9393
 9786TIP3    H229292   0.318   5.582   0.921 -2.9597  0.0852  0.0018
 9787TIP3   OH229293   7.134   2.417   6.640  0.1322 -0.2751 -0.0147
 9787TIP3    H129294   7.166   2.492   6.589 -1.4221  0.4830  0.0982
 9787TIP3    H229295   7.211   2.361   6.650  1.2957  1.2480 -0.1934
 9788TIP3   OH229296   4.318   1.741   4.804 -0.7503 -0.2595  1.0510
 9788TIP3    H129297   4.282   1.655   4.783  1.8150 -1.3341  0.8217
 9788TIP3    H229298   4.265   1.771   4.878 -2.7485 -1.2745  0.0817
 9789TIP3   OH229299   5.986   0.344   6.638  0.5553 -0.3696  0.1511
 9789TIP3    H129300   6.049   0.274   6.654  1.8279  0.7167  0.0252
 9789TIP3    H229301   6.034   0.424   6.661 -0.5616  0.5173 -0.5821
 9790TIP3   OH229302   1.503   5.975   0.518 -0.1079  0.8589 -0.3243
 9790TIP3    H129303   1.578   6.011   0.564 -0.3464 -0.3456  1.0444
 9790TIP3    H229304   1.539   5.936   0.439  0.3703  2.5309 -0.9412
 9791TIP3   OH229305   6.027   2.330   6.362  0.1414  0.0227 -0.1961
 9791TIP3    H129306   5.944   2.289   6.386  0.6294 -0.2915  0.9542
 9791TIP3    H229307   6.048   2.389   6.435  1.5878 -0.8839  0.1376
 9792TIP3   OH229308   6.211   1.405   6.179 -0.1921  0.0904  0.0749
 9792TIP3    H129309   6.171   1.419   6.265 -0.1217 -0.3744  0.1883
 9792TIP3    H229310   6.142   1.363   6.128  0.1367 -0.6802  0.2595
 9793TIP3   OH229311   5.933   1.336   4.917 -0.0292  0.9426  0.2602
 9793TIP3    H129312   5.841   1.319   4.940 -0.4413  1.5662 -0.8308
 9793TIP3    H229313   5.946   1.429   4.937 -0.0998  1.2385 -1.0050
 9794TIP3   OH229314   8.106   5.449   0.657 -0.8672 -0.3537  0.3448
 9794TIP3    H129315   8.077   5.538   0.639  0.9158  0.3030  0.6398
 9794TIP3    H229316   8.179   5.435   0.596 -0.2739 -1.1394  1.2302
 9795TIP3   OH229317   1.724   4.982   0.715 -0.3068 -0.0735  0.2977
 9795TIP3    H129318   1.797   5.043   0.726 -2.0200  2.3587 -1.2074
 9795TIP3    H229319   1.764   4.895   0.716  2.2425  1.0536  2.3371
 9796TIP3   OH229320   8.448   5.577   0.715 -0.1334  0.3906  0.4982
 9796TIP3    H129321   8.405   5.566   0.631  0.5563  1.3986  0.0017
 9796TIP3    H229322   8.540   5.591   0.693  0.0562  0.6116  1.4158
 9797TIP3   OH229323   6.697   2.488   5.681 -0.2492 -0.1259 -0.4108
 9797TIP3    H129324   6.767   2.551   5.662  1.6678 -1.5553  1.7005
 9797TIP3    H229325   6.627   2.541   5.718  0.7513  0.9664 -0.0506
 9798TIP3   OH229326   6.158   0.188   6.324 -0.0922  0.0427  0.3252
 9798TIP3    H129327   6.215   0.130   6.272 -0.4685  1.5206 -1.8144
 9798TIP3    H229328   6.175   0.163   6.415  2.7606 -0.6552 -0.3487
 9799TIP3   OH229329   4.588   1.600   3.090  0.3100  0.2370 -0.3644
 9799TIP3    H129330   4.594   1.564   3.001 -1.4268 -0.4605 -0.2319
 9799TIP3    H229331   4.496   1.586   3.115  1.0830 -0.8203  2.0673
 9800TIP3   OH229332   3.761   2.591   4.756  0.0030 -0.9432 -0.1362
 9800TIP3    H129333   3.734   2.540   4.680 -0.2115  1.4043 -1.7082
 9800TIP3    H229334   3.693   2.576   4.821 -0.1470 -2.4858 -0.6250
 9801TIP3   OH229335   3.174   7.869   6.462  0.4175  0.3334  0.4545
 9801TIP3    H129336   3.197   7.778   6.481  0.4178  0.1959 -0.2032
 9801TIP3    H229337   3.090   7.881   6.506  0.8944  0.3223  1.4008
 9802TIP3   OH229338   5.776   0.161   5.388  0.8522  0.4430 -0.5505
 9802TIP3    H129339   5.790   0.128   5.299  0.0060 -2.7689  0.4490
 9802TIP3    H229340   5.700   0.220   5.381 -0.4985 -1.3893 -1.6178
 9803TIP3   OH229341   7.007   0.826   6.511 -0.1188  0.1240  0.1223
 9803TIP3    H129342   6.971   0.750   6.464  1.2709  0.2670 -1.2272
 9803TIP3    H229343   6.957   0.830   6.592 -1.1460 -1.4168 -0.4084
 9804TIP3   OH229344   8.034   4.978   1.006 -0.5490  0.0889  0.0764
 9804TIP3    H129345   8.080   5.033   1.069  0.9337 -0.7728 -0.2439
 9804TIP3    H229346   8.053   5.018   0.921  0.0871 -0.5959 -0.1064
 9805TIP3   OH229347   4.571   2.645   4.892  0.5073  0.3775  0.4464
 9805TIP3    H129348   4.611   2.559   4.904 -1.4057 -0.2739  2.5104
 9805TIP3    H229349   4.559   2.653   4.797  0.6634 -1.6371  0.2500
 9806TIP3   OH229350   4.637   1.411   4.678 -0.7197  0.3121 -0.3218
 9806TIP3    H129351   4.559   1.364   4.649 -1.1243  1.2470 -0.7855
 9806TIP3    H229352   4.703   1.391   4.611 -0.4653 -0.7156  0.2253
 9807TIP3   OH229353   0.117   4.981   0.262 -0.4767 -0.0995  0.4071
 9807TIP3    H129354   0.212   4.969   0.261 -0.5162 -0.4107  0.0098
 9807TIP3    H229355   0.101   5.045   0.331  0.3245  2.4222 -1.6516
 9808TIP3   OH229356   3.463   1.538   6.798  0.1135  1.0322 -0.0800
 9808TIP3    H129357   3.554   1.520   6.825 -0.1504 -0.6195 -0.2511
 9808TIP3    H229358   3.469   1.554   6.704  0.1952  0.5823 -0.1554
 9809TIP3   OH229359   3.727   7.896   6.740 -0.5894 -0.4881 -0.0066
 9809TIP3    H129360   3.810   7.943   6.734 -1.0052  0.3162  0.4383
 9809TIP3    H229361   3.705   7.873   6.650 -0.5316  0.4465 -0.2666
 9810TIP3   OH229362   5.950   1.829   6.420 -0.7062 -0.3148 -0.2540
 9810TIP3    H129363   5.927   1.737   6.428  1.2540 -0.9761 -2.0088
 9810TIP3    H229364   6.045   1.830   6.418 -0.5921  1.9906  2.3069
 9811TIP3   OH229365   6.077   0.671   5.144 -0.1861  0.1031 -0.3189
 9811TIP3    H129366   6.161   0.695   5.183 -1.0729  2.5375  0.2141
 9811TIP3    H229367   6.053   0.589   5.187  0.7769  0.6530  1.3079
 9812TIP3   OH229368   6.631   1.988   4.719  0.6254 -0.0634  0.1431
 9812TIP3    H129369   6.676   2.062   4.678 -2.2376  2.3353  1.1320
 9812TIP3    H229370   6.629   1.921   4.651 -0.4436  2.3529 -2.3180
 9813TIP3   OH229371   5.521   3.012   5.919 -0.0529 -0.3486  0.5917
 9813TIP3    H129372   5.581   2.995   5.992  0.1475 -0.4831  0.3941
 9813TIP3    H229373   5.510   2.927   5.877  0.4258 -0.1292  0.0079
 9814TIP3   OH229374   6.845   1.199   6.787 -0.7014 -0.1997  0.4456
 9814TIP3    H129375   6.887   1.283   6.801  1.5947 -0.7073 -2.5901
 9814TIP3    H229376   6.781   1.215   6.718 -0.7593 -0.7464  0.3655
 9815TIP3   OH229377   7.176   4.550   1.125 -0.1252 -0.1754  0.2343
 9815TIP3    H129378   7.196   4.462   1.155  1.4126  0.5954  1.5324
 9815TIP3    H229379   7.080   4.553   1.120 -0.1878 -1.8784  0.2281
 9816TIP3   OH229380   4.475   3.447   5.805 -0.2013  0.4120 -0.1928
 9816TIP3    H129381   4.429   3.387   5.746  0.4819  2.7741 -3.2566
 9816TIP3    H229382   4.550   3.396   5.837 -0.3818 -0.8185 -1.6629
 9817TIP3   OH229383   8.400   6.775   1.984 -0.2323 -0.5741 -0.1818
 9817TIP3    H129384   8.417   6.830   2.060  1.4103 -2.2058  0.6798
 9817TIP3    H229385   8.458   6.809   1.916  0.8721 -1.3091  0.3875
 9818TIP3   OH229386   4.574   2.917   4.956 -0.0923  0.0791  0.3406
 9818TIP3    H129387   4.538   2.829   4.945 -1.2149  0.5371  0.2633
 9818TIP3    H229388   4.664   2.911   4.925  0.5035 -1.5491  2.2895
 9819TIP3   OH229389   0.197   7.120   0.499 -0.1600  0.0275  0.6888
 9819TIP3    H129390   0.197   7.181   0.572  1.5267 -1.2978  1.8387
 9819TIP3    H229391   0.289   7.105   0.479 -0.5861 -0.2118 -1.2417
 9820TIP3   OH229392   7.532   4.315   1.653 -0.0702  0.9370  0.1446
 9820TIP3    H129393   7.454   4.371   1.651 -1.8971 -1.5800 -0.5801
 9820TIP3    H229394   7.544   4.295   1.746 -2.5562 -1.6855 -0.0362
 9821TIP3   OH229395   6.316   0.341   6.607  0.5993  0.2236  0.4357
 9821TIP3    H129396   6.305   0.382   6.522 -0.9809 -0.3048  0.3725
 9821TIP3    H229397   6.398   0.293   6.600  1.5147  1.8121 -0.1039
 9822TIP3   OH229398   4.885   2.423   4.650  0.0179  0.6540 -0.1593
 9822TIP3    H129399   4.965   2.387   4.611 -0.2186  1.9555 -1.9100
 9822TIP3    H229400   4.878   2.511   4.613 -2.1883  0.5766  0.0079
 9823TIP3   OH229401   5.002   0.960   5.588  0.1802  0.2115 -0.0296
 9823TIP3    H129402   5.094   0.937   5.601 -0.2519 -0.4311  2.0596
 9823TIP3    H229403   4.988   1.037   5.642 -0.5666  0.1707 -0.1528
 9824TIP3   OH229404   0.278   5.870   3.103  0.0510 -0.1836 -0.0995
 9824TIP3    H129405   0.374   5.863   3.099  0.0163 -0.7402 -0.0136
 9824TIP3    H229406   0.247   5.785   3.075 -0.4135 -0.1232  0.2277
 9825TIP3   OH229407   4.703   2.393   3.373 -0.9455  0.0759  0.7734
 9825TIP3    H129408   4.721   2.316   3.426 -1.3489 -0.6817 -0.1835
 9825TIP3    H229409   4.644   2.362   3.304 -0.8141  1.1497  0.1653
 9826TIP3   OH229410   7.918   4.628   2.287  0.6357  0.6543 -0.1653
 9826TIP3    H129411   7.991   4.672   2.329  0.9374  0.1279 -0.1299
 9826TIP3    H229412   7.956   4.584   2.211  0.8769 -1.8393  1.3420
 9827TIP3   OH229413   8.217   4.583   1.340  0.7137  0.4321 -0.8111
 9827TIP3    H129414   8.163   4.660   1.357  2.9268  2.3525 -2.1824
 9827TIP3    H229415   8.262   4.567   1.423 -1.8225 -1.1495  0.3246
 9828TIP3   OH229416   0.275   4.273   2.463 -0.1503 -0.4646 -0.6410
 9828TIP3    H129417   0.223   4.235   2.392  2.2234 -1.6705 -1.7842
 9828TIP3    H229418   0.298   4.198   2.518 -0.3108  0.1814  0.3126
 9829TIP3   OH229419   1.804   4.665   0.441  0.1833  0.2872 -0.3379
 9829TIP3    H129420   1.711   4.672   0.420  0.4188  0.2511 -1.3803
 9829TIP3    H229421   1.849   4.661   0.357  1.1653  0.6845  0.1483
 9830TIP3   OH229422   7.163   5.261   0.002 -0.3509 -0.0550  0.5645
 9830TIP3    H129423   7.229   5.268   0.070  0.8245 -0.0952 -0.5528
 9830TIP3    H229424   7.177   5.174  -0.036 -0.4875  0.2581 -0.2282
 9831TIP3   OH229425   6.856   4.761  -0.000 -0.4127  0.2222 -0.0539
 9831TIP3    H129426   6.839   4.668   0.012 -1.5925  0.0881 -2.3922
 9831TIP3    H229427   6.770   4.802   0.002  0.1146  1.3073  1.1564
 9832TIP3   OH229428   4.615   7.908   5.672 -0.3724 -0.0417 -0.4931
 9832TIP3    H129429   4.677   7.964   5.625  0.3346  0.5766  1.1575
 9832TIP3    H229430   4.659   7.823   5.677 -0.4404 -0.1025 -0.9443
 9833TIP3   OH229431   3.843   1.079   5.945 -0.3069 -0.8459  0.1098
 9833TIP3    H129432   3.914   1.107   6.002 -0.3520 -0.0296 -0.2210
 9833TIP3    H229433   3.801   1.008   5.993 -0.7159  0.2178  1.3906
 9834TIP3   OH229434   1.098   5.797   0.908 -0.0242 -0.5195 -0.5638
 9834TIP3    H129435   1.037   5.723   0.910 -2.0427  1.1316  1.5808
 9834TIP3    H229436   1.054   5.863   0.855  1.4910 -0.5670 -1.9290
 9835TIP3   OH229437   8.161   4.275   1.725 -0.2912 -0.0053  0.3923
 9835TIP3    H129438   8.105   4.309   1.794 -0.2733 -0.7607  0.7797
 9835TIP3    H229439   8.104   4.268   1.649 -0.0939  1.7294  0.0478
 9836TIP3   OH229440   5.339   1.829   5.786  0.0193  0.0850  0.2504
 9836TIP3    H129441   5.276   1.901   5.777 -0.0461  0.3998  2.7653
 9836TIP3    H229442   5.424   1.871   5.772  0.0612  0.9475  2.6697
 9837TIP3   OH229443   1.402   7.692   6.618  0.2020 -0.2203 -0.3568
 9837TIP3    H129444   1.360   7.708   6.533  0.2961  0.8234 -0.2070
 9837TIP3    H229445   1.329   7.675   6.678 -0.0760  2.3641  0.0734
 9838TIP3   OH229446   5.717   1.020   5.550 -0.1585 -0.2254 -0.3703
 9838TIP3    H129447   5.637   1.047   5.505 -0.3025 -1.1556 -0.6929
 9838TIP3    H229448   5.731   0.930   5.520  0.6870 -0.2600  0.1356
 9839TIP3   OH229449   0.341   5.897   1.613 -0.1270  0.0192 -0.2319
 9839TIP3    H129450   0.259   5.940   1.639  1.1347  1.1847  1.9833
 9839TIP3    H229451   0.360   5.837   1.685  0.9264 -0.2972 -0.7670
 9840TIP3   OH229452   1.958   5.460   1.245  1.0136  0.1449 -0.0063
 9840TIP3    H129453   1.876   5.461   1.294  1.4829  2.6956  0.7819
 9840TIP3    H229454   2.015   5.402   1.295  0.1573 -0.5252  0.2029
 9841TIP3   OH229455   6.738   1.771   6.401  0.2542  0.1429  0.3108
 9841TIP3    H129456   6.664   1.727   6.359 -0.0974  0.0713  0.9953
 9841TIP3    H229457   6.802   1.782   6.331 -1.0798  1.7411 -0.7188
 9842TIP3   OH229458   0.579   5.461   1.212 -0.0096  0.1697 -0.6765
 9842TIP3    H129459   0.496   5.501   1.239 -0.0879 -0.5315  0.1371
 9842TIP3    H229460   0.646   5.509   1.260 -0.1396 -0.9885  0.7064
 9843TIP3   OH229461   4.124   7.451   5.377  0.5212  0.1312 -0.2724
 9843TIP3    H129462   4.196   7.389   5.380  0.3527 -0.0734 -0.4376
 9843TIP3    H229463   4.059   7.417   5.439  0.5738  0.3225 -0.1119
 9844TIP3   OH229464   8.431   3.191   0.930 -0.0709 -0.2795  0.8973
 9844TIP3    H129465   8.370   3.138   0.879 -1.5264 -1.4791  3.8001
 9844TIP3    H229466   8.400   3.281   0.919 -2.2323 -0.8416  2.1001
 9845TIP3   OH229467   7.655   5.474   0.031 -0.2598  0.3975  0.4511
 9845TIP3    H129468   7.727   5.514   0.080 -0.0101  2.8321 -1.7853
 9845TIP3    H229469   7.578   5.526   0.054 -0.7832 -0.5176  0.7813
 9846TIP3   OH229470   8.400   7.175   0.813 -0.5965  0.2928  0.0253
 9846TIP3    H129471   8.384   7.172   0.719 -1.5942 -0.0988  0.2092
 9846TIP3    H229472   8.454   7.254   0.825  1.0361 -0.6298 -1.0773
 9847TIP3   OH229473   5.418   0.155   5.392 -0.3382  0.4195 -0.0717
 9847TIP3    H129474   5.386   0.126   5.478 -0.6780  1.3396  0.1135
 9847TIP3    H229475   5.357   0.115   5.330  0.6447 -1.2856  0.0225
 9848TIP3   OH229476   8.465   6.433   0.892 -0.6559  0.2665  0.4534
 9848TIP3    H129477   8.537   6.495   0.902 -0.2971  0.1018 -1.0493
 9848TIP3    H229478   8.400   6.462   0.956 -0.9507  2.8193 -0.9420
 9849TIP3   OH229479   2.783   2.642   0.906 -0.2273 -0.1518  0.6996
 9849TIP3    H129480   2.717   2.673   0.844  1.4945  1.1042 -0.5546
 9849TIP3    H229481   2.820   2.564   0.864 -0.0078 -0.0964  0.7907
 9850TIP3   OH229482   8.166   4.224   1.186 -0.2700 -0.4062  0.1410
 9850TIP3    H129483   8.074   4.228   1.210 -0.3247  0.9641 -0.2250
 9850TIP3    H229484   8.183   4.307   1.140  1.5355  0.0927  1.6377
 9851TIP3   OH229485   5.767   2.486   4.698 -0.0376  0.1807 -0.2303
 9851TIP3    H129486   5.781   2.405   4.649 -1.0795  0.5568 -1.1791
 9851TIP3    H229487   5.701   2.463   4.763 -1.9827  0.8159 -1.9461
 9852TIP3   OH229488   0.146   4.686   0.652  0.0951  0.1923 -0.0017
 9852TIP3    H129489   0.057   4.714   0.630 -0.2881 -1.5179 -0.7600
 9852TIP3    H229490   0.138   4.645   0.738 -0.2284 -1.6815 -0.9107
 9853TIP3   OH229491   6.291   0.991   5.699 -0.5483 -0.3609 -0.0259
 9853TIP3    H129492   6.220   0.930   5.682 -0.9940  0.0548  0.3475
 9853TIP3    H229493   6.259   1.047   5.769  0.6814 -1.0807  1.1557
 9854TIP3   OH229494   6.677   1.202   6.103 -0.0329  0.6495 -0.3650
 9854TIP3    H129495   6.690   1.109   6.122  0.4250  0.5469 -1.1692
 9854TIP3    H229496   6.718   1.247   6.177 -1.0580  0.2064  0.4908
 9855TIP3   OH229497   1.030   5.212   0.893  0.2760  0.0110  0.3036
 9855TIP3    H129498   1.064   5.295   0.859 -1.9550  1.2195  0.9176
 9855TIP3    H229499   1.021   5.228   0.987  2.0508 -1.7482  0.8040
 9856TIP3   OH229500   0.108   4.161   2.283 -0.5218 -0.2510 -0.0273
 9856TIP3    H129501   0.061   4.090   2.328  1.5173 -0.4144  1.9761
 9856TIP3    H229502   0.180   4.117   2.239 -0.3971  0.3469 -0.4178
 9857TIP3   OH229503   0.921   6.472   6.870 -0.6260 -0.1158  0.4255
 9857TIP3    H129504   0.908   6.566   6.863 -0.7602 -0.0209  1.7641
 9857TIP3    H229505   0.879   6.448   6.953  2.3405 -0.8165  1.7981
 9858TIP3   OH229506   6.921   2.975   5.515  0.3298  0.3739  0.4568
 9858TIP3    H129507   6.902   3.035   5.442  0.3007  1.2642  1.1781
 9858TIP3    H229508   6.843   2.979   5.570 -0.8721 -2.5831 -0.9731
 9859TIP3   OH229509   7.231   5.467   0.645  0.5625 -0.2595  0.0903
 9859TIP3    H129510   7.184   5.543   0.678 -1.0963 -1.1613 -0.1452
 9859TIP3    H229511   7.270   5.496   0.563 -0.6487  0.1321 -0.3527
 9860TIP3   OH229512   4.615   1.093   5.907 -0.3009 -0.0587 -0.1080
 9860TIP3    H129513   4.649   1.139   5.984 -1.5401  1.8073 -0.6318
 9860TIP3    H229514   4.541   1.147   5.877 -0.5857 -1.3796 -1.9065
 9861TIP3   OH229515   1.209   5.088   0.381  0.4681  0.0084  0.0422
 9861TIP3    H129516   1.199   5.154   0.312  1.1974  1.6171  1.4473
 9861TIP3    H229517   1.143   5.111   0.446 -0.2902 -1.5642 -0.1331
 9862TIP3   OH229518   4.973   2.907   6.154 -0.0339 -0.1494  1.4669
 9862TIP3    H129519   4.906   2.841   6.137  0.8155 -1.0722  1.6670
 9862TIP3    H229520   5.011   2.881   6.238  0.4653  0.4578  1.4288
 9863TIP3   OH229521   5.385   2.024   4.819  0.1043  0.8334  0.0190
 9863TIP3    H129522   5.343   2.067   4.893 -0.1260 -0.8734  0.9134
 9863TIP3    H229523   5.478   2.020   4.842 -0.0217 -0.0263  0.3864
 9864TIP3   OH229524   4.613   2.863   6.785 -0.0189 -0.0835  0.1173
 9864TIP3    H129525   4.549   2.934   6.782  1.8669  1.6514  0.4741
 9864TIP3    H229526   4.607   2.822   6.698 -1.1427  0.4596 -0.0737
 9865TIP3   OH229527   6.051   3.220   4.641  0.0667  0.1416  0.3645
 9865TIP3    H129528   5.974   3.173   4.671 -0.9457  2.0324  0.8132
 9865TIP3    H229529   6.018   3.307   4.618  1.9244  0.7136 -0.2071
 9866TIP3   OH229530   1.723   6.588   1.022  0.2275  0.6095 -0.0246
 9866TIP3    H129531   1.772   6.577   0.940  0.0531  2.3184 -0.3838
 9866TIP3    H229532   1.632   6.570   0.998  0.3752 -0.3226  0.1214
 9867TIP3   OH229533   0.174   2.378   6.257 -0.4090 -0.0419  0.3807
 9867TIP3    H129534   0.119   2.342   6.187  0.9976 -0.5708 -0.4803
 9867TIP3    H229535   0.112   2.405   6.325 -1.7222 -0.6736 -0.5394
 9868TIP3   OH229536   8.164   5.588   1.328 -0.1657 -0.2372  0.3204
 9868TIP3    H129537   8.073   5.578   1.300  0.0832 -3.4270  0.4426
 9868TIP3    H229538   8.161   5.572   1.422  0.3288  1.1363  0.5735
 9869TIP3   OH229539   4.450   4.084   6.854  0.1949  0.2495 -0.1422
 9869TIP3    H129540   4.469   3.991   6.844  0.2215  0.2696 -0.2793
 9869TIP3    H229541   4.486   4.107   6.940  1.0753  0.3570 -0.5314
 9870TIP3   OH229542   0.574   5.819   0.482 -0.5047  0.3425 -0.0722
 9870TIP3    H129543   0.558   5.890   0.420 -0.9385  2.1808  2.0763
 9870TIP3    H229544   0.646   5.851   0.537  1.2883 -2.1146 -0.8676
 9871TIP3   OH229545   4.919   1.339   5.541  0.2083 -0.1757  0.1128
 9871TIP3    H129546   4.884   1.415   5.588 -1.4394 -1.3038  0.7502
 9871TIP3    H229547   4.942   1.276   5.610 -0.0097 -0.9205 -0.4888
 9872TIP3   OH229548   7.855   7.077   0.285 -0.6289  0.0173 -0.7926
 9872TIP3    H129549   7.808   7.157   0.259 -0.5252  0.3892  0.1552
 9872TIP3    H229550   7.812   7.008   0.235  0.8646  0.9749 -3.4752
 9873TIP3   OH229551   6.572   2.076   6.938 -0.0980  0.0618  0.0438
 9873TIP3    H129552   6.638   2.030   6.886  0.9265 -0.2465  1.5956
 9873TIP3    H229553   6.489   2.037   6.911  0.3765  0.1030 -1.5587
 9874TIP3   OH229554   5.396   0.818   5.739  0.4487 -0.0420  0.3274
 9874TIP3    H129555   5.487   0.794   5.750  0.4867  0.2818  0.7286
 9874TIP3    H229556   5.347   0.736   5.754  0.6125 -0.0030  1.0674
 9875TIP3   OH229557   6.191   2.688   5.196 -0.3732 -0.1288  0.0899
 9875TIP3    H129558   6.239   2.718   5.274 -0.6414  1.8859 -0.4801
 9875TIP3    H229559   6.124   2.754   5.183 -0.9055 -0.9410 -1.3355
 9876TIP3   OH229560   6.553   0.654   6.592  0.0149 -0.1026 -0.3329
 9876TIP3    H129561   6.535   0.633   6.683 -0.0981 -0.1719 -0.3709
 9876TIP3    H229562   6.552   0.750   6.589  2.2161 -0.0338  0.1761
 9877TIP3   OH229563   2.149   4.355   0.970 -0.6906 -0.1858  0.1623
 9877TIP3    H129564   2.158   4.441   0.929 -0.2738  0.6112  1.8614
 9877TIP3    H229565   2.084   4.309   0.917 -2.1151  1.7647  0.1668
 9878TIP3   OH229566   4.433   7.023   4.487 -0.1694 -0.4834 -0.1991
 9878TIP3    H129567   4.424   6.928   4.480 -0.0198 -0.5880  1.0429
 9878TIP3    H229568   4.401   7.056   4.402  0.2740 -1.6641 -0.8377
 9879TIP3   OH229569   8.270   5.189   6.123  0.2899 -0.0883 -0.2524
 9879TIP3    H129570   8.357   5.169   6.089  0.1537  0.4840 -0.9581
 9879TIP3    H229571   8.220   5.217   6.046 -0.1155  0.9028  0.3602
 9880TIP3   OH229572   0.061   0.327   6.485 -0.1100 -0.0513 -0.0552
 9880TIP3    H129573   0.003   0.388   6.439  0.4308  1.2164  0.9215
 9880TIP3    H229574   0.149   0.359   6.466  0.1652 -0.3653  0.6799
 9881TIP3   OH229575   4.727   7.186   5.587 -0.6802  0.0651  1.2125
 9881TIP3    H129576   4.756   7.162   5.676 -0.8913  0.0010  1.2636
 9881TIP3    H229577   4.799   7.158   5.531 -0.8682 -0.5825  1.2842
 9882TIP3   OH229578   4.684   1.975   4.910  0.2872 -0.5230 -0.0815
 9882TIP3    H129579   4.708   2.014   4.827 -1.0795  0.6511  0.0544
 9882TIP3    H229580   4.746   2.011   4.973  0.4940 -0.3909 -0.3607
 9883TIP3   OH229581   7.057   0.134   4.642 -0.0670  1.1920 -0.2500
 9883TIP3    H129582   7.010   0.080   4.579 -0.0005  2.0481 -1.0345
 9883TIP3    H229583   7.082   0.073   4.711  0.1154  0.1889 -1.1856
 9884TIP3   OH229584   7.109   1.499   6.546 -0.3160  0.2313  0.4753
 9884TIP3    H129585   7.182   1.539   6.594 -0.2572  0.2827  0.3418
 9884TIP3    H229586   7.039   1.564   6.552 -0.0239  0.6199 -0.2666
 9885TIP3   OH229587   7.682   2.357   6.431 -0.0851  0.1369  0.0903
 9885TIP3    H129588   7.619   2.307   6.379  1.3210 -2.5325  0.8728
 9885TIP3    H229589   7.659   2.337   6.522  1.4623 -0.3060  0.3892
 9886TIP3   OH229590   4.550   5.249   0.308  0.0240 -0.1249  0.3527
 9886TIP3    H129591   4.531   5.338   0.280  0.2088 -0.2878 -0.2958
 9886TIP3    H229592   4.476   5.225   0.364  0.3840  0.7278  1.2000
 9887TIP3   OH229593   0.797   2.843   6.894 -0.1490  0.3457  0.6719
 9887TIP3    H129594   0.792   2.818   6.987  0.2106  2.6096  1.3211
 9887TIP3    H229595   0.884   2.881   6.884 -0.2105  0.1572 -0.5913
 9888TIP3   OH229596   6.315   0.845   5.166 -0.0015 -0.3791  0.5377
 9888TIP3    H129597   6.367   0.878   5.239  1.8469  1.4689 -1.5686
 9888TIP3    H229598   6.246   0.911   5.154 -1.4766 -1.6423  1.7966
 9889TIP3   OH229599   6.961   0.249   5.512  0.8114  0.3638  0.2645
 9889TIP3    H129600   6.920   0.323   5.466  1.6977  0.9505  0.3925
 9889TIP3    H229601   7.053   0.255   5.487  1.1442  0.1723  1.4408
 9890TIP3   OH229602   3.087   5.143   1.349  0.2244 -0.2191 -0.5148
 9890TIP3    H129603   3.157   5.099   1.300 -0.3229 -2.3885  0.6044
 9890TIP3    H229604   3.131   5.215   1.395  1.6709 -1.4148 -0.0066
 9891TIP3   OH229605   1.770   4.649   1.300  0.0089 -0.3508 -0.1746
 9891TIP3    H129606   1.755   4.611   1.386  1.2709 -0.5994 -0.0494
 9891TIP3    H229607   1.737   4.738   1.307 -0.3793 -0.5362  0.4028
 9892TIP3   OH229608   5.139   1.035   4.996  0.5677 -0.0138 -0.0904
 9892TIP3    H129609   5.094   0.955   4.969  2.5883 -1.2659  0.1756
 9892TIP3    H229610   5.169   1.074   4.914  0.0142  0.2090 -0.1866
 9893TIP3   OH229611   0.241   5.690   0.779 -0.0179 -0.4902 -0.0310
 9893TIP3    H129612   0.293   5.693   0.699  0.3592  0.8841  0.2489
 9893TIP3    H229613   0.204   5.778   0.787  0.5688 -0.3782  1.7038
 9894TIP3   OH229614   7.926   1.044   6.040  0.1924  0.0931 -0.2702
 9894TIP3    H129615   7.880   0.983   5.984 -3.0838  1.7742  0.4886
 9894TIP3    H229616   7.896   1.023   6.129  0.6953  1.3857  0.2269
 9895TIP3   OH229617   7.641   0.311   5.810  0.0510  0.0799 -0.1981
 9895TIP3    H129618   7.546   0.322   5.804 -0.1740 -1.4902  0.2334
 9895TIP3    H229619   7.654   0.218   5.825  1.6391  0.3693  0.4202
 9896TIP3   OH229620   8.316   2.194   5.730  0.1433 -0.1858  0.1303
 9896TIP3    H129621   8.237   2.146   5.705  0.8983 -1.2084 -0.3332
 9896TIP3    H229622   8.302   2.218   5.822 -0.0795 -1.6663  0.4946
 9897TIP3   OH229623   7.526   1.410   5.712 -0.3320 -0.1284 -0.3891
 9897TIP3    H129624   7.611   1.417   5.756 -0.5589 -0.2122  0.0680
 9897TIP3    H229625   7.478   1.488   5.741 -0.3203  0.0574 -0.8540
 9898TIP3   OH229626   6.174   2.858   6.363 -0.3817  0.4264 -0.3513
 9898TIP3    H129627   6.083   2.863   6.393 -0.3576 -0.2812 -0.1485
 9898TIP3    H229628   6.168   2.849   6.268 -0.5503 -0.4183 -0.2652
 9899TIP3   OH229629   2.283   4.769   0.695 -0.0430 -0.2932  0.4245
 9899TIP3    H129630   2.247   4.811   0.616  0.4110 -2.5340 -1.0076
 9899TIP3    H229631   2.251   4.824   0.767 -0.3747  1.8770 -1.2991
 9900TIP3   OH229632   1.672   1.915   6.563  0.4222 -0.2553  0.4913
 9900TIP3    H129633   1.590   1.890   6.521  1.2286 -1.0165 -0.6934
 9900TIP3    H229634   1.646   1.967   6.639 -1.1015  0.5202 -0.5334
 9901TIP3   OH229635   5.122   7.341   6.016 -0.3441 -0.2644 -0.2886
 9901TIP3    H129636   5.125   7.247   6.000  3.2521 -0.3980  0.8125
 9901TIP3    H229637   5.204   7.374   5.979 -0.9004  2.2523  0.6267
 9902TIP3   OH229638   8.441   1.419   5.834  0.1415 -0.0886 -0.0342
 9902TIP3    H129639   8.456   1.510   5.807 -0.9878 -0.2128 -1.1329
 9902TIP3    H229640   8.449   1.420   5.929  1.4238  0.9123 -0.1323
 9903TIP3   OH229641   0.470   1.411   5.926  0.1692  0.0289 -0.7225
 9903TIP3    H129642   0.390   1.362   5.911  0.8451 -1.3344  0.0172
 9903TIP3    H229643   0.498   1.386   6.014  1.7392 -0.0146 -1.2064
 9904TIP3   OH229644   1.785   6.955   0.100 -0.6272  0.1871 -0.1112
 9904TIP3    H129645   1.807   7.038   0.058  0.4211  0.5597  1.1244
 9904TIP3    H229646   1.689   6.955   0.105 -0.6833  0.8380 -1.0547
 9905TIP3   OH229647   7.640   0.039   5.844 -0.2695 -0.2756 -0.4659
 9905TIP3    H129648   7.547   0.026   5.863 -0.1466  0.2554  0.5632
 9905TIP3    H229649   7.682  -0.042   5.875  0.1433  1.2555  3.3043
 9906TIP3   OH229650   2.514   4.136   0.649  0.1160  0.1203  0.2814
 9906TIP3    H129651   2.600   4.119   0.688  0.2407 -0.2493 -0.1455
 9906TIP3    H229652   2.471   4.050   0.648 -0.0447  0.2051 -0.0203
 9907TIP3   OH229653   7.257   1.769   6.739  0.6067 -0.2808  0.2005
 9907TIP3    H129654   7.294   1.774   6.651  0.1633  2.2299  0.1229
 9907TIP3    H229655   7.326   1.730   6.792  1.2812 -0.7935 -1.0467
 9908TIP3   OH229656   6.852   0.998   5.818  0.3865 -0.0979  0.0549
 9908TIP3    H129657   6.826   1.073   5.764  0.1574  1.6514  2.5104
 9908TIP3    H229658   6.935   1.025   5.858  0.3458 -1.1996  0.9079
 9909TIP3   OH229659   7.138   1.026   3.073  1.0907 -0.3805 -0.3337
 9909TIP3    H129660   7.146   1.094   3.141  1.1402 -2.1268  1.4439
 9909TIP3    H229661   7.047   1.031   3.044  0.7202 -0.4635  0.7831
 9910TIP3   OH229662   7.621   5.648   0.616  0.1543 -0.5110 -0.2217
 9910TIP3    H129663   7.570   5.727   0.600 -0.7597 -1.3585 -1.5739
 9910TIP3    H229664   7.704   5.680   0.651 -1.6580  0.8384  3.0858
 9911TIP3   OH229665   6.659   2.703   6.594 -0.3623  0.3811 -0.3065
 9911TIP3    H129666   6.685   2.679   6.683 -0.6569 -1.5963 -0.7271
 9911TIP3    H229667   6.564   2.696   6.593 -0.2790 -0.9583 -1.1230
 9912TIP3   OH229668   2.988   6.418   1.409  0.7715  0.3207 -0.0445
 9912TIP3    H129669   2.955   6.329   1.426  0.5999  0.5594  0.8825
 9912TIP3    H229670   2.957   6.438   1.321 -1.0393  0.2744  0.5606
 9913TIP3   OH229671   6.113   0.803   4.152  0.6405 -0.4718 -0.0526
 9913TIP3    H129672   6.087   0.895   4.150  1.4185 -0.2393  0.4635
 9913TIP3    H229673   6.202   0.804   4.186  0.1647 -1.5192  1.2394
 9914TIP3   OH229674   0.429   2.171   5.840 -0.5575 -0.1602  0.6154
 9914TIP3    H129675   0.523   2.175   5.825 -0.4454  2.4715  1.6534
 9914TIP3    H229676   0.391   2.214   5.763 -0.7919  0.2335  0.9453
 9915TIP3   OH229677   0.702   6.697   1.782 -0.0237  0.1725 -0.1671
 9915TIP3    H129678   0.669   6.607   1.788  0.0879  0.2847  2.9650
 9915TIP3    H229679   0.663   6.731   1.701 -1.7696 -2.0065 -0.3081
 9916TIP3   OH229680   2.528   5.127   0.609 -0.0679 -0.1637 -0.2291
 9916TIP3    H129681   2.537   5.045   0.560 -1.9120 -0.7200  0.3391
 9916TIP3    H229682   2.551   5.103   0.699  0.0343  0.0930 -0.1869
 9917TIP3   OH229683   7.383   1.122   4.401  0.4679  0.0969 -0.1345
 9917TIP3    H129684   7.376   1.191   4.467  0.1482  0.1708 -0.2423
 9917TIP3    H229685   7.366   1.166   4.318 -0.2137 -0.1986 -0.1546
 9918TIP3   OH229686   3.464   7.239   0.771  0.1505  0.1690 -0.5937
 9918TIP3    H129687   3.496   7.251   0.861 -1.5756 -0.8572  0.1827
 9918TIP3    H229688   3.491   7.150   0.748 -0.7936 -0.1476 -0.4955
 9919TIP3   OH229689   2.373   4.090   0.127 -0.2377 -0.5387 -0.5347
 9919TIP3    H129690   2.357   4.063   0.217  0.2384  2.1245  0.3884
 9919TIP3    H229691   2.289   4.123   0.096 -0.2187 -0.7538 -0.8248
 9920TIP3   OH229692   6.928   0.421   5.014 -0.1853  0.1143  0.0652
 9920TIP3    H129693   7.000   0.460   5.064  1.4222 -0.6850 -1.5849
 9920TIP3    H229694   6.936   0.458   4.926 -1.1369 -0.8117 -0.4299
 9921TIP3   OH229695   6.351   1.063   6.129 -0.8072 -0.3062 -0.8275
 9921TIP3    H129696   6.405   1.030   6.057  1.2738  0.2225  0.4311
 9921TIP3    H229697   6.410   1.064   6.205 -2.2217  1.4989  0.3134
 9922TIP3   OH229698   6.132   3.944   3.900 -0.3913 -0.3800 -0.1030
 9922TIP3    H129699   6.088   3.977   3.822 -2.2914 -0.3978  0.9352
 9922TIP3    H229700   6.212   3.997   3.907 -0.6667  0.2419 -1.5353
 9923TIP3   OH229701   6.268   2.055   6.012  0.2779  0.1460 -0.7015
 9923TIP3    H129702   6.222   2.081   6.092  0.8460  0.5577 -0.5032
 9923TIP3    H229703   6.287   1.962   6.024 -1.5502 -0.3360 -1.3046
 9924TIP3   OH229704   1.461   0.438   5.122 -0.1014  0.2227 -0.4473
 9924TIP3    H129705   1.407   0.360   5.112  0.2069  0.0277 -0.5949
 9924TIP3    H229706   1.452   0.484   5.039 -1.8822  1.3652  0.3588
 9925TIP3   OH229707   6.520   0.038   6.000  0.1051 -0.0333  0.4284
 9925TIP3    H129708   6.570  -0.023   6.055  0.2996 -1.1290 -0.9304
 9925TIP3    H229709   6.530   0.003   5.911 -1.8266  0.6004 -0.0509
 9926TIP3   OH229710   5.017   2.779   2.664  0.0157 -0.2756 -0.4018
 9926TIP3    H129711   4.956   2.709   2.641 -0.3870  0.2871 -1.0609
 9926TIP3    H229712   5.087   2.771   2.599 -0.4127  0.4134 -0.9540
 9927TIP3   OH229713   6.706   2.036   6.569 -0.1079 -0.4278 -0.7035
 9927TIP3    H129714   6.675   1.969   6.630  1.8214  0.0149  0.8181
 9927TIP3    H229715   6.795   2.057   6.599 -0.0037  1.5092 -2.2393
 9928TIP3   OH229716   5.220   7.027   5.300 -0.2527  0.3620 -0.0203
 9928TIP3    H129717   5.158   6.985   5.241 -1.3150  2.3282 -0.3446
 9928TIP3    H229718   5.186   7.008   5.388 -0.1158 -0.3675 -0.1257
 9929TIP3   OH229719   3.269   6.903   6.684 -0.2703  0.2750  0.0710
 9929TIP3    H129720   3.232   6.815   6.679 -0.2826  0.3063 -0.4718
 9929TIP3    H229721   3.279   6.920   6.777 -1.3565  0.1448  0.2174
 9930TIP3   OH229722   3.702   7.752   5.815 -0.2332 -0.0819 -0.1609
 9930TIP3    H129723   3.617   7.743   5.858  0.0673  1.7711  0.8622
 9930TIP3    H229724   3.765   7.726   5.883  0.0020 -2.5609 -1.2644
 9931TIP3   OH229725   7.116   0.426   6.104 -0.6204  0.0232 -0.3805
 9931TIP3    H129726   7.142   0.456   6.017 -0.7129  2.1249  0.3007
 9931TIP3    H229727   7.020   0.431   6.103 -0.7048 -1.3033 -0.6076
 9932TIP3   OH229728   5.857   1.419   5.547 -0.1496  0.2522 -0.7436
 9932TIP3    H129729   5.907   1.343   5.577  3.0367  1.6167 -2.4090
 9932TIP3    H229730   5.775   1.383   5.515 -0.1833 -2.0875  1.7542
 9933TIP3   OH229731   5.065   0.578   4.349  0.5027 -0.2618  0.2558
 9933TIP3    H129732   5.131   0.553   4.413  0.0242 -0.6309  0.6100
 9933TIP3    H229733   5.000   0.508   4.353 -1.8399  1.9387  2.6329
 9934TIP3   OH229734   2.755   7.235   6.317  0.4171 -0.1558 -0.1270
 9934TIP3    H129735   2.789   7.320   6.345  1.5666 -0.7842  0.4031
 9934TIP3    H229736   2.827   7.174   6.331 -0.5473 -1.3074 -0.0929
 9935TIP3   OH229737   7.507   2.663   6.840  0.3701  0.5973  0.0903
 9935TIP3    H129738   7.560   2.741   6.821  1.3553  0.1032  0.7466
 9935TIP3    H229739   7.453   2.688   6.915 -0.6006  1.2215 -0.8071
 9936TIP3   OH229740   1.935   3.727   0.344 -0.5277 -0.2442  0.2077
 9936TIP3    H129741   1.935   3.635   0.372  0.8407 -0.2906  0.1075
 9936TIP3    H229742   1.871   3.769   0.401 -0.1217 -0.9817  1.2394
 9937TIP3   OH229743   4.909   7.267   5.136 -0.0732  0.4532  0.5173
 9937TIP3    H129744   4.833   7.301   5.089  0.2819  0.3793 -0.1169
 9937TIP3    H229745   4.966   7.232   5.068  0.9432  1.3249  0.8947
 9938TIP3   OH229746   2.198   3.037   0.711  0.0314  0.2745  0.3217
 9938TIP3    H129747   2.190   2.976   0.637  1.6506 -2.1826  2.0978
 9938TIP3    H229748   2.204   3.123   0.670  3.7464 -1.2378 -2.6525
 9939TIP3   OH229749   7.463   2.255   6.277 -0.2293 -0.0189 -0.1387
 9939TIP3    H129750   7.440   2.167   6.309 -0.6581 -0.3395 -1.3052
 9939TIP3    H229751   7.386   2.308   6.295  0.7047  0.5976  2.2764
 9940TIP3   OH229752   0.527   3.258   6.355 -0.1909 -0.4771  0.3828
 9940TIP3    H129753   0.466   3.200   6.310 -0.7897 -0.0518  0.6250
 9940TIP3    H229754   0.613   3.217   6.345 -0.7886 -2.1196  1.7119
 9941TIP3   OH229755   8.225   2.548   6.530  0.4268 -0.0369  0.1326
 9941TIP3    H129756   8.162   2.476   6.528 -0.0166  0.3898 -2.3001
 9941TIP3    H229757   8.173   2.624   6.556  0.0303  0.1864 -1.2512
 9942TIP3   OH229758   8.392   0.315   5.449 -0.1035  0.2540 -0.1856
 9942TIP3    H129759   8.364   0.383   5.388  0.8784  0.8229 -0.0227
 9942TIP3    H229760   8.377   0.354   5.536 -1.3025 -0.4689 -0.0726
 9943TIP3   OH229761   0.293   1.059   6.674  0.6336 -0.1459 -0.2126
 9943TIP3    H129762   0.348   1.119   6.722 -0.0095  1.5349 -1.5374
 9943TIP3    H229763   0.305   1.082   6.582 -1.2661 -0.5950 -0.6099
 9944TIP3   OH229764   6.133   0.092   6.598 -0.2781 -0.2204 -0.2289
 9944TIP3    H129765   6.204   0.062   6.654 -1.2560  0.5278  1.4384
 9944TIP3    H229766   6.093   0.012   6.564 -0.5496 -0.7342  1.2663
 9945TIP3   OH229767   1.630   6.681   0.131  0.1512 -0.4001 -0.0147
 9945TIP3    H129768   1.567   6.753   0.121  0.9947  0.3548  0.0457
 9945TIP3    H229769   1.691   6.712   0.198 -0.5530 -1.9465  1.3480
 9946TIP3   OH229770   6.592   0.225   6.303  0.0209  0.2766 -0.3219
 9946TIP3    H129771   6.683   0.195   6.308 -0.0722  0.0002 -0.3076
 9946TIP3    H229772   6.540   0.146   6.310 -0.2094  0.3330 -1.3824
 9947TIP3   OH229773   6.452   0.520   5.875  0.3274  0.1227  0.2245
 9947TIP3    H129774   6.465   0.452   5.941  0.4301  0.0045  0.0820
 9947TIP3    H229775   6.358   0.524   5.862  0.4278 -1.1348 -0.9702
 9948TIP3   OH229776   5.176   0.997   5.925  0.2321  0.4784 -0.4432
 9948TIP3    H129777   5.245   1.008   5.990  0.0678  0.9443 -0.3410
 9948TIP3    H229778   5.206   0.925   5.869  0.1480 -0.2441  0.4418
 9949TIP3   OH229779   0.283   1.537   4.001  0.6477  0.3071  0.2938
 9949TIP3    H129780   0.376   1.539   3.978  0.6002  3.3954  0.1690
 9949TIP3    H229781   0.238   1.522   3.917  0.9780  0.3928  0.1013
 9950TIP3   OH229782   3.229   4.412   2.182 -0.1945 -0.0158  0.5714
 9950TIP3    H129783   3.188   4.451   2.104  0.1300  0.1338  0.4743
 9950TIP3    H229784   3.310   4.462   2.193  0.4270 -0.9348  0.2097
 9951TIP3   OH229785   2.617   4.203   0.169 -0.0790 -0.1033  0.1272
 9951TIP3    H129786   2.529   4.167   0.184 -0.0544  0.0795  0.7048
 9951TIP3    H229787   2.646   4.233   0.255  1.0497 -1.2809  0.1622
 9952TIP3   OH229788   2.212   4.647   0.122  0.1480  0.0476  0.6255
 9952TIP3    H129789   2.248   4.734   0.105  0.0227  0.2627  1.4317
 9952TIP3    H229790   2.249   4.592   0.053 -0.0093  0.8002 -0.0631
 9953TIP3   OH229791   0.019   0.785   6.401  0.1178  0.4388 -0.1025
 9953TIP3    H129792  -0.035   0.707   6.387 -0.5123  0.7159  0.7556
 9953TIP3    H229793   0.032   0.821   6.313 -2.4577  1.2541 -0.1873
 9954TIP3   OH229794   0.695   0.485   5.576  0.5062 -0.1121 -0.1192
 9954TIP3    H129795   0.685   0.497   5.481  0.2519 -2.1272 -0.3701
 9954TIP3    H229796   0.722   0.394   5.585 -0.6722 -0.2856  1.8364
 9955TIP3   OH229797   8.218   1.436   5.529 -0.1551  0.3400 -0.4944
 9955TIP3    H129798   8.190   1.476   5.611  3.6335 -0.4335  1.2879
 9955TIP3    H229799   8.210   1.342   5.544 -0.3919  0.2036 -1.4059
 9956TIP3   OH229800   1.979   7.004   0.489 -0.4537 -0.4480 -0.5315
 9956TIP3    H129801   2.012   7.040   0.406 -1.3815  1.8638  0.0469
 9956TIP3    H229802   2.056   6.971   0.533  0.1457 -1.1449 -2.0538
 9957TIP3   OH229803   0.350   3.082   6.256  0.3711  0.2359  0.6642
 9957TIP3    H129804   0.257   3.064   6.268  0.2532  2.4513  3.6074
 9957TIP3    H229805   0.393   2.999   6.276 -0.8600 -0.2154  1.4936
 9958TIP3   OH229806   7.295   0.903   6.001 -0.0363 -0.4879 -0.5782
 9958TIP3    H129807   7.358   0.974   6.012 -0.6556  0.1098 -0.8777
 9958TIP3    H229808   7.347   0.830   5.966  0.6551 -0.2783 -0.0018
 9959TIP3   OH229809   0.573   2.229   5.004  0.3892  0.5999  0.1855
 9959TIP3    H129810   0.485   2.206   4.976 -0.4175  2.9966  0.6116
 9959TIP3    H229811   0.602   2.155   5.058 -1.2704 -0.2903 -0.1306
 9960TIP3   OH229812   8.463   0.838   5.267 -0.0506  0.1442 -0.2831
 9960TIP3    H129813   8.501   0.916   5.308  0.7999 -0.1747 -0.4563
 9960TIP3    H229814   8.503   0.835   5.180 -2.1387  1.0410 -1.2983
 9961TIP3   OH229815   8.229   0.622   6.633 -0.1107  0.6120  0.0818
 9961TIP3    H129816   8.306   0.677   6.619  0.9872 -0.7255  0.7115
 9961TIP3    H229817   8.233   0.557   6.563  1.3069 -1.6047  2.1641
 9962TIP3   OH229818   6.515   1.170   6.776  0.4159  0.0965  0.6523
 9962TIP3    H129819   6.590   1.202   6.725  0.2651  1.4210  1.2316
 9962TIP3    H229820   6.464   1.118   6.713  0.8368  0.7529 -0.2466
 9963TIP3   OH229821   7.741   1.310   5.034  0.4595 -0.0342  0.5599
 9963TIP3    H129822   7.648   1.336   5.032  0.5515  0.2322 -0.7355
 9963TIP3    H229823   7.746   1.236   4.974  0.8026 -1.0615  1.8413
 9964TIP3   OH229824   8.125   1.593   5.736 -0.7452 -0.3441 -0.1314
 9964TIP3    H129825   8.035   1.618   5.713 -0.2519  1.5872 -0.0630
 9964TIP3    H229826   8.146   1.648   5.812  1.0971  0.4971 -1.2277
 9965TIP3   OH229827   7.233   1.308   5.127  0.6251 -0.0316 -0.2260
 9965TIP3    H129828   7.202   1.251   5.057 -0.8375 -1.2294  1.3614
 9965TIP3    H229829   7.161   1.369   5.142  0.2880 -0.8102  1.3301
 9966TIP3   OH229830   6.028   1.114   6.495  0.2991  0.0792  0.1943
 9966TIP3    H129831   6.040   1.188   6.555  1.5628 -0.0244  0.1023
 9966TIP3    H229832   6.044   1.037   6.548 -4.0352 -0.3217  1.0136
 9967TIP3   OH229833   7.588   0.665   3.830 -0.0626 -0.2477  0.7395
 9967TIP3    H129834   7.563   0.711   3.750  1.6225 -0.2032  0.2217
 9967TIP3    H229835   7.554   0.721   3.900 -2.2486 -0.7003  0.0716
 9968TIP3   OH229836   7.866   5.612   0.174 -0.5353  0.0103  0.2094
 9968TIP3    H129837   7.843   5.590   0.265  0.1945  0.3041  0.4708
 9968TIP3    H229838   7.886   5.706   0.176  0.2125 -0.1377 -0.0997
 9969TIP3   OH229839   8.195   1.767   6.710  0.3292 -0.2480  0.1684
 9969TIP3    H129840   8.265   1.704   6.727 -0.7381 -1.3559  0.4744
 9969TIP3    H229841   8.220   1.844   6.761  1.4577 -0.5313  0.0697
 9970TIP3   OH229842   1.981   6.655   0.457  0.5073 -0.5727  0.3275
 9970TIP3    H129843   1.902   6.708   0.467  0.6030 -0.7648  2.3005
 9970TIP3    H229844   2.050   6.718   0.435 -0.4765 -0.5958 -3.1415
 9971TIP3   OH229845   5.565   0.920   6.374  0.1990 -0.5530 -0.3009
 9971TIP3    H129846   5.635   0.855   6.381  0.4248 -0.1235  1.7388
 9971TIP3    H229847   5.606   1.002   6.401 -0.4581  0.1990 -1.5171
 9972TIP3   OH229848   1.801   3.875   0.148  0.2178 -1.3399  0.1939
 9972TIP3    H129849   1.803   3.970   0.152 -0.2550 -1.2179 -1.9195
 9972TIP3    H229850   1.867   3.846   0.211  1.0008  0.3923  0.1701
 9973TIP3   OH229851   6.591   0.889   6.421 -0.1401 -0.4536  0.3031
 9973TIP3    H129852   6.621   0.889   6.330 -0.3733 -2.7165  0.2081
 9973TIP3    H229853   6.547   0.973   6.431 -0.5841 -0.3971 -1.8414
 9974TIP3   OH229854   0.583   5.007   0.916  0.2384 -0.3231 -0.1254
 9974TIP3    H129855   0.589   5.074   0.985 -0.7494  0.8687 -1.1864
 9974TIP3    H229856   0.583   4.924   0.964 -1.8164  0.5276  1.4250
 9975TIP3   OH229857   7.339   2.792   5.799  0.4395 -0.3959 -0.4264
 9975TIP3    H129858   7.398   2.867   5.802  0.6928 -0.6433  1.4801
 9975TIP3    H229859   7.325   2.768   5.890  0.3702 -2.6814 -0.9933
 9976TIP3   OH229860   1.002   4.899   0.346  0.2872  0.0285 -0.5897
 9976TIP3    H129861   1.017   4.847   0.267  0.8646 -3.6376  1.7901
 9976TIP3    H229862   1.084   4.944   0.361  0.3603  0.2981 -1.7721
 9977TIP3   OH229863   0.027   1.697   5.924 -0.1977 -0.1420 -0.0181
 9977TIP3    H129864  -0.003   1.787   5.916  1.1254  0.2941 -0.1860
 9977TIP3    H229865  -0.003   1.669   6.011  1.7061  1.3547  1.1545
 9978TIP3   OH229866   8.318   1.836   6.385 -0.2782  0.0830 -0.1271
 9978TIP3    H129867   8.410   1.808   6.392  0.0490  1.2791  0.6298
 9978TIP3    H229868   8.293   1.812   6.296  1.2018  0.9304 -0.8098
 9979TIP3   OH229869   6.829   3.334   6.471  0.0467  0.3965 -0.1098
 9979TIP3    H129870   6.918   3.303   6.487 -0.8019 -1.7819  0.4409
 9979TIP3    H229871   6.800   3.285   6.394  0.0536  2.6489 -1.5973
 9980TIP3   OH229872   6.482   1.404   6.142  0.4562  0.4380 -0.7512
 9980TIP3    H129873   6.389   1.384   6.142  0.7207 -0.9315  1.4187
 9980TIP3    H229874   6.525   1.319   6.126  1.3108  1.2788 -3.1126
 9981TIP3   OH229875   7.056   1.340   6.335 -0.3965 -0.2052 -0.8653
 9981TIP3    H129876   7.094   1.379   6.413 -0.7878 -2.1482  0.3217
 9981TIP3    H229877   7.129   1.331   6.274  0.2247 -0.1323 -0.1361
 9982TIP3   OH229878   1.576   3.518   5.265  0.1644  0.2422  0.4563
 9982TIP3    H129879   1.564   3.547   5.355 -0.9606 -1.7643  0.9856
 9982TIP3    H229880   1.659   3.557   5.238  0.7191  0.5483  2.4951
 9983TIP3   OH229881   6.479   1.883   5.862 -0.3961 -0.0926  0.0627
 9983TIP3    H129882   6.414   1.932   5.813  1.2198  0.6322 -1.4085
 9983TIP3    H229883   6.546   1.948   5.885 -2.2638  0.1570  5.4193
 9984TIP3   OH229884   7.976   2.150   5.961  0.1758 -0.4080  0.1045
 9984TIP3    H129885   7.892   2.121   5.996  0.0273 -1.1559 -0.8432
 9984TIP3    H229886   7.975   2.120   5.870  0.5794  1.4381 -0.5267
 9985TIP3   OH229887   0.948   1.945   0.915 -0.2882 -0.7397  0.1342
 9985TIP3    H129888   0.920   1.863   0.956  1.3174 -0.4459  1.8894
 9985TIP3    H229889   0.910   2.013   0.970  0.2793 -0.3307  0.0279
 9986TIP3   OH229890   5.671   3.045   6.563 -0.2238  0.1368  0.2119
 9986TIP3    H129891   5.590   3.075   6.521  0.8990 -0.3209 -2.4226
 9986TIP3    H229892   5.741   3.091   6.515  1.1432 -0.6634  1.3978
 9987TIP3   OH229893   0.411   2.127   5.389  0.4082  0.4135  0.2997
 9987TIP3    H129894   0.359   2.206   5.402 -0.3082 -0.1285  0.7867
 9987TIP3    H229895   0.367   2.060   5.441  0.0719 -0.7121 -1.3874
 9988TIP3   OH229896   6.702   0.842   4.476 -0.0026  0.2019 -0.2115
 9988TIP3    H129897   6.723   0.750   4.494  2.7204  1.1593  1.8755
 9988TIP3    H229898   6.772   0.872   4.419 -0.6923  1.0717 -0.6155
 9989TIP3   OH229899   4.473   7.620   4.065 -0.1581 -0.2243 -0.3566
 9989TIP3    H129900   4.430   7.537   4.084 -0.4618  0.2642  1.1370
 9989TIP3    H229901   4.565   7.605   4.089 -0.2546 -0.0777  0.1241
 9990TIP3   OH229902   4.799   7.768   5.384 -1.0564  0.4676 -0.2269
 9990TIP3    H129903   4.706   7.751   5.395 -0.9532 -0.9517 -1.3953
 9990TIP3    H229904   4.805   7.819   5.303 -0.8199  0.6204 -0.1148
 9991TIP3   OH229905   7.647   1.428   6.626 -0.1162 -0.7280 -0.8708
 9991TIP3    H129906   7.674   1.361   6.689 -2.2085 -0.8712 -0.0865
 9991TIP3    H229907   7.593   1.382   6.563 -0.4648 -0.0303 -1.0920
 9992TIP3   OH229908   0.464   0.146   5.999  0.6477 -0.3633 -0.0098
 9992TIP3    H129909   0.389   0.190   6.039 -0.2247 -1.4641 -0.4282
 9992TIP3    H229910   0.537   0.165   6.059 -0.2780 -0.5371  1.1917
 9993TIP3   OH229911   7.243   1.542   4.718  0.0167  0.1210 -0.5093
 9993TIP3    H129912   7.172   1.585   4.671 -0.9909  0.0837  0.9675
 9993TIP3    H229913   7.236   1.574   4.808  0.0401 -2.1409  0.3267
 9994TIP3   OH229914   5.580   2.470   4.208  0.6754 -0.0685 -0.1954
 9994TIP3    H129915   5.485   2.467   4.201  0.5549  1.1361  0.7313
 9994TIP3    H229916   5.597   2.534   4.277  2.0854 -2.0493  1.3733
 9995TIP3   OH229917   1.368   3.748   0.549  0.1387  0.2109 -0.2282
 9995TIP3    H129918   1.280   3.783   0.537 -0.6179 -0.4512  2.9612
 9995TIP3    H229919   1.414   3.772   0.468 -1.7669  4.1506 -0.3067
 9996TIP3   OH229920   0.402   6.315   0.790 -0.7254  0.1035  0.0019
 9996TIP3    H129921   0.374   6.329   0.881  0.4267 -1.9040  0.6952
 9996TIP3    H229922   0.490   6.353   0.786 -0.3117 -0.8351  0.0530
 9997TIP3   OH229923   1.038   4.854   0.023 -0.0220  0.1708  0.4151
 9997TIP3    H129924   0.984   4.928   0.049 -0.8297 -0.5487  0.7869
 9997TIP3    H229925   1.004   4.780   0.073  0.8832 -0.4231  0.1702
 9998TIP3   OH229926   1.882   1.147   4.176  0.0689 -0.1812  0.8132
 9998TIP3    H129927   1.815   1.133   4.243  0.1351  0.2789  0.9751
 9998TIP3    H229928   1.837   1.195   4.107 -0.6952 -2.8427 -0.6369
 9999TIP3   OH229929   6.566   1.563   3.337 -0.6833 -0.5209  0.1280
 9999TIP3    H129930   6.480   1.569   3.295  0.2563  5.3447 -1.4285
 9999TIP3    H229931   6.552   1.599   3.424  0.0527 -0.4001  0.1938
10000TIP3   OH229932   1.408   2.371   5.710 -0.0927  1.1648  0.1339
10000TIP3    H129933   1.462   2.343   5.636  0.8445  0.0106  1.2219
10000TIP3    H229934   1.405   2.295   5.768 -0.3705  2.1983  1.5210
10001TIP3   OH229935   6.500   2.826   3.102  0.2773  0.2354 -0.3405
10001TIP3    H129936   6.460   2.766   3.039  0.8634 -1.4773  0.8755
10001TIP3    H229937   6.575   2.864   3.055 -0.5362  0.5714 -1.3657
10002TIP3   OH229938   2.749   6.488   0.564  0.1803  0.0147 -0.1109
10002TIP3    H129939   2.736   6.572   0.521 -0.5337 -0.6532 -1.2534
10002TIP3    H229940   2.787   6.509   0.649 -0.8652  1.5337 -0.0056
10003TIP3   OH229941   0.293   2.783   4.778  0.5749 -0.6834 -0.0538
10003TIP3    H129942   0.258   2.834   4.705 -2.2573  0.4821  2.0451
10003TIP3    H229943   0.274   2.692   4.756  0.8574 -0.4389 -1.3277
10004TIP3   OH229944   6.618   0.679   5.372  0.1369 -0.1951 -0.3829
10004TIP3    H129945   6.655   0.674   5.461 -0.4932 -0.4437 -0.1305
10004TIP3    H229946   6.544   0.619   5.374 -1.8581  2.1738 -0.1016
10005TIP3   OH229947   3.927   6.928   4.119  0.0182  0.3199  0.3404
10005TIP3    H129948   3.841   6.888   4.132 -0.1170  0.7075  0.6467
10005TIP3    H229949   3.970   6.920   4.204  0.6941 -0.8395 -0.1048
10006TIP3   OH229950   3.040   5.291   0.633  0.3097 -0.4047 -0.2986
10006TIP3    H129951   3.034   5.382   0.603 -1.1072 -0.1697  0.6527
10006TIP3    H229952   2.969   5.246   0.588 -0.9375 -0.3524  1.5875
10007TIP3   OH229953   7.454   1.761   5.486 -0.0962  0.9013  0.3298
10007TIP3    H129954   7.488   1.820   5.553 -1.2339  0.7810  1.0280
10007TIP3    H229955   7.383   1.714   5.529  0.2833 -0.4261 -0.4555
10008TIP3   OH229956   1.869   2.681   6.034 -0.6301 -0.2793  0.0171
10008TIP3    H129957   1.824   2.744   5.977 -0.3345 -0.3749 -0.3190
10008TIP3    H229958   1.911   2.736   6.101  0.4039 -0.0585 -0.8156
10009TIP3   OH229959   3.135   5.975   0.448 -0.0931  0.0657  0.0702
10009TIP3    H129960   3.127   5.977   0.543  0.2187  0.8416  0.0825
10009TIP3    H229961   3.071   6.039   0.417 -0.7208 -0.7254 -0.2817
10010TIP3   OH229962   5.783   1.058   6.891 -0.2831  0.6310 -0.0977
10010TIP3    H129963   5.761   1.063   6.984  2.4157 -1.2853  0.6947
10010TIP3    H229964   5.827   1.141   6.872  1.3636  0.0150  0.9606
10011TIP3   OH229965   0.414   3.739   0.984  0.3344 -0.1106  0.2419
10011TIP3    H129966   0.378   3.827   0.976  2.1568  0.5247 -1.2908
10011TIP3    H229967   0.438   3.731   1.076  0.2652  1.0383  0.3656
10012TIP3   OH229968   5.380   7.760   6.470  0.2326  0.5906 -0.9081
10012TIP3    H129969   5.406   7.801   6.388  0.0647  0.3284 -1.0917
10012TIP3    H229970   5.375   7.832   6.533 -0.3188  0.8875 -1.2916
10013TIP3   OH229971   6.999   2.748   5.381  0.1270 -0.2654  0.1968
10013TIP3    H129972   6.941   2.775   5.310  1.3305  0.7408 -0.4268
10013TIP3    H229973   7.004   2.825   5.438  0.9687 -0.2759  0.1503
10014TIP3   OH229974   0.160   2.779   5.734  0.6576  0.2970  0.1856
10014TIP3    H129975   0.111   2.852   5.773  1.0124  0.6165  0.0370
10014TIP3    H229976   0.215   2.746   5.805 -0.7877 -0.9514  0.7308
10015TIP3   OH229977   8.302   3.666   6.365  0.0298 -0.2685  0.4794
10015TIP3    H129978   8.366   3.678   6.435 -0.9173  0.0173  1.2916
10015TIP3    H229979   8.319   3.577   6.333  1.6490  0.2375 -0.1465
10016TIP3   OH229980   7.502   3.175   4.880 -0.1757 -0.0702  0.4600
10016TIP3    H129981   7.444   3.208   4.949  0.5439  0.7435  0.6873
10016TIP3    H229982   7.536   3.093   4.915 -1.1912 -0.5675  0.3173
10017TIP3   OH229983   6.566   4.602   6.437 -0.0878 -0.3740 -0.2525
10017TIP3    H129984   6.633   4.584   6.503 -1.1708 -1.3196  0.6084
10017TIP3    H229985   6.603   4.672   6.383  0.7143  0.5409  1.4709
10018TIP3   OH229986   8.255   0.640   5.997 -0.1182 -0.1403 -0.0764
10018TIP3    H129987   8.334   0.600   6.035 -0.6683  0.2884  1.5599
10018TIP3    H229988   8.227   0.704   6.062 -1.8737 -0.3496 -0.5988
10019TIP3   OH229989   0.078   0.841   6.044  0.4193 -0.3426 -0.2965
10019TIP3    H129990   0.167   0.846   6.009  1.1647  0.5227  1.6659
10019TIP3    H229991   0.031   0.787   5.981  2.7864 -2.3199 -0.4587
10020TIP3   OH229992   7.857   1.233   6.803 -0.0278  0.0657 -0.1448
10020TIP3    H129993   7.833   1.140   6.801  0.4851 -0.0808  0.7399
10020TIP3    H229994   7.929   1.238   6.865  0.3541  0.9655 -0.6624
10021TIP3   OH229995   5.656   0.716   4.793  0.0854  0.1011 -0.4147
10021TIP3    H129996   5.610   0.689   4.714  0.8399 -0.7561 -0.5691
10021TIP3    H229997   5.742   0.674   4.786  0.1524  0.0133  0.8626
10022TIP3   OH229998   7.083   1.757   6.376 -0.1076 -0.0044  0.1098
10022TIP3    H129999   7.043   1.794   6.297  1.2239  0.8549 -0.1793
10022TIP3    H230000   7.164   1.718   6.345 -0.8895 -2.0719  0.6320
10023TIP3   OH230001   2.014   4.363   1.640  0.4010  0.1584  0.2370
10023TIP3    H130002   2.057   4.281   1.615  0.2597  0.4495 -1.0255
10023TIP3    H230003   1.969   4.343   1.722  1.1850 -0.7445  0.4555
10024TIP3   OH230004   5.490   2.206   3.479 -0.2918  0.1566 -0.0392
10024TIP3    H130005   5.512   2.125   3.433  0.2357 -0.0186  0.5190
10024TIP3    H230006   5.565   2.264   3.464  0.9023 -0.6804  2.4223
10025TIP3   OH230007   1.555   3.165   5.749  0.3952  0.0969 -0.2625
10025TIP3    H130008   1.518   3.101   5.688  1.3040  0.7046 -1.4574
10025TIP3    H230009   1.507   3.149   5.831  0.8339 -2.3452 -0.4311
10026TIP3   OH230010   7.527   1.532   6.021  0.6650 -0.0008 -0.2806
10026TIP3    H130011   7.518   1.438   6.007  2.0956 -0.1958  0.0503
10026TIP3    H230012   7.615   1.553   5.992  0.1177  1.3771 -1.0009
10027TIP3   OH230013   5.862   1.526   6.177  0.4282  0.6699 -0.0367
10027TIP3    H130014   5.942   1.571   6.151  2.0097 -1.4552  1.0168
10027TIP3    H230015   5.860   1.447   6.122  0.5658 -0.7037  1.8897
10028TIP3   OH230016   0.791   1.020   5.709 -0.8148  0.3829 -0.3609
10028TIP3    H130017   0.710   1.057   5.674 -1.2149 -0.4376 -0.2987
10028TIP3    H230018   0.815   0.951   5.647  0.1269  0.9723 -0.6708
10029TIP3   OH230019   0.791   1.958   4.088 -0.2648 -0.0005 -0.0789
10029TIP3    H130020   0.710   2.008   4.077 -1.5421 -1.9719  0.0206
10029TIP3    H230021   0.808   1.921   4.001  0.1538 -0.1523  0.0662
10030TIP3   OH230022   8.247   0.158   6.122  0.4729 -0.5269 -0.3011
10030TIP3    H130023   8.220   0.221   6.189  1.1094 -1.8536  1.2461
10030TIP3    H230024   8.289   0.210   6.054  1.4699  0.6487  1.2056
10031TIP3   OH230025   1.027   1.917   5.547 -0.4645  0.2030 -0.0844
10031TIP3    H130026   0.948   1.944   5.501 -0.6546 -0.2481 -0.0275
10031TIP3    H230027   1.073   1.998   5.567 -1.9275  0.6237  1.7303
10032TIP3   OH230028   7.009   3.930   4.682  0.6477  0.0660 -0.5521
10032TIP3    H130029   7.063   3.906   4.606  2.1189  1.5116  0.0052
10032TIP3    H230030   7.065   3.913   4.758  0.6422  2.3481 -0.0081
10033TIP3   OH230031   5.745   7.900   4.997 -0.2273 -0.3015  0.0777
10033TIP3    H130032   5.753   7.990   4.966  1.6071 -0.4932 -0.1018
10033TIP3    H230033   5.654   7.891   5.025 -0.2076  1.8678  0.9147
10034TIP3   OH230034   0.829   1.562   3.010  0.1450 -0.0289 -0.3217
10034TIP3    H130035   0.806   1.637   2.955  0.1315 -0.2464 -0.6155
10034TIP3    H230036   0.869   1.600   3.087  0.0603  0.2868 -0.4331
10035TIP3   OH230037   7.822   3.735   5.980  0.8979  0.5480 -0.0234
10035TIP3    H130038   7.775   3.694   5.908 -0.7911  1.2227  0.6601
10035TIP3    H230039   7.915   3.727   5.957  0.4205 -0.2251 -1.7112
10036TIP3   OH230040   4.148   4.295   0.859  0.2682  0.1596  0.3515
10036TIP3    H130041   4.182   4.376   0.896 -1.1954  1.3535 -0.8812
10036TIP3    H230042   4.061   4.285   0.899  0.0483 -0.2790 -0.2241
10037TIP3   OH230043   6.739   7.498   3.414  0.2671 -0.4561  0.3707
10037TIP3    H130044   6.730   7.579   3.465 -0.1884  0.4673 -1.1569
10037TIP3    H230045   6.743   7.429   3.480  0.9174  0.8240  1.7175
10038TIP3   OH230046   8.189   1.171   6.479 -0.3698  0.3905  0.0128
10038TIP3    H130047   8.123   1.120   6.433  0.2105 -0.7844  0.4718
10038TIP3    H230048   8.270   1.157   6.429  0.2027 -0.6692  1.2185
10039TIP3   OH230049   8.154   4.409   5.918  0.1864 -0.1980 -0.3489
10039TIP3    H130050   8.211   4.346   5.875  0.1042 -0.5625  0.0721
10039TIP3    H230051   8.168   4.491   5.870  2.6357  0.2551  1.0380
10040TIP3   OH230052   7.137   4.472   6.568  0.2753 -0.5037 -0.4564
10040TIP3    H130053   7.111   4.451   6.658  0.8931  0.6704  0.0034
10040TIP3    H230054   7.066   4.528   6.535 -0.0694 -1.1267 -0.7936
10041TIP3   OH230055   0.494   0.174   6.629 -0.2760  0.1747  0.1749
10041TIP3    H130056   0.406   0.168   6.590 -0.8161 -0.4837  1.4713
10041TIP3    H230057   0.525   0.261   6.605 -1.1200  0.2602 -0.6465
10042TIP3   OH230058   6.973   1.268   5.655 -0.4537  0.2111  0.0361
10042TIP3    H130059   6.907   1.258   5.724 -1.4625  1.0495 -0.7897
10042TIP3    H230060   6.922   1.292   5.578  0.7798  0.2986 -0.7494
10043TIP3   OH230061   7.624   0.558   5.376  0.3210  0.1539 -0.1519
10043TIP3    H130062   7.532   0.539   5.393  0.3215 -0.0576 -0.3814
10043TIP3    H230063   7.658   0.590   5.459  0.6786 -2.2364  0.6701
10044TIP3   OH230064   5.619   7.577   5.131  0.2280 -0.0779 -0.0389
10044TIP3    H130065   5.626   7.485   5.155  1.9949 -0.0863 -0.4945
10044TIP3    H230066   5.661   7.624   5.204 -2.4756  0.5348  1.1788
10045TIP3   OH230067   3.045   5.979   0.944 -0.4235 -0.3261  0.3276
10045TIP3    H130068   2.973   6.015   0.892 -1.8324 -1.2029  1.6255
10045TIP3    H230069   3.109   6.050   0.948 -1.4944  0.6973 -0.3124
10046TIP3   OH230070   7.031   2.758   6.657 -0.0755 -0.0232 -0.4057
10046TIP3    H130071   7.057   2.686   6.714 -1.8452 -1.1485 -1.0010
10046TIP3    H230072   6.998   2.716   6.578 -1.1437  1.4339 -0.7641
10047TIP3   OH230073   7.716   0.872   4.965  0.3642 -0.1659 -0.7732
10047TIP3    H130074   7.763   0.883   5.048  0.5220  1.8659 -1.1264
10047TIP3    H230075   7.717   0.777   4.950 -0.4637 -0.6442  1.9997
10048TIP3   OH230076   0.949   4.542   6.729  0.2930 -0.0523 -0.1788
10048TIP3    H130077   1.023   4.530   6.669  0.4999 -0.6913  0.1944
10048TIP3    H230078   0.970   4.622   6.777  0.7598 -0.2522 -0.0476
10049TIP3   OH230079   8.391   2.421   5.574 -0.1772  0.2434 -0.2684
10049TIP3    H130080   8.391   2.344   5.630 -0.4506  1.5454  1.5305
10049TIP3    H230081   8.400   2.385   5.485 -1.6464 -1.9199  0.4187
10050TIP3   OH230082   7.371   1.795   6.493  0.1848 -0.1860  0.2740
10050TIP3    H130083   7.334   1.770   6.408 -0.2646 -1.4336  0.8334
10050TIP3    H230084   7.465   1.801   6.477 -0.0438  1.2015 -0.7065
10051TIP3   OH230085   2.578   1.306   3.831 -0.2167  0.3532 -0.6716
10051TIP3    H130086   2.542   1.393   3.810 -1.4627 -0.1832 -0.7704
10051TIP3    H230087   2.613   1.316   3.920 -1.5876  0.5786 -0.1492
10052TIP3   OH230088   0.632   1.712   3.724  0.6187 -0.5443 -0.8840
10052TIP3    H130089   0.627   1.722   3.629  1.0563 -0.9186 -0.9530
10052TIP3    H230090   0.698   1.776   3.752  0.5133 -0.4563 -0.8362
10053TIP3   OH230091   5.956   1.156   5.604  0.0777 -0.5291  0.2296
10053TIP3    H130092   5.880   1.114   5.563  0.4556 -0.4537 -0.5570
10053TIP3    H230093   5.961   1.116   5.691 -1.6530  0.4122  0.8079
10054TIP3   OH230094   5.027   3.769   0.593  0.1556  0.1366 -0.6067
10054TIP3    H130095   4.987   3.849   0.626  0.5090  0.1125 -0.1052
10054TIP3    H230096   5.002   3.766   0.501  0.2483  0.8879 -0.6614
10055TIP3   OH230097   1.692   4.096   5.976  0.4239 -0.0878 -0.1427
10055TIP3    H130098   1.773   4.103   5.925 -0.5107  0.5639 -1.5630
10055TIP3    H230099   1.631   4.156   5.933 -0.6979 -0.2876  1.1447
10056TIP3   OH230100   2.314   5.331   6.203 -0.8030 -0.4082 -0.2472
10056TIP3    H130101   2.325   5.285   6.286  0.2698  0.5574  0.1726
10056TIP3    H230102   2.381   5.400   6.205 -1.7784  0.5979 -1.2413
10057TIP3   OH230103   3.426   7.946   1.376  0.2873  0.1669 -0.7385
10057TIP3    H130104   3.409   8.025   1.427  1.0608  0.4030 -0.8386
10057TIP3    H230105   3.395   7.967   1.288 -0.3323  0.0387 -0.5506
10058TIP3   OH230106   3.268   1.306   6.783 -0.2978 -0.1247 -0.5252
10058TIP3    H130107   3.341   1.364   6.764 -0.1833  0.0432  0.4164
10058TIP3    H230108   3.307   1.218   6.788 -0.0467  0.0474  0.6396
10059TIP3   OH230109   7.860   3.411   6.471  0.2618 -0.7146 -0.3938
10059TIP3    H130110   7.930   3.434   6.410  0.3704  0.3111  0.1105
10059TIP3    H230111   7.900   3.348   6.530  1.1073  0.7224  0.5920
10060TIP3   OH230112   3.254   6.898   2.773  0.1432 -0.2586 -0.0402
10060TIP3    H130113   3.218   6.822   2.819 -0.3441  0.3538  0.6019
10060TIP3    H230114   3.339   6.868   2.740 -0.6314 -1.4867 -0.9376
10061TIP3   OH230115   6.246   6.259   0.362  0.4407 -0.0071  0.1233
10061TIP3    H130116   6.210   6.243   0.449  1.1496  1.6178  0.7427
10061TIP3    H230117   6.224   6.350   0.343  0.1214 -0.3946 -1.4852
10062TIP3   OH230118   2.622   3.193   6.249  0.2091 -0.1012 -0.2125
10062TIP3    H130119   2.698   3.134   6.250  0.6924  0.5058 -0.5503
10062TIP3    H230120   2.657   3.276   6.282 -0.6807 -0.2635  1.1512
10063TIP3   OH230121   5.312   4.851   0.521 -0.0971  0.4102  0.7934
10063TIP3    H130122   5.315   4.944   0.502  0.1947  0.1209 -0.6436
10063TIP3    H230123   5.359   4.810   0.449  1.0559 -0.7521  2.1714
10064TIP3   OH230124   5.041   5.744   0.680 -0.3454 -0.2839  0.6147
10064TIP3    H130125   4.989   5.671   0.647  0.2552 -1.1921  1.6564
10064TIP3    H230126   5.000   5.766   0.764  1.1228 -1.2285  1.6104
10065TIP3   OH230127   5.152   6.468   0.927 -0.0204 -0.2152  0.1256
10065TIP3    H130128   5.119   6.447   1.014 -1.3288 -2.1877 -0.8106
10065TIP3    H230129   5.247   6.458   0.934  0.0754  1.6185  1.8191
10066TIP3   OH230130   5.457   5.638   1.146 -0.6548 -0.0874 -0.3082
10066TIP3    H130131   5.426   5.592   1.069 -0.9205 -0.7944  0.2185
10066TIP3    H230132   5.426   5.728   1.135 -0.2700 -0.0634 -1.2585
10067TIP3   OH230133   4.863   7.133   0.137 -0.0986  0.4549  0.0814
10067TIP3    H130134   4.934   7.099   0.191 -0.3160 -0.5432 -0.2481
10067TIP3    H230135   4.906   7.181   0.067  0.1951  1.4534  0.9298
10068TIP3   OH230136   3.890   3.027   5.484 -0.1831 -0.1335 -0.2537
10068TIP3    H130137   3.974   3.004   5.523 -1.5777 -0.5931  2.6484
10068TIP3    H230138   3.896   2.998   5.393  2.7247 -0.2640 -0.0525
10069TIP3   OH230139   2.742   4.464   1.029 -0.3763  0.0661 -0.0346
10069TIP3    H130140   2.791   4.423   0.958 -0.0738  0.3444  0.0126
10069TIP3    H230141   2.785   4.433   1.109 -0.4752  0.0624  0.0180
10070TIP3   OH230142   5.720   7.596   0.710 -0.0903 -0.4390 -0.2063
10070TIP3    H130143   5.639   7.642   0.690  0.2980  0.4387  0.2463
10070TIP3    H230144   5.708   7.563   0.799  0.7783  1.2784  0.5556
10071TIP3   OH230145   1.803   2.872   5.843  0.2616 -0.3857 -0.1280
10071TIP3    H130146   1.716   2.870   5.802  0.1853 -2.8705  0.0866
10071TIP3    H230147   1.806   2.956   5.890 -1.3935  0.4417 -1.4563
10072TIP3   OH230148   3.314   5.654   1.780 -0.0873  0.0406  0.2306
10072TIP3    H130149   3.280   5.704   1.854 -1.1001 -0.7185  0.2916
10072TIP3    H230150   3.264   5.685   1.705  1.0838  0.9615 -0.1909
10073TIP3   OH230151   1.034   3.183   6.871  0.1766 -0.1670  0.1178
10073TIP3    H130152   1.055   3.091   6.856  0.7480 -0.2911  1.5813
10073TIP3    H230153   1.024   3.220   6.783  1.1128 -1.3534 -0.5042
10074TIP3   OH230154   5.657   6.857   0.276  0.0296 -0.2183 -0.2879
10074TIP3    H130155   5.618   6.869   0.362 -2.4510 -0.9281 -1.2737
10074TIP3    H230156   5.594   6.895   0.215  1.8762  0.5435 -1.7923
10075TIP3   OH230157   2.933   1.679   5.184  0.2809  0.5609  0.3198
10075TIP3    H130158   2.971   1.617   5.121  0.7315  1.5103 -0.3528
10075TIP3    H230159   2.870   1.730   5.134  1.3641  2.0024  0.3854
10076TIP3   OH230160   2.032   4.032   6.291 -0.4506 -0.1796 -0.3658
10076TIP3    H130161   2.067   4.076   6.213  1.3858  0.0574  0.5776
10076TIP3    H230162   2.032   4.099   6.359 -3.8431  0.1532 -0.5921
10077TIP3   OH230163   3.127   2.630   6.311 -1.0484  0.2233  0.2869
10077TIP3    H130164   3.140   2.666   6.399  1.3735 -0.1954  0.1314
10077TIP3    H230165   3.107   2.537   6.325 -0.8831  0.2056  0.3978
10078TIP3   OH230166   5.987   6.595   0.585  0.2595 -0.5478  0.2075
10078TIP3    H130167   6.015   6.549   0.664 -0.3210 -1.0063  0.1493
10078TIP3    H230168   5.892   6.598   0.592  0.3907  2.5925  1.3073
10079TIP3   OH230169   5.504   7.555   2.464  0.5383  0.0498 -0.7552
10079TIP3    H130170   5.453   7.476   2.476 -2.1163  1.6414 -1.2112
10079TIP3    H230171   5.551   7.566   2.547 -1.2479 -0.4951  0.3622
10080TIP3   OH230172   2.883   7.637   2.236  0.3527 -0.3880  0.4137
10080TIP3    H130173   2.863   7.637   2.330  2.4772 -2.4119  0.9222
10080TIP3    H230174   2.896   7.544   2.215  1.7127  0.2165 -1.4712
10081TIP3   OH230175   3.682   6.082   0.567  0.2117 -0.0474  0.1266
10081TIP3    H130176   3.677   6.158   0.509  0.4230  0.5024  0.8059
10081TIP3    H230177   3.611   6.025   0.539 -0.2925  0.6588 -0.0569
10082TIP3   OH230178   3.754   1.635   4.632 -0.1606 -0.1899  0.4775
10082TIP3    H130179   3.670   1.590   4.640 -1.0858  1.2980 -0.6315
10082TIP3    H230180   3.744   1.715   4.685  0.0305  0.7064 -0.8206
10083TIP3   OH230181   1.635   4.610   6.917  0.5224 -0.3259 -0.0004
10083TIP3    H130182   1.723   4.648   6.911  0.7584 -0.7888  0.3882
10083TIP3    H230183   1.648   4.518   6.893  0.7304 -1.1780  3.0909
10084TIP3   OH230184   2.157   3.329   5.975  0.6156 -0.4143 -0.0368
10084TIP3    H130185   2.152   3.416   5.936 -2.0130 -1.0252 -1.1386
10084TIP3    H230186   2.217   3.281   5.918  1.4553  0.4130  0.1249
10085TIP3   OH230187   2.352   5.325   6.456 -0.0537 -0.2032 -0.0980
10085TIP3    H130188   2.370   5.335   6.549 -0.3867 -2.5109  0.2473
10085TIP3    H230189   2.307   5.405   6.431 -1.9689 -0.4944  2.2432
10086TIP3   OH230190   2.438   2.758   6.323 -0.7160 -0.2162  0.2619
10086TIP3    H130191   2.435   2.705   6.243  1.6330  0.7213 -0.4984
10086TIP3    H230192   2.425   2.848   6.292 -1.2989 -0.0094  1.1182
10087TIP3   OH230193   2.396   2.907   5.741  0.6547  0.2328  0.6963
10087TIP3    H130194   2.447   2.839   5.785  0.7951 -0.7676 -0.9704
10087TIP3    H230195   2.462   2.964   5.701  0.5126 -0.2324 -0.2226
10088TIP3   OH230196   0.889   1.924   6.435  0.5475  0.4808  0.6195
10088TIP3    H130197   0.806   1.948   6.395  1.4658  2.0459 -0.3999
10088TIP3    H230198   0.903   1.989   6.503  0.8747  0.1512  0.8699
10089TIP3   OH230199   4.679   6.224   0.513 -0.8336  0.2753 -0.3457
10089TIP3    H130200   4.604   6.193   0.565 -0.5637 -0.9079 -0.6455
10089TIP3    H230201   4.754   6.178   0.550 -0.3793  0.7917 -0.6256
10090TIP3   OH230202   1.458   5.050   5.862  0.6353 -0.5993 -0.3991
10090TIP3    H130203   1.435   5.129   5.911 -2.5485 -1.3836 -0.5182
10090TIP3    H230204   1.463   5.080   5.771  1.4703 -0.1468 -0.2094
10091TIP3   OH230205   1.114   4.347   5.496  0.2875  0.2994  0.2307
10091TIP3    H130206   1.120   4.264   5.544 -2.6845  0.0556  0.2599
10091TIP3    H230207   1.172   4.335   5.421  2.2045 -0.6616  1.8055
10092TIP3   OH230208   4.901   5.002   1.976 -0.2159  0.8762 -0.2940
10092TIP3    H130209   4.978   4.980   1.924  1.1352  2.3305  1.0757
10092TIP3    H230210   4.855   5.068   1.923 -0.9843 -0.5651 -1.4787
10093TIP3   OH230211   6.450   0.712   1.242  0.1791 -0.0676  0.4343
10093TIP3    H130212   6.498   0.748   1.317  0.4193  0.8883 -0.1685
10093TIP3    H230213   6.365   0.686   1.279  0.1023  0.8801  0.9549
10094TIP3   OH230214   7.711   4.623   4.923 -0.3609 -0.1361  0.0833
10094TIP3    H130215   7.631   4.584   4.887 -1.5344  0.2438  2.2304
10094TIP3    H230216   7.761   4.548   4.956  0.5252 -0.4430 -1.8514
10095TIP3   OH230217   4.716   6.581   0.276  0.9633  0.0453 -0.0981
10095TIP3    H130218   4.674   6.578   0.362 -1.5933  0.5581 -1.2956
10095TIP3    H230219   4.703   6.493   0.240 -0.8924  0.8008 -1.3015
10096TIP3   OH230220   1.173   2.403   6.322 -0.0640 -0.6381 -0.0264
10096TIP3    H130221   1.125   2.429   6.401 -0.3422 -0.4521 -0.2602
10096TIP3    H230222   1.242   2.469   6.313 -0.8121  0.0513 -0.6577
10097TIP3   OH230223   4.241   6.924   0.733  0.5794 -0.3383  0.1813
10097TIP3    H130224   4.262   6.837   0.765  1.6044 -0.2733 -0.2856
10097TIP3    H230225   4.326   6.966   0.721  0.1362  0.3131 -0.7309
10098TIP3   OH230226   4.403   5.198   2.110  0.1938  0.1653  0.4128
10098TIP3    H130227   4.345   5.176   2.183  2.0189  1.7165  2.4151
10098TIP3    H230228   4.464   5.125   2.105  1.1024  0.8121  1.5976
10099TIP3   OH230229   7.095   0.187   0.455 -0.1808 -0.0353  0.0872
10099TIP3    H130230   7.004   0.217   0.456  0.0348  0.7153 -1.6888
10099TIP3    H230231   7.115   0.173   0.363  1.9500  1.1344  0.3314
10100TIP3   OH230232   5.773   7.127   0.461 -0.1018 -0.2927  0.1217
10100TIP3    H130233   5.829   7.049   0.466 -2.1003 -1.6690  1.8210
10100TIP3    H230234   5.735   7.124   0.373  1.4697 -0.0353 -0.5865
10101TIP3   OH230235   8.193   1.855   5.830 -0.2030 -0.1013  0.2889
10101TIP3    H130236   8.127   1.924   5.829 -1.0283 -0.8873  0.4051
10101TIP3    H230237   8.253   1.879   5.760 -0.1201  1.0885  0.7632
10102TIP3   OH230238   4.340   4.243   1.750  0.1676 -0.1955 -0.6276
10102TIP3    H130239   4.312   4.152   1.765  1.2793 -0.6250 -1.0798
10102TIP3    H230240   4.291   4.294   1.815 -0.0226 -1.1921  0.0339
10103TIP3   OH230241   0.898   1.642   5.022 -0.0103  0.0401 -0.0586
10103TIP3    H130242   0.987   1.661   4.991  0.2793  0.7163  1.1648
10103TIP3    H230243   0.885   1.549   5.003  0.1879  0.3889 -2.1045
10104TIP3   OH230244   2.392   4.365   5.650  0.2333  0.0781  0.5990
10104TIP3    H130245   2.396   4.458   5.672 -0.0935  0.4450 -0.8389
10104TIP3    H230246   2.356   4.323   5.728 -0.8864  1.3316  0.7672
10105TIP3   OH230247   0.245   0.202   1.379  0.5654  0.2307  0.5718
10105TIP3    H130248   0.271   0.111   1.392 -0.1585 -0.1775 -0.6781
10105TIP3    H230249   0.298   0.252   1.441  2.1873 -0.8603  0.0862
10106TIP3   OH230250   3.292   7.509   1.217  0.0904 -0.6084  0.2458
10106TIP3    H130251   3.277   7.454   1.140  1.7151 -1.1141  0.2866
10106TIP3    H230252   3.331   7.451   1.282 -1.5870 -0.2667  1.6061
10107TIP3   OH230253   4.155   7.411   0.291 -0.2958 -0.2877  0.1229
10107TIP3    H130254   4.114   7.385   0.209 -1.0297 -1.6035  0.8931
10107TIP3    H230255   4.094   7.476   0.328 -0.1254  0.0657 -0.2112
10108TIP3   OH230256   2.977   6.739   0.327  0.3634 -0.2990 -0.4896
10108TIP3    H130257   3.026   6.781   0.256 -1.6816  1.7971 -0.7237
10108TIP3    H230258   3.042   6.725   0.396  1.3446  2.4033 -0.7991
10109TIP3   OH230259   2.324   6.133   0.115 -0.4670 -0.0007  0.0421
10109TIP3    H130260   2.367   6.202   0.064 -0.1595  1.1175  1.7782
10109TIP3    H230261   2.335   6.160   0.206 -4.1395 -0.1432  0.5794
10110TIP3   OH230262   2.985   5.736   0.370 -0.2299 -0.4385  0.1252
10110TIP3    H130263   2.918   5.804   0.372  0.4864  0.3802 -2.0189
10110TIP3    H230264   3.053   5.768   0.430 -0.8309 -0.2731  0.7209
10111TIP3   OH230265   3.270   2.828   5.768 -0.2666 -0.3503  0.4824
10111TIP3    H130266   3.287   2.861   5.856  1.1328 -1.2600  0.5664
10111TIP3    H230267   3.251   2.735   5.780  0.6513 -0.6383 -0.2415
10112TIP3   OH230268   0.134   4.786   5.203 -0.1169  0.0970 -0.2721
10112TIP3    H130269   0.113   4.756   5.115  0.3150  0.5149 -0.5181
10112TIP3    H230270   0.182   4.713   5.242 -0.6491 -0.2417 -0.2476
10113TIP3   OH230271   0.580   1.081   5.155  0.4221  0.3229 -0.3464
10113TIP3    H130272   0.585   1.174   5.133  1.2775  0.0045 -1.5509
10113TIP3    H230273   0.500   1.051   5.112 -1.1973  1.0207  2.0981
10114TIP3   OH230274   2.074   1.826   5.826 -0.4503 -0.1095  0.5175
10114TIP3    H130275   1.980   1.842   5.823 -0.2132  1.1430 -0.6479
10114TIP3    H230276   2.090   1.794   5.915 -1.9968 -0.4920  0.6717
10115TIP3   OH230277   3.634   2.272   6.324 -0.2557  0.2154  0.4398
10115TIP3    H130278   3.709   2.295   6.269 -0.7557  0.4378 -0.1583
10115TIP3    H230279   3.558   2.289   6.269 -0.7177 -0.9002  0.7286
10116TIP3   OH230280   0.710   4.133   6.777  0.2270 -0.3391  0.1585
10116TIP3    H130281   0.784   4.175   6.820  0.7086 -1.6969  0.6861
10116TIP3    H230282   0.749   4.079   6.708 -0.2627 -1.0621  0.4423
10117TIP3   OH230283   1.941   2.089   5.304 -0.0490  0.5224  0.0858
10117TIP3    H130284   1.962   2.143   5.380  0.8159  0.6883 -0.2669
10117TIP3    H230285   2.016   2.032   5.293 -0.4371  0.0759 -0.2797
10118TIP3   OH230286   3.973   2.313   5.355 -0.3280 -0.1292 -0.8872
10118TIP3    H130287   3.971   2.218   5.367 -0.2096 -0.0331 -0.0965
10118TIP3    H230288   3.894   2.332   5.304 -0.7342 -0.5657 -0.4334
10119TIP3   OH230289   1.620   5.971   2.828 -0.2049  0.2014  0.3487
10119TIP3    H130290   1.582   5.966   2.740 -0.6054  3.7785  0.2346
10119TIP3    H230291   1.700   5.919   2.823 -0.4819 -0.0356 -1.9890
10120TIP3   OH230292   0.401   4.483   6.813  0.6247 -0.0106 -0.1350
10120TIP3    H130293   0.380   4.507   6.903  0.0242  0.2690 -0.3476
10120TIP3    H230294   0.427   4.391   6.818 -1.9374 -0.7638 -0.0539
10121TIP3   OH230295   5.803   7.366   1.768  0.2883  0.2333  0.6984
10121TIP3    H130296   5.834   7.288   1.814 -0.6388  0.0278  0.9743
10121TIP3    H230297   5.805   7.436   1.834 -0.5971  0.0435  0.9203
10122TIP3   OH230298   6.307   0.144   1.553 -0.2075  0.1228 -0.2945
10122TIP3    H130299   6.394   0.134   1.515 -0.6781 -3.3231 -0.6235
10122TIP3    H230300   6.322   0.166   1.645  0.9882  0.4875 -0.5764
10123TIP3   OH230301   8.206   4.248   6.702 -0.3025 -0.3364 -0.0481
10123TIP3    H130302   8.278   4.296   6.662 -0.1570 -1.4027 -1.0752
10123TIP3    H230303   8.142   4.238   6.632 -0.7768 -0.7560  0.4457
10124TIP3   OH230304   4.133   5.984   0.769  0.7519  0.2761  0.1589
10124TIP3    H130305   4.044   5.959   0.746  0.8081  0.6168 -0.4298
10124TIP3    H230306   4.169   5.907   0.813  0.0075  0.3099  0.8484
10125TIP3   OH230307   0.205   3.485   6.744  0.3255 -0.2776  0.3741
10125TIP3    H130308   0.208   3.391   6.763  1.5675 -0.2241  0.4262
10125TIP3    H230309   0.207   3.490   6.648 -1.3718 -0.3523  0.3056
10126TIP3   OH230310   2.578   6.742   2.201 -0.3333 -0.2678  0.8631
10126TIP3    H130311   2.638   6.771   2.269 -0.0824 -0.1512  0.5917
10126TIP3    H230312   2.499   6.716   2.248  0.6700 -2.4333  1.4102
10127TIP3   OH230313   1.993   3.580   6.556  0.0796  0.2296  0.6240
10127TIP3    H130314   1.990   3.592   6.651 -2.9855 -0.3787  0.6458
10127TIP3    H230315   1.983   3.669   6.521 -1.6217  0.1442  0.8722
10128TIP3   OH230316   4.066   1.810   5.294  0.4887  0.4884 -0.2455
10128TIP3    H130317   4.127   1.844   5.229  1.5150 -1.4400 -0.3004
10128TIP3    H230318   3.992   1.777   5.242  0.5455  0.4804 -0.3214
10129TIP3   OH230319   1.616   3.714   6.761  0.3875 -1.1520 -0.6848
10129TIP3    H130320   1.600   3.633   6.711 -0.8642 -0.0616 -2.1054
10129TIP3    H230321   1.566   3.781   6.715  0.0099  0.1125  1.4907
10130TIP3   OH230322   2.255   2.610   6.495  0.0888  0.2797  0.7321
10130TIP3    H130323   2.281   2.525   6.529  0.0417 -0.6881 -1.5545
10130TIP3    H230324   2.316   2.627   6.422 -0.4190  1.8114  0.6381
10131TIP3   OH230325   4.938   1.334   6.719  0.0762  0.2761  0.0201
10131TIP3    H130326   4.868   1.378   6.768  1.8589  1.2749  1.7436
10131TIP3    H230327   4.955   1.254   6.769 -0.8517 -0.7370 -1.2490
10132TIP3   OH230328   1.209   3.262   5.588 -0.1941  0.4363 -0.3171
10132TIP3    H130329   1.235   3.322   5.518 -1.8325  1.7397  0.1467
10132TIP3    H230330   1.183   3.320   5.660  0.7380 -0.8736  1.1155
10133TIP3   OH230331   3.760   7.212   0.187  0.0472 -0.5704  0.1258
10133TIP3    H130332   3.790   7.220   0.097  1.5789  1.3614  0.7835
10133TIP3    H230333   3.822   7.152   0.228  1.1075  0.8617  0.6418
10134TIP3   OH230334   1.011   1.601   6.835  0.0178 -0.2418 -0.9300
10134TIP3    H130335   1.079   1.609   6.901  2.1054 -0.6841 -2.9623
10134TIP3    H230336   0.960   1.682   6.844  1.0400  0.2829  0.3626
10135TIP3   OH230337   2.498   4.067   5.485 -0.3293  0.3031  0.1098
10135TIP3    H130338   2.519   3.996   5.424  0.1024  0.0818  0.5056
10135TIP3    H230339   2.464   4.022   5.563  0.1890  0.5034  0.4591
10136TIP3   OH230340   1.145   5.826   1.186  0.2402 -0.4371  0.0059
10136TIP3    H130341   1.233   5.836   1.222 -0.3634  0.5810  1.2305
10136TIP3    H230342   1.158   5.819   1.092  1.5259  1.2441  0.0384
10137TIP3   OH230343   5.329   7.426   4.437 -0.2253 -0.9722  0.3112
10137TIP3    H130344   5.382   7.450   4.513 -2.6108  0.5119  1.5662
10137TIP3    H230345   5.375   7.463   4.362  0.0870  1.0012  1.4539
10138TIP3   OH230346   5.230   5.552   2.107  0.4560 -0.0112 -0.4197
10138TIP3    H130347   5.201   5.643   2.103 -0.4976 -0.2438  0.7261
10138TIP3    H230348   5.195   5.512   2.028 -1.3950  0.0065  0.3604
10139TIP3   OH230349   7.426   1.152   4.837  0.1820  0.3212  0.0606
10139TIP3    H130350   7.398   1.210   4.766  0.9726  0.1506 -0.3927
10139TIP3    H230351   7.443   1.068   4.795  3.5963  1.0215 -0.1003
10140TIP3   OH230352   1.439   2.321   4.913  0.0326  0.2824  0.2543
10140TIP3    H130353   1.420   2.407   4.950  0.3170  0.8373 -0.9010
10140TIP3    H230354   1.377   2.311   4.841  1.0027  0.1406 -0.5635
10141TIP3   OH230355   1.678   2.216   6.457  0.0826  0.0651  0.4148
10141TIP3    H130356   1.716   2.299   6.486 -1.4159  0.1264  2.2646
10141TIP3    H230357   1.657   2.230   6.365  1.5758  1.0934  0.2131
10142TIP3   OH230358   1.043   3.588   6.126  0.1466  0.1706  0.3072
10142TIP3    H130359   0.977   3.576   6.195  0.3154  0.7620  0.5755
10142TIP3    H230360   0.992   3.606   6.047 -0.0264  0.1300  0.4091
10143TIP3   OH230361   0.708   2.208   6.207  0.1552 -0.0512  0.2931
10143TIP3    H130362   0.699   2.257   6.289 -1.9736  1.0574 -0.5695
10143TIP3    H230363   0.783   2.248   6.164  1.2971 -0.6447  1.6840
10144TIP3   OH230364   8.489   2.553   6.713  0.4250  0.5521 -0.4352
10144TIP3    H130365   8.553   2.583   6.648 -1.2839  1.6627 -1.6773
10144TIP3    H230366   8.420   2.511   6.660 -0.6942  0.9314  0.7104
10145TIP3   OH230367   1.607   1.878   5.220  0.5360  0.4671 -0.8920
10145TIP3    H130368   1.624   1.784   5.215  0.2312  0.3773 -0.2641
10145TIP3    H230369   1.556   1.897   5.141 -0.4931 -0.1343 -0.3839
10146TIP3   OH230370   2.867   2.360   6.600 -0.5987  0.0242 -0.1090
10146TIP3    H130371   2.862   2.408   6.683  0.6161  0.6357 -0.3772
10146TIP3    H230372   2.832   2.273   6.620 -0.3259  0.1744  1.0443
10147TIP3   OH230373   2.250   5.239   3.029 -0.4526 -0.0111 -0.1674
10147TIP3    H130374   2.237   5.294   3.106  1.2016  2.0985 -1.3294
10147TIP3    H230375   2.343   5.250   3.007 -0.4608 -2.0316 -1.3865
10148TIP3   OH230376   1.164   2.750   6.688 -0.0324  0.7388 -0.4985
10148TIP3    H130377   1.166   2.750   6.592 -1.5703  0.7871 -0.5526
10148TIP3    H230378   1.254   2.764   6.714  0.6307 -0.5967 -1.9370
10149TIP3   OH230379   1.080   4.575   5.653  0.3212 -0.0828 -0.1253
10149TIP3    H130380   1.134   4.642   5.610  0.4294 -0.1863 -0.1499
10149TIP3    H230381   1.090   4.497   5.598  0.3663 -0.1809  0.0217
10150TIP3   OH230382   5.672   5.228   1.828 -0.2598  0.1996 -0.2486
10150TIP3    H130383   5.632   5.304   1.871 -0.4123 -0.4463  0.7804
10150TIP3    H230384   5.615   5.155   1.852  0.3818 -0.3851 -0.4997
10151TIP3   OH230385   7.549   0.070   4.548  0.4579  0.5444 -0.1680
10151TIP3    H130386   7.598   0.100   4.471  2.0678 -1.0129  0.2316
10151TIP3    H230387   7.466   0.038   4.512  0.9631  0.3556 -1.1995
10152TIP3   OH230388   1.939   3.167   5.847  0.4738 -0.3299  0.2164
10152TIP3    H130389   2.030   3.162   5.874  1.1714 -0.6752 -2.1721
10152TIP3    H230390   1.922   3.261   5.840  1.0257 -0.2929 -0.6197
10153TIP3   OH230391   3.076   4.088   0.960 -0.2779  0.0526  0.4976
10153TIP3    H130392   3.042   4.169   0.923  1.9386  1.1748  0.8375
10153TIP3    H230393   3.028   4.076   1.042 -0.6913  0.9783  0.3853
10154TIP3   OH230394   0.258   0.542   6.125  0.0725  0.7715  0.0859
10154TIP3    H130395   0.293   0.583   6.046 -0.8197  0.1153 -0.6608
10154TIP3    H230396   0.256   0.612   6.190  0.0021  1.5295 -0.7285
10155TIP3   OH230397   2.501   4.659   6.826  0.3298 -0.3636 -0.1828
10155TIP3    H130398   2.426   4.658   6.884 -1.2976  1.8196 -2.1550
10155TIP3    H230399   2.464   4.671   6.738  2.9876  1.4578 -1.1221
10156TIP3   OH230400   3.103   5.252   2.527 -0.6556  0.2336  0.0360
10156TIP3    H130401   3.144   5.183   2.474 -0.1681 -0.3287  1.1363
10156TIP3    H230402   3.166   5.324   2.527 -0.5445  0.1364  0.0596
10157TIP3   OH230403   4.292   7.721   0.049  0.1951 -0.7427 -0.5252
10157TIP3    H130404   4.350   7.716  -0.027  0.1647 -0.2268 -0.5870
10157TIP3    H230405   4.332   7.788   0.105 -0.7877  0.2374 -0.9631
10158TIP3   OH230406   3.920   2.111   5.704 -0.2253  0.3121 -0.8480
10158TIP3    H130407   3.952   2.128   5.615 -0.5045 -0.4048 -1.0889
10158TIP3    H230408   3.866   2.032   5.695  0.4299 -0.2409  0.1129
10159TIP3   OH230409   4.174   7.229   0.600  0.3386  0.1907  0.0210
10159TIP3    H130410   4.190   7.165   0.530  0.0866 -1.1877  1.1879
10159TIP3    H230411   4.229   7.303   0.578  0.3758 -0.2816 -1.5632
10160TIP3   OH230412   0.328   1.367   6.886 -0.5060  0.3590 -1.0949
10160TIP3    H130413   0.276   1.303   6.935  0.0229  0.9644  0.2706
10160TIP3    H230414   0.406   1.319   6.859 -0.5928  0.1491 -0.9779
10161TIP3   OH230415   1.365   1.958   5.818 -0.0927  0.1294 -0.0384
10161TIP3    H130416   1.384   1.866   5.802 -0.4867  0.0555 -0.0879
10161TIP3    H230417   1.378   2.000   5.733 -2.2479 -0.2739 -0.5917
10162TIP3   OH230418   3.424   3.292   5.671 -0.3963  0.3766  0.6273
10162TIP3    H130419   3.470   3.353   5.614 -0.9923 -0.0623 -0.3405
10162TIP3    H230420   3.385   3.347   5.738  0.9894  0.8127  1.0859
10163TIP3   OH230421   4.414   6.545   0.139 -0.1527 -0.1168 -0.3424
10163TIP3    H130422   4.384   6.553   0.048  1.2701 -0.3369 -0.8468
10163TIP3    H230423   4.486   6.607   0.145 -0.5312  0.2240  0.7805
10164TIP3   OH230424   4.052   5.536   1.576  0.3166 -0.6231 -0.4768
10164TIP3    H130425   4.072   5.451   1.537 -2.5700 -1.7388  0.3006
10164TIP3    H230426   4.024   5.590   1.503  1.1226 -0.6953 -0.8348
10165TIP3   OH230427   3.891   4.847   0.770  0.3159  0.0045 -0.0768
10165TIP3    H130428   3.802   4.883   0.776 -0.2260 -1.0260 -1.5449
10165TIP3    H230429   3.888   4.766   0.821  0.1018 -0.5677 -0.9753
10166TIP3   OH230430   5.624   6.687   1.353  0.2218 -0.4540  0.5166
10166TIP3    H130431   5.602   6.761   1.408  1.0276  0.2169 -0.0450
10166TIP3    H230432   5.718   6.675   1.365 -0.1000 -2.1092  1.4776
10167TIP3   OH230433   0.642   0.098   0.767 -0.4532  0.1132 -0.3419
10167TIP3    H130434   0.692   0.038   0.712 -0.8264 -1.1664  0.6737
10167TIP3    H230435   0.645   0.182   0.721 -0.3877 -0.8166 -2.0604
10168TIP3   OH230436   5.336   4.724   1.298 -0.4633 -0.2896  0.5855
10168TIP3    H130437   5.282   4.751   1.372 -1.6339  0.9887 -0.7043
10168TIP3    H230438   5.397   4.797   1.284 -1.6645  0.4233 -1.0425
10169TIP3   OH230439   2.721   3.447   6.292 -0.4806  0.3938 -0.2452
10169TIP3    H130440   2.746   3.536   6.319 -1.1594  0.0196  1.6953
10169TIP3    H230441   2.798   3.413   6.247  1.3792  0.3858  2.8551
10170TIP3   OH230442   2.392   3.008   6.182 -0.2700  0.1925 -0.2176
10170TIP3    H130443   2.477   3.001   6.138 -1.2462  0.0969 -2.1335
10170TIP3    H230444   2.400   3.084   6.240  2.0631 -1.5112  1.8085
10171TIP3   OH230445   5.309   2.057   5.533  0.0698  0.1659 -0.3594
10171TIP3    H130446   5.381   2.119   5.523 -1.6197  2.1500 -0.6604
10171TIP3    H230447   5.283   2.065   5.625 -0.2836  0.0409 -0.4477
10172TIP3   OH230448   6.426   0.046   0.119  0.4711 -0.3625  0.6753
10172TIP3    H130449   6.507   0.008   0.153  0.0149 -2.8176 -0.8905
10172TIP3    H230450   6.448   0.073   0.030 -0.1851 -0.2349  0.5460
10173TIP3   OH230451   0.117   3.433   6.442 -0.0361 -0.2592 -0.4639
10173TIP3    H130452   0.091   3.523   6.425  1.0894  0.2486  0.4184
10173TIP3    H230453   0.213   3.435   6.442  0.0087 -1.5142 -0.7395
10174TIP3   OH230454   0.078   0.493   1.407 -0.4167  0.0048  0.1562
10174TIP3    H130455   0.049   0.436   1.335 -0.6809 -1.1455  1.1562
10174TIP3    H230456   0.133   0.559   1.364 -2.1477  0.5103 -1.3724
10175TIP3   OH230457   6.727   0.762   2.140  0.5559  0.1434  0.3776
10175TIP3    H130458   6.783   0.703   2.089 -0.5416 -0.4740 -0.1244
10175TIP3    H230459   6.728   0.725   2.228  1.8581  0.7913  0.6460
10176TIP3   OH230460   0.407   4.048   6.118 -0.6949  0.5305  0.0192
10176TIP3    H130461   0.482   4.074   6.066 -0.7632 -0.7953 -0.7573
10176TIP3    H230462   0.348   4.124   6.116 -0.0567  1.0047 -0.6265
10177TIP3   OH230463   1.890   1.608   6.805  0.3202  0.2274  0.7402
10177TIP3    H130464   1.912   1.515   6.803 -1.8317 -0.3901  2.8968
10177TIP3    H230465   1.807   1.614   6.757  0.1622  0.9466  1.0988
10178TIP3   OH230466   4.330   7.233   0.169  0.5321 -0.2726  0.3444
10178TIP3    H130467   4.270   7.276   0.229 -0.0481 -0.4095 -0.1383
10178TIP3    H230468   4.405   7.292   0.164 -0.4707  0.9411 -0.7142
10179TIP3   OH230469   4.132   6.411   2.152  0.0472 -0.0455  0.0512
10179TIP3    H130470   4.086   6.443   2.074 -1.8901 -0.1474  1.1164
10179TIP3    H230471   4.142   6.488   2.208  0.9676 -0.0777 -0.0579
10180TIP3   OH230472   7.758   6.168   6.657  0.3781  0.5197  0.4345
10180TIP3    H130473   7.714   6.167   6.572  1.6047  0.0996 -0.1986
10180TIP3    H230474   7.687   6.182   6.720 -0.6079  0.2923 -0.6067
10181TIP3   OH230475   1.411   6.588   5.937  0.2830  0.0396  0.0193
10181TIP3    H130476   1.482   6.549   5.987 -0.1210  0.9521  1.3576
10181TIP3    H230477   1.446   6.673   5.907 -0.1521  0.3911  0.4933
10182TIP3   OH230478   0.781   1.135   6.454  0.3773  0.6827 -0.0824
10182TIP3    H130479   0.772   1.067   6.521 -1.2543  0.5954 -0.3587
10182TIP3    H230480   0.846   1.100   6.393 -0.1743 -0.4948 -0.0211
10183TIP3   OH230481   4.077   3.428   6.599 -0.2508 -0.6183  0.2689
10183TIP3    H130482   4.097   3.503   6.543  0.5473 -1.1688 -0.1817
10183TIP3    H230483   4.162   3.398   6.630 -0.5570 -1.4669  0.2890
10184TIP3   OH230484   5.195   6.401   0.080  0.7040 -0.1758  0.1662
10184TIP3    H130485   5.183   6.343   0.156  0.4016  0.1050  0.3361
10184TIP3    H230486   5.277   6.372   0.040  0.4856 -0.8089  0.1747
10185TIP3   OH230487   4.741   2.251   1.228  0.2500  0.6109 -0.1429
10185TIP3    H130488   4.737   2.316   1.158 -0.0666  0.9593  0.1975
10185TIP3    H230489   4.770   2.171   1.185 -3.4501 -0.1620 -1.3846
10186TIP3   OH230490   0.884   1.714   4.623  0.4075  0.0419 -0.4668
10186TIP3    H130491   0.898   1.754   4.709  0.0428  1.8738 -1.2421
10186TIP3    H230492   0.788   1.708   4.615  0.4286  0.4112 -0.9878
10187TIP3   OH230493   8.406   2.794   6.507  0.4573 -0.3903 -0.2503
10187TIP3    H130494   8.344   2.723   6.525  1.1477 -0.4971  1.8569
10187TIP3    H230495   8.470   2.754   6.447  0.1850 -1.1941 -0.0139
10188TIP3   OH230496   2.316   3.514   5.338 -0.0094 -0.8439  0.0916
10188TIP3    H130497   2.236   3.514   5.286 -0.9548  0.5061  1.5214
10188TIP3    H230498   2.353   3.426   5.325 -0.6497 -0.8115 -2.1673
10189TIP3   OH230499   4.013   7.372   0.062 -0.1585 -0.5075 -0.0011
10189TIP3    H130500   4.050   7.430  -0.005 -0.0089 -0.3237  0.2418
10189TIP3    H230501   3.982   7.296   0.012 -0.4561 -0.1748 -0.3296
10190TIP3   OH230502   5.282   6.997   1.196  0.1340  0.2206  0.0403
10190TIP3    H130503   5.196   7.015   1.158  1.0379  2.2690 -1.1064
10190TIP3    H230504   5.265   6.990   1.290 -1.1339  1.4981 -0.0794
10191TIP3   OH230505   3.851   5.715   0.605  0.0324 -0.0877 -0.0888
10191TIP3    H130506   3.872   5.750   0.518  0.0257 -0.5527 -0.2754
10191TIP3    H230507   3.865   5.789   0.664 -0.3591  0.3419 -0.5330
10192TIP3   OH230508   5.773   6.656   3.183 -0.2707  0.6746 -0.0609
10192TIP3    H130509   5.690   6.629   3.223 -0.4906 -0.0963 -1.0192
10192TIP3    H230510   5.763   6.635   3.090  1.4104 -0.4670 -0.0019
10193TIP3   OH230511   5.928   7.603   0.515  0.2530 -0.0986  0.0451
10193TIP3    H130512   5.860   7.599   0.583  2.6363  1.9786  2.6827
10193TIP3    H230513   5.906   7.681   0.465 -0.6066 -0.7386 -0.5911
10194TIP3   OH230514   6.017   6.728   0.866 -0.3908  0.9386 -0.1561
10194TIP3    H130515   6.058   6.662   0.924  0.4016  2.2430  0.7987
10194TIP3    H230516   5.924   6.722   0.886 -0.5188 -0.8939 -1.1330
10195TIP3   OH230517   2.792   4.008   5.208 -0.2659  0.0190 -0.4910
10195TIP3    H130518   2.722   3.959   5.252 -0.8625 -0.9060 -2.3950
10195TIP3    H230519   2.750   4.090   5.182 -0.2372  0.0753 -0.3585
10196TIP3   OH230520   1.738   1.514   0.029  0.1004 -0.2527 -0.2028
10196TIP3    H130521   1.685   1.493   0.106  0.6624 -2.6575 -0.4475
10196TIP3    H230522   1.827   1.526   0.064  0.3928 -1.5406 -0.4931
10197TIP3   OH230523   2.669   6.280   1.631 -0.0125 -0.2655  0.2531
10197TIP3    H130524   2.663   6.293   1.536 -0.7265 -0.4424  0.2736
10197TIP3    H230525   2.585   6.312   1.665 -0.2971 -1.4405  0.6848
10198TIP3   OH230526   2.454   2.926   5.141  0.7269  0.7083 -0.1218
10198TIP3    H130527   2.547   2.919   5.163  0.8378 -0.8069 -1.0264
10198TIP3    H230528   2.454   2.951   5.048  0.2386 -0.9202 -0.5719
10199TIP3   OH230529   2.100   2.527   6.860 -0.1488 -0.0013  0.2390
10199TIP3    H130530   2.006   2.510   6.873 -0.4759  0.6192 -1.1477
10199TIP3    H230531   2.121   2.483   6.778  1.1353 -1.3571  1.2638
10200TIP3   OH230532   3.229   4.005   3.876  0.1584  0.3293 -0.6277
10200TIP3    H130533   3.284   4.072   3.836 -2.0146  2.2192 -0.5049
10200TIP3    H230534   3.253   4.007   3.969 -1.1873  2.2407 -0.2985
10201TIP3   OH230535   2.990   4.695   6.756  0.4968  0.2567 -0.5447
10201TIP3    H130536   2.938   4.718   6.833 -0.2780  1.5389 -1.4418
10201TIP3    H230537   3.051   4.768   6.746  0.1476  0.4146 -1.5350
10202TIP3   OH230538   0.908   0.085   0.515 -0.6712  0.2459 -0.5598
10202TIP3    H130539   0.902   0.164   0.568  1.1374 -0.2386  0.4331
10202TIP3    H230540   0.876   0.015   0.572 -0.5679  0.0063 -0.7931
10203TIP3   OH230541   2.353   2.731   4.623 -0.0100 -0.1715  0.0454
10203TIP3    H130542   2.271   2.779   4.626  0.0935  0.0630 -0.7452
10203TIP3    H230543   2.367   2.713   4.530  0.3821 -0.9831  0.2516
10204TIP3   OH230544   4.102   7.650   1.304 -0.7348  0.0890  0.0888
10204TIP3    H130545   4.077   7.563   1.335 -0.4932 -0.5722 -1.5326
10204TIP3    H230546   4.045   7.710   1.352  0.3426 -0.8298  2.5631
10205TIP3   OH230547   3.045   3.862   6.412  0.7308  0.5489 -0.3634
10205TIP3    H130548   3.032   3.897   6.500 -0.7945  0.2141 -0.4480
10205TIP3    H230549   3.138   3.839   6.409  0.6961  0.0976  1.3345
10206TIP3   OH230550   3.902   3.100   6.866 -0.2121  0.1463 -0.0240
10206TIP3    H130551   3.922   3.138   6.780  1.7497 -0.6350  0.0618
10206TIP3    H230552   3.918   3.171   6.928  1.3069 -0.1571 -0.0538
10207TIP3   OH230553   8.406   6.878   0.074 -0.8618 -0.7065 -0.3576
10207TIP3    H130554   8.416   6.936  -0.001  0.3647 -0.0048  0.3398
10207TIP3    H230555   8.319   6.900   0.109 -0.0140  1.4035  0.4747
10208TIP3   OH230556   6.753   7.598   2.136 -0.2971 -0.4214  0.0280
10208TIP3    H130557   6.704   7.516   2.146  0.9409 -0.9107  2.4006
10208TIP3    H230558   6.844   7.571   2.127 -0.0112  0.6545 -0.4240
10209TIP3   OH230559   7.444   4.167   1.178 -0.0457 -0.1074  0.9811
10209TIP3    H130560   7.540   4.161   1.174  0.0254  0.5615  1.5637
10209TIP3    H230561   7.414   4.104   1.113  0.8043  0.1029  0.3658
10210TIP3   OH230562   2.990   2.296   5.930  0.4218  0.1847 -0.2445
10210TIP3    H130563   3.021   2.282   5.840 -1.6637 -3.1775 -0.5102
10210TIP3    H230564   2.910   2.348   5.919 -1.0725 -2.1232 -0.5522
10211TIP3   OH230565   3.511   3.478   6.495 -0.5402  0.2461 -0.5663
10211TIP3    H130566   3.545   3.566   6.480 -0.9179  0.7369  1.3983
10211TIP3    H230567   3.425   3.491   6.533 -0.4893 -0.9766 -0.0060
10212TIP3   OH230568   4.086   1.681   6.689  0.1819 -0.5518 -0.0804
10212TIP3    H130569   4.121   1.594   6.708  1.7923  0.1065  0.1004
10212TIP3    H230570   4.140   1.740   6.743 -0.6813  0.5786 -0.4380
10213TIP3   OH230571   4.105   5.270   1.467 -0.0704  0.4623 -0.3182
10213TIP3    H130572   4.193   5.273   1.430  0.3183  0.3335  0.5857
10213TIP3    H230573   4.106   5.194   1.525 -1.4146 -0.7615 -1.8731
10214TIP3   OH230574   5.816   6.381   1.008  0.2634 -0.2950  0.2831
10214TIP3    H130575   5.795   6.385   1.101  0.9200  1.3466  0.3916
10214TIP3    H230576   5.780   6.462   0.972  1.3286 -0.1914 -0.5989
10215TIP3   OH230577   1.332   2.595   5.959  0.2209 -0.2260 -0.1523
10215TIP3    H130578   1.306   2.512   5.999 -1.8551  0.0484 -0.9045
10215TIP3    H230579   1.393   2.570   5.889 -1.1139 -1.1865 -0.9812
10216TIP3   OH230580   0.104   0.498   0.444 -0.6296 -0.4132 -0.2549
10216TIP3    H130581   0.070   0.409   0.445 -2.7910  0.3937  0.7026
10216TIP3    H230582   0.123   0.516   0.352  0.0095 -1.9058 -0.4273
10217TIP3   OH230583   5.694   2.623   6.402 -0.4039  0.1115  0.0505
10217TIP3    H130584   5.691   2.528   6.412 -0.0177  0.1814  0.8014
10217TIP3    H230585   5.725   2.655   6.486 -1.6705  0.9767  0.1996
10218TIP3   OH230586   7.879   6.460   0.088  0.4727  1.1536 -0.2182
10218TIP3    H130587   7.844   6.462  -0.002  1.7230 -0.2563 -0.7512
10218TIP3    H230588   7.803   6.439   0.142  0.0410  0.2583 -1.1365
10219TIP3   OH230589   2.756   2.543   6.432  0.2695  0.5794  0.7166
10219TIP3    H130590   2.824   2.609   6.446  1.0724  0.2299 -1.3112
10219TIP3    H230591   2.788   2.466   6.478  1.5295  0.2633 -0.6426
10220TIP3   OH230592   4.829   2.744   4.998 -0.3882 -0.6913  0.2283
10220TIP3    H130593   4.900   2.680   4.993 -0.0138 -0.3646  1.3184
10220TIP3    H230594   4.772   2.711   5.068  1.2902  1.6335  2.7715
10221TIP3   OH230595   5.128   2.159   6.163  0.1204  0.4659  0.3315
10221TIP3    H130596   5.112   2.111   6.243 -1.7421  0.6364  0.0714
10221TIP3    H230597   5.215   2.198   6.175  0.8438 -1.3807  1.3006
10222TIP3   OH230598   1.982   4.644   5.882 -0.0962 -0.2368  0.0263
10222TIP3    H130599   1.904   4.611   5.838 -0.2772  0.0005  0.1613
10222TIP3    H230600   2.015   4.569   5.932 -1.2320  0.1086  1.3505
10223TIP3   OH230601   2.836   2.751   5.746  0.3958  0.1321 -0.1708
10223TIP3    H130602   2.900   2.684   5.725  1.9610  1.7252 -0.5890
10223TIP3    H230603   2.888   2.826   5.775 -1.3893  0.6078  1.9378
10224TIP3   OH230604   0.105   6.389   1.389 -0.6677  0.4120 -0.1513
10224TIP3    H130605   0.032   6.371   1.449  0.5827 -1.3772  0.8705
10224TIP3    H230606   0.139   6.474   1.417 -0.3948 -0.1881  1.3952
10225TIP3   OH230607   3.461   2.795   4.802  0.4707 -0.0859 -0.0174
10225TIP3    H130608   3.521   2.738   4.849  2.6120  3.9823  2.4215
10225TIP3    H230609   3.504   2.812   4.718  1.7263  1.0636  0.8488
10226TIP3   OH230610   1.823   1.846   5.715 -0.7174  0.4939 -0.4259
10226TIP3    H130611   1.801   1.837   5.622  0.8346  0.0199 -0.7600
10226TIP3    H230612   1.767   1.782   5.758 -0.2550 -0.4592 -1.2184
10227TIP3   OH230613   4.048   2.465   5.119 -0.0321  0.1378  0.3226
10227TIP3    H130614   4.015   2.497   5.203  1.6413  0.0988  1.0167
10227TIP3    H230615   4.085   2.379   5.139  1.1202  0.4824 -0.2780
10228TIP3   OH230616   5.942   6.125   2.445  0.5109  0.2088 -0.1203
10228TIP3    H130617   5.928   6.062   2.375 -1.8976  0.3017  0.2245
10228TIP3    H230618   5.984   6.200   2.402  2.2333 -1.0939 -0.7639
10229TIP3   OH230619   3.733   2.006   6.307  0.7621 -0.0490  0.2960
10229TIP3    H130620   3.679   2.085   6.318  2.6529  1.6121 -1.7507
10229TIP3    H230621   3.805   2.018   6.369 -0.9749 -2.1151  2.8058
10230TIP3   OH230622   5.736   7.286   0.662 -0.1673 -0.9629  0.2396
10230TIP3    H130623   5.642   7.275   0.678 -0.5791 -0.3246 -1.5597
10230TIP3    H230624   5.755   7.225   0.590  0.7048 -0.8028  0.3278
10231TIP3   OH230625   4.969   6.554   1.386 -0.5313 -0.0893  0.0378
10231TIP3    H130626   5.004   6.487   1.445 -0.5053  0.1871  0.3366
10231TIP3    H230627   4.874   6.550   1.399 -0.3992  1.2674  1.5003
10232TIP3   OH230628   4.080   2.818   6.179 -0.0810 -0.3460 -0.3244
10232TIP3    H130629   4.048   2.734   6.212 -0.0729 -0.6976 -1.1912
10232TIP3    H230630   4.174   2.804   6.167  0.1644  0.2217  0.8126
10233TIP3   OH230631   3.147   2.887   6.748 -0.5069 -0.3782 -0.1363
10233TIP3    H130632   3.059   2.924   6.742 -0.6766 -1.1285 -3.0473
10233TIP3    H230633   3.158   2.837   6.667  2.1018 -1.4211  0.7949
10234TIP3   OH230634   5.023   4.384   6.487 -0.2656  0.3552  0.6837
10234TIP3    H130635   4.940   4.336   6.496  0.4573 -1.4220 -1.7484
10234TIP3    H230636   5.082   4.339   6.548 -0.5493  0.4130  1.0074
10235TIP3   OH230637   6.433   7.279   0.087  0.7765 -0.5819 -0.2548
10235TIP3    H130638   6.497   7.316   0.026 -0.9226 -0.3297 -1.9257
10235TIP3    H230639   6.413   7.350   0.148  1.5618 -0.4620 -0.1216
10236TIP3   OH230640   5.717   2.041   5.447  0.8804  0.2263  0.4727
10236TIP3    H130641   5.792   2.098   5.458  0.8507  0.1030  1.3105
10236TIP3    H230642   5.641   2.099   5.453  0.8955  0.3403 -0.3032
10237TIP3   OH230643   5.507   6.015   0.162  0.1973 -0.1863 -0.1559
10237TIP3    H130644   5.486   5.922   0.150 -2.4730  0.3057  0.3259
10237TIP3    H230645   5.512   6.027   0.256 -1.6387  0.5755 -0.1340
10238TIP3   OH230646   2.722   4.816   6.915  0.4786  0.1092 -0.4111
10238TIP3    H130647   2.695   4.877   6.983  1.8273 -0.7624  0.9147
10238TIP3    H230648   2.649   4.754   6.908  0.1647  0.4406 -0.0566
10239TIP3   OH230649   5.035   7.133   1.541 -0.2636 -0.2948 -0.3449
10239TIP3    H130650   5.001   7.142   1.452 -2.0326  0.2784  0.3572
10239TIP3    H230651   5.098   7.204   1.550  0.7727 -1.0501 -1.5086
10240TIP3   OH230652   6.401   5.419   1.994  0.2486  0.4657 -0.4942
10240TIP3    H130653   6.391   5.508   1.959  1.1327 -0.1393 -2.3537
10240TIP3    H230654   6.318   5.376   1.976  0.4505  0.3754 -1.2140
10241TIP3   OH230655   0.326   5.911   2.164 -0.3612  0.0661  0.8332
10241TIP3    H130656   0.330   5.849   2.091  0.1625  0.1794  0.7578
10241TIP3    H230657   0.235   5.938   2.168 -0.2719  0.5547 -0.2017
10242TIP3   OH230658   5.762   7.698   1.599 -0.6266 -0.3049  0.1975
10242TIP3    H130659   5.775   7.665   1.511 -1.9244  0.9587 -0.4988
10242TIP3    H230660   5.844   7.680   1.645  0.5216  0.1714 -1.6357
10243TIP3   OH230661   3.279   2.856   4.509  0.4261  0.7091  0.7425
10243TIP3    H130662   3.233   2.818   4.584  2.8429 -1.0453  1.3748
10243TIP3    H230663   3.285   2.950   4.530  1.5924  0.1600  3.0601
10244TIP3   OH230664   0.338   3.061   5.328 -0.4122 -0.8490 -0.5523
10244TIP3    H130665   0.407   3.000   5.355 -0.6929 -0.3228  1.3662
10244TIP3    H230666   0.296   3.088   5.409 -2.2104 -0.3533 -1.6280
10245TIP3   OH230667   3.068   6.009   5.595  0.4864  0.4110  0.0692
10245TIP3    H130668   2.973   6.019   5.583  0.2958 -1.0058  0.3451
10245TIP3    H230669   3.097   6.096   5.623 -0.8000  0.7507  0.4033
10246TIP3   OH230670   3.568   4.349   5.059  0.2987  0.1143  0.0902
10246TIP3    H130671   3.565   4.281   4.991  1.7032  0.5164 -0.4084
10246TIP3    H230672   3.544   4.429   5.013 -1.2402 -0.0104  0.6529
10247TIP3   OH230673   0.300   7.024   1.975  0.1648 -0.1115 -0.5013
10247TIP3    H130674   0.358   6.948   1.973 -0.5921 -0.8829  3.3950
10247TIP3    H230675   0.218   6.992   1.936  0.1080 -1.1028  0.4032
10248TIP3   OH230676   7.948   1.052   2.508  0.3153 -0.2957  0.3765
10248TIP3    H130677   7.929   0.960   2.487  0.0398 -0.4831  1.4297
10248TIP3    H230678   7.927   1.060   2.601 -1.3710  1.2798 -0.1206
10249TIP3   OH230679   3.420   2.296   5.234 -0.0494  0.4683  0.5919
10249TIP3    H130680   3.510   2.266   5.229 -0.4876 -0.8601  0.3329
10249TIP3    H230681   3.369   2.217   5.251 -1.3278  0.9152 -0.9964
10250TIP3   OH230682   1.881   6.933   5.095 -0.1704  0.1036 -0.3892
10250TIP3    H130683   1.936   7.006   5.066 -1.6501  2.0331  1.4710
10250TIP3    H230684   1.800   6.974   5.123 -0.9256 -2.2457  1.0241
10251TIP3   OH230685   7.840   5.147   0.149 -0.0339  0.2090 -0.2760
10251TIP3    H130686   7.839   5.087   0.224  3.7437 -1.5962 -1.5443
10251TIP3    H230687   7.781   5.106   0.085 -1.1418  0.3436  0.6418
10252TIP3   OH230688   5.564   1.696   5.039 -0.0602  0.1941  0.5818
10252TIP3    H130689   5.529   1.662   4.956  0.8343  2.2200 -0.6921
10252TIP3    H230690   5.492   1.748   5.075 -0.3517 -0.4559  0.9491
10253TIP3   OH230691   5.018   2.204   6.567 -0.2975  0.1792 -0.0800
10253TIP3    H130692   5.011   2.148   6.489 -0.5944 -0.4530  0.4015
10253TIP3    H230693   5.063   2.283   6.535  1.0059 -0.7374 -0.5503
10254TIP3   OH230694   5.632   1.664   6.161  0.2420  0.1631 -0.0995
10254TIP3    H130695   5.711   1.610   6.164  0.2168  0.0789 -0.8482
10254TIP3    H230696   5.664   1.752   6.140 -0.0680 -0.3657 -3.0732
10255TIP3   OH230697   7.842   0.371   0.798 -0.3772 -0.0755 -0.0566
10255TIP3    H130698   7.797   0.341   0.877  2.6194 -0.8337  1.4165
10255TIP3    H230699   7.833   0.466   0.800  1.2062  0.0704  2.2003
10256TIP3   OH230700   5.853   4.159   0.199  0.6160 -0.1713  0.4116
10256TIP3    H130701   5.883   4.134   0.286  0.7995  2.2684  1.0941
10256TIP3    H230702   5.765   4.195   0.212  0.1335 -0.9422 -0.5977
10257TIP3   OH230703   8.174   6.792   0.935  0.3100  0.5995 -0.1296
10257TIP3    H130704   8.160   6.702   0.905  1.3121 -0.1667  1.6738
10257TIP3    H230705   8.113   6.844   0.882 -1.1027 -1.2643 -0.4019
10258TIP3   OH230706   6.311   4.285   0.570 -0.8519 -0.5623  0.2870
10258TIP3    H130707   6.406   4.280   0.555 -0.8424  1.3549 -0.4552
10258TIP3    H230708   6.303   4.323   0.658 -0.9376  0.0485  0.0138
10259TIP3   OH230709   6.129   7.208   0.102  0.1573  0.3013 -0.4021
10259TIP3    H130710   6.209   7.221   0.051  0.5670 -1.7433 -0.3103
10259TIP3    H230711   6.157   7.165   0.182 -0.9749  0.0094 -0.1439
10260TIP3   OH230712   5.263   4.549   1.535 -0.1732 -0.2993 -0.1205
10260TIP3    H130713   5.301   4.558   1.448  0.6301 -0.3023  0.2268
10260TIP3    H230714   5.270   4.636   1.574 -1.8049  0.0595 -0.5554
10261TIP3   OH230715   0.306   2.579   6.462 -0.2202 -0.0553  0.3035
10261TIP3    H130716   0.299   2.629   6.543  2.1625  1.4357 -0.3382
10261TIP3    H230717   0.245   2.621   6.401  0.6355  1.1503  0.2494
10262TIP3   OH230718   3.685   2.563   6.927 -0.3664  0.2773  0.2153
10262TIP3    H130719   3.750   2.502   6.962 -0.6798  0.5810  1.3775
10262TIP3    H230720   3.621   2.508   6.882  0.9226  0.0127 -1.3397
10263TIP3   OH230721   6.529   3.365   1.000 -0.2706  0.4144 -0.0948
10263TIP3    H130722   6.532   3.272   1.024 -2.2182  1.0523  2.7683
10263TIP3    H230723   6.468   3.368   0.926  0.3987 -0.6725 -0.7113
10264TIP3   OH230724   6.125   6.489   1.379 -0.1246 -0.2527  0.0847
10264TIP3    H130725   6.215   6.512   1.399 -0.4220  0.3211  0.8116
10264TIP3    H230726   6.113   6.402   1.416  0.2380 -0.4939 -0.3573
10265TIP3   OH230727   4.482   6.712   2.538 -0.1771  0.4091  0.3675
10265TIP3    H130728   4.570   6.705   2.501 -0.6070 -1.1061 -0.4360
10265TIP3    H230729   4.430   6.753   2.469  0.2508  2.9578  1.5023
10266TIP3   OH230730   4.385   4.207   5.370  0.2336 -0.4644  0.1003
10266TIP3    H130731   4.422   4.250   5.447  0.5864  1.1983 -0.9697
10266TIP3    H230732   4.449   4.222   5.301 -0.6577 -0.8539 -0.8319
10267TIP3   OH230733   4.417   4.524   0.773  0.5748  0.0101 -0.0948
10267TIP3    H130734   4.432   4.548   0.865  0.3553 -0.1440 -0.0193
10267TIP3    H230735   4.328   4.553   0.755 -0.1598 -1.8414  0.3628
10268TIP3   OH230736   3.950   2.050   5.445 -0.2568 -0.5022  0.7199
10268TIP3    H130737   3.879   2.021   5.387  0.3467 -0.2983 -0.1221
10268TIP3    H230738   4.020   1.987   5.431  1.5530  2.0382 -2.0805
10269TIP3   OH230739   3.500   0.277   2.631  0.4728 -0.1082 -0.0394
10269TIP3    H130740   3.435   0.209   2.610  0.1416  0.5161 -1.1252
10269TIP3    H230741   3.447   0.356   2.646  0.9612  0.3978 -0.9054
10270TIP3   OH230742   4.034   1.402   6.385 -0.2779 -0.1568  0.0107
10270TIP3    H130743   4.000   1.383   6.297  0.0148 -0.8589  0.0488
10270TIP3    H230744   4.129   1.395   6.376 -0.2756 -0.7717  0.5120
10271TIP3   OH230745   5.454   2.083   6.877 -0.1897  0.6180 -0.2216
10271TIP3    H130746   5.380   2.075   6.817  0.3531  1.8803 -1.0839
10271TIP3    H230747   5.454   2.175   6.904  0.8932  0.5687 -0.0133
10272TIP3   OH230748   6.827   5.430   0.934  0.2803  0.0597 -0.2992
10272TIP3    H130749   6.806   5.522   0.918 -1.1271 -0.3374 -0.7810
10272TIP3    H230750   6.923   5.428   0.938  0.3057  1.6412  0.3536
10273TIP3   OH230751   3.910   4.088   6.445  0.3895 -0.0657  0.0973
10273TIP3    H130752   3.886   4.022   6.379 -1.7743  1.1248 -0.3570
10273TIP3    H230753   3.850   4.072   6.518 -0.9626  2.1099 -0.4958
10274TIP3   OH230754   4.869   2.644   5.540 -0.0648  0.2065 -0.1198
10274TIP3    H130755   4.869   2.548   5.547  1.0553  0.1148 -1.1941
10274TIP3    H230756   4.844   2.661   5.450  1.6545  0.8520 -0.5040
10275TIP3   OH230757   3.482   2.426   3.960  0.4124  0.3944 -0.2585
10275TIP3    H130758   3.532   2.497   3.919  0.1911 -0.4920 -2.1249
10275TIP3    H230759   3.420   2.471   4.018  0.9661  1.6781 -0.6432
10276TIP3   OH230760   6.886   6.231   0.825  0.0311  0.1084  0.3432
10276TIP3    H130761   6.928   6.291   0.887  1.6127  0.5141 -1.0559
10276TIP3    H230762   6.955   6.170   0.800 -0.1052  0.8895 -2.1500
10277TIP3   OH230763   6.953   4.963   0.868 -0.1961 -0.7402 -0.5026
10277TIP3    H130764   6.934   4.884   0.816 -0.9217 -0.7752 -0.1840
10277TIP3    H230765   6.900   4.953   0.947  1.6094 -1.1488  0.6904
10278TIP3   OH230766   0.588   1.461   5.661  0.3438  0.2064  0.0942
10278TIP3    H130767   0.546   1.407   5.728 -1.0015  1.1761  0.0324
10278TIP3    H230768   0.521   1.524   5.635  1.2963  0.6934 -1.2017
10279TIP3   OH230769   3.604   3.919   6.237  0.2972  0.4047  0.1735
10279TIP3    H130770   3.608   4.006   6.278  1.4952 -0.0598  1.0816
10279TIP3    H230771   3.693   3.884   6.248 -0.4517 -1.3502  0.7197
10280TIP3   OH230772   4.031   3.944   4.560 -0.0195 -0.1511  0.5448
10280TIP3    H130773   4.020   4.017   4.499 -1.0454 -0.1317  0.7512
10280TIP3    H230774   3.961   3.954   4.623 -0.8348 -1.9305 -0.0357
10281TIP3   OH230775   7.869   6.192   0.646 -0.3803 -0.2304 -0.0635
10281TIP3    H130776   7.888   6.224   0.558  0.1455 -0.4292 -0.0230
10281TIP3    H230777   7.928   6.242   0.703 -0.7315 -0.0895  0.1792
10282TIP3   OH230778   6.743   6.687   1.516  0.0418  0.5661  0.0043
10282TIP3    H130779   6.729   6.598   1.484 -1.1149  0.5522  0.5433
10282TIP3    H230780   6.813   6.679   1.581  0.3827  0.1527 -0.4167
10283TIP3   OH230781   5.418   6.635   1.543  0.5445 -0.0462 -0.6957
10283TIP3    H130782   5.498   6.687   1.550 -0.1035  0.9428 -0.6444
10283TIP3    H230783   5.348   6.699   1.528 -0.3722 -0.8227  0.1650
10284TIP3   OH230784   4.354   3.093   5.312 -0.1350  0.1152  0.1321
10284TIP3    H130785   4.319   3.136   5.234 -2.2517  0.6869  1.3510
10284TIP3    H230786   4.388   3.165   5.366  2.7754 -0.4110 -0.9220
10285TIP3   OH230787   6.461   7.894   0.685 -0.3815 -0.2234 -0.8630
10285TIP3    H130788   6.497   7.838   0.616  1.0831 -1.4022  0.8155
10285TIP3    H230789   6.412   7.833   0.741 -0.0694  0.4332  0.1223
10286TIP3   OH230790   3.033   3.490   5.460  0.4157 -0.1352  0.0218
10286TIP3    H130791   3.060   3.580   5.478 -1.8213  0.1646  2.1602
10286TIP3    H230792   3.059   3.441   5.539 -0.8758 -0.8002  0.0444
10287TIP3   OH230793   1.623   0.090   1.260 -0.1006  0.2096  0.6334
10287TIP3    H130794   1.566   0.090   1.184  0.7629 -1.0988 -0.0348
10287TIP3    H230795   1.711   0.080   1.224  0.2857 -0.7672  1.8008
10288TIP3   OH230796   1.250   0.649   0.318  0.2349  0.4974 -0.1865
10288TIP3    H130797   1.175   0.616   0.269  0.6527  1.9292 -1.8292
10288TIP3    H230798   1.326   0.616   0.271  0.6504  0.1519  0.7154
10289TIP3   OH230799   1.968   1.187   0.380 -0.2548  0.4804  0.0229
10289TIP3    H130800   1.894   1.215   0.327  0.1332  1.9089  0.2234
10289TIP3    H230801   1.939   1.105   0.420 -1.2411  0.3645 -0.9170
10290TIP3   OH230802   2.703   2.357   4.978 -0.5690  0.3261  0.5755
10290TIP3    H130803   2.632   2.299   4.950 -0.0685 -0.9115  1.8011
10290TIP3    H230804   2.664   2.444   4.981 -2.5809 -0.6020  3.0947
10291TIP3   OH230805   6.659   6.015   0.636  0.5753  0.0747 -0.5460
10291TIP3    H130806   6.611   5.986   0.713  0.1685  0.1144 -0.7856
10291TIP3    H230807   6.600   6.076   0.592  0.6034 -0.3397 -1.1647
10292TIP3   OH230808   0.809   2.334   1.453 -0.8766 -0.3583 -0.6706
10292TIP3    H130809   0.774   2.265   1.509 -1.8743  0.0003 -0.8296
10292TIP3    H230810   0.773   2.314   1.366 -1.8012  0.7821 -0.5665
10293TIP3   OH230811   7.064   7.126   0.270 -0.0923  0.3381 -0.1446
10293TIP3    H130812   7.093   7.156   0.356 -1.3886 -0.7200  0.6787
10293TIP3    H230813   6.979   7.085   0.286 -0.5012  0.4436 -1.9900
10294TIP3   OH230814   1.102   1.647   0.902  0.2676 -0.2784  0.2464
10294TIP3    H130815   1.168   1.714   0.884  0.0505  0.5724  2.4873
10294TIP3    H230816   1.142   1.590   0.967 -1.0031 -0.0553  1.2427
10295TIP3   OH230817   4.536   3.901   6.333 -0.1007 -0.3796 -0.5674
10295TIP3    H130818   4.554   3.870   6.244  1.8435 -1.3292  0.1289
10295TIP3    H230819   4.520   3.995   6.322  4.0757  0.3363 -1.5024
10296TIP3   OH230820   3.835   3.370   5.300 -0.3671  0.1162 -0.2837
10296TIP3    H130821   3.866   3.302   5.241  1.7726  0.4226  0.4735
10296TIP3    H230822   3.740   3.355   5.306  0.2281 -3.6240  0.9300
10297TIP3   OH230823   7.018   6.659   1.265 -0.0006  0.1967 -0.1889
10297TIP3    H130824   6.928   6.654   1.231  0.3979  0.1954 -1.2628
10297TIP3    H230825   7.018   6.737   1.320 -0.9630 -0.4391  0.7486
10298TIP3   OH230826   6.476   6.799   1.587  0.4943  0.0166  0.1846
10298TIP3    H130827   6.419   6.765   1.518  0.5423 -0.7522  0.5152
10298TIP3    H230828   6.562   6.764   1.566  0.8822  1.3129 -0.4034
10299TIP3   OH230829   3.850   2.939   6.076 -0.4997 -0.4747 -0.1112
10299TIP3    H130830   3.897   2.885   6.141  2.4185  2.4635  0.3535
10299TIP3    H230831   3.758   2.931   6.100  0.2124 -2.2363  2.2343
10300TIP3   OH230832   4.509   2.347   5.946 -0.6026  0.1997  0.1991
10300TIP3    H130833   4.439   2.345   5.881  1.2905 -1.8914 -1.8416
10300TIP3    H230834   4.495   2.268   5.999  0.6635 -0.6691 -0.7372
10301TIP3   OH230835   3.786   2.079   6.736 -0.1811 -0.3597  0.4267
10301TIP3    H130836   3.715   2.039   6.787  0.1159 -1.6302 -0.1328
10301TIP3    H230837   3.799   2.018   6.663 -0.0439  1.0157 -0.7105
10302TIP3   OH230838   6.360   6.422   0.774  0.3411 -0.3611  0.3773
10302TIP3    H130839   6.382   6.485   0.842  0.3115  1.5695 -1.3561
10302TIP3    H230840   6.436   6.363   0.771  1.4579  1.0500  0.3683
10303TIP3   OH230841   5.038   6.624   0.757 -0.6866 -0.0334 -0.6433
10303TIP3    H130842   5.060   6.552   0.816 -0.2094 -0.7382 -1.6665
10303TIP3    H230843   4.955   6.598   0.718  0.4624 -1.0224 -2.5306
10304TIP3   OH230844   7.054   7.290   0.483  0.3502 -0.4665 -0.4362
10304TIP3    H130845   7.062   7.374   0.527  0.0296 -0.6387 -0.0517
10304TIP3    H230846   7.002   7.309   0.404  0.0265 -0.3614 -0.1974
10305TIP3   OH230847   1.522   4.350   6.841  0.3387 -0.5535  0.6934
10305TIP3    H130848   1.485   4.286   6.780  1.2180 -0.8056  0.4236
10305TIP3    H230849   1.445   4.393   6.879 -0.2345 -0.9220 -0.0229
10306TIP3   OH230850   6.874   7.127   1.398 -0.4673 -0.0765 -0.0484
10306TIP3    H130851   6.872   7.199   1.335 -1.8923  1.0912  1.2649
10306TIP3    H230852   6.811   7.063   1.364 -0.8552  0.3196 -0.0851
10307TIP3   OH230853   7.145   7.334   0.764 -0.0698  0.0807 -0.3816
10307TIP3    H130854   7.120   7.420   0.729 -1.2151  0.2919  0.9086
10307TIP3    H230855   7.239   7.327   0.745  0.1440  1.8352 -0.0567
10308TIP3   OH230856   0.091   6.133   6.723 -0.3095  0.5368  0.2791
10308TIP3    H130857   0.057   6.204   6.668  1.3612  0.6337 -0.6600
10308TIP3    H230858   0.038   6.057   6.700  0.2082  0.6401 -1.3117
10309TIP3   OH230859   5.037   3.850   6.463  0.1045 -0.4999  0.4285
10309TIP3    H130860   5.049   3.785   6.532 -0.7542 -1.4611 -0.2887
10309TIP3    H230861   4.942   3.866   6.462 -0.0378 -1.2612 -1.1578
10310TIP3   OH230862   7.019   4.671   0.795  0.0738 -0.2328  0.2043
10310TIP3    H130863   7.044   4.587   0.757  1.7592  0.6073 -0.6170
10310TIP3    H230864   7.101   4.722   0.797 -0.8711  1.3128  0.8748
10311TIP3   OH230865   8.145   7.436   2.506 -0.1528  0.7446 -0.1163
10311TIP3    H130866   8.057   7.433   2.468  0.4561  2.1233 -1.7209
10311TIP3    H230867   8.190   7.360   2.470 -0.1055  1.1094 -0.8341
10312TIP3   OH230868   5.641   2.429   6.140 -0.1183 -0.1008  0.3441
10312TIP3    H130869   5.571   2.469   6.190  0.5299  0.3255  0.9159
10312TIP3    H230870   5.631   2.464   6.051 -1.9146 -1.6710 -0.1107
10313TIP3   OH230871   5.343   6.045   0.683 -0.5361 -0.1812  0.8219
10313TIP3    H130872   5.387   5.981   0.739  0.4993  0.6851  1.0356
10313TIP3    H230873   5.253   6.049   0.715  0.2820  1.0405  3.1225
10314TIP3   OH230874   1.158   1.773   0.248  0.2401 -0.1950  0.0539
10314TIP3    H130875   1.220   1.717   0.294  0.1821  0.8593  1.4286
10314TIP3    H230876   1.161   1.857   0.295  0.3267  0.9803 -1.9468
10315TIP3   OH230877   7.387   0.332   0.896 -0.1572 -0.1563 -0.4372
10315TIP3    H130878   7.445   0.395   0.941 -1.2613  0.8757 -0.4367
10315TIP3    H230879   7.382   0.365   0.806 -0.3009 -0.5600 -0.5737
10316TIP3   OH230880   5.968   4.111   0.428 -0.0807  0.3290 -0.4232
10316TIP3    H130881   6.013   4.033   0.395  0.1282  0.4018 -0.3081
10316TIP3    H230882   5.946   4.090   0.518 -1.0545 -0.0445 -0.7359
10317TIP3   OH230883   3.047   4.139   6.552 -1.0174 -0.4685 -0.1501
10317TIP3    H130884   3.059   4.229   6.520 -2.1169 -0.1581  0.2780
10317TIP3    H230885   3.038   4.149   6.647  2.5362 -1.4126  0.3518
10318TIP3   OH230886   2.880   1.943   4.323  0.0700  0.7203  0.9370
10318TIP3    H130887   2.894   2.026   4.278 -1.2122  0.7463  0.5470
10318TIP3    H230888   2.823   1.967   4.397 -2.2280 -0.1631 -0.5077
10319TIP3   OH230889   0.463   0.324   1.613  0.1963  0.1130 -0.7080
10319TIP3    H130890   0.520   0.367   1.549  0.4608 -1.5147 -1.5832
10319TIP3    H230891   0.480   0.230   1.601 -2.8566 -0.4229 -1.1752
10320TIP3   OH230892   3.868   4.368   5.863  0.0678  0.4055 -0.3940
10320TIP3    H130893   3.890   4.332   5.777  0.0888  1.5656 -0.8929
10320TIP3    H230894   3.794   4.316   5.893  1.1216 -1.1067 -0.3606
10321TIP3   OH230895   1.257   0.399   2.211 -0.5399 -0.3578  0.2679
10321TIP3    H130896   1.335   0.443   2.179 -1.8126  0.0368 -2.4857
10321TIP3    H230897   1.278   0.306   2.204 -0.7373 -0.2865 -1.7701
10322TIP3   OH230898   2.559   2.979   5.440  0.0372  0.2947  0.0453
10322TIP3    H130899   2.561   3.033   5.519 -0.7178 -0.0607  0.3156
10322TIP3    H230900   2.615   3.025   5.378 -0.9144  1.6123  0.1330
10323TIP3   OH230901   6.290   0.547   1.411  0.1831  0.1474  0.4488
10323TIP3    H130902   6.305   0.487   1.338  1.6508 -0.0018  0.8429
10323TIP3    H230903   6.357   0.523   1.475  1.0639  2.4463  0.4421
10324TIP3   OH230904   1.146   0.933   0.140 -0.2150 -0.1931  0.1372
10324TIP3    H130905   1.210   1.004   0.141  0.5032 -0.8388  1.6749
10324TIP3    H230906   1.098   0.943   0.222  0.1714 -1.7207  0.5624
10325TIP3   OH230907   3.463   5.520   1.106  0.4555 -0.0995  0.3011
10325TIP3    H130908   3.436   5.525   1.198  0.1717  0.1149  0.2057
10325TIP3    H230909   3.382   5.501   1.059  0.6153 -0.2851  0.1021
10326TIP3   OH230910   2.686   4.833   5.787  0.0580 -0.0592  0.1550
10326TIP3    H130911   2.678   4.739   5.804 -2.6395 -0.3220 -2.1250
10326TIP3    H230912   2.611   4.871   5.831 -0.9286  0.5350 -1.9709
10327TIP3   OH230913   7.147   5.576   0.274  0.1944  0.4799  0.4267
10327TIP3    H130914   7.064   5.530   0.267 -0.2115  1.1776  0.5754
10327TIP3    H230915   7.146   5.616   0.361  2.1353 -2.2450  1.7777
10328TIP3   OH230916   2.596   0.661   2.827 -0.4193  0.2422 -0.3205
10328TIP3    H130917   2.617   0.578   2.784 -1.0194 -0.2870  0.4019
10328TIP3    H230918   2.659   0.723   2.790 -0.7735 -0.2465 -1.8037
10329TIP3   OH230919   3.589   1.873   6.730  0.0668 -0.2000  0.2536
10329TIP3    H130920   3.541   1.851   6.651 -0.7499  3.6446 -0.4086
10329TIP3    H230921   3.665   1.815   6.729 -0.5901 -1.0670 -2.6935
10330TIP3   OH230922   7.249   5.091   1.322 -0.0542 -0.5567  0.1201
10330TIP3    H130923   7.329   5.128   1.287  0.1147 -1.2114 -0.2002
10330TIP3    H230924   7.279   5.029   1.389 -0.3292 -0.1435  0.6326
10331TIP3   OH230925   2.864   3.360   5.287 -0.5073  0.1824 -0.2759
10331TIP3    H130926   2.930   3.403   5.342 -0.8251  0.5456 -0.1762
10331TIP3    H230927   2.914   3.323   5.214  0.0697 -1.2863  0.8443
10332TIP3   OH230928   1.300   1.473   1.636  0.3651  0.4412 -0.0489
10332TIP3    H130929   1.365   1.528   1.593  1.8942  0.4318  2.1833
10332TIP3    H230930   1.257   1.531   1.699  1.3117 -0.6237  1.6304
10333TIP3   OH230931   4.204   1.116   3.863  0.4259 -0.4198  0.0833
10333TIP3    H130932   4.230   1.198   3.821  2.0011 -0.4020  1.0768
10333TIP3    H230933   4.286   1.075   3.890 -0.4485 -1.4316  1.2857
10334TIP3   OH230934   6.635   5.371   2.887 -0.4269 -0.5924  0.1874
10334TIP3    H130935   6.609   5.372   2.795  2.5824 -3.5992 -0.8005
10334TIP3    H230936   6.559   5.336   2.933 -1.5756 -0.0596 -1.2519
10335TIP3   OH230937   3.690   2.933   6.798  0.1449 -0.0326 -0.9180
10335TIP3    H130938   3.767   2.983   6.825  0.5047 -0.6516 -0.7985
10335TIP3    H230939   3.635   2.929   6.876  0.4798 -0.4961 -0.7005
10336TIP3   OH230940   4.639   3.147   6.529 -0.3211  0.0871  0.1947
10336TIP3    H130941   4.731   3.170   6.530 -0.3650  0.2530  1.4933
10336TIP3    H230942   4.623   3.114   6.441  1.1152 -0.5082  0.1512
10337TIP3   OH230943   6.438   6.237   1.326 -0.2770  0.1584 -0.0019
10337TIP3    H130944   6.434   6.167   1.261  0.5447 -0.1639  0.2971
10337TIP3    H230945   6.528   6.236   1.358  0.1494  2.3398 -1.0606
10338TIP3   OH230946   8.027   7.289   0.184  0.1552  0.4004  0.4521
10338TIP3    H130947   7.993   7.286   0.094  0.0464 -1.0305  0.5342
10338TIP3    H230948   7.951   7.271   0.239  0.1052  1.8191  0.8762
10339TIP3   OH230949   7.113   5.928   1.437 -0.1062 -0.2258  0.3149
10339TIP3    H130950   7.032   5.900   1.393  0.9495  0.0416 -1.8625
10339TIP3    H230951   7.085   5.999   1.495 -1.6990 -1.2536  0.8266
10340TIP3   OH230952   8.069   4.792   1.535 -0.7670  0.2123  0.1771
10340TIP3    H130953   8.016   4.807   1.457  1.8347  1.8253 -1.3298
10340TIP3    H230954   8.109   4.877   1.554  0.9115 -0.8566  1.5763
10341TIP3   OH230955   4.687   2.475   5.077 -0.4043  0.8182  0.0809
10341TIP3    H130956   4.724   2.447   5.161 -0.0775  2.0200  0.3591
10341TIP3    H230957   4.594   2.486   5.095 -0.6380 -0.6381 -0.1890
10342TIP3   OH230958   3.376   2.500   6.644  0.3516 -0.7839  0.3495
10342TIP3    H130959   3.301   2.481   6.700 -0.5277  0.3232 -0.4219
10342TIP3    H230960   3.436   2.427   6.658 -1.2769 -2.1665  0.2506
10343TIP3   OH230961   7.050   7.954   3.619  0.6242  1.0075 -0.0531
10343TIP3    H130962   7.121   7.954   3.555  2.2481  0.2660  1.7028
10343TIP3    H230963   7.068   7.879   3.676 -0.8719  1.5510  1.1773
10344TIP3   OH230964   2.910   2.978   6.653 -0.0528  0.0440  0.5552
10344TIP3    H130965   2.833   2.966   6.708 -0.7053  0.8297 -0.1722
10344TIP3    H230966   2.891   3.057   6.603  1.5147  0.6111  0.8524
10345TIP3   OH230967   4.162   5.214   2.485 -0.1849 -0.2632 -0.1700
10345TIP3    H130968   4.231   5.225   2.551 -0.7238  1.5684  0.1359
10345TIP3    H230969   4.199   5.253   2.406 -0.4633 -0.2212 -0.2808
10346TIP3   OH230970   7.912   6.669   1.754  0.1845 -0.2384  0.1188
10346TIP3    H130971   7.872   6.610   1.818  0.9996  0.4108  1.2393
10346TIP3    H230972   7.857   6.661   1.676  0.0207 -2.1278  0.4153
10347TIP3   OH230973   7.137   7.303   0.035  0.1943 -0.1036  0.1257
10347TIP3    H130974   7.079   7.275   0.107 -0.9503  0.4667 -0.5541
10347TIP3    H230975   7.184   7.378   0.071 -0.0283 -0.1129  0.4449
10348TIP3   OH230976   1.167   2.265   5.014  0.4333  0.0623 -0.2788
10348TIP3    H130977   1.245   2.311   5.045  1.3198  0.0205 -2.3294
10348TIP3    H230978   1.116   2.331   4.968 -0.7608  0.0847  1.0441
10349TIP3   OH230979   1.718   5.268   5.759  0.0429  0.1112 -0.6550
10349TIP3    H130980   1.661   5.327   5.807 -0.3354  0.6448 -1.7253
10349TIP3    H230981   1.661   5.227   5.694  0.5799 -0.4219 -0.7974
10350TIP3   OH230982   1.099   3.683   6.613  0.1362  0.3674  0.3144
10350TIP3    H130983   1.024   3.729   6.651  1.8703  2.2548  1.4990
10350TIP3    H230984   1.160   3.671   6.686  1.8347  0.5644 -1.0443
10351TIP3   OH230985   5.119   1.358   6.521  0.1481  0.2815 -0.0903
10351TIP3    H130986   5.057   1.331   6.588 -0.6984 -0.3730 -1.1379
10351TIP3    H230987   5.066   1.402   6.455  1.1714  2.2730  0.3550
10352TIP3   OH230988   3.307   2.128   6.244 -0.7374 -1.0384 -0.1163
10352TIP3    H130989   3.216   2.133   6.216 -0.9199 -0.2019  0.6052
10352TIP3    H230990   3.342   2.215   6.227  0.5672 -1.9645 -2.4754
10353TIP3   OH230991   5.728   2.782   6.626  0.5409 -0.1158 -0.3542
10353TIP3    H130992   5.718   2.725   6.702  2.4706 -0.4767 -0.3279
10353TIP3    H230993   5.712   2.870   6.660  0.1261 -0.4016  0.1914
10354TIP3   OH230994   1.964   0.265   0.124 -0.8129 -0.2421 -0.0945
10354TIP3    H130995   2.059   0.275   0.133 -0.9139  1.6400 -0.8310
10354TIP3    H230996   1.927   0.326   0.189 -1.4978  0.3693 -1.0381
10355TIP3   OH230997   3.347   3.014   6.560  0.1326 -0.3505 -0.3291
10355TIP3    H130998   3.306   2.960   6.628  0.9497  0.7288  1.0491
10355TIP3    H230999   3.432   2.973   6.546  0.6048  0.3577  0.4529
10356TIP3   OH231000   3.835   3.480   5.817  1.0059 -0.5316 -0.7260
10356TIP3    H131001   3.774   3.476   5.744  2.0354 -0.1459 -1.6284
10356TIP3    H231002   3.907   3.423   5.791  1.4945 -0.1954 -0.1216
10357TIP3   OH231003   4.066   3.304   6.238 -0.4558  0.5340  0.7041
10357TIP3    H131004   4.121   3.350   6.301 -0.1021  0.1392  0.6836
10357TIP3    H231005   3.996   3.367   6.217 -1.2359  0.2494  2.3510
10358TIP3   OH231006   5.006   1.246   4.070  0.7403  0.2417 -0.4317
10358TIP3    H131007   5.005   1.150   4.077  0.3050  0.1623 -1.5142
10358TIP3    H231008   5.094   1.268   4.040  1.6917  0.3796  2.3456
10359TIP3   OH231009   6.415   6.148   0.145 -0.2715  0.0873  0.5438
10359TIP3    H131010   6.439   6.066   0.189 -1.4393  0.1777  1.3717
10359TIP3    H231011   6.364   6.196   0.210 -0.0475  1.2395 -0.1307
10360TIP3   OH231012   6.646   4.807   1.922 -0.0650 -0.0481  0.0881
10360TIP3    H131013   6.730   4.761   1.922  0.3276  0.6550  0.3189
10360TIP3    H231014   6.588   4.751   1.973 -0.2603 -1.4682 -1.6391
10361TIP3   OH231015   5.896   6.685   0.298  0.5598 -0.4902  0.0372
10361TIP3    H131016   5.884   6.732   0.381  0.3899  0.2224 -0.3923
10361TIP3    H231017   5.820   6.708   0.246  1.1889 -0.0970 -0.7196
10362TIP3   OH231018   3.274   0.833   0.475 -0.0706 -0.2599  0.9230
10362TIP3    H131019   3.285   0.862   0.566 -0.6952 -1.9336  1.5529
10362TIP3    H231020   3.264   0.738   0.481 -1.6693 -0.2252 -0.7625
10363TIP3   OH231021   3.448   0.222   0.549  0.0953 -0.1423  0.5906
10363TIP3    H131022   3.353   0.233   0.554  0.0518 -0.5227  0.6056
10363TIP3    H231023   3.483   0.307   0.574 -0.2444  0.0521  0.4092
10364TIP3   OH231024   6.521   5.479  -0.001 -0.4266 -0.2100 -0.4412
10364TIP3    H131025   6.562   5.486   0.085  1.6889  2.4717 -1.5895
10364TIP3    H231026   6.548   5.393  -0.033 -1.9595 -1.6000  1.8925
10365TIP3   OH231027   5.639   2.759   6.155  0.0856 -0.1659  0.8501
10365TIP3    H131028   5.610   2.690   6.095 -0.2465  0.4222  0.3286
10365TIP3    H231029   5.661   2.712   6.236 -0.4474 -0.8510  0.6083
10366TIP3   OH231030   7.708   6.713   0.547  0.0338  0.2008  0.1722
10366TIP3    H131031   7.687   6.663   0.626  0.1211  2.3037  1.5856
10366TIP3    H231032   7.698   6.805   0.574  0.6601  0.9710 -2.1031
10367TIP3   OH231033   2.753   4.761   6.157  0.3224 -0.9697  0.6447
10367TIP3    H131034   2.819   4.818   6.196 -0.8378  0.9510 -0.1475
10367TIP3    H231035   2.767   4.769   6.063 -0.8362 -0.7962  0.4838
10368TIP3   OH231036   3.637   3.830   5.517  0.2576  0.3654 -0.1482
10368TIP3    H131037   3.557   3.819   5.570  0.4012  0.1256  0.0210
10368TIP3    H231038   3.605   3.851   5.429 -0.0089 -0.3971 -0.2379
10369TIP3   OH231039   0.789   4.404   2.440 -0.1136 -0.1795 -0.2415
10369TIP3    H131040   0.726   4.336   2.462  0.2163 -0.3798  0.0870
10369TIP3    H231041   0.828   4.430   2.523  0.1161  0.0642 -0.4215
10370TIP3   OH231042   7.077   7.188   1.822 -0.0360 -0.2790 -0.2512
10370TIP3    H131043   7.109   7.143   1.744 -1.1873  0.0462 -0.9213
10370TIP3    H231044   7.138   7.261   1.835  1.6450 -1.7891  0.6424
10371TIP3   OH231045   0.073   0.270   1.616  0.6127 -0.6732  0.2979
10371TIP3    H131046   0.129   0.198   1.585  2.2129  0.7039 -0.0781
10371TIP3    H231047   0.069   0.331   1.543 -0.0160  0.0402  0.9244
10372TIP3   OH231048   1.621   2.635   6.138 -0.0196  0.2653  0.3245
10372TIP3    H131049   1.584   2.597   6.058 -0.7556 -0.3058  0.9351
10372TIP3    H231050   1.708   2.665   6.111 -1.2274  2.4332 -1.3399
10373TIP3   OH231051   8.416   7.814   0.302 -0.5027 -0.4367 -0.1979
10373TIP3    H131052   8.322   7.820   0.319 -0.6786  1.8798 -1.6704
10373TIP3    H231053   8.425   7.842   0.210  1.4600 -2.1741 -0.5774
10374TIP3   OH231054   4.308   2.842   6.479  0.2673  0.3008  0.4883
10374TIP3    H131055   4.355   2.769   6.439  1.9833  1.6692 -0.0252
10374TIP3    H231056   4.219   2.809   6.491  0.7311 -1.4791 -0.7999
10375TIP3   OH231057   7.090   5.333   0.950  0.2520  0.1809  0.1918
10375TIP3    H131058   7.169   5.298   0.909  0.7934  0.5185  0.9344
10375TIP3    H231059   7.087   5.291   1.036 -0.1984  0.4192  0.2954
10376TIP3   OH231060   4.510   2.655   4.615  0.4363  0.0241 -0.3892
10376TIP3    H131061   4.516   2.714   4.540  1.8467 -1.1789 -1.2336
10376TIP3    H231062   4.447   2.588   4.588 -1.3167  1.2064  0.6451
10377TIP3   OH231063   4.661   7.283   1.021  0.1819 -0.3313  0.1885
10377TIP3    H131064   4.626   7.194   1.010 -1.3491  0.1846  0.7254
10377TIP3    H231065   4.706   7.281   1.105  0.0734 -0.5797  0.2413
10378TIP3   OH231066   7.457   0.449   2.937 -0.3320  0.5716 -0.0191
10378TIP3    H131067   7.513   0.422   3.011  0.7001  0.9798 -0.6418
10378TIP3    H231068   7.405   0.521   2.971 -1.5212 -0.7443  1.0032
10379TIP3   OH231069   5.131   7.761   0.562 -0.1644  0.5601  0.1660
10379TIP3    H131070   5.199   7.744   0.496 -0.1013  1.0618  0.0968
10379TIP3    H231071   5.053   7.719   0.527  0.1895 -0.3434  0.4219
10380TIP3   OH231072   7.178   0.116   0.191  0.3946 -0.0783 -0.2569
10380TIP3    H131073   7.216   0.048   0.136  0.7709 -0.1758  0.1171
10380TIP3    H231074   7.232   0.193   0.174  1.7612 -0.6306  1.4542
10381TIP3   OH231075   6.826   6.493   0.412  0.0804 -0.4546 -0.1578
10381TIP3    H131076   6.830   6.426   0.480  0.4021  0.7499  1.0361
10381TIP3    H231077   6.733   6.503   0.393 -0.0994  0.0561  0.9764
10382TIP3   OH231078   3.879   1.594   6.517  0.0599 -0.6902  0.6044
10382TIP3    H131079   3.905   1.599   6.609 -2.2955 -1.0835  1.3311
10382TIP3    H231080   3.928   1.521   6.482  0.9919 -0.5251  1.5543
10383TIP3   OH231081   4.485   7.952   0.036 -0.0822  0.1876 -0.3758
10383TIP3    H131082   4.523   7.951  -0.052  0.7170  1.9675 -0.0744
10383TIP3    H231083   4.556   7.923   0.093 -0.1651  0.3899 -0.1683
10384TIP3   OH231084   5.581   6.858   0.856 -0.0905 -0.1117 -0.0175
10384TIP3    H131085   5.506   6.914   0.836  0.3082 -0.2900 -2.1082
10384TIP3    H231086   5.558   6.818   0.941 -1.4535  1.3278  0.3307
10385TIP3   OH231087   4.168   3.427   5.620 -0.7428  0.2540  0.6009
10385TIP3    H131088   4.201   3.378   5.695 -1.7196  0.4417  1.1587
10385TIP3    H231089   4.096   3.373   5.586 -0.8393  0.5676  0.3029
10386TIP3   OH231090   0.672   0.880   0.626 -0.0657 -0.0694  0.4209
10386TIP3    H131091   0.690   0.960   0.576 -0.7582 -0.2443 -0.1208
10386TIP3    H231092   0.710   0.810   0.573  0.9490 -0.0509  1.1246
10387TIP3   OH231093   7.934   7.865   0.710 -0.3524 -0.2737 -0.2499
10387TIP3    H131094   7.976   7.951   0.715  1.9853 -1.4629  1.2314
10387TIP3    H231095   8.001   7.807   0.673 -0.9061 -2.0710  1.4925
10388TIP3   OH231096   8.275   0.401   0.405  0.4293  0.3120  0.5710
10388TIP3    H131097   8.220   0.355   0.468 -0.4326  0.4147 -0.1048
10388TIP3    H231098   8.227   0.481   0.385  1.0045  0.5829  0.2675
10389TIP3   OH231099   1.724   0.401   0.834  0.3900  0.1049 -0.1727
10389TIP3    H131100   1.674   0.423   0.913 -0.8070 -4.6469  0.5461
10389TIP3    H231101   1.677   0.444   0.763 -2.0679 -0.5050  1.0427
10390TIP3   OH231102   3.264   3.463   5.237 -0.3636 -0.0526 -0.2874
10390TIP3    H131103   3.287   3.379   5.278 -0.5023  0.0304 -0.0398
10390TIP3    H231104   3.191   3.495   5.289 -0.3841  0.1687 -0.4544
10391TIP3   OH231105   3.133   2.677   6.583 -0.7570 -0.4348  0.0565
10391TIP3    H131106   3.211   2.621   6.586 -0.6977 -0.3316  0.4749
10391TIP3    H231107   3.083   2.652   6.660 -0.4873  0.4478  0.5230
10392TIP3   OH231108   4.197   1.278   5.946  0.3848 -0.0183  0.6040
10392TIP3    H131109   4.175   1.192   5.981  0.0286  0.1699  0.8435
10392TIP3    H231110   4.249   1.320   6.015 -1.1958  0.7512  1.3452
10393TIP3   OH231111   5.449   1.855   6.413  0.1162 -0.1105  0.2377
10393TIP3    H131112   5.414   1.927   6.465 -0.7636 -0.6793  0.4305
10393TIP3    H231113   5.411   1.776   6.451 -1.5533 -0.4654 -2.0439
10394TIP3   OH231114   7.463   6.284   0.141 -0.7926 -0.6487 -0.6770
10394TIP3    H131115   7.403   6.341   0.093  2.6661  1.9932 -2.1138
10394TIP3    H231116   7.430   6.196   0.127 -3.3551  0.5957 -2.7681
10395TIP3   OH231117   3.341   4.304   6.964 -0.4318 -0.2366  0.1194
10395TIP3    H131118   3.290   4.383   6.943 -0.3274 -0.1075  0.3489
10395TIP3    H231119   3.417   4.309   6.907 -0.8963 -0.6613 -0.5507
10396TIP3   OH231120   4.100   2.601   6.820  0.4328  0.0382 -0.4450
10396TIP3    H131121   4.081   2.691   6.847 -2.1145 -0.4593 -0.5086
10396TIP3    H231122   4.150   2.565   6.894  0.8959  1.2841 -0.1327
10397TIP3   OH231123   3.195   2.092   6.483  0.6716  0.3325  0.2177
10397TIP3    H131124   3.248   2.096   6.404  1.1645 -0.5146  0.5021
10397TIP3    H231125   3.224   2.168   6.535 -1.0131  2.0193 -1.2414
10398TIP3   OH231126   5.337   0.820   6.509  0.0251 -0.0702 -0.1911
10398TIP3    H131127   5.410   0.873   6.478 -0.0887  0.7256  0.8821
10398TIP3    H231128   5.373   0.770   6.582 -0.2079 -0.5285 -0.3872
10399TIP3   OH231129   3.135   2.220   5.668 -0.2912 -0.0168 -0.2967
10399TIP3    H131130   3.069   2.238   5.602 -1.1304 -0.1417  0.4926
10399TIP3    H231131   3.218   2.248   5.629 -1.1302  2.4273 -0.3530
10400TIP3   OH231132   6.390   6.619   0.957 -0.0163 -0.0228 -0.0035
10400TIP3    H131133   6.418   6.698   0.911  0.5499 -0.2254 -0.0124
10400TIP3    H231134   6.345   6.650   1.035 -0.4629  0.3172 -0.3904
10401TIP3   OH231135   6.118   6.549   1.064 -0.4723 -0.4226 -0.5718
10401TIP3    H131136   6.188   6.486   1.044  0.0178  0.5251 -1.9230
10401TIP3    H231137   6.060   6.502   1.124  0.2163 -1.9391 -1.0705
10402TIP3   OH231138   1.897   4.694   6.903  0.2563 -0.5472 -0.0840
10402TIP3    H131139   1.950   4.725   6.977 -0.0435 -0.4428  0.0894
10402TIP3    H231140   1.955   4.700   6.827  0.3709 -0.0654  0.0378
10403TIP3   OH231141   3.930   3.303   5.570  0.0140  0.2000  0.2684
10403TIP3    H131142   3.900   3.360   5.500  0.6923 -1.5974 -1.5225
10403TIP3    H231143   3.911   3.215   5.539  0.6288 -0.6404  2.2161
10404TIP3   OH231144   0.871   5.471   2.220  0.5669 -0.1677  1.1425
10404TIP3    H131145   0.811   5.536   2.256  0.0371 -0.4844  0.8386
10404TIP3    H231146   0.820   5.390   2.215  1.6437 -0.9658  2.8218
10405TIP3   OH231147   4.038   2.468   4.786 -0.4796  0.2962  0.0972
10405TIP3    H131148   3.948   2.439   4.771 -1.7511  3.0719  2.0829
10405TIP3    H231149   4.051   2.458   4.881  0.2337  2.8338  0.2898
10406TIP3   OH231150   1.103   6.961   2.529 -0.1353  0.0630 -0.0264
10406TIP3    H131151   1.120   6.890   2.468  2.9952  0.7735 -0.0722
10406TIP3    H231152   1.128   6.926   2.615 -0.0684  0.6152  0.1825
10407TIP3   OH231153   3.849   3.450   6.838 -0.9799  0.1373 -0.2304
10407TIP3    H131154   3.920   3.445   6.773  0.1024 -1.0837  1.0120
10407TIP3    H231155   3.769   3.441   6.786 -0.2177  0.9983 -1.6009
10408TIP3   OH231156   5.508   1.705   4.476  0.1641 -0.7529  0.1069
10408TIP3    H131157   5.433   1.753   4.513  1.6324 -1.0587  3.5764
10408TIP3    H231158   5.545   1.766   4.412 -0.3897  1.1602  1.5741
10409TIP3   OH231159   4.682   2.760   3.811 -0.5862  0.4885 -0.3180
10409TIP3    H131160   4.658   2.731   3.723 -0.2338  0.1263 -0.2918
10409TIP3    H231161   4.691   2.855   3.803  1.2171  0.2575 -1.0855
10410TIP3   OH231162   5.513   1.915   6.146  0.1391 -0.2000  0.6201
10410TIP3    H131163   5.466   1.882   6.222 -1.4078  0.4614 -0.0321
10410TIP3    H231164   5.602   1.932   6.178  0.0985 -1.9871  1.7172
10411TIP3   OH231165   5.858   3.389   5.683  0.3422  0.1046 -0.3673
10411TIP3    H131166   5.892   3.334   5.612  2.5969 -1.6717  2.0003
10411TIP3    H231167   5.914   3.467   5.681  0.4193  0.0438 -0.5555
10412TIP3   OH231168   0.022   6.745   0.289  0.1997  0.5915  0.4276
10412TIP3    H131169   0.030   6.798   0.369  2.3885  2.2016 -0.7937
10412TIP3    H231170  -0.018   6.804   0.225 -0.6011 -0.3681  0.0359
10413TIP3   OH231171   4.827   1.984   6.027  0.1708 -0.1648  0.3254
10413TIP3    H131172   4.847   2.003   6.119  0.0473  0.0118  0.3156
10413TIP3    H231173   4.846   1.891   6.017 -1.1996 -0.5156  0.8960
10414TIP3   OH231174   7.095   6.703   0.589  0.2723 -0.2005  0.5596
10414TIP3    H131175   7.144   6.657   0.521 -0.5208 -0.4184  0.1158
10414TIP3    H231176   7.063   6.782   0.546 -0.5794 -0.5421  0.5396
10415TIP3   OH231177   3.278   3.719   6.364  0.3140 -0.0353 -0.7415
10415TIP3    H131178   3.321   3.650   6.313  1.6604  1.6882 -2.0101
10415TIP3    H231179   3.264   3.680   6.450  1.0289 -1.8968 -1.4324
10416TIP3   OH231180   3.734   1.911   4.758  0.4016 -0.7254  0.7978
10416TIP3    H131181   3.796   1.934   4.827  1.5306 -0.4455 -0.3010
10416TIP3    H231182   3.649   1.912   4.801  0.6979  2.7297  1.4612
10417TIP3   OH231183   6.432   3.476   4.877 -0.3213  0.1372  0.0382
10417TIP3    H131184   6.389   3.391   4.879  0.2315 -0.1257  1.2816
10417TIP3    H231185   6.407   3.518   4.959  0.6540  0.5379  0.1372
10418TIP3   OH231186   4.469   2.107   4.660 -0.3981 -0.0744  0.4053
10418TIP3    H131187   4.404   2.164   4.699 -0.3221 -0.1654  0.6663
10418TIP3    H231188   4.549   2.160   4.656 -0.3545 -0.1295  0.5514
10419TIP3   OH231189   1.701   6.618   1.538 -0.5079  0.0356  0.5107
10419TIP3    H131190   1.669   6.584   1.455 -0.8918 -0.2611  0.7774
10419TIP3    H231191   1.750   6.697   1.515 -0.4166 -0.1739 -0.0172
10420TIP3   OH231192   5.560   3.635   6.068  0.0311  0.4451 -0.0892
10420TIP3    H131193   5.593   3.642   5.979 -1.8473 -3.9111 -1.2961
10420TIP3    H231194   5.465   3.629   6.058 -0.1251 -1.4039  2.0379
10421TIP3   OH231195   4.570   1.153   6.739 -0.4254 -0.1095 -0.0877
10421TIP3    H131196   4.504   1.218   6.714 -0.0385  0.5102  0.5246
10421TIP3    H231197   4.518   1.079   6.772 -0.8410  0.0742 -0.3164
10422TIP3   OH231198   4.649   3.908   5.514  0.7742  0.7530 -0.7103
10422TIP3    H131199   4.634   3.856   5.593  0.6513 -0.1609 -1.3244
10422TIP3    H231200   4.742   3.899   5.496  0.6972  0.4810 -0.9891
10423TIP3   OH231201   7.032   3.103   6.202  0.1545 -0.0832  0.2597
10423TIP3    H131202   6.943   3.072   6.188  0.4599 -0.7298 -0.2635
10423TIP3    H231203   7.047   3.091   6.296 -0.0529 -0.6665  0.2207
10424TIP3   OH231204   5.113   0.985   6.458  0.0952  0.3112 -0.0189
10424TIP3    H131205   5.123   1.003   6.365 -2.5025 -0.3643 -0.4696
10424TIP3    H231206   5.187   0.928   6.480  0.4381  0.0727 -1.7671
10425TIP3   OH231207   5.848   1.746   6.732 -0.1805  0.2006  0.5857
10425TIP3    H131208   5.801   1.789   6.661 -0.2592 -0.3868  0.2776
10425TIP3    H231209   5.788   1.752   6.807 -1.1912 -1.4432 -0.0669
10426TIP3   OH231210   1.459   0.116   1.047  0.8198 -0.0588  0.1771
10426TIP3    H131211   1.387   0.167   1.084  2.2732  2.1533  0.0573
10426TIP3    H231212   1.420   0.067   0.976 -0.9855 -0.4939  1.4434
10427TIP3   OH231213   8.477   7.460   0.830  0.0986  0.0166  0.7897
10427TIP3    H131214   8.533   7.496   0.899 -1.7739  2.6635  0.9857
10427TIP3    H231215   8.402   7.519   0.825 -1.2477 -1.7562 -1.5354
10428TIP3   OH231216   4.179   7.629   3.279 -0.3546 -0.5489 -0.0240
10428TIP3    H131217   4.117   7.605   3.209  0.2121 -0.2548 -0.6261
10428TIP3    H231218   4.263   7.639   3.235 -0.4157  1.8465  0.3298
10429TIP3   OH231219   2.237   0.270   0.724  0.5746 -0.1348  0.0792
10429TIP3    H131220   2.311   0.325   0.699  0.3105  0.2336  0.1088
10429TIP3    H231221   2.184   0.264   0.645  0.8189 -0.6977 -0.0462
10430TIP3   OH231222   4.591   1.688   4.776  0.3677 -0.7859 -0.0119
10430TIP3    H131223   4.496   1.690   4.788  0.4957 -0.0764  0.9403
10430TIP3    H231224   4.611   1.596   4.756 -0.6328 -0.7535 -1.2837
10431TIP3   OH231225   3.800   0.395   0.505 -0.8461  0.2291  0.5280
10431TIP3    H131226   3.811   0.301   0.519  2.6981  0.5129  0.2188
10431TIP3    H231227   3.761   0.426   0.587 -1.1989 -1.3606  0.9951
10432TIP3   OH231228   1.696   5.382   0.288  0.3167 -0.0503 -0.3255
10432TIP3    H131229   1.620   5.440   0.282  0.1801 -0.0314  1.4351
10432TIP3    H231230   1.720   5.365   0.197 -0.7168  1.3563 -0.8745
10433TIP3   OH231231   3.983   1.011   6.807  0.2683  0.3485 -0.1405
10433TIP3    H131232   3.933   1.075   6.755  0.8104  1.7580  1.0287
10433TIP3    H231233   3.995   1.054   6.891  3.2197 -0.0541 -0.3101
10434TIP3   OH231234   5.148   3.097   6.380 -0.5079 -0.0090 -0.5546
10434TIP3    H131235   5.224   3.089   6.436 -1.3807  1.1558  0.8280
10434TIP3    H231236   5.180   3.140   6.301  0.5202 -0.7301 -0.5277
10435TIP3   OH231237   3.410   3.182   5.031 -0.1883 -0.3255  0.2471
10435TIP3    H131238   3.350   3.209   5.100  0.6178  1.1491  0.3955
10435TIP3    H231239   3.487   3.239   5.042  0.7415 -1.3661 -0.6753
10436TIP3   OH231240   4.352   0.861   5.278  0.9068 -0.1058  0.1886
10436TIP3    H131241   4.426   0.892   5.331  1.1380 -0.5624  0.1396
10436TIP3    H231242   4.310   0.940   5.247  0.4410  0.1832  1.5048
10437TIP3   OH231243   5.826   1.816   5.085  0.0433 -1.1667 -0.4415
10437TIP3    H131244   5.737   1.785   5.101 -0.9024  1.6339  0.0756
10437TIP3    H231245   5.863   1.829   5.173 -1.0451  2.9727 -0.4788
10438TIP3   OH231246   4.384   2.441   4.512  1.1320 -0.2345  0.3835
10438TIP3    H131247   4.319   2.402   4.570  0.5698  0.9426  0.5720
10438TIP3    H231248   4.398   2.377   4.443 -1.1241 -0.0015 -0.3105
10439TIP3   OH231249   6.717   2.699   6.220  0.0704  0.4015 -0.2162
10439TIP3    H131250   6.709   2.621   6.165 -0.7898  1.7915 -2.1143
10439TIP3    H231251   6.765   2.669   6.297  0.6448 -1.7734 -1.3788
10440TIP3   OH231252   3.953   2.604   4.358 -0.3672  0.1838 -0.0221
10440TIP3    H131253   3.993   2.688   4.335  1.8363 -0.1761  2.2980
10440TIP3    H231254   3.987   2.543   4.293  0.9436  0.3922  0.4458
10441TIP3   OH231255   8.337   6.572   0.466  0.4575  0.0229 -0.2537
10441TIP3    H131256   8.283   6.546   0.392  0.1419 -0.6249  0.1901
10441TIP3    H231257   8.421   6.597   0.428  0.6777 -1.3991 -0.7411
10442TIP3   OH231258   6.185   2.207   4.968  0.5737  0.0972  0.0057
10442TIP3    H131259   6.272   2.201   4.929  0.2132  0.7100 -0.9121
10442TIP3    H231260   6.136   2.263   4.908 -0.1043  0.7361  1.1374
10443TIP3   OH231261   7.101   7.590   0.695  0.3089  0.2312 -0.3024
10443TIP3    H131262   7.158   7.667   0.700  1.6122 -0.5222 -2.8157
10443TIP3    H231263   7.012   7.625   0.688  0.6877  1.4442  0.8058
10444TIP3   OH231264   6.903   2.227   5.891  0.0631 -0.9730 -0.3445
10444TIP3    H131265   6.955   2.303   5.862  0.1988 -1.1409 -0.5462
10444TIP3    H231266   6.896   2.172   5.813  0.7107 -1.5858  0.0206
10445TIP3   OH231267   4.060   3.171   5.993 -0.0486  0.1755 -0.2810
10445TIP3    H131268   3.971   3.136   6.002 -0.1395  0.6477  0.7666
10445TIP3    H231269   4.077   3.213   6.077  1.3208 -0.2534 -0.3427
10446TIP3   OH231270   5.450   2.750   5.915 -0.0643  0.4585 -0.2422
10446TIP3    H131271   5.463   2.655   5.906  0.3662  0.5480 -0.5905
10446TIP3    H231272   5.361   2.765   5.883 -0.7001 -0.0284  1.2341
10447TIP3   OH231273   5.641   4.185   4.716 -0.6038 -0.3335  0.4358
10447TIP3    H131274   5.587   4.211   4.791 -0.0886 -1.5731  1.2514
10447TIP3    H231275   5.577   4.164   4.648 -1.1709 -1.7327  1.3797
10448TIP3   OH231276   8.155   7.982   0.487 -0.5628  0.0770  0.4679
10448TIP3    H131277   8.073   8.028   0.472 -0.2606  0.1192 -1.1166
10448TIP3    H231278   8.147   7.901   0.437  0.1763 -0.1405  0.6942
10449TIP3   OH231279   6.290   3.129   2.763  0.1527 -0.2108  0.8523
10449TIP3    H131280   6.294   3.111   2.670 -1.3310 -0.5925  0.8432
10449TIP3    H231281   6.373   3.096   2.798  1.2027  0.9661 -0.4821
10450TIP3   OH231282   5.114   2.472   5.401 -0.4168 -0.0152 -0.2554
10450TIP3    H131283   5.056   2.449   5.474 -1.9858 -0.8584 -1.7062
10450TIP3    H231284   5.091   2.563   5.380 -1.3327 -0.3882 -0.9092
10451TIP3   OH231285   5.269   1.510   5.520  0.1207 -0.2330 -0.5550
10451TIP3    H131286   5.262   1.425   5.563  2.1564  0.5046  1.3545
10451TIP3    H231287   5.199   1.562   5.558  2.0378  0.4799  2.1414
10452TIP3   OH231288   5.390   1.884   5.133  0.4840 -0.0614  0.4620
10452TIP3    H131289   5.371   1.866   5.226  1.1855 -0.1618  0.5862
10452TIP3    H231290   5.343   1.965   5.115 -0.7394 -0.7412  0.5469
10453TIP3   OH231291   6.966   2.127   6.142 -0.4045 -0.0666 -0.1562
10453TIP3    H131292   6.925   2.195   6.194  2.5197  0.4731  1.6057
10453TIP3    H231293   6.974   2.164   6.054 -2.0640  0.4435 -0.1015
10454TIP3   OH231294   3.047   0.080   0.086 -0.0871 -0.1289 -0.6017
10454TIP3    H131295   3.006   0.131   0.016 -1.1351  0.4787  0.4215
10454TIP3    H231296   2.975   0.029   0.123  0.9781 -2.5692 -1.7448
10455TIP3   OH231297   2.292   1.088   1.066 -0.6414  0.3918 -0.0555
10455TIP3    H131298   2.277   0.996   1.090  1.2070  0.0746 -0.0610
10455TIP3    H231299   2.230   1.137   1.120 -1.4965 -0.8470  0.1083
10456TIP3   OH231300   5.182   2.633   6.545  0.1075 -0.2148  1.0191
10456TIP3    H131301   5.146   2.554   6.505 -0.1546  0.0469  0.7336
10456TIP3    H231302   5.265   2.647   6.497  0.1690 -0.3334  1.0907
10457TIP3   OH231303   4.511   2.999   5.629  0.3960  0.2975  0.5685
10457TIP3    H131304   4.571   3.073   5.640  0.8223  0.4687 -2.3801
10457TIP3    H231305   4.425   3.040   5.618  0.5707  0.3550 -0.6470
10458TIP3   OH231306   3.641   3.834   4.503 -0.2908 -0.0735  0.1961
10458TIP3    H131307   3.569   3.785   4.543 -2.6753  1.3406 -2.1957
10458TIP3    H231308   3.600   3.882   4.431  2.6973  2.4007  0.0559
10459TIP3   OH231309   1.381   0.712   0.809  0.6421  0.5540 -0.0230
10459TIP3    H131310   1.355   0.656   0.882  0.0352  1.4094  0.4176
10459TIP3    H231311   1.305   0.713   0.751  1.6201 -1.2536 -1.3680
10460TIP3   OH231312   6.500   7.705   0.173 -0.2980 -0.6561  0.3986
10460TIP3    H131313   6.453   7.694   0.090  2.5647 -1.9645 -1.1728
10460TIP3    H231314   6.472   7.631   0.226 -1.5250 -0.2919  0.2661
10461TIP3   OH231315   5.512   4.106   6.524 -0.2045  0.1392  0.2614
10461TIP3    H131316   5.551   4.112   6.437  1.7417 -0.7426  1.0302
10461TIP3    H231317   5.446   4.175   6.526  1.3531  1.7308 -1.1027
10462TIP3   OH231318   3.852   5.218   0.940 -0.1868  0.7303 -0.0958
10462TIP3    H131319   3.794   5.153   0.899 -0.6760  1.9786 -1.4289
10462TIP3    H231320   3.908   5.166   0.998 -3.2097 -0.4508  1.9368
10463TIP3   OH231321   5.500   2.373   5.129 -0.0257 -0.1319  0.3501
10463TIP3    H131322   5.475   2.422   5.207  0.9269 -1.5439  1.5650
10463TIP3    H231323   5.588   2.405   5.108 -1.2683  2.0730 -1.6644
10464TIP3   OH231324   1.132   7.878   5.094 -0.6337 -0.0006  0.3706
10464TIP3    H131325   1.186   7.841   5.164  0.8518 -1.0302 -1.2962
10464TIP3    H231326   1.179   7.857   5.014 -3.2762 -0.4870 -1.0905
10465TIP3   OH231327   6.078   1.637   6.028 -0.0667  0.1276 -0.2691
10465TIP3    H131328   6.089   1.610   5.937  0.6465 -0.1479 -0.1121
10465TIP3    H231329   6.144   1.586   6.076  0.3070  1.0729  0.2436
10466TIP3   OH231330   6.376   3.176   6.394 -0.2462  0.4676  0.3544
10466TIP3    H131331   6.314   3.204   6.327 -0.6972  0.4505  0.7672
10466TIP3    H231332   6.333   3.195   6.477  0.2154  0.2716  0.6440
10467TIP3   OH231333   4.862   1.713   5.973 -0.1152  0.0544 -0.2516
10467TIP3    H131334   4.952   1.705   5.943  0.0668 -0.0632  0.3179
10467TIP3    H231335   4.850   1.639   6.033 -0.1568  0.8535  0.7420
10468TIP3   OH231336   5.135   2.242   5.250 -0.0782 -0.0827  0.6098
10468TIP3    H131337   5.139   2.327   5.292 -0.4714 -0.2762  1.0478
10468TIP3    H231338   5.080   2.189   5.308 -2.0270  0.1379 -0.9682
10469TIP3   OH231339   4.786   2.182   5.534 -0.6254  0.7167 -0.2367
10469TIP3    H131340   4.846   2.143   5.470 -0.0009  1.8874 -0.3835
10469TIP3    H231341   4.771   2.113   5.598 -1.5845 -0.6288 -1.8566
10470TIP3   OH231342   5.116   3.782   6.912 -0.4045 -0.6683  0.4634
10470TIP3    H131343   5.123   3.844   6.984 -1.4903  0.3636 -0.2960
10470TIP3    H231344   5.204   3.747   6.901 -0.3222 -1.2302  2.6160
10471TIP3   OH231345   4.568   3.401   6.627  0.1495 -0.0498  0.3794
10471TIP3    H131346   4.652   3.444   6.617 -0.2214  0.9713  1.6204
10471TIP3    H231347   4.589   3.307   6.622  1.2290  0.2187 -0.2449
10472TIP3   OH231348   8.347   5.329   0.186 -0.0292 -0.1596  0.4700
10472TIP3    H131349   8.338   5.234   0.186  2.0326 -0.3795 -0.4253
10472TIP3    H231350   8.416   5.346   0.250 -0.4462  0.7484  0.6839
10473TIP3   OH231351   3.007   0.667   1.021 -0.0531  0.0330  0.0453
10473TIP3    H131352   2.927   0.629   1.057 -1.1242  2.2964  0.1158
10473TIP3    H231353   3.038   0.727   1.088  1.7040 -0.7805 -0.0053
10474TIP3   OH231354   1.390   0.411   1.424  0.8207  0.1796  0.1049
10474TIP3    H131355   1.471   0.404   1.474  0.6400 -1.2023  0.2217
10474TIP3    H231356   1.332   0.465   1.478  1.7173  1.3034 -0.0556
10475TIP3   OH231357   5.370   1.782   6.685 -0.3430  0.4643  0.6309
10475TIP3    H131358   5.322   1.864   6.690 -1.2521 -0.0414  0.4646
10475TIP3    H231359   5.308   1.721   6.644  0.2367 -0.3550  0.9562
10476TIP3   OH231360   6.968   4.311   1.637 -0.3344 -0.3507  0.5149
10476TIP3    H131361   6.888   4.312   1.584  0.3101  0.1109 -0.4795
10476TIP3    H231362   6.963   4.230   1.688 -0.6817 -1.1309 -0.7317
10477TIP3   OH231363   4.630   3.018   6.219  0.1035  0.0883  0.3670
10477TIP3    H131364   4.615   3.003   6.126 -1.8226  1.6447  0.3981
10477TIP3    H231365   4.707   3.075   6.222  0.2773 -0.1120 -0.2617
10478TIP3   OH231366   5.407   3.503   4.463  0.4010  0.7560 -0.8703
10478TIP3    H131367   5.444   3.425   4.504 -1.0317  0.2702 -0.4939
10478TIP3    H231368   5.466   3.574   4.489  2.4460 -0.3668 -2.2360
10479TIP3   OH231369   8.086   6.966   0.011  0.1427 -0.5507 -0.2175
10479TIP3    H131370   8.069   6.879   0.048  1.7860  0.5210  3.2228
10479TIP3    H231371   8.022   7.023   0.053  0.8798  0.3878 -0.3623
10480TIP3   OH231372   2.443   1.538   6.053 -0.0993  0.4412  0.1717
10480TIP3    H131373   2.366   1.485   6.070 -0.5254  0.8076 -0.6203
10480TIP3    H231374   2.516   1.486   6.088 -0.5667 -0.4224 -0.1193
10481TIP3   OH231375   5.086   3.320   6.891 -0.7102 -0.2904 -0.3337
10481TIP3    H131376   5.041   3.404   6.902 -1.2389 -0.2835 -2.2639
10481TIP3    H231377   5.138   3.332   6.811  0.4604 -1.2734  0.2714
10482TIP3   OH231378   8.166   6.981   0.330  0.2893  0.0183  0.4715
10482TIP3    H131379   8.220   7.055   0.301  0.8050  0.1892  1.8224
10482TIP3    H231380   8.078   7.017   0.339  0.2020  0.0577 -0.4724
10483TIP3   OH231381   4.838   1.546   4.881 -0.2526 -0.5999  0.4301
10483TIP3    H131382   4.892   1.508   4.812 -0.5160 -1.2028  0.5502
10483TIP3    H231383   4.847   1.485   4.954 -0.5400 -0.3353  0.6874
10484TIP3   OH231384   5.955   4.951   4.827  0.1106 -0.1430 -0.6540
10484TIP3    H131385   5.947   4.976   4.919  0.4525 -1.1508 -0.3478
10484TIP3    H231386   5.889   4.884   4.814  1.4499 -1.4935 -0.6095
10485TIP3   OH231387   1.317   7.402   0.956  0.0623 -0.1735 -0.8201
10485TIP3    H131388   1.225   7.388   0.932  0.1257 -1.9978 -0.1218
10485TIP3    H231389   1.318   7.393   1.051  0.7760  1.0493 -0.7097
10486TIP3   OH231390   6.320   1.971   6.848  0.3329 -0.0948 -0.0994
10486TIP3    H131391   6.274   1.890   6.826  0.9629 -0.1854 -1.0947
10486TIP3    H231392   6.253   2.039   6.841  0.5963 -0.0620 -2.7267
10487TIP3   OH231393   4.497   1.866   4.491 -0.0233  0.7688 -0.0429
10487TIP3    H131394   4.473   1.948   4.535 -0.7724 -0.6584  2.2583
10487TIP3    H231395   4.560   1.825   4.549  0.6033 -0.1381 -1.3517
10488TIP3   OH231396   6.261   3.130   6.871 -0.1315 -0.4173 -0.0964
10488TIP3    H131397   6.240   3.113   6.963  1.8395 -2.6643 -0.0162
10488TIP3    H231398   6.354   3.151   6.872 -0.2226  0.0489 -1.5250
10489TIP3   OH231399   5.797   2.167   6.354  0.0124  0.0374 -0.6730
10489TIP3    H131400   5.776   2.074   6.354  1.6611 -0.3535 -0.8554
10489TIP3    H231401   5.805   2.189   6.261 -3.2056  1.0635 -0.7805
10490TIP3   OH231402   7.441   4.698   0.365  0.1911 -0.4160 -0.4377
10490TIP3    H131403   7.468   4.607   0.379 -0.8584 -0.5723  0.6471
10490TIP3    H231404   7.501   4.731   0.298  1.8167 -1.3249  0.5528
10491TIP3   OH231405   3.917   3.565   3.235  0.1943 -0.1973  0.1746
10491TIP3    H131406   3.844   3.608   3.279 -0.6541 -0.9964 -0.4364
10491TIP3    H231407   3.907   3.473   3.256  1.5750 -0.1945  0.8598
10492TIP3   OH231408   5.337   2.658   4.464  0.2132  0.3738 -0.1288
10492TIP3    H131409   5.333   2.622   4.553 -1.7604  0.3708 -0.2057
10492TIP3    H231410   5.429   2.646   4.438  1.5617  3.0704  3.0003
10493TIP3   OH231411   0.679   4.898   0.119  0.0631  0.2726 -0.0148
10493TIP3    H131412   0.687   4.853   0.203 -1.2604 -1.1007 -0.6015
10493TIP3    H231413   0.726   4.980   0.131  0.0238  0.0169  2.0177
10494TIP3   OH231414   6.851   5.230   0.278  0.4761 -0.1716  0.3772
10494TIP3    H131415   6.915   5.167   0.246  0.1511 -1.4297  2.1173
10494TIP3    H231416   6.781   5.177   0.316 -1.2418  1.1883 -0.7639
10495TIP3   OH231417   4.525   1.505   6.859  0.1093 -0.2124 -0.5592
10495TIP3    H131418   4.533   1.456   6.941  2.6040 -0.5875 -0.9902
10495TIP3    H231419   4.491   1.441   6.796 -1.5436  0.0036  0.0954
10496TIP3   OH231420   4.396   3.562   6.063 -0.6524 -0.0561 -0.2735
10496TIP3    H131421   4.483   3.557   6.102 -1.5308 -0.4891  1.6823
10496TIP3    H231422   4.409   3.534   5.972  1.1190 -0.8263  0.1899
10497TIP3   OH231423   2.131   0.648   0.224 -0.4310 -0.1415 -0.2043
10497TIP3    H131424   2.173   0.562   0.215 -1.0475 -0.5496  0.7590
10497TIP3    H231425   2.188   0.707   0.175  0.1931 -1.0375 -0.5808
10498TIP3   OH231426   2.698   1.362   0.321  0.0641  0.4497 -0.1665
10498TIP3    H131427   2.750   1.311   0.383 -1.4857 -1.0206 -0.0194
10498TIP3    H231428   2.631   1.404   0.374 -0.4844  0.2277 -0.6706
10499TIP3   OH231429   5.562   3.275   5.972 -0.2907 -0.2397  0.2895
10499TIP3    H131430   5.567   3.183   5.945 -0.5840  0.0567 -0.7924
10499TIP3    H231431   5.546   3.271   6.066 -2.4473 -1.3182 -0.0841
10500TIP3   OH231432   5.843   1.567   6.483 -0.4974  0.1380 -0.1077
10500TIP3    H131433   5.831   1.542   6.391  0.7899 -0.8331 -0.0225
10500TIP3    H231434   5.766   1.533   6.528 -0.8468  0.1012 -0.7282
10501TIP3   OH231435   5.131   4.146   5.666  0.7589  0.5907 -0.0606
10501TIP3    H131436   5.064   4.079   5.682  1.5299 -0.2455 -0.3278
10501TIP3    H231437   5.149   4.183   5.753  0.5126  0.2743  0.1265
10502TIP3   OH231438   0.401   6.918   0.527  0.2437  0.0292 -0.8306
10502TIP3    H131439   0.491   6.886   0.519  0.4767  0.9748 -2.1332
10502TIP3    H231440   0.400   6.966   0.610 -0.4714 -4.4023  1.9172
10503TIP3   OH231441   4.911   2.472   6.788  0.2661  0.4733  0.0674
10503TIP3    H131442   4.984   2.482   6.726  0.7857 -2.0594  0.2038
10503TIP3    H231443   4.839   2.439   6.734  0.2797 -0.3414  0.5413
10504TIP3   OH231444   6.206   3.148   6.153  0.1801  0.0352 -0.1452
10504TIP3    H131445   6.132   3.089   6.141  1.3591 -1.4327 -0.3602
10504TIP3    H231446   6.167   3.236   6.154 -2.3225 -0.9270  5.4324
10505TIP3   OH231447   7.740   6.881   1.955  0.6044  0.6048 -0.4996
10505TIP3    H131448   7.758   6.841   1.870 -0.2342 -0.7087 -0.0617
10505TIP3    H231449   7.708   6.969   1.934  0.1384  0.1881 -1.5457
10506TIP3   OH231450   8.338   1.599   0.078 -0.1439 -0.1205 -0.3606
10506TIP3    H131451   8.376   1.528   0.026 -0.0234  0.5525 -1.2053
10506TIP3    H231452   8.394   1.674   0.061 -0.3086  0.1969  0.4809
10507TIP3   OH231453   4.387   2.143   5.404  0.2450  0.1752  0.5729
10507TIP3    H131454   4.447   2.103   5.342  0.2602  1.1181 -0.0155
10507TIP3    H231455   4.407   2.100   5.487  0.6439 -0.6418  0.0577
10508TIP3   OH231456   0.095   6.109   0.100 -0.4827  0.8170  0.6280
10508TIP3    H131457   0.080   6.116   0.005  0.2257 -0.7829  0.3912
10508TIP3    H231458   0.007   6.101   0.137 -0.7604  1.3655  0.1059
10509TIP3   OH231459   5.412   1.658   4.806 -0.6641  0.0886 -0.7639
10509TIP3    H131460   5.387   1.576   4.764  0.2829  0.0307 -1.2466
10509TIP3    H231461   5.336   1.684   4.858 -0.1696 -2.2816  1.2215
10510TIP3   OH231462   6.208   2.110   6.278 -0.4659 -0.0106  0.0518
10510TIP3    H131463   6.148   2.178   6.307  0.2748  0.5920  0.2026
10510TIP3    H231464   6.295   2.149   6.288 -0.0173 -1.0751  0.3928
10511TIP3   OH231465   6.692   3.482   4.002  0.2574  0.6119  0.0710
10511TIP3    H131466   6.663   3.562   3.958 -0.1593 -0.7479 -2.2195
10511TIP3    H231467   6.719   3.424   3.931  3.8836 -0.0430  1.8606
10512TIP3   OH231468   7.510   7.369   1.730 -0.0183  0.2423 -1.0412
10512TIP3    H131469   7.562   7.313   1.788 -0.5527  0.0043 -0.7979
10512TIP3    H231470   7.554   7.363   1.645  0.5108  0.2513 -0.7726
10513TIP3   OH231471   3.283   2.045   5.302 -0.6830  0.4686 -0.0829
10513TIP3    H131472   3.333   2.038   5.384  1.2832  0.8604 -1.1958
10513TIP3    H231473   3.258   1.955   5.281 -3.0311  0.5995  2.0146
10514TIP3   OH231474   5.103   5.662   6.380 -0.1053  0.0917  0.2369
10514TIP3    H131475   5.152   5.669   6.298  0.7593  0.6837  0.7947
10514TIP3    H231476   5.092   5.752   6.409 -2.9931  0.1022 -0.7038
10515TIP3   OH231477   7.424   2.078   5.815  0.1300 -0.0741 -0.0168
10515TIP3    H131478   7.377   2.136   5.875 -0.0076  1.5666 -1.6703
10515TIP3    H231479   7.359   2.013   5.789  0.7787 -2.2441  3.3174
10516TIP3   OH231480   3.119   3.138   5.965 -0.0997  0.0028 -0.1770
10516TIP3    H131481   3.172   3.071   6.008  0.3036 -0.6960 -1.7362
10516TIP3    H231482   3.049   3.089   5.922 -0.5830  0.7092 -0.1927
10517TIP3   OH231483   0.220   7.310   0.699  0.3553 -1.2190  0.1018
10517TIP3    H131484   0.163   7.356   0.761  1.3119 -0.4785  0.4466
10517TIP3    H231485   0.240   7.375   0.632  0.4281 -1.6200 -0.2661
10518TIP3   OH231486   6.453   1.079   4.039  0.1820  0.3032 -0.2722
10518TIP3    H131487   6.415   0.993   4.020 -0.4570  0.6191 -0.4138
10518TIP3    H231488   6.498   1.067   4.123 -0.2537 -0.0612 -0.0890
10519TIP3   OH231489   5.196   3.272   6.171  0.2947 -0.5523  0.5070
10519TIP3    H131490   5.252   3.345   6.146 -1.8735  1.4020  1.1891
10519TIP3    H231491   5.158   3.242   6.088 -0.5388  0.5821  0.4640
10520TIP3   OH231492   5.380   3.782   4.171  0.1554 -0.4216  0.0079
10520TIP3    H131493   5.429   3.822   4.242 -1.2007  1.1185  0.0966
10520TIP3    H231494   5.299   3.752   4.212 -0.0420 -0.7694 -0.6270
10521TIP3   OH231495   4.034   2.862   5.854 -0.1109  0.3436 -0.2492
10521TIP3    H131496   3.961   2.918   5.880 -0.5715 -0.4011  0.0757
10521TIP3    H231497   4.049   2.805   5.929  1.9241  1.6159  0.3289
10522TIP3   OH231498   3.159   0.196   0.303  0.1451 -0.0285 -0.1345
10522TIP3    H131499   3.091   0.179   0.368  0.8997  0.0628  0.6890
10522TIP3    H231500   3.142   0.132   0.234  0.0923 -0.9901  0.7437
10523TIP3   OH231501   6.823   1.032   6.473  0.0273  0.1426 -0.1105
10523TIP3    H131502   6.898   0.983   6.506  0.2296  0.9809  0.7131
10523TIP3    H231503   6.754   0.967   6.463  1.2202 -0.8615 -2.0863
10524TIP3   OH231504   3.280   5.828   4.469 -0.1200 -0.7689  0.0143
10524TIP3    H131505   3.214   5.849   4.403  0.5983 -0.4166 -0.5953
10524TIP3    H231506   3.302   5.912   4.510  0.6558 -0.7391 -0.4503
10525TIP3   OH231507   5.032   2.348   3.774 -0.2462  0.2994 -0.2494
10525TIP3    H131508   4.947   2.380   3.801 -0.0439  0.1072  0.6092
10525TIP3    H231509   5.030   2.254   3.795  0.5412  0.4888  0.6887
10526TIP3   OH231510   6.637   3.154   6.382 -0.2212  0.1336 -0.4685
10526TIP3    H131511   6.653   3.119   6.470  1.1294 -2.3086 -1.6087
10526TIP3    H231512   6.543   3.144   6.369 -0.1757 -1.1822  0.0697
10527TIP3   OH231513   6.002   2.984   6.113  0.5935 -0.4917 -0.3940
10527TIP3    H131514   5.907   2.994   6.107  0.5845  0.0280  0.4857
10527TIP3    H231515   6.024   2.921   6.045 -0.1250  0.9947 -2.0544
10528TIP3   OH231516   4.350   1.689   6.321  0.0199  0.1058  0.2428
10528TIP3    H131517   4.326   1.603   6.286  2.8095 -1.6057  2.3406
10528TIP3    H231518   4.268   1.725   6.353 -1.5378 -0.8954 -2.4393
10529TIP3   OH231519   5.006   2.539   5.959  0.5064  0.1515  0.1193
10529TIP3    H131520   5.002   2.581   6.045  0.2932  0.8504 -0.2298
10529TIP3    H231521   4.914   2.523   5.936  0.4951  1.0095 -0.4789
10530TIP3   OH231522   6.124   6.026   0.275 -0.2276  0.0665 -0.2339
10530TIP3    H131523   6.168   5.970   0.340 -0.2908  0.9617  0.5835
10530TIP3    H231524   6.154   6.114   0.296 -0.5887  0.4096 -1.1631
10531TIP3   OH231525   4.183   3.241   5.143 -0.8922 -0.1362 -0.1650
10531TIP3    H131526   4.182   3.243   5.047 -2.1098  0.4329 -0.1483
10531TIP3    H231527   4.091   3.237   5.168 -0.5298 -2.1017  0.9683
10532TIP3   OH231528   3.338   3.594   4.876 -0.1601  0.1205  0.0367
10532TIP3    H131529   3.414   3.648   4.896 -0.6378  0.4965  0.8617
10532TIP3    H231530   3.298   3.637   4.799  0.4408 -0.0599 -0.3747
10533TIP3   OH231531   0.848   6.763   2.155  0.0633  0.5812  0.4471
10533TIP3    H131532   0.807   6.678   2.140  0.3189  0.6206 -0.5504
10533TIP3    H231533   0.830   6.783   2.247 -0.3694 -0.3473  0.5713
10534TIP3   OH231534   8.261   7.901   1.388  0.0027  0.2059 -0.1775
10534TIP3    H131535   8.206   7.910   1.310  1.3213 -1.2850 -1.3111
10534TIP3    H231536   8.201   7.871   1.456 -1.3010  2.1986 -0.4071
10535TIP3   OH231537   3.859   1.467   3.005 -0.1678 -0.0317 -0.7277
10535TIP3    H131538   3.798   1.406   3.046  1.6537 -0.2887  1.7262
10535TIP3    H231539   3.835   1.552   3.041  0.7936 -0.1130  0.1263
10536TIP3   OH231540   8.177   7.657   0.031  0.6911  0.3374 -0.0561
10536TIP3    H131541   8.273   7.652   0.041  0.4883 -1.5219  1.4975
10536TIP3    H231542   8.144   7.593   0.095 -1.5562  0.2123 -1.3027
10537TIP3   OH231543   3.474   4.445   5.981  0.2056 -0.0255  0.1473
10537TIP3    H131544   3.546   4.494   5.940 -0.0487 -1.1762 -1.7267
10537TIP3    H231545   3.398   4.464   5.927 -0.2164 -1.2852  0.2761
10538TIP3   OH231546   3.513   2.566   6.421  0.0147  0.1435  0.5673
10538TIP3    H131547   3.601   2.601   6.433 -1.0759  2.7427  1.5085
10538TIP3    H231548   3.480   2.552   6.510 -1.2634  1.2157  0.2881
10539TIP3   OH231549   5.095   1.253   5.349  0.4569  0.6568 -0.0401
10539TIP3    H131550   5.025   1.282   5.407 -0.6060  1.6038 -1.7658
10539TIP3    H231551   5.175   1.287   5.388  0.0253 -0.7881  2.1795
10540TIP3   OH231552   5.482   3.665   6.697 -0.1396 -0.2419  0.2705
10540TIP3    H131553   5.512   3.660   6.788 -0.3276 -0.4734  0.3196
10540TIP3    H231554   5.406   3.607   6.693  0.6952 -1.3384 -0.3610
10541TIP3   OH231555   4.763   2.732   6.544 -0.4031 -0.3994  0.0748
10541TIP3    H131556   4.788   2.658   6.599  0.2035  0.0772  0.4521
10541TIP3    H231557   4.841   2.787   6.542 -1.3403  0.9942  1.0775
10542TIP3   OH231558   7.526   7.802   0.161 -0.0156  0.4029  0.2682
10542TIP3    H131559   7.559   7.886   0.128  0.3514  0.5230  0.9469
10542TIP3    H231560   7.484   7.762   0.085  0.5467  0.8246 -0.2702
10543TIP3   OH231561   7.492   6.500   0.718 -0.4513  0.0125 -0.2126
10543TIP3    H131562   7.430   6.434   0.752  0.8137 -0.8359  0.4766
10543TIP3    H231563   7.553   6.515   0.790  0.8616 -0.0466 -1.3057
10544TIP3   OH231564   1.006   5.992   1.639  0.0446 -0.0247  0.5214
10544TIP3    H131565   0.920   5.960   1.613 -0.4529  0.6223  1.3724
10544TIP3    H231566   0.989   6.077   1.680  1.4503  1.9682 -2.7660
10545TIP3   OH231567   8.123   5.230   0.389  0.1937 -0.2217  0.3388
10545TIP3    H131568   8.205   5.272   0.415  0.0925  0.4260 -0.3567
10545TIP3    H231569   8.098   5.275   0.308 -1.0211 -0.1851  0.7237
10546TIP3   OH231570   3.982   1.181   3.435  0.2495  0.0317 -0.0282
10546TIP3    H131571   3.915   1.132   3.387  0.9537 -1.5770  0.5816
10546TIP3    H231572   3.958   1.171   3.527 -0.1672  1.7044  0.0526
10547TIP3   OH231573   5.276   2.846   5.626  0.2663  0.0484 -0.1353
10547TIP3    H131574   5.241   2.763   5.658 -0.0090  0.7682  1.5084
10547TIP3    H231575   5.199   2.902   5.615  0.4546  0.1102 -1.1776
10548TIP3   OH231576   8.107   5.935   0.564 -0.3597  0.0334 -0.2716
10548TIP3    H131577   8.164   6.010   0.549 -0.8390  0.7137  1.1940
10548TIP3    H231578   8.085   5.903   0.476  1.9374 -0.0125 -0.8514
10549TIP3   OH231579   7.034   7.693   0.070  0.2048  0.3855 -0.0387
10549TIP3    H131580   7.008   7.705  -0.021  0.7590 -0.5256 -0.3259
10549TIP3    H231581   7.020   7.778   0.111 -1.6581  0.3429 -0.5650
10550TIP3   OH231582   8.093   3.974   0.554 -0.2495 -0.2077 -0.3016
10550TIP3    H131583   8.101   4.065   0.527 -1.1073 -0.2096 -0.5867
10550TIP3    H231584   8.143   3.925   0.489  1.1738  0.1514  0.5036
10551TIP3   OH231585   0.471   7.956   0.121 -0.5914  0.1126  0.0775
10551TIP3    H131586   0.502   7.917   0.039 -0.8515  0.3751 -0.1458
10551TIP3    H231587   0.407   8.021   0.094 -0.5849  0.2900  0.4840
10552TIP3   OH231588   6.798   6.605   2.133 -0.3396 -0.4213 -0.1065
10552TIP3    H131589   6.812   6.572   2.044 -0.2965 -1.6236  0.3401
10552TIP3    H231590   6.781   6.526   2.185 -1.0496  0.3382  0.8209
10553TIP3   OH231591   0.640   5.596   0.941 -0.2916  0.0302 -0.4501
10553TIP3    H131592   0.572   5.559   0.997 -0.4793  2.1351  0.7789
10553TIP3    H231593   0.654   5.530   0.873 -2.1028 -1.3128  0.4350
10554TIP3   OH231594   6.058   4.421   5.253  0.2701  0.2227  0.0151
10554TIP3    H131595   5.970   4.419   5.216  0.6763  0.6596 -0.9916
10554TIP3    H231596   6.048   4.468   5.336 -0.8672 -1.9101  1.1210
10555TIP3   OH231597   4.809   4.638   6.757  0.7676  0.2109 -0.0434
10555TIP3    H131598   4.870   4.645   6.683  1.6393 -0.6006  0.5706
10555TIP3    H231599   4.835   4.556   6.800 -1.0117 -0.3384  0.0227
10556TIP3   OH231600   0.594   3.118   0.273 -0.6237  0.6016 -0.5340
10556TIP3    H131601   0.509   3.104   0.315 -0.2917  0.9415  0.2612
10556TIP3    H231602   0.653   3.140   0.346  0.3136 -0.4078 -0.9740
10557TIP3   OH231603   5.257   1.724   4.188 -0.2761  0.8613 -0.5741
10557TIP3    H131604   5.228   1.768   4.268  0.3167  0.3937 -0.1049
10557TIP3    H231605   5.284   1.637   4.216  2.1348  1.4564 -0.8856
10558TIP3   OH231606   1.681   6.109   0.716 -0.0758 -0.3804 -0.2005
10558TIP3    H131607   1.767   6.110   0.759 -0.6317  0.2749  0.9082
10558TIP3    H231608   1.634   6.038   0.758 -0.5664  0.1552  0.1582
10559TIP3   OH231609   7.683   4.005   1.223  0.7650 -0.1590  0.0173
10559TIP3    H131610   7.756   4.023   1.163  0.0150  2.7657 -0.1077
10559TIP3    H231611   7.706   4.053   1.303 -1.4204  1.5806 -0.3577
10560TIP3   OH231612   8.170   6.207   0.355  0.3324 -0.2804 -0.0745
10560TIP3    H131613   8.181   6.289   0.307  0.7052  0.3091  1.0039
10560TIP3    H231614   8.077   6.202   0.374  0.1762 -0.5468 -0.9158
10561TIP3   OH231615   8.062   6.715   0.109 -0.0926 -0.0907  0.3293
10561TIP3    H131616   8.069   6.763   0.192 -3.0140  0.7975  0.1340
10561TIP3    H231617   8.000   6.645   0.127 -1.8278  0.9420 -1.4357
10562TIP3   OH231618   6.208   4.205   4.915 -0.0227 -0.1266 -0.0345
10562TIP3    H131619   6.200   4.118   4.954 -2.5792 -0.4686 -1.2506
10562TIP3    H231620   6.222   4.264   4.990  0.3452 -1.3894  0.9039
10563TIP3   OH231621   3.344   2.551   5.164  0.1441  0.1561  0.1857
10563TIP3    H131622   3.372   2.465   5.194  1.2265  0.4069 -0.0695
10563TIP3    H231623   3.414   2.579   5.104 -0.2857  1.1287  0.1287
10564TIP3   OH231624   0.106   7.163   0.239 -0.3792  0.3302 -0.2588
10564TIP3    H131625   0.169   7.126   0.177  0.4911  0.8606  0.2982
10564TIP3    H231626   0.143   7.145   0.325 -0.5468  1.4273  0.0491
10565TIP3   OH231627   4.137   4.834   4.232  0.1175  0.0829  0.3865
10565TIP3    H131628   4.191   4.825   4.310  1.3076 -0.0963 -0.4463
10565TIP3    H231629   4.087   4.914   4.247 -0.3452 -0.4362  1.7272
10566TIP3   OH231630   7.013   7.173   0.942  0.2778  0.2422 -0.3907
10566TIP3    H131631   6.980   7.244   0.997 -1.6182 -0.7109 -0.2743
10566TIP3    H231632   7.062   7.218   0.873 -1.7848  1.7403 -0.9269
10567TIP3   OH231633   6.491   3.216   5.454 -0.5842 -0.0603 -0.1539
10567TIP3    H131634   6.519   3.130   5.424 -1.1694  0.4599 -2.2677
10567TIP3    H231635   6.572   3.264   5.471 -0.2080 -0.0379 -1.9301
10568TIP3   OH231636   6.161   5.138   6.367 -0.2779 -0.0955  0.6211
10568TIP3    H131637   6.234   5.078   6.383 -0.9087 -0.6348  1.5552
10568TIP3    H231638   6.122   5.107   6.286  0.2897 -0.0435  0.3225
10569TIP3   OH231639   7.425   2.658   5.491 -0.4769  0.3981  0.0043
10569TIP3    H131640   7.395   2.641   5.580 -0.4303 -2.3044 -0.4338
10569TIP3    H231641   7.518   2.633   5.492 -0.4680  0.3862 -0.7940
10570TIP3   OH231642   4.772   1.315   5.993  0.3963  0.1280  0.1360
10570TIP3    H131643   4.793   1.397   6.038 -1.3687 -0.1257  1.4407
10570TIP3    H231644   4.782   1.248   6.060 -0.4837 -0.4593 -0.3129
10571TIP3   OH231645   7.752   2.007   6.554  0.0760  0.1680  0.6339
10571TIP3    H131646   7.836   2.021   6.597 -0.3727  1.2011  1.1796
10571TIP3    H231647   7.700   1.960   6.619 -0.6858  1.9503  1.3358
10572TIP3   OH231648   6.877   7.759   0.624  0.6983  0.5188 -0.3354
10572TIP3    H131649   6.837   7.768   0.537 -1.3381  1.4727  0.6820
10572TIP3    H231650   6.877   7.847   0.660 -2.0940 -0.4289  2.2003
10573TIP3   OH231651   6.850   1.726   6.659 -0.2317  0.0600 -0.8759
10573TIP3    H131652   6.856   1.745   6.566  2.0695  3.1448 -0.1709
10573TIP3    H231653   6.757   1.709   6.674 -0.6550 -0.3905 -3.6801
10574TIP3   OH231654   5.540   1.150   4.431 -0.7536  0.0089 -0.0741
10574TIP3    H131655   5.504   1.114   4.512 -0.0546  0.2877  0.3642
10574TIP3    H231656   5.537   1.245   4.444  0.7461  0.0307  0.2475
10575TIP3   OH231657   6.859   1.483   6.809  0.0273  0.3746  0.1473
10575TIP3    H131658   6.839   1.566   6.766 -0.3943  0.9175  1.3771
10575TIP3    H231659   6.835   1.497   6.901  0.8923 -0.7798  0.5603
10576TIP3   OH231660   6.481   5.814   1.244 -0.5841  0.7384  0.0851
10576TIP3    H131661   6.451   5.830   1.333 -1.1463  2.6830 -0.4319
10576TIP3    H231662   6.402   5.821   1.190  0.1815  2.2728 -0.8612
10577TIP3   OH231663   4.722   0.436   0.162  0.5500  0.8274 -0.3210
10577TIP3    H131664   4.657   0.451   0.230 -0.4955 -0.0493 -1.0998
10577TIP3    H231665   4.676   0.458   0.080  1.6239  1.3838 -0.7841
10578TIP3   OH231666   3.825   3.429   6.111  0.5084  0.1491 -0.2497
10578TIP3    H131667   3.772   3.350   6.119 -1.4596  1.3307 -1.3674
10578TIP3    H231668   3.824   3.449   6.018 -1.0509  2.8682  0.3115
10579TIP3   OH231669   7.302   3.221   5.069 -0.1638  0.0418  0.2997
10579TIP3    H131670   7.294   3.300   5.124 -1.2301  0.5723 -0.6105
10579TIP3    H231671   7.277   3.149   5.126  0.4965  0.3944  1.0455
10580TIP3   OH231672   7.090   3.702   4.481 -0.0580 -0.3873  0.1090
10580TIP3    H131673   7.048   3.683   4.565 -2.1885  0.2686 -0.7823
10580TIP3    H231674   7.105   3.615   4.442  2.1175 -0.7610  1.6869
10581TIP3   OH231675   2.001   6.034   0.571  0.1518 -0.5385 -0.2655
10581TIP3    H131676   1.983   6.075   0.655 -0.2133  0.2119 -0.7105
10581TIP3    H231677   1.986   5.940   0.587 -2.8022 -0.1008 -0.2433
10582TIP3   OH231678   3.206   2.441   6.873 -0.2916 -0.3902 -0.0273
10582TIP3    H131679   3.205   2.364   6.816 -1.5926  1.1932 -2.2317
10582TIP3    H231680   3.122   2.438   6.919  0.1771 -0.9266  0.8087
10583TIP3   OH231681   5.760   6.346   1.283  0.3986 -0.2686  0.6646
10583TIP3    H131682   5.772   6.389   1.368  1.6824 -1.6249  1.1792
10583TIP3    H231683   5.804   6.262   1.292  0.5269 -0.4329 -1.3471
10584TIP3   OH231684   5.740   2.313   5.638  0.0401 -0.0129 -0.5488
10584TIP3    H131685   5.826   2.337   5.604  0.6786 -1.4148  0.0127
10584TIP3    H231686   5.758   2.241   5.699 -1.6019 -0.7890 -0.9452
10585TIP3   OH231687   7.145   1.513   6.864 -0.6552 -0.9383  0.1296
10585TIP3    H131688   7.058   1.507   6.826 -0.6594  0.6726 -0.1789
10585TIP3    H231689   7.195   1.567   6.801  0.6889 -2.2135  0.0699
10586TIP3   OH231690   6.486   1.148   6.366  0.0752 -0.6101 -0.0666
10586TIP3    H131691   6.513   1.239   6.360 -2.0019 -0.0535 -1.4729
10586TIP3    H231692   6.441   1.141   6.451  1.8258 -0.8060  0.8752
10587TIP3   OH231693   4.940   3.519   6.211  0.3895  0.3685  0.2687
10587TIP3    H131694   5.009   3.491   6.272 -0.5410 -0.8954  0.7482
10587TIP3    H231695   4.928   3.612   6.230  1.2653  0.3711  0.8558
10588TIP3   OH231696   6.970   2.795   6.032 -0.1236  0.1280  0.1470
10588TIP3    H131697   6.900   2.833   6.086  0.0129 -0.2407  0.5830
10588TIP3    H231698   6.932   2.714   5.998  0.2154 -0.2541  0.6739
10589TIP3   OH231699   3.044   6.513   1.925 -0.0185 -0.1165  0.5095
10589TIP3    H131700   3.002   6.427   1.916 -0.1139  0.1902 -2.0788
10589TIP3    H231701   2.972   6.576   1.916  0.1000  0.2836  2.0989
10590TIP3   OH231702   6.533   3.522   6.776 -0.0400  0.0268 -0.5429
10590TIP3    H131703   6.544   3.537   6.682 -0.9950  2.8144 -0.2401
10590TIP3    H231704   6.454   3.571   6.800 -0.6286 -1.8067  1.4618
10591TIP3   OH231705   5.893   3.438   6.321 -0.1782 -0.5223 -0.1742
10591TIP3    H131706   5.805   3.474   6.318  0.1775  0.4517  0.6863
10591TIP3    H231707   5.949   3.511   6.295  0.4606 -0.8037  0.3879
10592TIP3   OH231708   7.173   5.058   0.638 -0.3147 -0.9134 -0.2536
10592TIP3    H131709   7.185   5.102   0.554 -1.0262 -0.7681 -0.2746
10592TIP3    H231710   7.231   5.104   0.698 -0.5585 -0.3783 -0.4313
10593TIP3   OH231711   4.824   4.973   5.722  0.0576 -0.2641  0.2956
10593TIP3    H131712   4.912   5.006   5.705 -0.2643 -0.2603 -1.5224
10593TIP3    H231713   4.838   4.887   5.762  0.8909 -0.4352 -0.3471
10594TIP3   OH231714   0.122   6.595   0.612 -0.2680  0.4250  0.2527
10594TIP3    H131715   0.127   6.679   0.567 -0.4852  0.1590 -0.2773
10594TIP3    H231716   0.184   6.602   0.684  0.4276  0.6942 -0.3710
10595TIP3   OH231717   2.561   1.735   6.433 -0.0987 -0.6731  0.0246
10595TIP3    H131718   2.562   1.693   6.519  1.8394  0.0743  0.3855
10595TIP3    H231719   2.590   1.667   6.373 -0.9516 -1.0440  0.0269
10596TIP3   OH231720   3.731   4.860   6.774  0.6434 -0.2581  0.0258
10596TIP3    H131721   3.673   4.889   6.844  1.9312  1.9616  0.2253
10596TIP3    H231722   3.704   4.770   6.757 -0.7261 -0.3362  2.2943
10597TIP3   OH231723   7.449   2.082   6.504  0.0279  0.1004  0.0804
10597TIP3    H131724   7.515   2.110   6.568 -0.0367  1.7910 -0.5758
10597TIP3    H231725   7.436   1.989   6.523  2.0150 -0.0733  0.7394
10598TIP3   OH231726   7.517   6.247   0.551  0.2720  0.3306  0.2096
10598TIP3    H131727   7.512   6.237   0.646 -0.6607 -1.3433  0.0170
10598TIP3    H231728   7.577   6.320   0.537  1.0785  0.0484  2.0660
10599TIP3   OH231729   3.530   3.555   6.173  0.2510  0.3350  0.1524
10599TIP3    H131730   3.589   3.624   6.143 -0.1991 -0.3630 -2.4984
10599TIP3    H231731   3.571   3.474   6.142 -0.5644 -0.3799  0.9257
10600TIP3   OH231732   4.501   3.826   6.062 -0.2510  0.7541 -0.4068
10600TIP3    H131733   4.451   3.899   6.027  1.0476  0.8056 -2.2575
10600TIP3    H231734   4.444   3.750   6.050  0.0164  0.8343 -2.3445
10601TIP3   OH231735   5.598   1.941   5.696 -0.0494  0.2336 -0.2404
10601TIP3    H131736   5.624   2.011   5.756 -0.9723  0.5670 -0.2287
10601TIP3    H231737   5.636   1.967   5.612 -0.4764  0.8007 -0.2605
10602TIP3   OH231738   5.991   2.783   5.557 -0.0911  0.6525 -0.6592
10602TIP3    H131739   6.058   2.715   5.549  0.5572  1.3306 -1.0218
10602TIP3    H231740   5.943   2.759   5.637  0.2375 -0.1336 -0.6897
10603TIP3   OH231741   4.995   5.274   6.636 -0.4630  0.2888 -0.3762
10603TIP3    H131742   5.023   5.240   6.551 -0.2528 -0.3626 -0.0482
10603TIP3    H231743   4.928   5.213   6.666 -0.9047  0.8016 -0.3023
10604TIP3   OH231744   5.086   2.276   5.914 -0.1718  0.4513 -0.5111
10604TIP3    H131745   5.095   2.226   5.994 -2.2001 -0.9037 -1.0787
10604TIP3    H231746   5.066   2.365   5.943 -0.3063  0.0989  0.4902
10605TIP3   OH231747   3.141   4.030   5.868  0.0110 -0.3116  0.6468
10605TIP3    H131748   3.215   4.086   5.890 -0.7768  0.1711  2.2258
10605TIP3    H231749   3.073   4.091   5.840  0.4274 -0.8049 -1.4852
10606TIP3   OH231750   2.616   4.821   1.303 -0.2818  0.1430 -0.2216
10606TIP3    H131751   2.638   4.796   1.213 -0.6287 -1.5750  0.1552
10606TIP3    H231752   2.660   4.755   1.357  0.6251  1.6667  0.9086
10607TIP3   OH231753   6.736   3.000   5.710 -0.5452  0.2008 -0.6890
10607TIP3    H131754   6.655   3.044   5.736 -0.4620 -0.2931  0.4301
10607TIP3    H231755   6.735   2.918   5.758  0.1827 -0.2220 -1.3870
10608TIP3   OH231756   6.877   0.873   6.752  0.4983  0.1027 -0.3684
10608TIP3    H131757   6.862   0.960   6.787 -2.3407  0.6390 -2.7758
10608TIP3    H231758   6.823   0.815   6.805 -0.5759  0.3526 -1.1736
10609TIP3   OH231759   6.407   4.212   1.272 -0.2694 -0.1564  0.0998
10609TIP3    H131760   6.437   4.299   1.301 -0.2836 -0.0350 -0.2516
10609TIP3    H231761   6.483   4.173   1.229 -0.7315  0.3142 -1.1525
10610TIP3   OH231762   0.475   6.432   0.286  0.0182  0.0234 -0.1511
10610TIP3    H131763   0.391   6.439   0.332  0.7890 -0.4385  1.3484
10610TIP3    H231764   0.489   6.519   0.249 -0.2129  0.6452  1.2076
10611TIP3   OH231765   8.020   3.797  -0.021  0.1195 -0.2192 -0.3693
10611TIP3    H131766   8.049   3.743   0.053  2.0159 -0.7749 -1.4887
10611TIP3    H231767   7.987   3.877   0.020 -2.2024 -1.9298  1.2841
10612TIP3   OH231768   3.496   8.017   6.209 -0.1827 -0.2615  0.4395
10612TIP3    H131769   3.534   8.055   6.130 -0.3120 -0.7200  0.1554
10612TIP3    H231770   3.514   7.923   6.202 -0.5572 -0.3596  0.7462
10613TIP3   OH231771   5.471   2.148   4.324 -0.6007 -0.3536 -0.3847
10613TIP3    H131772   5.486   2.056   4.341  1.1031 -0.2374 -1.1457
10613TIP3    H231773   5.429   2.181   4.403 -1.2042 -1.7629 -0.1062
10614TIP3   OH231774   4.672   4.128   5.778  0.2972 -0.3730  0.3152
10614TIP3    H131775   4.733   4.201   5.768  2.3198 -1.8469  1.5531
10614TIP3    H231776   4.673   4.108   5.872  0.2809 -2.3699 -0.0810
10615TIP3   OH231777   7.596   5.066   0.584 -0.7892 -0.4091 -0.2756
10615TIP3    H131778   7.558   5.098   0.503 -0.8390 -1.2459 -0.5925
10615TIP3    H231779   7.639   4.984   0.560 -0.3631 -0.4045  0.4395
10616TIP3   OH231780   4.731   2.210   4.627 -0.0489  0.0968 -0.0744
10616TIP3    H131781   4.784   2.279   4.669  1.8035 -0.1603 -1.9050
10616TIP3    H231782   4.725   2.236   4.536 -1.0392 -1.1495 -0.3763
10617TIP3   OH231783   5.145   1.699   4.918  0.6220 -0.5518  0.1411
10617TIP3    H131784   5.072   1.659   4.966  1.6160 -0.1601  2.0398
10617TIP3    H231785   5.110   1.782   4.886  0.1924 -0.4112  0.9520
10618TIP3   OH231786   5.220   3.616   4.690 -0.6071 -0.4208  0.1379
10618TIP3    H131787   5.273   3.605   4.612  1.1841 -0.8530  1.3837
10618TIP3    H231788   5.144   3.559   4.676 -1.3632  1.0912 -2.1504
10619TIP3   OH231789   5.619   1.017   5.835  0.1522  0.1915 -0.5198
10619TIP3    H131790   5.577   0.940   5.873  0.0082  0.9241  0.8430
10619TIP3    H231791   5.662   0.984   5.756 -0.0026 -1.2633 -0.0162
10620TIP3   OH231792   5.336   1.277   6.246  0.5879  0.6295 -0.0504
10620TIP3    H131793   5.252   1.295   6.205  0.3332 -0.9644 -0.2625
10620TIP3    H231794   5.325   1.305   6.337 -0.2754  0.1761 -0.0087
10621TIP3   OH231795   3.500   7.030   5.772 -0.4727 -0.0259  0.1741
10621TIP3    H131796   3.410   7.030   5.803 -0.6475 -0.8954 -0.3278
10621TIP3    H231797   3.502   6.963   5.704  0.6803 -0.3615  0.5363
10622TIP3   OH231798   1.878   0.326   0.576 -0.4745 -0.6103  0.6370
10622TIP3    H131799   1.854   0.236   0.556 -0.3737 -0.9628  2.0309
10622TIP3    H231800   1.870   0.332   0.672 -0.7080  0.9202  0.5267
10623TIP3   OH231801   4.779   3.132   5.540 -0.0540  0.1896  0.2127
10623TIP3    H131802   4.869   3.134   5.574 -0.2055 -0.7085  0.6658
10623TIP3    H231803   4.779   3.059   5.478 -0.5905 -0.0734  0.5251
10624TIP3   OH231804   0.728   2.568   6.328 -0.0875 -0.4285 -0.1937
10624TIP3    H131805   0.784   2.540   6.256 -1.1085  0.0873 -1.2044
10624TIP3    H231806   0.701   2.487   6.371  0.9293 -0.7074 -0.0695
10625TIP3   OH231807   7.192   3.061   5.762  0.0950 -1.0582 -0.3649
10625TIP3    H131808   7.242   3.107   5.695 -0.4205 -1.3874 -0.9815
10625TIP3    H231809   7.206   2.968   5.744  1.5974 -1.1704  1.2206
10626TIP3   OH231810   6.191   2.408   6.119  0.0974 -0.1730  0.0045
10626TIP3    H131811   6.107   2.446   6.145  0.3705  0.1504  0.3914
10626TIP3    H231812   6.231   2.378   6.200 -0.1872 -1.4404 -0.2978
10627TIP3   OH231813   1.043   7.671   0.669  0.3973  0.0369 -0.7954
10627TIP3    H131814   0.991   7.721   0.732 -0.1241 -1.7307  0.2239
10627TIP3    H231815   1.123   7.648   0.717 -0.3628 -2.0286 -0.4603
10628TIP3   OH231816   6.925   1.412   3.787 -0.1991 -0.1319  0.3910
10628TIP3    H131817   6.888   1.493   3.751  2.6361  1.1893  0.2728
10628TIP3    H231818   6.964   1.367   3.712  0.6846 -0.2029  0.8765
10629TIP3   OH231819   6.625   0.293   3.292 -0.1971 -0.4180 -0.0799
10629TIP3    H131820   6.621   0.201   3.317 -2.3507 -0.1317  0.7896
10629TIP3    H231821   6.563   0.301   3.220  0.1884  0.2831 -0.3370
10630TIP3   OH231822   5.361   3.700   5.867  0.1308 -0.2096 -0.0177
10630TIP3    H131823   5.277   3.744   5.879 -0.1257 -0.7177  0.0812
10630TIP3    H231824   5.427   3.769   5.876 -0.2613  0.1255  0.2602
10631TIP3   OH231825   7.861   2.967   5.477 -0.4780  0.3524  0.7363
10631TIP3    H131826   7.866   2.964   5.382  1.1284  2.5422  0.7233
10631TIP3    H231827   7.776   3.008   5.495 -1.5236 -1.5643  0.3114
10632TIP3   OH231828   4.355   6.352   0.317  0.1748 -0.0591 -0.3549
10632TIP3    H131829   4.274   6.387   0.356  0.4432  1.5821 -1.2279
10632TIP3    H231830   4.391   6.425   0.267  1.5231 -1.1791 -1.0536
10633TIP3   OH231831   0.328   3.550   6.042 -0.4715  0.3735  0.1284
10633TIP3    H131832   0.386   3.526   6.114 -1.1051  1.8716  1.1547
10633TIP3    H231833   0.386   3.556   5.966  0.2335 -1.0121  0.5496
10634TIP3   OH231834   7.615   3.074   6.249 -0.2311 -0.2620 -0.2941
10634TIP3    H131835   7.598   2.990   6.204 -0.7068 -0.8026  0.8673
10634TIP3    H231836   7.566   3.067   6.331  0.9354  0.5629  0.4873
10635TIP3   OH231837   1.014   5.897   0.459  0.1401 -0.3014 -0.6389
10635TIP3    H131838   1.056   5.975   0.495  0.7786  0.4066 -2.8360
10635TIP3    H231839   0.921   5.921   0.453  0.1273 -0.1973 -0.1008
10636TIP3   OH231840   1.738   6.306   0.565  0.0782 -0.2534 -0.3489
10636TIP3    H131841   1.661   6.363   0.573 -0.0295 -0.3874 -0.4457
10636TIP3    H231842   1.715   6.228   0.615  1.2711  0.8924  2.0615
10637TIP3   OH231843   6.072   2.128   6.606 -0.4163 -0.5586  0.6546
10637TIP3    H131844   6.072   2.119   6.701 -0.0465  0.4947  0.7642
10637TIP3    H231845   6.076   2.038   6.573  0.0003 -0.9054  1.6307
10638TIP3   OH231846   8.281   2.876   4.551 -0.0362  0.0656 -0.4941
10638TIP3    H131847   8.187   2.862   4.538  0.2291 -0.4508 -1.9749
10638TIP3    H231848   8.303   2.825   4.629 -1.1777  1.0392  0.4859
10639TIP3   OH231849   0.288   4.886   6.445 -0.4396  0.3240  0.3694
10639TIP3    H131850   0.359   4.931   6.400 -1.8663  0.8165 -1.4403
10639TIP3    H231851   0.300   4.908   6.538  1.5204  0.7061  0.0425
10640TIP3   OH231852   6.520   1.399   6.948 -0.2790 -0.0510 -0.6684
10640TIP3    H131853   6.545   1.326   6.891  0.2440 -0.3301 -0.0852
10640TIP3    H231854   6.543   1.478   6.898 -1.0188 -0.2779 -1.3762
10641TIP3   OH231855   8.479   3.182   5.505 -0.1534 -0.1549  0.7378
10641TIP3    H131856   8.420   3.216   5.572  0.5945 -1.3737  2.0274
10641TIP3    H231857   8.563   3.172   5.549  0.1738 -1.6400 -0.1909
10642TIP3   OH231858   6.620   3.286   4.990 -0.2601 -0.1033  0.4837
10642TIP3    H131859   6.555   3.341   4.945 -0.7560  0.6075  2.0161
10642TIP3    H231860   6.689   3.348   5.017 -0.0211 -0.4954  0.7766
10643TIP3   OH231861   8.185   0.978   5.943 -0.7585 -0.1003 -0.1485
10643TIP3    H131862   8.208   1.063   5.904 -2.3398  0.2552 -0.3447
10643TIP3    H231863   8.098   0.992   5.981 -1.0171 -1.6309 -0.1505
10644TIP3   OH231864   3.660   5.827  -0.016 -0.0726 -0.2110  0.0940
10644TIP3    H131865   3.650   5.761   0.052 -0.9116 -0.2746 -0.0852
10644TIP3    H231866   3.578   5.875  -0.015  0.3780  0.5741 -0.0538
10645TIP3   OH231867   6.356   4.501   6.283  0.1764 -0.1250 -0.0225
10645TIP3    H131868   6.370   4.412   6.250  0.0068 -0.6147  1.1736
10645TIP3    H231869   6.441   4.525   6.321  0.5141  0.6177 -1.2140
10646TIP3   OH231870   5.623   1.973   4.511 -0.8478  0.5684  0.3153
10646TIP3    H131871   5.716   1.983   4.491 -0.6411  1.8827  1.8592
10646TIP3    H231872   5.620   1.956   4.606 -2.2792  2.2979  0.6085
10647TIP3   OH231873   6.360   3.816   5.251 -0.4161  0.5632  0.8301
10647TIP3    H131874   6.451   3.811   5.279  0.8419 -0.9274 -3.0898
10647TIP3    H231875   6.335   3.725   5.235 -2.3602  1.0228  1.1775
10648TIP3   OH231876   2.864   3.994   2.419  0.2301  0.5440 -0.5069
10648TIP3    H131877   2.930   4.057   2.449  0.9007  0.2938 -1.4168
10648TIP3    H231878   2.830   4.033   2.338 -0.1956  0.3046 -0.4414
10649TIP3   OH231879   0.458   0.969   6.206  0.1927 -0.0499 -0.3360
10649TIP3    H131880   0.415   0.898   6.253 -1.6999  0.4872 -1.2357
10649TIP3    H231881   0.486   0.930   6.123  1.2188 -0.3263  0.1313
10650TIP3   OH231882   3.559   1.744   0.083  0.2099  0.2149  0.8092
10650TIP3    H131883   3.619   1.671   0.066 -1.0044 -0.7975  0.7743
10650TIP3    H231884   3.581   1.772   0.172 -1.3436 -2.2049  2.0129
10651TIP3   OH231885   6.052   2.326   4.761 -0.0243  0.9188 -0.2135
10651TIP3    H131886   6.116   2.299   4.695 -0.3943  3.9111 -1.8688
10651TIP3    H231887   5.967   2.303   4.724 -0.0937 -0.0316  0.5173
10652TIP3   OH231888   2.265   7.286   0.552  0.1138  0.0745 -0.1531
10652TIP3    H131889   2.348   7.283   0.600  0.1783  1.7230 -0.1412
10652TIP3    H231890   2.198   7.265   0.618  0.2623  1.6858  0.5383
10653TIP3   OH231891   7.458   3.721   6.218 -0.5332  0.3121  0.1983
10653TIP3    H131892   7.499   3.640   6.247 -0.9223  0.1374  0.2590
10653TIP3    H231893   7.380   3.730   6.273 -1.5532 -0.2748 -1.1280
10654TIP3   OH231894   5.881   3.156   5.241  0.1783  0.0805 -0.5484
10654TIP3    H131895   5.814   3.160   5.172 -0.5931 -1.6178  0.0683
10654TIP3    H231896   5.943   3.225   5.218 -1.2573  1.0304 -1.6881
10655TIP3   OH231897   8.387   1.929   5.618  0.5548 -0.1486  0.6555
10655TIP3    H131898   8.379   1.998   5.552 -0.1301 -1.0692 -0.2302
10655TIP3    H231899   8.467   1.882   5.595 -0.0609 -0.9073  0.0680
10656TIP3   OH231900   6.289   3.237   4.820  0.3182  0.2869 -0.4058
10656TIP3    H131901   6.231   3.287   4.762 -0.7823 -1.0861 -0.5083
10656TIP3    H231902   6.231   3.205   4.890  1.4123  0.9525  0.8290
10657TIP3   OH231903   7.700   3.640   5.253 -0.1551 -0.7541 -0.1999
10657TIP3    H131904   7.629   3.668   5.196 -1.1235 -1.2398  0.7488
10657TIP3    H231905   7.674   3.554   5.284 -0.4979  0.2345  2.3681
10658TIP3   OH231906   6.871   2.565   6.435 -0.2019 -0.1480  0.0723
10658TIP3    H131907   6.793   2.609   6.467  0.4142  0.7263  0.3801
10658TIP3    H231908   6.849   2.472   6.438 -0.9955  0.0598  0.7672
10659TIP3   OH231909   8.386   7.961   0.640 -0.1916  0.2011  0.3807
10659TIP3    H131910   8.298   7.949   0.605 -0.6062 -0.2804  1.5526
10659TIP3    H231911   8.391   7.899   0.714  1.2376 -0.0177  0.1209
10660TIP3   OH231912   7.908   4.609   5.677  0.1990 -0.4158 -0.2701
10660TIP3    H131913   7.950   4.617   5.763 -0.8904  1.5400  0.1298
10660TIP3    H231914   7.907   4.699   5.643 -0.3806 -1.0064 -1.8442
10661TIP3   OH231915   0.566   4.372   4.759  0.7401 -0.0285 -0.1593
10661TIP3    H131916   0.662   4.367   4.754  0.7436  0.5173 -0.6474
10661TIP3    H231917   0.536   4.333   4.677  0.5013 -1.4600  0.5947
10662TIP3   OH231918   6.195   5.274   4.823  0.0044  0.0571 -0.5676
10662TIP3    H131919   6.220   5.211   4.756 -0.4834 -1.4387  0.6379
10662TIP3    H231920   6.174   5.354   4.773 -0.8621 -1.1740 -2.2513
10663TIP3   OH231921   7.241   4.409   4.772  0.1211  0.0434 -0.3128
10663TIP3    H131922   7.172   4.402   4.705  0.2674 -0.8913 -0.3616
10663TIP3    H231923   7.196   4.388   4.854  0.0912  0.5594 -0.1931
10664TIP3   OH231924   6.791   2.981   6.202  0.2486 -0.2162  0.0078
10664TIP3    H131925   6.758   2.892   6.212  1.0443 -0.3738  1.4211
10664TIP3    H231926   6.744   3.031   6.269  0.0187  0.3704 -0.5888
10665TIP3   OH231927   8.204   3.109   6.846  0.1650  0.2924 -0.3443
10665TIP3    H131928   8.288   3.109   6.893 -0.5473 -1.2128  0.9562
10665TIP3    H231929   8.229   3.108   6.753  1.6118 -1.6051  0.0289
10666TIP3   OH231930   5.245   2.733   4.935  0.5626  0.4157 -0.0368
10666TIP3    H131931   5.173   2.679   4.969  0.6774  0.2022 -0.1315
10666TIP3    H231932   5.210   2.774   4.856 -0.3395  2.4141  1.3527
10667TIP3   OH231933   1.215   6.386   1.055 -0.2930  0.0020 -0.2501
10667TIP3    H131934   1.290   6.395   0.996  0.5124 -2.5546  0.2962
10667TIP3    H231935   1.145   6.350   1.001 -0.2099 -0.3352 -0.1384
10668TIP3   OH231936   5.721   1.766   5.415  0.3388  0.3549  0.0749
10668TIP3    H131937   5.703   1.860   5.410 -0.2818  0.2278 -0.2079
10668TIP3    H231938   5.644   1.729   5.459  0.6789  0.0095  0.3799
10669TIP3   OH231939   5.343   2.923   3.561 -0.3483  0.3239 -0.7882
10669TIP3    H131940   5.330   2.841   3.609  0.3613 -0.1928 -1.4667
10669TIP3    H231941   5.344   2.990   3.630  2.2737 -0.5806  0.1291
10670TIP3   OH231942   5.580   1.833   6.837  0.2095 -0.3110  0.0414
10670TIP3    H131943   5.572   1.928   6.840  0.0389 -0.3641  1.2720
10670TIP3    H231944   5.516   1.806   6.771 -0.1318  0.3848  0.0782
10671TIP3   OH231945   1.252   6.014   0.132  0.0036 -0.1355 -0.0644
10671TIP3    H131946   1.286   5.975   0.051 -0.8214 -0.1019 -0.4332
10671TIP3    H231947   1.309   6.089   0.149 -1.4350  1.4760 -2.0927
10672TIP3   OH231948   0.069   4.227   6.506  0.4086  0.5964  0.1666
10672TIP3    H131949   0.113   4.304   6.542  0.2128 -0.1441  2.0614
10672TIP3    H231950   0.005   4.263   6.444  1.9210  1.8123 -0.7265
10673TIP3   OH231951   3.496   3.888   0.851 -0.0931 -0.8721  0.3628
10673TIP3    H131952   3.433   3.887   0.923 -0.7878 -0.4460 -0.2278
10673TIP3    H231953   3.574   3.929   0.888 -0.8357  0.4067  0.5541
10674TIP3   OH231954   6.817   4.339   4.094  0.0810  0.0025  0.1255
10674TIP3    H131955   6.822   4.382   4.180  1.0073 -0.1727  0.1707
10674TIP3    H231956   6.834   4.247   4.113  2.1692  0.2256 -0.4505
10675TIP3   OH231957   8.381   6.488   1.170 -0.2464  0.2621 -0.4279
10675TIP3    H131958   8.436   6.551   1.217 -1.2195  1.6752 -1.1510
10675TIP3    H231959   8.430   6.406   1.175  0.2823  0.6828  1.9027
10676TIP3   OH231960   6.928   2.574   5.100  0.2374  0.5730 -0.4322
10676TIP3    H131961   7.001   2.514   5.086 -1.5664 -1.1106 -3.2490
10676TIP3    H231962   6.863   2.521   5.147 -0.5999  0.9228 -1.2006
10677TIP3   OH231963   6.110   3.501   4.645  0.4392 -0.4019  0.2280
10677TIP3    H131964   6.150   3.536   4.565 -0.4329 -0.6562 -0.3353
10677TIP3    H231965   6.093   3.578   4.699 -2.6316  0.2739 -1.5303
10678TIP3   OH231966   1.567   5.464   0.614  0.0177 -0.1534 -0.3543
10678TIP3    H131967   1.472   5.474   0.619  0.1489  0.7407  0.3285
10678TIP3    H231968   1.580   5.404   0.541 -1.1795 -1.8575  0.7739
10679TIP3   OH231969   5.489   3.665   5.603  0.0664  0.2284 -0.1468
10679TIP3    H131970   5.541   3.599   5.649 -0.0117  0.4683  0.2827
10679TIP3    H231971   5.424   3.693   5.667 -0.1415  0.4493 -0.4549
10680TIP3   OH231972   6.408   3.450   5.738 -0.2381  0.1886  0.1521
10680TIP3    H131973   6.494   3.411   5.721 -1.3538 -2.2680 -0.0663
10680TIP3    H231974   6.356   3.378   5.774 -2.4737  1.4254 -0.5260
10681TIP3   OH231975   2.775   6.662   1.284  0.3497  0.0352 -0.0176
10681TIP3    H131976   2.719   6.679   1.360 -0.1102  2.0122 -0.7704
10681TIP3    H231977   2.862   6.691   1.312  0.0393  1.4215 -0.4850
10682TIP3   OH231978   2.291   0.394   1.334  0.0300 -0.5827 -0.2229
10682TIP3    H131979   2.257   0.413   1.422 -2.1039 -2.2934 -0.6107
10682TIP3    H231980   2.379   0.361   1.348  0.6921  1.6138  1.0467
10683TIP3   OH231981   7.355   3.150   6.085 -0.0617  0.4247 -0.5558
10683TIP3    H131982   7.270   3.138   6.128 -0.8648  1.3717 -1.8294
10683TIP3    H231983   7.401   3.214   6.141 -0.4096  0.3436 -0.1731
10684TIP3   OH231984   6.687   2.886   5.953  0.1595 -0.1557  0.0597
10684TIP3    H131985   6.648   2.861   6.037  1.3084  0.8267  0.9056
10684TIP3    H231986   6.747   2.956   5.975  0.3228  0.2529 -1.6359
10685TIP3   OH231987   8.342   2.048   4.836  0.1562  0.0950  0.4895
10685TIP3    H131988   8.431   2.071   4.809 -0.0873 -0.2953 -0.7110
10685TIP3    H231989   8.286   2.078   4.764 -0.7923  1.1740  1.6462
10686TIP3   OH231990   5.139   2.961   5.033  0.7065 -0.2351  0.0810
10686TIP3    H131991   5.108   2.942   5.121 -0.1826 -1.9743 -0.5903
10686TIP3    H231992   5.209   2.897   5.017  0.7181 -0.0713 -0.5557
10687TIP3   OH231993   7.907   3.624   5.552  0.1714  0.4499  0.7924
10687TIP3    H131994   8.002   3.614   5.551  0.1232  0.0144  0.7083
10687TIP3    H231995   7.880   3.586   5.635  0.0756  0.6178  0.8371
10688TIP3   OH231996   0.974   7.386   0.660 -0.4072 -0.1809 -0.0401
10688TIP3    H131997   0.980   7.481   0.670  0.9194 -0.3488  0.9895
10688TIP3    H231998   1.042   7.364   0.596  0.8193 -0.6513  1.3853
10689TIP3   OH231999   6.752   3.071   4.244 -0.4340  0.4069 -0.1300
10689TIP3    H132000   6.686   3.023   4.295  0.3736 -0.3368  0.2104
10689TIP3    H232001   6.701   3.138   4.197 -1.5048 -0.5232 -0.3138
10690TIP3   OH232002   1.366   6.694   0.390 -0.3979  0.0782 -0.0106
10690TIP3    H132003   1.276   6.705   0.361 -0.6914 -1.3174  0.3579
10690TIP3    H232004   1.395   6.782   0.414 -1.2515  0.7236 -1.3198
10691TIP3   OH232005   7.842   1.153   5.275 -0.0407  0.1993  0.4959
10691TIP3    H132006   7.812   1.225   5.219 -2.2863 -2.3738 -1.7081
10691TIP3    H232007   7.762   1.106   5.299  1.5772 -2.8851  0.0565
10692TIP3   OH232008   5.611   2.225   4.802 -0.4297  0.8498  0.5394
10692TIP3    H132009   5.636   2.155   4.862 -0.0040  2.0401  1.7737
10692TIP3    H232010   5.676   2.222   4.733 -0.8427 -0.4487  0.1941
10693TIP3   OH232011   5.096   0.796   4.655 -0.3779 -0.4140  0.0857
10693TIP3    H132012   5.087   0.704   4.627 -1.0291 -0.3756  0.1653
10693TIP3    H232013   5.173   0.796   4.711 -1.6401 -1.3256  1.8564
10694TIP3   OH232014   8.101   6.967   0.750  0.0308  0.1929 -0.0247
10694TIP3    H132015   8.155   6.918   0.687  1.2800  0.1251  1.0785
10694TIP3    H232016   8.047   7.024   0.696 -0.0086 -0.9765 -1.2381
10695TIP3   OH232017   0.357   0.107   5.590  0.6281  0.0709 -0.0524
10695TIP3    H132018   0.388   0.110   5.500 -0.4675 -1.8789 -0.5406
10695TIP3    H232019   0.305   0.187   5.601 -0.3802 -0.3518 -1.6096
10696TIP3   OH232020   5.272   2.095   5.789  0.4805  0.2937  0.0885
10696TIP3    H132021   5.204   2.158   5.811  1.4247  1.1748  0.5404
10696TIP3    H232022   5.330   2.094   5.865  0.4055 -1.2389  0.1572
10697TIP3   OH232023   7.711   2.358   2.940 -0.2514 -0.0851  0.2371
10697TIP3    H132024   7.746   2.334   3.026  1.0101  1.6703  0.2399
10697TIP3    H232025   7.689   2.451   2.949 -2.1044 -0.4166 -0.7056
10698TIP3   OH232026   7.863   2.608   6.794 -0.4407 -0.5269  0.4770
10698TIP3    H132027   7.815   2.525   6.804 -3.1414  0.7265 -1.3669
10698TIP3    H232028   7.838   2.640   6.707  3.6045  0.3772 -0.4608
10699TIP3   OH232029   3.293   6.184   0.180 -0.0797 -0.1257  0.0709
10699TIP3    H132030   3.323   6.195   0.271  1.4540  0.9845 -0.5388
10699TIP3    H232031   3.296   6.090   0.165  0.4444 -0.2558  0.9337
10700TIP3   OH232032   0.520   4.235   5.899 -0.0338  0.7578  0.3892
10700TIP3    H132033   0.610   4.215   5.873 -0.4922 -0.5355 -0.2818
10700TIP3    H232034   0.526   4.317   5.948  1.2389  1.7246 -1.3523
10701TIP3   OH232035   1.539   0.150   1.505  0.0917  0.0378 -0.0434
10701TIP3    H132036   1.546   0.127   1.412  1.6620 -2.1464  0.5536
10701TIP3    H232037   1.627   0.178   1.529  0.1199 -1.0202  1.1510
10702TIP3   OH232038   8.174   2.579   5.567 -0.3607  0.3077 -0.0401
10702TIP3    H132039   8.216   2.654   5.525  0.3397  0.5489  1.0731
10702TIP3    H232040   8.247   2.522   5.592 -0.7562  0.2503  0.9990
10703TIP3   OH232041   6.911   3.202   5.782 -0.0793  0.4343  0.4721
10703TIP3    H132042   6.983   3.145   5.809  0.6776  1.7642  1.2936
10703TIP3    H232043   6.839   3.142   5.763  1.9321 -1.1362 -2.7653
10704TIP3   OH232044   6.592   1.617   5.793 -0.2394 -0.2423  0.9438
10704TIP3    H132045   6.514   1.573   5.827 -0.7223 -1.4391 -1.5784
10704TIP3    H232046   6.575   1.710   5.808 -1.2707 -0.6065  2.1708
10705TIP3   OH232047   6.896   2.522   5.994 -0.1311  0.2672  0.2718
10705TIP3    H132048   6.807   2.486   5.995 -0.3209  0.5746 -2.3400
10705TIP3    H232049   6.928   2.504   5.905  2.1685  0.7843  0.9655
10706TIP3   OH232050   7.090   3.849   5.133  0.0484  0.0165  0.2579
10706TIP3    H132051   7.120   3.882   5.048 -1.5688 -0.0200 -0.3438
10706TIP3    H232052   7.095   3.924   5.191 -0.9827  0.6211 -0.4302
10707TIP3   OH232053   2.533   4.576   0.401 -0.1020 -0.5516  0.3761
10707TIP3    H132054   2.489   4.552   0.483  0.9825 -1.2989  0.7503
10707TIP3    H232055   2.465   4.567   0.334 -0.5038 -1.7527  0.9361
10708TIP3   OH232056   7.123   3.717   6.381  0.5609 -0.2188 -0.4878
10708TIP3    H132057   7.205   3.751   6.417  0.5880  2.3945 -2.8189
10708TIP3    H232058   7.080   3.675   6.455  2.0658  2.1036  1.7823
10709TIP3   OH232059   6.592   2.168   2.394 -0.1931  0.6082 -0.3728
10709TIP3    H132060   6.647   2.142   2.319 -0.0215  0.6537 -0.2626
10709TIP3    H232061   6.504   2.176   2.357 -0.2738 -0.2819 -0.3775
10710TIP3   OH232062   7.097   0.708   6.792  0.5041  0.2853 -0.1970
10710TIP3    H132063   7.158   0.781   6.800  1.1071 -0.3822  1.4338
10710TIP3    H232064   7.010   0.748   6.797  0.8249  0.9908 -0.2752
10711TIP3   OH232065   6.543   1.795   4.492 -0.0179 -0.1074  0.1397
10711TIP3    H132066   6.451   1.769   4.501  0.3862 -1.3826  0.7682
10711TIP3    H232067   6.545   1.850   4.413 -1.4658  0.7009  0.6448
10712TIP3   OH232068   5.900   3.137   6.938 -0.3220 -0.2709 -0.2946
10712TIP3    H132069   5.857   3.168   6.858  0.5659 -0.3731 -0.8324
10712TIP3    H232070   5.991   3.167   6.928 -0.0741 -0.7854  0.4030
10713TIP3   OH232071   6.228   1.194   5.915 -0.0502  0.0252 -0.4720
10713TIP3    H132072   6.246   1.182   6.009 -0.0184  2.4607 -0.1154
10713TIP3    H232073   6.145   1.242   5.913  1.1123  2.0523 -1.5720
10714TIP3   OH232074   7.666   3.768   5.540  0.6486 -0.4104 -0.2130
10714TIP3    H132075   7.750   3.723   5.549  1.2718  0.5104 -1.4526
10714TIP3    H232076   7.627   3.731   5.461 -0.7585 -1.8569  1.1266
10715TIP3   OH232077   7.186   1.930   5.719  0.4445  0.2603  0.3988
10715TIP3    H132078   7.194   1.836   5.704  0.5089  0.3591 -0.1660
10715TIP3    H232079   7.125   1.937   5.793  0.4828 -0.2246  0.4767
10716TIP3   OH232080   8.268   3.067   6.502  0.1762  0.4323  0.2141
10716TIP3    H132081   8.313   2.983   6.502  0.8871  0.7962  1.4845
10716TIP3    H232082   8.179   3.047   6.533 -1.4035 -0.6801 -4.6319
10717TIP3   OH232083   6.895   1.660   5.458  0.3436 -0.4532 -0.5121
10717TIP3    H132084   6.831   1.664   5.388 -0.9870 -0.7563  0.6650
10717TIP3    H232085   6.926   1.750   5.468 -0.0016 -0.2826 -0.9990
10718TIP3   OH232086   7.641   4.548   5.438  0.0968  0.0493 -0.0740
10718TIP3    H132087   7.721   4.500   5.460 -0.0780 -0.3811 -0.3891
10718TIP3    H232088   7.604   4.572   5.523 -0.8644 -2.0847  0.1446
10719TIP3   OH232089   6.594   2.455   6.058  0.0313  0.0386 -0.2476
10719TIP3    H132090   6.625   2.378   6.106 -0.1851 -0.0365 -0.2289
10719TIP3    H232091   6.541   2.419   5.987 -1.6534  0.2414  0.8834
10720TIP3   OH232092   5.914   2.634   5.889  0.4802  0.3098  0.0510
10720TIP3    H132093   5.981   2.601   5.828  0.3239 -0.4044  0.2642
10720TIP3    H232094   5.953   2.713   5.926  0.9879  0.1977 -0.2289
10721TIP3   OH232095   7.101   1.461   5.499  0.2997 -0.0150  0.4772
10721TIP3    H132096   7.047   1.533   5.466  1.2952  0.4200 -0.2425
10721TIP3    H232097   7.047   1.418   5.565  0.0635  2.0011  1.6399
10722TIP3   OH232098   6.366   4.637   5.899  0.4825 -0.2145  0.5026
10722TIP3    H132099   6.299   4.666   5.837  0.9338  1.3065  0.7151
10722TIP3    H232100   6.346   4.685   5.979  0.5698 -1.3484  1.2131
10723TIP3   OH232101   4.361   2.675   4.291 -0.0501  0.0192 -0.2593
10723TIP3    H132102   4.291   2.740   4.301  0.2139  0.0966  1.1910
10723TIP3    H232103   4.335   2.603   4.349  0.0685 -0.8270 -1.2414
10724TIP3   OH232104   6.156   3.841   6.800 -0.1625 -0.0916  0.2823
10724TIP3    H132105   6.250   3.826   6.798  0.1020  1.1861  1.4625
10724TIP3    H232106   6.123   3.804   6.719  1.1532 -1.8805  0.5430
10725TIP3   OH232107   6.697   4.819   5.461  0.3943  0.4111 -0.4608
10725TIP3    H132108   6.720   4.773   5.380 -0.2651 -0.5173 -0.1379
10725TIP3    H232109   6.607   4.849   5.446 -0.1413 -0.7239  0.3180
10726TIP3   OH232110   8.104   5.790   5.525  0.1126  0.0058 -0.0404
10726TIP3    H132111   8.118   5.732   5.599  0.1053 -0.0951 -0.1181
10726TIP3    H232112   8.179   5.774   5.467 -1.4743 -2.2198 -1.5558
10727TIP3   OH232113   7.805   3.557   3.155  0.2418  0.3459  0.4357
10727TIP3    H132114   7.796   3.651   3.144 -1.9934  0.2497  1.2022
10727TIP3    H232115   7.717   3.522   3.139  0.7196 -1.4681  1.5435
10728TIP3   OH232116   8.002   1.505   6.750  0.0227 -0.0166  0.5375
10728TIP3    H132117   7.927   1.447   6.733  0.8188 -1.0469  0.5120
10728TIP3    H232118   8.077   1.446   6.757  0.7853  0.9851  0.8979
10729TIP3   OH232119   7.746   4.838   4.766 -0.1819 -0.3316  0.1543
10729TIP3    H132120   7.829   4.883   4.781  0.4863 -1.3323 -0.4555
10729TIP3    H232121   7.746   4.765   4.828 -0.0156 -1.0898 -0.7247
10730TIP3   OH232122   3.118   0.402   0.625  0.5414  0.0867 -0.1072
10730TIP3    H132123   3.037   0.371   0.585  0.9608 -1.0495 -0.0912
10730TIP3    H232124   3.090   0.445   0.706  0.1390 -2.3240  1.0744
10731TIP3   OH232125   8.028   3.040   6.590  0.7775 -0.1380  0.2100
10731TIP3    H132126   7.989   3.065   6.506  0.3064  0.4406  0.5987
10731TIP3    H232127   7.975   3.085   6.656 -0.4991 -2.6030  0.9696
10732TIP3   OH232128   5.874   4.018   4.274 -0.1509 -0.1392 -0.1155
10732TIP3    H132129   5.895   4.099   4.227  3.2105 -0.5212  0.5617
10732TIP3    H232130   5.897   3.948   4.213 -0.2902 -0.6081  0.3689
10733TIP3   OH232131   6.701   1.933   4.984  0.3663 -0.4751  0.6550
10733TIP3    H132132   6.675   1.951   4.893  0.7938 -1.0523  0.4136
10733TIP3    H232133   6.713   2.020   5.023  0.1133 -0.2210  0.1816
10734TIP3   OH232134   7.671   4.055   5.945  0.7860 -0.3259  0.1370
10734TIP3    H132135   7.668   4.004   6.026 -1.5315  0.2231  0.4280
10734TIP3    H232136   7.729   4.129   5.965  0.9544 -0.6834  1.0022
10735TIP3   OH232137   8.059   2.090   4.250  0.2613 -0.1771  0.1645
10735TIP3    H132138   8.015   2.006   4.261 -0.0006 -0.3756 -2.0674
10735TIP3    H232139   7.994   2.146   4.208  1.3167  0.2814 -0.9027
10736TIP3   OH232140   6.244   3.231   5.807  0.0468 -0.7002  0.4418
10736TIP3    H132141   6.191   3.239   5.886 -2.9195  0.6111 -1.5686
10736TIP3    H232142   6.200   3.164   5.755  0.9736 -0.3259 -0.8500
10737TIP3   OH232143   7.917   2.601   5.664 -0.1897  0.6174  0.3391
10737TIP3    H132144   8.010   2.599   5.640 -0.4054 -2.1073 -0.4280
10737TIP3    H232145   7.906   2.526   5.722 -2.1685  0.1638 -0.5871
10738TIP3   OH232146   7.924   0.259   5.829  0.3630 -0.0189 -1.1247
10738TIP3    H132147   7.986   0.332   5.824  0.2579  0.1568  0.1771
10738TIP3    H232148   7.839   0.300   5.841  0.2072 -0.3285 -1.1680
10739TIP3   OH232149   7.589   0.096   3.416  0.4117 -0.0579  0.2798
10739TIP3    H132150   7.504   0.130   3.443  0.2843 -0.7497  0.7583
10739TIP3    H232151   7.650   0.167   3.437  0.1738 -0.1912  1.4703
10740TIP3   OH232152   5.717   2.979   4.047 -0.5318 -0.3342  0.2068
10740TIP3    H132153   5.622   2.986   4.061 -0.7971 -4.4584  1.1283
10740TIP3    H232154   5.726   2.941   3.959  0.2466 -0.5751  0.3852
10741TIP3   OH232155   7.001   3.538   6.551 -0.2152 -0.2756 -0.4770
10741TIP3    H132156   6.969   3.566   6.637  1.0284 -1.8371  0.5093
10741TIP3    H232157   6.928   3.489   6.513  0.0959 -1.7258  0.7432
10742TIP3   OH232158   0.509   2.468   6.884 -0.4769  0.0831  0.2487
10742TIP3    H132159   0.510   2.491   6.791  0.0440  0.9358  0.4562
10742TIP3    H232160   0.442   2.400   6.892 -2.6592  2.1323 -0.2529
10743TIP3   OH232161   6.788   1.705   4.604  0.4342 -0.1294 -0.0883
10743TIP3    H132162   6.707   1.728   4.560  1.2336  0.3915 -1.3116
10743TIP3    H232163   6.764   1.634   4.664 -1.6075  2.2408  2.0491
10744TIP3   OH232164   6.768   2.738   4.204 -0.2168 -0.2414  0.3389
10744TIP3    H132165   6.764   2.786   4.121  0.8643 -0.2882  0.2548
10744TIP3    H232166   6.680   2.701   4.214 -0.5142  0.2069 -0.5169
10745TIP3   OH232167   5.386   2.718   3.733 -0.5660  0.1315  0.1504
10745TIP3    H132168   5.425   2.631   3.734  0.6537  0.6468  2.3365
10745TIP3    H232169   5.314   2.713   3.796 -1.4400  0.3017 -0.8251
10746TIP3   OH232170   7.255   5.426   5.115  0.0889  0.5069  0.4254
10746TIP3    H132171   7.298   5.447   5.198  0.3480 -0.1817  0.4612
10746TIP3    H232172   7.178   5.375   5.140 -0.3895  1.1664  0.3125
10747TIP3   OH232173   7.289   1.665   6.248 -0.4767 -0.0655 -0.3282
10747TIP3    H132174   7.357   1.604   6.277 -0.9804 -0.4062  0.1356
10747TIP3    H232175   7.306   1.677   6.155 -0.5633 -1.1567 -0.4931
10748TIP3   OH232176   6.990   1.842   5.887 -0.2649  0.3394  0.1625
10748TIP3    H132177   6.960   1.752   5.881 -0.9039  0.4932  0.9951
10748TIP3    H232178   6.932   1.891   5.829  1.4990 -0.1086 -2.0721
10749TIP3   OH232179   1.545   6.545   0.535  0.5160  0.5379  0.0895
10749TIP3    H132180   1.490   6.600   0.479  0.7291  1.3816  0.7000
10749TIP3    H232181   1.613   6.605   0.567  0.3020  0.0929  1.3798
10750TIP3   OH232182   6.664   3.548   6.477 -0.4374 -0.1063  0.3145
10750TIP3    H132183   6.715   3.602   6.416 -0.9788 -1.5139 -1.4436
10750TIP3    H232184   6.720   3.473   6.496 -0.6180 -0.1040  0.8780
10751TIP3   OH232185   8.333   5.297   3.676  0.0841  0.2890 -0.2002
10751TIP3    H132186   8.398   5.366   3.689  0.6298 -0.3790  0.6371
10751TIP3    H232187   8.292   5.318   3.591  0.6848  1.2735 -0.2517
10752TIP3   OH232188   7.783   5.197   5.734  0.1467 -0.0439  0.4217
10752TIP3    H132189   7.715   5.177   5.799  0.0176  1.2186  0.6859
10752TIP3    H232190   7.844   5.123   5.740 -0.7132 -0.7374  0.8302
10753TIP3   OH232191   7.032   3.456   4.123 -0.4207  0.2930 -0.2003
10753TIP3    H132192   7.103   3.512   4.091 -0.0555  0.9009  1.5592
10753TIP3    H232193   6.959   3.516   4.138 -0.0827  0.3089  1.5400
10754TIP3   OH232194   5.473   3.321   6.945 -0.6284  0.4268 -0.3324
10754TIP3    H132195   5.394   3.330   6.891 -0.1882  1.7218 -0.7734
10754TIP3    H232196   5.515   3.407   6.941  0.4877 -0.0706  0.4075
10755TIP3   OH232197   6.902   3.392   5.078 -0.5580  0.0080 -0.0875
10755TIP3    H132198   6.978   3.450   5.087 -1.2644  0.6965  1.5844
10755TIP3    H232199   6.929   3.327   5.013  0.6700  1.5260 -1.1187
10756TIP3   OH232200   6.540   3.065   6.858  0.1422  0.1169  0.4057
10756TIP3    H132201   6.561   2.982   6.899  0.2128 -0.8210 -1.5015
10756TIP3    H232202   6.567   3.055   6.767  1.3653  2.6871  0.4333
10757TIP3   OH232203   0.127   4.707   2.448 -0.0064 -0.1308 -0.4784
10757TIP3    H132204   0.080   4.686   2.368 -1.6072 -0.4966  0.5213
10757TIP3    H232205   0.168   4.625   2.475  0.8477  0.0816 -1.1089
10758TIP3   OH232206   4.801   0.195   0.031 -0.1512 -0.1720 -0.3502
10758TIP3    H132207   4.888   0.213  -0.005 -0.3992  2.9400  0.4182
10758TIP3    H232208   4.779   0.274   0.081 -2.2388 -2.0211  1.8154
10759TIP3   OH232209   5.421   2.860   6.726  0.2578  0.9634 -0.3765
10759TIP3    H132210   5.364   2.838   6.800 -1.1931  1.4881 -1.3111
10759TIP3    H232211   5.469   2.937   6.755  1.1324  0.0298  0.7364
10760TIP3   OH232212   6.193   0.279   3.880 -0.5034 -0.0048 -0.2105
10760TIP3    H132213   6.170   0.187   3.867  1.3232 -0.2683 -1.8026
10760TIP3    H232214   6.118   0.327   3.846 -0.8499 -0.8867 -0.7203
10761TIP3   OH232215   6.489   3.855   5.679  0.1749  0.1267 -0.0844
10761TIP3    H132216   6.578   3.840   5.646  0.4650  0.0148  0.7241
10761TIP3    H232217   6.437   3.784   5.643 -0.0126  1.2745 -2.1541
10762TIP3   OH232218   7.385   2.094   4.078 -0.0652 -0.0721 -0.4722
10762TIP3    H132219   7.352   2.021   4.026  1.6722 -1.1749 -0.0660
10762TIP3    H232220   7.378   2.064   4.169  2.3194 -0.4849 -0.3891
10763TIP3   OH232221   6.019   4.948   5.856  0.1326 -0.0770 -0.3988
10763TIP3    H132222   6.002   4.856   5.835 -3.1595  0.2172  0.7227
10763TIP3    H232223   5.937   4.993   5.835  1.2357  2.3904  0.3786
10764TIP3   OH232224   7.910   1.453   5.415 -0.0069 -0.5693 -0.4606
10764TIP3    H132225   7.964   1.383   5.452  0.9524 -0.4788 -1.6513
10764TIP3    H232226   7.829   1.410   5.389  1.1411 -1.5536 -2.5353
10765TIP3   OH232227   2.328   6.734   0.349 -0.3081  0.5713 -0.4490
10765TIP3    H132228   2.343   6.640   0.350  0.3857  0.6810 -0.1684
10765TIP3    H232229   2.414   6.772   0.330 -0.2650  1.1915  0.8882
10766TIP3   OH232230   5.758   2.384   5.353  0.7907  0.1509 -0.0728
10766TIP3    H132231   5.750   2.479   5.356  0.5531  0.1369 -0.2500
10766TIP3    H232232   5.816   2.363   5.426 -1.6324  0.1521  1.9088
10767TIP3   OH232233   7.191   4.340   5.762 -0.6099 -0.6764 -0.0245
10767TIP3    H132234   7.179   4.350   5.668  2.7462 -0.1214 -0.4498
10767TIP3    H232235   7.233   4.255   5.773  0.5862 -0.0042  0.7848
10768TIP3   OH232236   6.949   2.249   5.537  0.0898 -0.1085  0.1466
10768TIP3    H132237   6.913   2.229   5.450  3.3321 -1.5033 -0.9435
10768TIP3    H232238   6.948   2.344   5.542  0.0327 -0.0118 -1.5069
10769TIP3   OH232239   1.768   6.398   0.141 -0.2469 -0.2080 -0.2889
10769TIP3    H132240   1.735   6.478   0.182 -0.3799  0.2693 -1.3245
10769TIP3    H232241   1.798   6.344   0.215 -0.1831  0.7809  0.4150
10770TIP3   OH232242   6.692   2.248   6.245  0.0309 -0.3358 -0.2156
10770TIP3    H132243   6.752   2.269   6.316 -0.4468  0.2801  0.0195
10770TIP3    H232244   6.684   2.153   6.246 -0.1988 -0.3101  0.7495
10771TIP3   OH232245   4.184   6.078   1.430 -0.6175  0.2524  0.2261
10771TIP3    H132246   4.123   6.057   1.501 -1.5108  1.3162 -0.2111
10771TIP3    H232247   4.221   6.163   1.455 -0.4811  0.3416 -0.2843
10772TIP3   OH232248   0.404   6.697   1.166  0.1113 -0.2882 -0.0759
10772TIP3    H132249   0.454   6.708   1.085 -0.9058  1.2615 -0.5127
10772TIP3    H232250   0.406   6.783   1.207 -3.7296  0.3332 -1.0104
10773TIP3   OH232251   2.506   5.051   1.149 -0.9805 -0.0650  0.0970
10773TIP3    H132252   2.550   5.053   1.234 -1.3830 -0.9018  0.3268
10773TIP3    H232253   2.436   4.987   1.159  0.0144 -1.4424 -1.3671
10774TIP3   OH232254   8.415   5.402   5.133 -0.1708 -0.2304  0.4773
10774TIP3    H132255   8.424   5.496   5.118  0.4319 -0.1044  1.5604
10774TIP3    H232256   8.354   5.394   5.206 -1.3138 -0.7417 -0.5180
10775TIP3   OH232257   6.020   1.871   5.934  0.2592  0.1440  0.1394
10775TIP3    H132258   6.056   1.804   5.991 -0.6905  0.2833  0.9215
10775TIP3    H232259   5.938   1.834   5.901 -0.3670  0.9819  0.7286
10776TIP3   OH232260   7.598   2.266   6.680 -0.2710  0.5853  0.3054
10776TIP3    H132261   7.677   2.289   6.731 -0.0858  0.1300  0.2226
10776TIP3    H232262   7.543   2.344   6.686  0.6153  1.2844 -0.4772
10777TIP3   OH232263   7.676   3.551   5.745  0.3190 -0.8931  0.3650
10777TIP3    H132264   7.649   3.478   5.800 -1.0195 -0.4862  0.2575
10777TIP3    H232265   7.649   3.526   5.656  2.0769 -1.3548 -0.0720
10778TIP3   OH232266   5.828   3.343   6.028 -0.4130  0.3079  0.1888
10778TIP3    H132267   5.843   3.316   6.118 -0.9367  2.2614  0.8757
10778TIP3    H232268   5.735   3.330   6.014 -0.2208 -0.6149 -0.2984
10779TIP3   OH232269   7.217   3.650   3.937 -0.3507  0.4388  0.0039
10779TIP3    H132270   7.302   3.678   3.900 -0.3815  0.9915  0.3446
10779TIP3    H232271   7.166   3.731   3.943 -0.5916  0.2434  0.6190
10780TIP3   OH232272   6.294   2.800   4.350 -0.0749 -0.2000 -0.2527
10780TIP3    H132273   6.328   2.855   4.279  0.3622 -0.3562 -0.1674
10780TIP3    H232274   6.277   2.861   4.422  2.2569 -0.4098  0.5221
10781TIP3   OH232275   5.832   3.030   4.711  0.0814  0.3171  0.4718
10781TIP3    H132276   5.877   2.986   4.783 -2.6325 -0.5678  1.6670
10781TIP3    H232277   5.741   3.001   4.717 -0.4297  1.0111 -2.7040
10782TIP3   OH232278   6.884   2.174   5.282  0.2959  0.1004 -0.0724
10782TIP3    H132279   6.945   2.218   5.223 -0.4302  0.0385 -0.8755
10782TIP3    H232280   6.800   2.177   5.237 -0.4647  0.8494  1.3480
10783TIP3   OH232281   6.806   3.414   6.801  0.2196 -0.2282 -0.1256
10783TIP3    H132282   6.716   3.432   6.826  0.1091  2.1896 -1.9733
10783TIP3    H232283   6.856   3.488   6.836  1.9039 -2.7239  2.9023
10784TIP3   OH232284   7.380   3.298   6.300  0.4062 -0.3595 -0.4030
10784TIP3    H132285   7.443   3.356   6.342 -1.8152  0.0462  2.5390
10784TIP3    H232286   7.406   3.210   6.329 -1.0914 -0.0845  1.8770
10785TIP3   OH232287   8.261   0.671   5.444  0.2362 -0.6571  0.3409
10785TIP3    H132288   8.325   0.732   5.408  1.0107 -2.4270 -1.3444
10785TIP3    H232289   8.308   0.624   5.512  0.3308 -0.9593  0.0715
10786TIP3   OH232290   7.322   4.783   6.238  0.3900 -0.0452  0.1465
10786TIP3    H132291   7.344   4.789   6.331 -0.7322 -1.2780  0.5092
10786TIP3    H232292   7.277   4.866   6.218  1.3343  0.5605  0.4861
10787TIP3   OH232293   7.303   0.632   6.314  0.0268 -0.2272  0.6033
10787TIP3    H132294   7.257   0.622   6.230  0.7103  1.1628  0.0490
10787TIP3    H232295   7.350   0.549   6.325 -0.6855 -0.7200 -0.0021
10788TIP3   OH232296   0.062   0.722   4.254 -0.5432 -0.0419  0.0004
10788TIP3    H132297   0.037   0.785   4.186  0.3600 -0.7782 -1.0365
10788TIP3    H232298  -0.021   0.691   4.290 -0.9989  1.5004  0.2975
10789TIP3   OH232299   8.448   5.054   6.457 -0.2574 -0.8373 -0.0931
10789TIP3    H132300   8.507   5.127   6.477 -1.4445  0.0741  0.0936
10789TIP3    H232301   8.496   5.003   6.391  1.2118 -0.7171  0.8455
10790TIP3   OH232302   6.694   4.092   3.994 -0.3740 -0.1629 -0.0998
10790TIP3    H132303   6.707   4.040   4.073  0.9228  1.7693  0.9895
10790TIP3    H232304   6.754   4.054   3.930 -1.2089 -1.5431 -0.0804
10791TIP3   OH232305   0.251   4.506   5.621 -0.3798  0.2350  0.3083
10791TIP3    H132306   0.212   4.469   5.542 -1.0081  0.2762  0.5993
10791TIP3    H232307   0.294   4.586   5.592 -0.8276  0.3806  0.0560
10792TIP3   OH232308   8.105   2.293   6.498  0.0585 -0.5447  0.2166
10792TIP3    H132309   8.133   2.202   6.503 -0.3051 -0.5908  1.4414
10792TIP3    H232310   8.050   2.296   6.419  0.3539 -1.2982 -0.0273
10793TIP3   OH232311   8.104   2.267   6.794 -0.3546  0.6503  0.2422
10793TIP3    H132312   8.116   2.296   6.704 -0.3621 -0.2172 -0.0421
10793TIP3    H232313   8.192   2.266   6.832 -0.0311 -1.4693 -0.5273
10794TIP3   OH232314   0.896   2.993   6.070 -0.3379 -0.4187 -0.4953
10794TIP3    H132315   0.805   3.016   6.089  0.1279  1.7518 -0.7892
10794TIP3    H232316   0.926   2.948   6.149 -1.0358  0.8189  0.5009
10795TIP3   OH232317   3.408   5.724   0.270  0.8316 -0.1170  0.6049
10795TIP3    H132318   3.502   5.713   0.253  0.3784  0.0554 -2.0939
10795TIP3    H232319   3.367   5.647   0.233 -0.1552  0.0048  1.4280
10796TIP3   OH232320   0.950   5.950   1.342 -0.0229 -0.6605  0.0165
10796TIP3    H132321   0.997   6.023   1.382 -0.8500 -0.6430  0.9649
10796TIP3    H232322   1.012   5.914   1.278  0.0662  1.4038 -1.0950
10797TIP3   OH232323   7.319   2.291   6.000  0.1977 -0.3218  0.0079
10797TIP3    H132324   7.341   2.340   5.921  1.6821  0.6531  0.9981
10797TIP3    H232325   7.340   2.351   6.072 -1.6667 -0.9819  1.1326
10798TIP3   OH232326   2.449   7.375   0.752 -0.2683  0.3813 -0.1005
10798TIP3    H132327   2.511   7.413   0.689 -1.0039  0.8372 -0.5526
10798TIP3    H232328   2.504   7.326   0.813  0.8869  3.3985  1.4243
10799TIP3   OH232329   2.619   6.912   0.596  0.5655  0.5690  0.3050
10799TIP3    H132330   2.545   6.933   0.538  0.9591 -0.5035 -0.6003
10799TIP3    H232331   2.683   6.871   0.539  1.2225  0.0593  1.3930
10800TIP3   OH232332   4.036   7.712   5.464 -1.0072 -0.4761 -0.3692
10800TIP3    H132333   4.098   7.779   5.435 -0.8434 -0.2022  0.5949
10800TIP3    H232334   4.070   7.631   5.426  0.3186 -0.4378  0.6659
10801TIP3   OH232335   7.185   6.755   1.765 -0.1301 -0.3840 -0.1227
10801TIP3    H132336   7.270   6.776   1.804 -0.3258 -2.0230  1.2339
10801TIP3    H232337   7.187   6.797   1.679  0.9367  1.9457  1.0032
10802TIP3   OH232338   0.390   1.629   6.797 -0.2358 -0.7415  0.1750
10802TIP3    H132339   0.394   1.538   6.827  0.9916 -0.6343  0.3600
10802TIP3    H232340   0.436   1.628   6.713 -1.9464 -0.6629 -0.7660
10803TIP3   OH232341   7.973   2.500   4.883  0.9971 -0.7815  0.5005
10803TIP3    H132342   7.952   2.530   4.972  1.4524 -0.3324  0.4593
10803TIP3    H232343   7.910   2.431   4.866  0.4572 -0.3982  0.9128
10804TIP3   OH232344   6.145   2.741   3.312  0.1725  0.2798  0.3026
10804TIP3    H132345   6.083   2.769   3.380  0.9596  0.5352  0.9271
10804TIP3    H232346   6.105   2.662   3.275 -0.6179  0.5436  0.5694
10805TIP3   OH232347   6.372   3.781   4.641 -0.0217 -0.2103  0.5121
10805TIP3    H132348   6.315   3.850   4.608 -0.5499 -0.2727  1.2995
10805TIP3    H232349   6.342   3.702   4.596 -0.8626 -0.3268  1.2651
10806TIP3   OH232350   5.978   2.565   6.165 -0.6835 -0.1882 -0.6906
10806TIP3    H132351   5.923   2.605   6.232 -2.1733  0.0698 -2.0232
10806TIP3    H232352   5.935   2.588   6.082  0.8230 -0.9327 -1.7098
10807TIP3   OH232353   3.913   3.161   5.164  0.3581 -0.3927  0.0419
10807TIP3    H132354   3.859   3.145   5.087 -0.8383 -0.4470  0.8686
10807TIP3    H232355   3.943   3.074   5.190 -0.4954 -0.5532  0.5186
10808TIP3   OH232356   5.912   3.700   5.921 -0.2480  0.5146  0.2154
10808TIP3    H132357   5.840   3.645   5.892 -1.0869  1.4424  0.5022
10808TIP3    H232358   5.873   3.787   5.932  0.8732  0.9889  0.5353
10809TIP3   OH232359   6.865   3.173   6.708 -0.1174 -0.2795 -0.5080
10809TIP3    H132360   6.786   3.166   6.655  0.8332 -1.6066 -1.8054
10809TIP3    H232361   6.852   3.251   6.761 -4.0708 -2.6606  2.2733
10810TIP3   OH232362   4.581   1.941   5.936 -0.2084  0.1471 -0.3913
10810TIP3    H132363   4.658   1.992   5.964 -1.5570  1.5670  0.8659
10810TIP3    H232364   4.532   2.001   5.880 -0.4799 -0.7036 -1.0692
10811TIP3   OH232365   0.906   1.629   3.370 -0.2693 -0.0358  0.1423
10811TIP3    H132366   0.941   1.715   3.351 -1.0349  0.4584  0.9087
10811TIP3    H232367   0.977   1.568   3.351  0.4979  0.8242  0.2649
10812TIP3   OH232368   5.883   4.648   6.109  1.3851  0.5781  0.3561
10812TIP3    H132369   5.873   4.656   6.204  3.3176 -0.2729  0.6457
10812TIP3    H232370   5.949   4.580   6.097 -0.6918 -1.1105 -1.6759
10813TIP3   OH232371   4.547   4.586   5.826 -0.3473  0.1194 -0.1848
10813TIP3    H132372   4.483   4.518   5.805 -0.4069  0.5807 -1.5707
10813TIP3    H232373   4.631   4.540   5.823 -0.6583 -0.6967  2.5894
10814TIP3   OH232374   4.037   0.031   0.072 -0.4012  0.2432  0.1309
10814TIP3    H132375   4.012   0.116   0.108  0.3592  0.4386  0.2132
10814TIP3    H232376   4.096   0.052   0.000  1.8094 -0.2660  1.7419
10815TIP3   OH232377   7.337   3.920   5.306 -0.1742 -0.2072 -0.2471
10815TIP3    H132378   7.322   3.922   5.401  2.2400  1.0701  0.1676
10815TIP3    H232379   7.310   4.007   5.276  1.4597  0.2992 -0.2921
10816TIP3   OH232380   7.460   5.421   4.654 -0.2163 -0.2749  0.3026
10816TIP3    H132381   7.432   5.331   4.673 -1.5492 -0.1429 -0.9503
10816TIP3    H232382   7.464   5.464   4.739 -1.9897 -0.8392  0.6934
10817TIP3   OH232383   4.979   2.872   5.606  0.0021  0.2383  0.2052
10817TIP3    H132384   4.947   2.787   5.578 -1.8782  1.5104 -1.6427
10817TIP3    H232385   4.916   2.901   5.673 -0.4011  0.9562 -0.4773
10818TIP3   OH232386   1.733   2.271   0.621 -0.1360  0.1214  0.3684
10818TIP3    H132387   1.680   2.192   0.624 -0.8080  0.5200 -0.8519
10818TIP3    H232388   1.671   2.341   0.598  0.4074  1.0429  1.6238
10819TIP3   OH232389   7.363   2.315   5.461 -0.4552  0.0905 -0.1874
10819TIP3    H132390   7.299   2.245   5.471 -1.2750  1.1306  2.4068
10819TIP3    H232391   7.328   2.388   5.513  0.9197  2.0555 -1.9027
10820TIP3   OH232392   0.528   0.586   6.368  0.1717  0.2345 -0.2685
10820TIP3    H132393   0.583   0.655   6.405 -0.6743  0.9421 -0.3385
10820TIP3    H232394   0.519   0.609   6.275  0.1251 -0.1274 -0.3560
10821TIP3   OH232395   1.671   1.603   5.206 -0.1586 -0.1818  1.0703
10821TIP3    H132396   1.681   1.508   5.207  0.1632 -0.2134 -2.1257
10821TIP3    H232397   1.578   1.617   5.225 -0.4311 -1.1813  0.5196
10822TIP3   OH232398   0.272   0.680   6.675 -0.2297 -0.0190 -0.4675
10822TIP3    H132399   0.347   0.654   6.729  1.8080  3.6603 -1.2951
10822TIP3    H232400   0.206   0.710   6.738  0.0194 -0.8240  0.1807
10823TIP3   OH232401   6.460   2.457   6.745 -0.5427 -0.6692  0.3651
10823TIP3    H132402   6.448   2.490   6.655  0.7695  1.7194  1.0206
10823TIP3    H232403   6.507   2.374   6.733  1.2342  0.4880 -1.1218
10824TIP3   OH232404   3.401   6.242   0.429  0.0819  0.4355  0.1754
10824TIP3    H132405   3.385   6.200   0.514  0.6180 -0.3520 -0.1063
10824TIP3    H232406   3.493   6.270   0.434 -0.2780  1.6083  0.3706
10825TIP3   OH232407   6.271   2.778   5.454  0.2133 -0.3366 -0.3411
10825TIP3    H132408   6.349   2.814   5.496 -3.0684  2.1677  4.1166
10825TIP3    H232409   6.266   2.688   5.485 -0.0136  0.2965  1.5247
10826TIP3   OH232410   6.370   2.593   6.478 -0.4253  0.6877 -0.1303
10826TIP3    H132411   6.334   2.656   6.541  1.7943  0.9443  0.9453
10826TIP3    H232412   6.401   2.648   6.406  1.8881  0.9398  0.9922
10827TIP3   OH232413   6.569   0.914   5.749  0.4927  0.2167  0.1538
10827TIP3    H132414   6.474   0.911   5.745  0.5997 -1.5009 -1.8910
10827TIP3    H232415   6.590   0.906   5.842 -1.3215  0.1400  0.5668
10828TIP3   OH232416   6.916   4.475   5.615  0.2986 -0.0183 -0.1887
10828TIP3    H132417   6.894   4.433   5.698 -1.1925  1.8022  0.3595
10828TIP3    H232418   6.835   4.474   5.565  0.1768  2.3903 -0.0652
10829TIP3   OH232419   0.664   5.859   1.043  0.3225 -0.1393 -0.0997
10829TIP3    H132420   0.640   5.849   1.135  1.2984  1.1354  0.2982
10829TIP3    H232421   0.643   5.774   1.004 -0.2758 -0.6257  1.2539
10830TIP3   OH232422   0.944   7.889   0.513  0.4167 -0.3503 -0.3401
10830TIP3    H132423   0.911   7.870   0.425  1.2788 -1.0073 -0.5181
10830TIP3    H232424   0.981   7.807   0.544  1.3458  0.2199  0.0998
10831TIP3   OH232425   8.044   3.649   4.638  0.1717  0.3114 -0.4775
10831TIP3    H132426   7.977   3.674   4.701 -0.7004  0.7879 -1.5970
10831TIP3    H232427   8.040   3.553   4.635 -0.2488  0.3253 -0.3217
10832TIP3   OH232428   4.878   3.053   4.531  0.6597  0.3192  0.1655
10832TIP3    H132429   4.852   3.121   4.469 -2.4827 -0.8728  0.0444
10832TIP3    H232430   4.865   2.971   4.482  0.7517 -0.5162  1.5147
10833TIP3   OH232431   0.955   6.329   1.261 -0.1209 -0.2863  0.0161
10833TIP3    H132432   1.037   6.281   1.264 -0.0392 -0.2929 -1.8198
10833TIP3    H232433   0.974   6.407   1.208 -0.6286  1.0513  1.7219
10834TIP3   OH232434   2.196   6.152   0.406  0.3451 -0.2867 -0.4363
10834TIP3    H132435   2.162   6.231   0.363 -0.9660 -0.2880  0.5888
10834TIP3    H232436   2.126   6.124   0.464  1.1308 -1.7450 -0.1713
10835TIP3   OH232437   4.942   3.568   5.197 -0.0605 -0.2132  0.7717
10835TIP3    H132438   4.877   3.539   5.134  0.8196  0.6614 -0.5799
10835TIP3    H232439   4.964   3.490   5.248 -1.4489 -0.7159  0.6103
10836TIP3   OH232440   0.776   5.784   1.606 -0.4718  0.0603  0.2203
10836TIP3    H132441   0.718   5.750   1.674 -0.4561  0.3947  0.4016
10836TIP3    H232442   0.864   5.765   1.637 -0.4250  1.4299  0.9398
10837TIP3   OH232443   7.791   4.852   6.416  0.1444 -0.5852  0.6526
10837TIP3    H132444   7.697   4.857   6.433  0.0688  0.7034 -0.0401
10837TIP3    H232445   7.798   4.799   6.337  0.0186 -0.8652  0.8276
10838TIP3   OH232446   2.424   5.685   1.122  0.0807  0.0904  0.1626
10838TIP3    H132447   2.484   5.625   1.166  0.1726  1.4463  1.9512
10838TIP3    H232448   2.359   5.629   1.080  1.7394 -1.3428 -0.5705
10839TIP3   OH232449   7.082   2.542   4.471 -0.3319 -0.2798  0.4762
10839TIP3    H132450   7.147   2.481   4.436  0.0021  1.7873 -2.7241
10839TIP3    H232451   7.014   2.544   4.404 -0.5954  2.4426  0.7973
10840TIP3   OH232452   6.491   2.325   1.369 -1.1223 -0.4701  0.1496
10840TIP3    H132453   6.462   2.335   1.460  0.5017  1.0121  0.5278
10840TIP3    H232454   6.586   2.330   1.374 -1.1099  1.9308 -1.8935
10841TIP3   OH232455   2.484   7.483   0.122  0.0052  0.1288 -0.3144
10841TIP3    H132456   2.564   7.496   0.174  1.1083 -1.1906 -1.6467
10841TIP3    H232457   2.433   7.563   0.137  0.9434  0.4126  1.6314
10842TIP3   OH232458   7.944   3.280   5.917 -0.3994 -0.1778  0.2530
10842TIP3    H132459   7.879   3.281   5.986 -0.5854 -1.2185  0.0959
10842TIP3    H232460   7.977   3.370   5.914  1.1712 -0.5961  3.1610
10843TIP3   OH232461   8.234   4.390   5.176 -0.1194 -0.4216  0.4989
10843TIP3    H132462   8.232   4.379   5.081  1.2898  0.5998  0.3331
10843TIP3    H232463   8.303   4.455   5.191  1.6451 -2.6689  2.4283
10844TIP3   OH232464   0.217   1.786   4.866  0.5154 -0.4590  0.0048
10844TIP3    H132465   0.212   1.803   4.772 -1.0456  2.6503  0.5981
10844TIP3    H232466   0.286   1.845   4.898 -0.3387 -0.0385  1.1008
10845TIP3   OH232467   1.927   6.707   0.852  0.0031  0.8498  0.4575
10845TIP3    H132468   1.997   6.647   0.878 -0.5780 -0.0289 -0.0065
10845TIP3    H232469   1.946   6.787   0.901 -1.4399 -0.9729  4.1869
10846TIP3   OH232470   7.279   3.173   5.538  0.3085 -0.7206 -0.4278
10846TIP3    H132471   7.322   3.258   5.548 -0.6595 -0.0273 -1.9573
10846TIP3    H232472   7.190   3.194   5.508  0.1288 -2.2775 -1.0598
10847TIP3   OH232473   0.710   4.305   3.655  0.3529 -0.2893  0.8501
10847TIP3    H132474   0.717   4.394   3.689 -0.4113  0.7047 -1.4832
10847TIP3    H232475   0.710   4.316   3.560  3.1322 -3.0127  0.4543
10848TIP3   OH232476   6.440   3.000   6.142 -0.5418 -0.1651 -0.4108
10848TIP3    H132477   6.425   2.929   6.204  0.0965 -0.8892 -1.0773
10848TIP3    H232478   6.363   3.057   6.152  0.4810  0.8103  2.4648
10849TIP3   OH232479   7.440   5.515   4.897 -0.0947  0.2415 -0.1932
10849TIP3    H132480   7.376   5.495   4.966 -1.2141  0.4652 -1.1420
10849TIP3    H232481   7.457   5.608   4.907 -0.9261  0.4660 -0.7440
10850TIP3   OH232482   3.382   6.131   0.704 -0.3168  0.3600  0.4693
10850TIP3    H132483   3.415   6.045   0.731 -1.3332  0.2453  1.4037
10850TIP3    H232484   3.391   6.186   0.782  1.8233  1.5765 -0.5794
10851TIP3   OH232485   7.227   0.613   4.254  0.5983  0.1634  0.4214
10851TIP3    H132486   7.168   0.608   4.329  1.3414 -0.8077  0.9624
10851TIP3    H232487   7.314   0.598   4.292  1.2676  2.2967 -0.2579
10852TIP3   OH232488   7.031   5.458   5.614  0.0386 -0.2979 -0.2460
10852TIP3    H132489   6.997   5.459   5.524 -0.8000 -0.7699  0.0570
10852TIP3    H232490   6.982   5.389   5.657  1.2132 -0.8097  0.2915
10853TIP3   OH232491   6.371   6.009   5.765  0.2642  0.3659 -0.5221
10853TIP3    H132492   6.367   6.068   5.690  0.9889  0.3843 -0.5468
10853TIP3    H232493   6.464   5.988   5.775  0.0543 -0.4487 -0.2585
10854TIP3   OH232494   0.425   3.213   4.867 -0.0792 -0.0123  0.2021
10854TIP3    H132495   0.402   3.239   4.956 -0.7018 -0.8382  0.2971
10854TIP3    H232496   0.511   3.172   4.875 -0.0548  0.0740  0.3926
10855TIP3   OH232497   0.847   0.752   5.351  0.4007  0.1747  0.6080
10855TIP3    H132498   0.813   0.831   5.308  0.2422  0.3036  0.9641
10855TIP3    H232499   0.799   0.748   5.434  0.4641 -0.2550  0.6254
10856TIP3   OH232500   7.916   4.185   4.854  0.2135  0.4768  0.3942
10856TIP3    H132501   7.858   4.114   4.879 -0.1969  1.7022  3.0830
10856TIP3    H232502   7.873   4.264   4.886  1.5389  1.7874 -0.9519
10857TIP3   OH232503   6.044   1.332   1.548  0.6057  0.2636 -0.1331
10857TIP3    H132504   6.107   1.273   1.591 -0.6191 -1.0365 -0.0917
10857TIP3    H232505   6.036   1.406   1.608  2.7901  0.8818 -0.5744
10858TIP3   OH232506   7.501   3.776   5.118 -0.4973  0.2901  0.1281
10858TIP3    H132507   7.507   3.808   5.028 -2.5454  0.9829  0.2127
10858TIP3    H232508   7.441   3.837   5.161  0.6367  0.0982  2.0362
10859TIP3   OH232509   8.135   3.875   6.783 -0.5756  0.6654  0.3334
10859TIP3    H132510   8.085   3.956   6.783  1.8659  2.2452 -1.2441
10859TIP3    H232511   8.154   3.859   6.691  0.3197 -0.8320  0.7586
10860TIP3   OH232512   7.002   4.592   5.172 -0.2750  0.2454  0.3705
10860TIP3    H132513   7.016   4.625   5.261  1.8855 -0.9327  0.5030
10860TIP3    H232514   7.079   4.538   5.154 -1.2503 -0.4848 -1.7860
10861TIP3   OH232515   6.144   1.087   1.323 -0.3105  0.0772 -0.9268
10861TIP3    H132516   6.194   1.147   1.379 -1.0164 -1.6779  1.6793
10861TIP3    H232517   6.143   1.130   1.237  3.9139  1.1590 -0.5896
10862TIP3   OH232518   6.914   6.719   4.272  0.2669  0.2859  0.1202
10862TIP3    H132519   6.973   6.778   4.224 -0.7136  0.7385 -0.5368
10862TIP3    H232520   6.871   6.775   4.336 -0.3934  0.2193 -0.2594
10863TIP3   OH232521   7.033   3.649   6.104  0.5361 -0.1882  0.2169
10863TIP3    H132522   7.066   3.712   6.168 -2.0882 -0.2257  1.6775
10863TIP3    H232523   7.065   3.564   6.135  0.2563 -0.0672  0.8613
10864TIP3   OH232524   8.282   4.145   6.392 -0.5227  0.2937  0.0406
10864TIP3    H132525   8.191   4.151   6.422 -0.4403 -0.8392  0.5140
10864TIP3    H232526   8.279   4.179   6.302 -1.5691 -0.4957 -0.2373
10865TIP3   OH232527   6.698   2.751   5.352  0.2932 -0.3427 -0.0389
10865TIP3    H132528   6.633   2.774   5.419  0.2727 -1.3424  0.2915
10865TIP3    H232529   6.703   2.656   5.355  1.6077 -0.2915 -0.2299
10866TIP3   OH232530   3.560   6.946   0.743  0.1907  0.0328  0.0348
10866TIP3    H132531   3.590   6.865   0.785  0.4289 -0.4064 -0.9569
10866TIP3    H232532   3.636   6.975   0.692  0.8537  2.0956  2.1286
10867TIP3   OH232533   7.946   2.868   5.736 -0.3406 -0.2123 -0.0388
10867TIP3    H132534   7.929   2.920   5.657 -0.5775 -0.6310 -0.2619
10867TIP3    H232535   7.930   2.778   5.710  0.4132 -0.4316  0.2592
10868TIP3   OH232536   6.398   7.771   5.309 -0.0730 -0.2065 -0.3434
10868TIP3    H132537   6.426   7.740   5.395  1.5865 -2.3282 -1.6149
10868TIP3    H232538   6.304   7.754   5.307  0.1629 -1.6354  0.4264
10869TIP3   OH232539   7.225   3.224   4.430 -0.2656  0.1585 -0.5487
10869TIP3    H132540   7.183   3.310   4.425 -0.7926  0.0221  1.0860
10869TIP3    H232541   7.153   3.161   4.425  0.2740 -0.3038 -3.8390
10870TIP3   OH232542   0.224   0.883   5.450 -0.2046 -0.4662  0.1742
10870TIP3    H132543   0.200   0.964   5.406 -1.6113 -0.8960  0.1347
10870TIP3    H232544   0.320   0.886   5.456 -0.3902  2.9081  3.3827
10871TIP3   OH232545   0.886   2.678   5.361 -0.4205  0.0587 -0.3137
10871TIP3    H132546   0.928   2.609   5.414 -0.9947 -0.0452  0.0168
10871TIP3    H232547   0.953   2.703   5.297  0.1147 -0.1611  0.1515
10872TIP3   OH232548   3.498   6.562   0.534  0.1644  0.0001 -0.0859
10872TIP3    H132549   3.408   6.530   0.525 -0.3105  1.1572  0.4083
10872TIP3    H232550   3.509   6.624   0.462 -0.0772  1.2839  0.9743
10873TIP3   OH232551   0.185   2.306   5.377 -0.1031  0.2407  0.4639
10873TIP3    H132552   0.091   2.312   5.362  0.4173  1.2025 -2.9164
10873TIP3    H232553   0.198   2.346   5.463 -2.7478  0.2731  0.8966
10874TIP3   OH232554   2.642   5.850   0.169  0.0907  0.4644  0.8767
10874TIP3    H132555   2.701   5.895   0.230  1.0356  0.3156  0.0856
10874TIP3    H232556   2.630   5.763   0.208  1.4045  0.0616  0.4166
10875TIP3   OH232557   8.203   4.161   5.402  0.8321 -0.0799  0.3417
10875TIP3    H132558   8.164   4.097   5.461 -3.6702  1.5041 -0.7514
10875TIP3    H232559   8.184   4.127   5.314  2.8418  0.2563 -0.2494
10876TIP3   OH232560   8.152   2.071   5.313 -0.0466  0.1224  0.4687
10876TIP3    H132561   8.069   2.029   5.338 -0.0382  0.3486  0.8972
10876TIP3    H232562   8.174   2.034   5.228  0.5445 -1.5941  1.3419
10877TIP3   OH232563   7.743   3.326   4.769 -0.1614 -0.0368 -0.1111
10877TIP3    H132564   7.790   3.244   4.780 -0.3248 -0.0070  0.8424
10877TIP3    H232565   7.662   3.314   4.819 -0.1446  0.7307  0.1040
10878TIP3   OH232566   7.889   3.684   5.050 -0.1563 -0.2437  0.2739
10878TIP3    H132567   7.823   3.648   5.110  0.7798 -1.8805  0.3208
10878TIP3    H232568   7.922   3.609   5.002  1.0233  0.7091 -0.4200
10879TIP3   OH232569   1.257   4.568   5.332  0.3905 -0.0539 -0.4073
10879TIP3    H132570   1.336   4.519   5.307  0.5466 -0.3600  0.6159
10879TIP3    H232571   1.185   4.517   5.296  0.5083 -1.5182  1.2944
10880TIP3   OH232572   7.993   4.353   5.318  0.4557 -0.3693  0.1498
10880TIP3    H132573   8.044   4.403   5.254  3.1882 -0.5482  2.0705
10880TIP3    H232574   8.050   4.279   5.340 -1.5178 -1.6729  0.9136
10881TIP3   OH232575   7.860   3.082   4.781  0.0017  0.0921 -0.5811
10881TIP3    H132576   7.854   2.993   4.814  1.6164  0.4647  0.8073
10881TIP3    H232577   7.948   3.087   4.742  0.9270  1.7580  1.5716
10882TIP3   OH232578   5.570   3.682   4.589  0.0906  0.2556  0.4377
10882TIP3    H132579   5.553   3.677   4.683  1.2050  0.4430  0.6605
10882TIP3    H232580   5.664   3.665   4.581  0.2312  1.4042 -0.5324
10883TIP3   OH232581   8.227   3.858   5.476  0.2770  0.0578  0.0940
10883TIP3    H132582   8.272   3.784   5.435  1.9565  0.1762  1.6983
10883TIP3    H232583   8.155   3.878   5.415 -0.2532 -2.9091 -0.3209
10884TIP3   OH232584   7.414   3.695   5.477 -0.5996 -0.2414  0.0379
10884TIP3    H132585   7.417   3.754   5.401  1.7560 -0.0658  0.2403
10884TIP3    H232586   7.422   3.753   5.552  0.7497 -0.7151  0.2747
10885TIP3   OH232587   8.485   2.271   5.988  0.2432  0.1572  0.5821
10885TIP3    H132588   8.562   2.226   5.953 -1.5077 -0.7084 -2.2645
10885TIP3    H232589   8.439   2.203   6.037 -1.2532 -0.6412 -1.8727
10886TIP3   OH232590   0.127   4.030   4.825  0.1812 -0.9952  0.5888
10886TIP3    H132591   0.051   4.045   4.768  0.1967  1.0048  1.0490
10886TIP3    H232592   0.092   4.040   4.914  0.6871 -1.4930  0.8435
10887TIP3   OH232593   7.978   6.069   6.782 -0.0315 -0.0416 -0.5677
10887TIP3    H132594   7.947   6.000   6.841 -0.5367  0.2510 -0.4888
10887TIP3    H232595   7.902   6.088   6.726  0.6532 -0.8388 -1.8063
10888TIP3   OH232596   6.875   4.646   5.952 -0.5622 -0.2788 -0.1039
10888TIP3    H132597   6.823   4.714   5.995 -1.4667 -0.1689 -1.3584
10888TIP3    H232598   6.912   4.689   5.875  1.4174 -0.3475  0.7738
10889TIP3   OH232599   0.758   3.899   6.203  0.1135  0.4823  0.3718
10889TIP3    H132600   0.761   3.821   6.149  0.5733 -0.2050  1.3709
10889TIP3    H232601   0.673   3.894   6.247 -0.3645  1.1660 -0.4659
10890TIP3   OH232602   7.408   3.401   4.194 -0.4851 -0.5099 -0.2688
10890TIP3    H132603   7.383   3.493   4.186 -1.1221 -0.7304 -0.9446
10890TIP3    H232604   7.428   3.389   4.286  1.2253  0.7021 -0.4672
10891TIP3   OH232605   5.958   3.288   3.179  0.2326 -0.6871 -0.4332
10891TIP3    H132606   5.930   3.314   3.091 -1.0778  1.4138  0.5507
10891TIP3    H232607   5.888   3.230   3.210  0.2066 -0.6368 -0.3981
10892TIP3   OH232608   7.451   1.041   6.283 -0.0206 -0.0698 -0.0433
10892TIP3    H132609   7.384   0.989   6.328 -0.9743  1.2597  0.1021
10892TIP3    H232610   7.479   0.985   6.210 -1.7493 -0.4014 -0.4856
10893TIP3   OH232611   7.067   5.126   5.547  0.0219  0.4134 -0.2852
10893TIP3    H132612   7.030   5.210   5.520 -0.8661 -0.2986 -1.3600
10893TIP3    H232613   6.991   5.072   5.569  0.4550 -0.7788 -1.6182
10894TIP3   OH232614   7.438   5.696   5.257  0.2641  0.0199 -0.3058
10894TIP3    H132615   7.441   5.717   5.164  0.4191  1.6269  0.0396
10894TIP3    H232616   7.517   5.735   5.293 -0.4139  0.4852  0.7047
10895TIP3   OH232617   0.064   2.167   4.746  0.1074  0.3113 -0.6193
10895TIP3    H132618   0.088   2.221   4.671  0.3928 -0.4613 -1.0945
10895TIP3    H232619   0.111   2.084   4.732  1.0176  0.5375  0.9672
10896TIP3   OH232620   0.497   4.337   4.357 -0.7795  0.2368 -0.2775
10896TIP3    H132621   0.470   4.291   4.437 -0.5292  1.6689  0.6483
10896TIP3    H232622   0.416   4.360   4.313 -0.9102 -0.9733 -0.6841
10897TIP3   OH232623   1.435   2.910   5.188  0.4571 -0.3252  0.1894
10897TIP3    H132624   1.501   2.842   5.171  1.1670 -0.0248  1.7349
10897TIP3    H232625   1.442   2.929   5.281  0.2234  1.8542 -0.2136
10898TIP3   OH232626   0.148   1.405   6.156 -0.1734 -0.2739  0.1809
10898TIP3    H132627   0.144   1.317   6.195 -0.0453 -0.5234 -0.3689
10898TIP3    H232628   0.194   1.393   6.073 -0.1497  0.3161  0.1045
10899TIP3   OH232629   6.693   3.440   5.630  0.0172 -0.1356 -0.3449
10899TIP3    H132630   6.691   3.475   5.541  2.3509 -0.4576 -0.5663
10899TIP3    H232631   6.783   3.457   5.660 -0.0247 -2.2039  1.0295
10900TIP3   OH232632   0.373   1.801   4.086  0.2793 -0.1236  0.2969
10900TIP3    H132633   0.402   1.710   4.078  0.4154  0.0766 -1.6200
10900TIP3    H232634   0.285   1.794   4.125  0.6116 -1.0208  0.9119
10901TIP3   OH232635   1.777   6.333   5.571 -0.7150  0.5989 -0.5515
10901TIP3    H132636   1.768   6.351   5.477  0.1322  1.1722 -0.5257
10901TIP3    H232637   1.844   6.394   5.601 -0.0106 -0.4944  0.1522
10902TIP3   OH232638   0.460   3.759   4.606 -0.0451 -0.2510  0.1898
10902TIP3    H132639   0.455   3.721   4.694 -1.5621  0.8962  0.6354
10902TIP3    H232640   0.370   3.754   4.573 -0.0742  2.0184 -0.1232
10903TIP3   OH232641   3.096   7.619   1.470 -0.6576  0.3980  0.6704
10903TIP3    H132642   3.045   7.660   1.400  1.5702 -0.6284 -1.6450
10903TIP3    H232643   3.061   7.530   1.476 -2.2283  1.1064  2.3246
10904TIP3   OH232644   7.837   3.391   4.363  0.6090  0.2800  0.0594
10904TIP3    H132645   7.871   3.327   4.301  1.0987  1.0783 -0.5009
10904TIP3    H232646   7.752   3.356   4.390  1.8127 -1.7095  1.4138
10905TIP3   OH232647   8.125   5.447   6.566  0.4934 -0.2262  0.4212
10905TIP3    H132648   8.124   5.366   6.516  0.7141  0.5564 -0.8617
10905TIP3    H232649   8.045   5.443   6.619 -0.3011 -0.5783 -0.7825
10906TIP3   OH232650   7.502   3.929   4.884 -0.1262 -0.3958  0.0892
10906TIP3    H132651   7.469   4.014   4.855 -0.7127 -0.6245  0.0801
10906TIP3    H232652   7.587   3.921   4.841 -0.3755 -0.1161 -0.4680
10907TIP3   OH232653   0.070   3.542   6.002 -0.3655  0.1040  0.4200
10907TIP3    H132654   0.050   3.448   5.998 -0.0191 -0.0081  1.1896
10907TIP3    H232655   0.161   3.545   6.029  0.0344  0.6498 -0.9654
10908TIP3   OH232656   5.907   1.021   2.875  0.4257  0.1230 -0.3467
10908TIP3    H132657   5.946   0.949   2.827  0.4688 -0.1684  0.1240
10908TIP3    H232658   5.866   1.076   2.807  0.8836 -0.0368 -0.7520
10909TIP3   OH232659   1.056   7.732   0.056  0.3358 -0.4570 -0.2400
10909TIP3    H132660   1.069   7.788  -0.021 -0.1723  1.1394  0.8086
10909TIP3    H232661   1.119   7.764   0.120 -0.0584 -0.9974  0.4242
10910TIP3   OH232662   7.237   0.149   5.167 -0.2641  0.4201 -0.0099
10910TIP3    H132663   7.306   0.191   5.115 -0.8050  0.7263 -0.4854
10910TIP3    H232664   7.284   0.097   5.232  0.4549 -1.6938 -2.1535
10911TIP3   OH232665   0.180   5.222   4.558 -0.2097  0.1574 -0.0539
10911TIP3    H132666   0.133   5.150   4.516 -1.4590  0.6596  0.4435
10911TIP3    H232667   0.132   5.300   4.530  0.5563  0.7069  0.1731
10912TIP3   OH232668   7.284   4.358   5.502 -0.0349 -0.0703 -0.6171
10912TIP3    H132669   7.250   4.443   5.475 -0.5095 -0.3554 -0.9168
10912TIP3    H232670   7.359   4.341   5.444 -1.7100 -1.1813 -2.5130
10913TIP3   OH232671   4.568   0.308   0.395 -0.3761  0.3700  0.0982
10913TIP3    H132672   4.500   0.334   0.457 -0.9051  0.6583 -0.5968
10913TIP3    H232673   4.649   0.344   0.431 -0.4558 -0.6860  1.3702
10914TIP3   OH232674   7.759   5.696   4.826  0.0411  0.9763 -0.1533
10914TIP3    H132675   7.714   5.769   4.867  0.1620  0.3357  1.1524
10914TIP3    H232676   7.829   5.674   4.886 -1.0645 -1.3359  0.3437
10915TIP3   OH232677   7.045   2.203   4.528 -0.4607  0.2086 -0.2033
10915TIP3    H132678   6.992   2.128   4.553  1.8274 -1.8200 -1.2979
10915TIP3    H232679   7.030   2.213   4.434 -0.2425  0.7322 -0.1847
10916TIP3   OH232680   6.869   3.064   3.149  0.4042  0.4594  0.3862
10916TIP3    H132681   6.930   2.992   3.165  1.7635  1.0555 -1.9565
10916TIP3    H232682   6.923   3.142   3.145 -0.3585  0.9231 -2.3301
10917TIP3   OH232683   6.366   3.500   6.493 -0.3457 -0.6320  0.1240
10917TIP3    H132684   6.323   3.501   6.407 -0.7114 -3.7678  0.2084
10917TIP3    H232685   6.450   3.458   6.477  0.0195 -0.2884  1.1237
10918TIP3   OH232686   3.470   6.915   1.277  0.3406  0.1603  0.2551
10918TIP3    H132687   3.382   6.910   1.241 -0.3829 -1.0634  2.1282
10918TIP3    H232688   3.527   6.897   1.203 -1.0297 -0.3043 -0.7048
10919TIP3   OH232689   0.276   2.729   6.679 -0.2680 -0.4693 -0.0489
10919TIP3    H132690   0.242   2.736   6.768 -0.0625  1.0249 -0.0859
10919TIP3    H232691   0.238   2.803   6.632  0.0292 -0.9557 -1.0728
10920TIP3   OH232692   3.717   5.688   0.215 -0.2404 -0.2009 -0.2861
10920TIP3    H132693   3.737   5.599   0.244  1.0710 -0.1245 -0.8950
10920TIP3    H232694   3.787   5.741   0.251 -0.6100  0.4695 -0.5433
10921TIP3   OH232695   8.483   3.649   3.885  0.2700  0.1561  1.0368
10921TIP3    H132696   8.424   3.704   3.936 -1.5535 -1.1451  0.3741
10921TIP3    H232697   8.465   3.672   3.794 -0.2761 -1.2869  0.7680
10922TIP3   OH232698   2.438   7.221   0.142  0.0941  0.0829  0.3561
10922TIP3    H132699   2.478   7.182   0.065  1.0351 -1.6972  1.7012
10922TIP3    H232700   2.439   7.315   0.125  1.5925 -0.1961 -1.1798
10923TIP3   OH232701   2.569   2.745   5.889  0.1089  0.5067  0.0067
10923TIP3    H132702   2.645   2.712   5.840  1.1616  1.3236  1.0428
10923TIP3    H232703   2.595   2.834   5.915 -0.3199  0.0142  2.2058
10924TIP3   OH232704   7.844   3.937   6.816  0.5349 -0.3752  0.1876
10924TIP3    H132705   7.841   3.878   6.741  0.2376 -0.4717  0.2782
10924TIP3    H232706   7.782   4.007   6.795  2.9692  1.4703 -1.2484
10925TIP3   OH232707   2.176   2.910   5.055  0.4762 -0.3359  0.7555
10925TIP3    H132708   2.263   2.908   5.095  0.8151  4.2257  0.5412
10925TIP3    H232709   2.193   2.930   4.963 -0.7773  0.5861  0.7191
10926TIP3   OH232710   8.494   2.968   4.842 -0.1181  0.0046 -0.1484
10926TIP3    H132711   8.499   3.063   4.833  0.3339  0.1429  1.3929
10926TIP3    H232712   8.421   2.954   4.903  0.6843 -0.5564  0.7030
10927TIP3   OH232713   4.729   0.739   0.245  0.2652  0.1401 -0.4024
10927TIP3    H132714   4.768   0.727   0.158  0.8918 -2.7686  0.2507
10927TIP3    H232715   4.803   0.744   0.305 -0.2334 -0.1165  0.2450
10928TIP3   OH232716   5.563   0.822   0.469  0.3204  0.4288  0.3583
10928TIP3    H132717   5.555   0.766   0.392 -0.2836  0.4758  0.3881
10928TIP3    H232718   5.651   0.859   0.462  0.2627  0.4426 -0.3216
10929TIP3   OH232719   2.384   5.911   6.526  0.3896  0.3343 -0.1417
10929TIP3    H132720   2.441   5.886   6.599 -1.4200 -0.7265  0.9438
10929TIP3    H232721   2.347   5.828   6.494 -1.8330  1.1265  0.2798
10930TIP3   OH232722   6.263   5.192   3.307 -0.0675  0.0232 -0.0640
10930TIP3    H132723   6.305   5.246   3.373  0.7303 -0.3265 -0.2793
10930TIP3    H232724   6.275   5.102   3.338  0.0023 -0.1228 -0.4991
10931TIP3   OH232725   7.926   2.587   6.152  0.3571  0.2685  0.0173
10931TIP3    H132726   7.889   2.666   6.114 -1.2976  0.0090  1.0527
10931TIP3    H232727   7.893   2.516   6.096  1.8825  0.2869 -0.9447
10932TIP3   OH232728   6.020   3.903   6.393  0.2396  0.2647 -0.4825
10932TIP3    H132729   6.065   3.987   6.387  0.2406  0.2019 -1.4110
10932TIP3    H232730   6.083   3.845   6.435 -0.5899  1.3055  2.3037
10933TIP3   OH232731   6.887   4.042   5.856 -0.3456  0.6614 -0.0968
10933TIP3    H132732   6.936   4.085   5.926  1.6456 -0.9067 -0.4740
10933TIP3    H232733   6.873   3.953   5.888 -1.7554  0.7057 -0.5826
10934TIP3   OH232734   0.660   2.635   5.535 -0.4286 -0.0882 -0.2517
10934TIP3    H132735   0.615   2.591   5.463 -0.6633 -0.5351  0.1643
10934TIP3    H232736   0.752   2.636   5.509 -0.7826  1.5848 -1.4946
10935TIP3   OH232737   0.718   1.071   3.849  0.1198 -0.0143  0.6059
10935TIP3    H132738   0.800   1.037   3.814  1.9402  1.2929  3.4791
10935TIP3    H232739   0.670   0.994   3.879  0.7711 -0.6762 -0.0532
10936TIP3   OH232740   8.303   3.288   4.936 -0.0632  0.0427  0.2765
10936TIP3    H132741   8.341   3.355   4.993  1.9884 -0.4329 -0.4790
10936TIP3    H232742   8.359   3.288   4.858 -1.7533 -0.5732 -0.9551
10937TIP3   OH232743   7.986   1.228   5.639  0.5196  0.0150 -0.2075
10937TIP3    H132744   7.893   1.232   5.616 -0.2660 -1.2448  2.5411
10937TIP3    H232745   8.015   1.144   5.605 -0.1405 -0.9587  1.5768
10938TIP3   OH232746   7.176   2.082   5.490  0.1226  0.4094 -0.5975
10938TIP3    H132747   7.176   2.014   5.557  0.9294  0.1449 -0.8592
10938TIP3    H232748   7.103   2.139   5.513 -1.9224 -1.7284 -1.5716
10939TIP3   OH232749   8.328   6.832   4.218  0.3898  0.4976  0.7824
10939TIP3    H132750   8.274   6.891   4.269  0.3165  0.1526  1.1053
10939TIP3    H232751   8.340   6.877   4.134 -0.7349  0.4025  0.5517
10940TIP3   OH232752   2.237   6.345   1.211  0.5094  0.1978 -0.6806
10940TIP3    H132753   2.146   6.350   1.183 -0.3677  0.0612  1.9515
10940TIP3    H232754   2.279   6.288   1.147 -0.9752  1.1888 -2.5754
10941TIP3   OH232755   7.535   4.578   5.713 -0.2542 -0.1399 -0.3758
10941TIP3    H132756   7.443   4.579   5.742 -0.2337  0.1898 -0.3196
10941TIP3    H232757   7.574   4.653   5.757  0.1591 -0.5593 -0.0233
10942TIP3   OH232758   1.472   3.091   5.998  0.3685 -0.2313 -0.8691
10942TIP3    H132759   1.416   3.118   6.072  2.3941  0.0832  0.5828
10942TIP3    H232760   1.498   3.002   6.020  2.8599  0.6770 -0.0282
10943TIP3   OH232761   2.598   7.858   0.912  0.2895 -0.0694 -0.8747
10943TIP3    H132762   2.578   7.836   0.821  2.5671 -0.2546 -1.3588
10943TIP3    H232763   2.678   7.910   0.908  0.1256  0.3842  0.9892
10944TIP3   OH232764   2.721   6.319   2.017 -0.1416  0.1547 -0.7770
10944TIP3    H132765   2.629   6.295   2.013 -0.4241  1.4953 -3.5967
10944TIP3    H232766   2.721   6.414   2.014  1.3102  0.2340  0.8823
10945TIP3   OH232767   7.126   1.117   0.279 -0.4359 -0.3157 -0.1679
10945TIP3    H132768   7.145   1.029   0.246 -0.9130 -0.1594 -0.8729
10945TIP3    H232769   7.060   1.104   0.347 -0.2485 -0.5377 -0.0306
10946TIP3   OH232770   5.840   7.207   0.120 -0.6727  0.8349  0.2829
10946TIP3    H132771   5.857   7.127   0.169  1.1122  0.3616 -1.0935
10946TIP3    H232772   5.927   7.242   0.100 -1.3193  0.4679 -3.4551
10947TIP3   OH232773   0.221   4.555   5.920  0.4495 -0.1767  0.4868
10947TIP3    H132774   0.214   4.548   5.824  1.3044 -0.4431  0.4375
10947TIP3    H232775   0.257   4.643   5.934 -3.1689  1.3381  0.7542
10948TIP3   OH232776   5.425   1.067   0.838  0.5615  0.5630  0.2358
10948TIP3    H132777   5.476   1.098   0.763  1.0982 -0.2808  0.2545
10948TIP3    H232778   5.367   1.000   0.802  1.5084 -0.5406  0.7505
10949TIP3   OH232779   4.365   0.093   0.551  0.6980  0.1864  0.4446
10949TIP3    H132780   4.297   0.149   0.588  1.2153  0.2623  1.2968
10949TIP3    H232781   4.379   0.128   0.463  1.0103  1.4052  0.9587
10950TIP3   OH232782   6.135   1.521   0.082 -0.7664  0.5055  0.4927
10950TIP3    H132783   6.216   1.569   0.066 -0.8208  0.4129 -0.0648
10950TIP3    H232784   6.146   1.484   0.170 -0.9791  2.0350  1.1780
10951TIP3   OH232785   5.443   1.223   0.057 -0.2965 -0.2452 -0.4508
10951TIP3    H132786   5.537   1.216   0.038  0.1412 -2.0835  2.0255
10951TIP3    H232787   5.415   1.303   0.013  2.4527  0.3593 -1.2121
10952TIP3   OH232788   0.335   0.098   0.732  0.1063 -0.0214 -0.4397
10952TIP3    H132789   0.256   0.046   0.722 -0.2311  0.3321  0.3190
10952TIP3    H232790   0.395   0.064   0.666  0.1442 -1.8175  0.5047
10953TIP3   OH232791   7.267   0.502   1.698 -0.0328  0.2589 -0.1075
10953TIP3    H132792   7.218   0.559   1.639  1.5320  1.3980 -0.3617
10953TIP3    H232793   7.270   0.550   1.781  0.2867  0.0144  0.0233
10954TIP3   OH232794   5.106   0.816   0.912  0.1111 -0.2840  0.9014
10954TIP3    H132795   5.017   0.840   0.887  0.3635 -1.3723 -1.1895
10954TIP3    H232796   5.098   0.773   0.997 -1.3731 -0.6006  0.6003
10955TIP3   OH232797   2.860   5.850   1.918  0.2718 -0.0418  0.7934
10955TIP3    H132798   2.803   5.801   1.859  1.9640  1.2019 -1.9893
10955TIP3    H232799   2.842   5.942   1.897  2.2772  0.3853  0.8530
10956TIP3   OH232800   8.242   1.719   1.174  0.2493 -0.3179 -0.0473
10956TIP3    H132801   8.206   1.772   1.104  0.0170 -0.0517  0.2697
10956TIP3    H232802   8.328   1.758   1.192  0.1189 -0.1036  0.1232
10957TIP3   OH232803   0.412   4.791   5.938  0.6802  0.0224  0.0166
10957TIP3    H132804   0.467   4.799   6.016 -0.4958  0.0276  0.8588
10957TIP3    H232805   0.470   4.754   5.871  1.1988 -1.7754  1.4238
10958TIP3   OH232806   7.974   4.972   5.262  0.3724 -0.3663  0.6479
10958TIP3    H132807   7.923   5.048   5.291  0.2014 -0.8439  1.5953
10958TIP3    H232808   7.950   4.961   5.170 -0.7093 -0.1753  0.9097
10959TIP3   OH232809   7.858   5.472   5.811 -0.3326  0.3364  0.0082
10959TIP3    H132810   7.844   5.380   5.787 -0.3759  0.2707  0.2817
10959TIP3    H232811   7.810   5.482   5.893 -1.2100  0.8815 -0.5680
10960TIP3   OH232812   2.072   4.709   6.632  0.0158  0.3904 -0.0038
10960TIP3    H132813   2.099   4.788   6.680  0.1121 -0.1845  0.8913
10960TIP3    H232814   2.066   4.738   6.541  1.5291  1.0691  0.0926
10961TIP3   OH232815   6.319   4.729   6.493  0.5824 -0.0436 -0.1344
10961TIP3    H132816   6.397   4.733   6.437  0.7981 -4.2213 -0.3145
10961TIP3    H232817   6.248   4.711   6.431  0.2826 -1.1666  0.5243
10962TIP3   OH232818   8.500   4.467   5.432  1.0475  0.4242 -0.0659
10962TIP3    H132819   8.501   4.372   5.444  1.2024  0.2254 -1.5652
10962TIP3    H232820   8.408   4.491   5.440  0.7314 -0.1493 -1.8276
10963TIP3   OH232821   6.249   1.152   1.636 -0.3066 -0.0400 -0.1678
10963TIP3    H132822   6.243   1.067   1.681  0.0225 -1.3118 -2.4252
10963TIP3    H232823   6.341   1.177   1.644 -0.6122  0.6205  1.3849
10964TIP3   OH232824   4.789   3.737   6.097  0.6494 -0.0460 -0.2870
10964TIP3    H132825   4.735   3.660   6.112  0.6027  0.3437  1.5792
10964TIP3    H232826   4.728   3.811   6.102  1.3042  0.3765  1.5780
10965TIP3   OH232827   7.885   3.248   6.686 -0.7198  0.2014  0.1337
10965TIP3    H132828   7.795   3.280   6.696 -0.0832  1.4798  2.1467
10965TIP3    H232829   7.939   3.317   6.724  0.9509 -1.6735  1.2623
10966TIP3   OH232830   7.679   1.849   2.797 -0.0552  0.8025  0.1828
10966TIP3    H132831   7.747   1.914   2.817  0.5495 -0.1751  1.3860
10966TIP3    H232832   7.704   1.773   2.849  0.1281 -0.9503 -2.3992
10967TIP3   OH232833   4.387   7.406   0.570 -0.1483  0.2022  0.1617
10967TIP3    H132834   4.451   7.476   0.559  0.5875 -0.2533  1.4462
10967TIP3    H232835   4.423   7.352   0.640 -0.4484 -1.7487 -1.1648
10968TIP3   OH232836   3.020   6.403   0.179  0.0059  0.1663  0.2745
10968TIP3    H132837   3.074   6.449   0.244 -1.0842 -0.2096  1.4636
10968TIP3    H232838   3.010   6.315   0.214  0.5941 -0.4733 -1.1277
10969TIP3   OH232839   7.856   4.849   5.488 -0.3810  0.0509 -0.3426
10969TIP3    H132840   7.902   4.865   5.405 -1.4237  0.1008 -0.9150
10969TIP3    H232841   7.765   4.872   5.470 -0.6746 -0.2525  0.7296
10970TIP3   OH232842   8.400   5.913   6.008 -0.0002  0.1483  0.0656
10970TIP3    H132843   8.383   5.991   6.060 -1.3220 -0.6396  0.8221
10970TIP3    H232844   8.321   5.860   6.017  0.5645 -0.9101 -1.1029
10971TIP3   OH232845   2.792   4.448   6.233 -0.6914 -0.8132  0.3079
10971TIP3    H132846   2.760   4.537   6.251  0.3904 -0.4048  0.2411
10971TIP3    H232847   2.819   4.415   6.318 -0.4544 -0.8284  0.2250
10972TIP3   OH232848   5.455   7.217   0.730  0.0479 -0.6185  0.4708
10972TIP3    H132849   5.435   7.139   0.781  0.5778 -0.8126  0.3932
10972TIP3    H232850   5.399   7.211   0.653  0.0207 -0.8794  0.5112
10973TIP3   OH232851   7.342   0.472   0.373  0.0392 -0.3378  0.6493
10973TIP3    H132852   7.257   0.501   0.407  0.4912  1.4632  0.2678
10973TIP3    H232853   7.321   0.425   0.292 -0.7780 -1.9939  1.7867
10974TIP3   OH232854   7.149   0.857   2.443  0.0656 -0.4549  0.0743
10974TIP3    H132855   7.178   0.833   2.354 -1.8204 -0.7961 -0.4775
10974TIP3    H232856   7.144   0.773   2.489  0.9904 -0.2823  0.4893
10975TIP3   OH232857   0.369   5.264   6.608 -0.0480 -0.0079 -0.0402
10975TIP3    H132858   0.278   5.267   6.581 -0.2973 -0.2660  0.7704
10975TIP3    H232859   0.367   5.228   6.696  0.7687  0.6975  0.2757
10976TIP3   OH232860   7.249   2.770   6.066  0.0996  0.0858 -0.2128
10976TIP3    H132861   7.204   2.693   6.099 -0.7183 -0.4712 -2.6072
10976TIP3    H232862   7.179   2.832   6.044  0.6642  0.6378 -0.4865
10977TIP3   OH232863   5.245   0.106   0.770  0.2516  0.4809  0.2558
10977TIP3    H132864   5.324   0.154   0.793  0.2687  0.0554  1.1164
10977TIP3    H232865   5.259   0.018   0.804 -0.9495  0.6396  1.2129
10978TIP3   OH232866   8.068   3.430   6.783 -0.0722 -0.3701 -0.5690
10978TIP3    H132867   8.127   3.404   6.854 -0.8297 -2.0083 -0.5024
10978TIP3    H232868   8.026   3.509   6.814  2.0095  0.7763 -0.5738
10979TIP3   OH232869   1.936   6.400   6.353 -0.5865 -0.6122  0.1079
10979TIP3    H132870   1.981   6.355   6.425  0.0007  2.2841  1.6410
10979TIP3    H232871   1.985   6.376   6.275  1.2776 -0.5409  1.2408
10980TIP3   OH232872   0.568   3.743   5.637 -0.2197 -0.4751 -0.2974
10980TIP3    H132873   0.505   3.716   5.570  0.3623  0.8436 -1.3969
10980TIP3    H232874   0.530   3.822   5.675 -0.0621 -0.6567  0.2425
10981TIP3   OH232875   3.543   1.692   0.436  0.3523  0.0191 -0.1138
10981TIP3    H132876   3.639   1.695   0.439  0.4450 -0.9419 -1.6053
10981TIP3    H232877   3.516   1.702   0.528  1.8902 -0.1279  0.3761
10982TIP3   OH232878   4.816   1.347   0.056  0.3691  0.2471  0.1108
10982TIP3    H132879   4.891   1.298   0.090 -0.6818 -0.8550  0.8868
10982TIP3    H232880   4.775   1.386   0.133 -0.9757 -0.7618 -0.0831
10983TIP3   OH232881   0.794   4.484   5.636 -0.2598  0.0658 -0.1539
10983TIP3    H132882   0.833   4.432   5.567 -0.9332 -1.8804  0.9002
10983TIP3    H232883   0.862   4.547   5.661  0.1409  0.5041 -2.2372
10984TIP3   OH232884   0.453   3.925   4.359  0.0276  0.0814 -0.4429
10984TIP3    H132885   0.480   3.855   4.299  0.9572  0.1637 -0.1276
10984TIP3    H232886   0.471   3.890   4.446 -2.3488 -0.4814 -0.1299
10985TIP3   OH232887   8.496   4.021   6.251 -0.3546  0.1005 -0.3475
10985TIP3    H132888   8.574   4.031   6.306 -1.0373 -0.2817  0.6957
10985TIP3    H232889   8.429   4.074   6.294 -0.7339  0.2756 -1.1404
10986TIP3   OH232890   5.333   6.979   0.815  0.3029  0.0648  0.3245
10986TIP3    H132891   5.289   6.915   0.871  1.0280 -0.3423  0.4204
10986TIP3    H232892   5.261   7.025   0.772 -0.2168 -1.0428 -0.0133
10987TIP3   OH232893   7.032   1.810   0.054  0.0044 -0.5093  0.4523
10987TIP3    H132894   7.008   1.761   0.132 -1.9047  0.3578  0.4263
10987TIP3    H232895   7.004   1.899   0.071 -2.5313 -0.7521 -2.1096
10988TIP3   OH232896   6.814   1.038   1.042 -0.1367 -0.1196  0.1998
10988TIP3    H132897   6.794   0.960   0.990 -1.1231 -0.2174  0.6966
10988TIP3    H232898   6.728   1.078   1.058  0.2567  0.4580  0.8900
10989TIP3   OH232899   6.421   0.397   0.833  0.1801 -0.4424 -0.3292
10989TIP3    H132900   6.465   0.342   0.898  0.4501  0.1703  0.0120
10989TIP3    H232901   6.343   0.347   0.809  1.1248 -1.5927 -1.0354
10990TIP3   OH232902   6.867   4.623   6.360  0.2006  0.4388  0.2860
10990TIP3    H132903   6.887   4.687   6.291  0.8860  0.8013  0.8151
10990TIP3    H232904   6.891   4.667   6.441  0.4241 -0.3896  0.6749
10991TIP3   OH232905   1.407   4.161   6.399  0.7014  0.3041  0.5008
10991TIP3    H132906   1.376   4.172   6.309 -3.1978  1.5042  1.8836
10991TIP3    H232907   1.464   4.236   6.414 -0.1116  1.1167 -0.4121
10992TIP3   OH232908   7.177   2.110   6.507 -0.5621 -0.1229  0.3033
10992TIP3    H132909   7.271   2.130   6.498 -0.6918 -0.1940 -1.4143
10992TIP3    H232910   7.175   2.017   6.527 -0.2500 -0.0711  0.5829
10993TIP3   OH232911   6.114   1.175   0.781 -0.2820  0.0492 -0.5589
10993TIP3    H132912   6.162   1.242   0.829  1.9351 -1.8511 -0.0393
10993TIP3    H232913   6.029   1.171   0.824  0.5626  0.5640  1.2247
10994TIP3   OH232914   0.081   1.380   0.320 -0.7604 -0.2785 -0.0405
10994TIP3    H132915   0.090   1.473   0.302 -1.8411 -0.0018  0.7965
10994TIP3    H232916   0.066   1.375   0.415  2.2480 -1.5056  0.4211
10995TIP3   OH232917   0.647   4.219   6.429  0.6496 -0.1781  0.2349
10995TIP3    H132918   0.701   4.285   6.472 -1.0284  0.7666  0.9557
10995TIP3    H232919   0.557   4.246   6.448 -0.1259 -0.4561 -2.7479
10996TIP3   OH232920   1.484   2.255   5.364  0.2109  0.0459  0.5656
10996TIP3    H132921   1.544   2.191   5.403 -0.7896 -1.7806 -0.8006
10996TIP3    H232922   1.521   2.272   5.278 -0.7149 -0.3876  0.0741
10997TIP3   OH232923   7.740   0.068   0.598  0.4691  0.1785  0.1697
10997TIP3    H132924   7.661   0.107   0.634  0.6456 -0.2209  0.9945
10997TIP3    H232925   7.755   0.115   0.516 -0.5664  0.3163  0.0603
10998TIP3   OH232926   4.916   1.417   0.810 -0.2625 -0.1045  0.4946
10998TIP3    H132927   4.956   1.461   0.735 -0.5600 -0.2504  0.2488
10998TIP3    H232928   4.937   1.473   0.885 -0.6356  0.4523  0.1850
10999TIP3   OH232929   7.863   2.197   4.600  0.3113  0.5951 -0.0000
10999TIP3    H132930   7.874   2.156   4.686  1.5451 -0.4971 -0.6436
10999TIP3    H232931   7.860   2.291   4.618  0.4985  0.3727  1.2494
11000TIP3   OH232932   2.250   7.596   0.783  0.0135 -0.4607 -0.1363
11000TIP3    H132933   2.327   7.540   0.783 -0.4787 -1.1671 -1.9940
11000TIP3    H232934   2.176   7.535   0.790 -0.4098  0.1970  1.4622
11001TIP3   OH232935   8.065   2.870   6.873  0.5670 -0.2709  0.0300
11001TIP3    H132936   8.092   2.959   6.852 -0.3846 -0.2327 -1.0456
11001TIP3    H232937   7.986   2.880   6.925  0.2398 -0.4912 -0.4207
11002TIP3   OH232938   7.133   0.788   1.287 -0.3604 -0.0951  0.1034
11002TIP3    H132939   7.225   0.815   1.290 -0.7546  1.5249 -1.4344
11002TIP3    H232940   7.127   0.736   1.207 -0.8861  0.2042 -0.0509
11003TIP3   OH232941   2.669   5.863   1.042 -0.1018 -0.0676  0.2258
11003TIP3    H132942   2.678   5.821   0.957 -0.9688  1.8989 -0.8808
11003TIP3    H232943   2.611   5.806   1.092 -1.0561 -0.3295 -1.1475
11004TIP3   OH232944   3.041   6.615  -0.000 -0.2761 -0.2663  0.3170
11004TIP3    H132945   3.047   6.546   0.066 -1.5552 -0.8414 -0.1389
11004TIP3    H232946   2.948   6.618  -0.022  0.0001  0.5776 -0.7641
11005TIP3   OH232947   5.716   0.448   1.224  0.0806  0.1234  0.2465
11005TIP3    H132948   5.787   0.513   1.223  0.9424 -0.7905  1.0426
11005TIP3    H232949   5.701   0.431   1.317 -0.1834 -0.7748  0.0378
11006TIP3   OH232950   5.421   5.046   1.055  0.0160 -0.1835  0.4217
11006TIP3    H132951   5.411   5.127   1.005 -2.0452 -1.3322 -1.1636
11006TIP3    H232952   5.336   5.034   1.098 -0.1427 -2.1199 -0.3774
11007TIP3   OH232953   1.228   3.863   6.120 -0.3407  0.0398 -0.2283
11007TIP3    H132954   1.212   3.902   6.206  0.5991  0.7031 -0.3364
11007TIP3    H232955   1.236   3.770   6.137 -2.4667 -0.1033  0.0626
11008TIP3   OH232956   5.440   6.932   0.112  0.4608 -0.4241  0.3238
11008TIP3    H132957   5.391   6.850   0.122 -3.1313  1.8485  2.5179
11008TIP3    H232958   5.445   6.945   0.018 -1.0417 -1.9866 -0.0127
11009TIP3   OH232959   0.764   3.242   5.491 -0.3816 -0.3966 -0.3153
11009TIP3    H132960   0.839   3.210   5.541 -0.7043  0.5602  0.8037
11009TIP3    H232961   0.755   3.180   5.419  2.5870  0.4765 -1.5110
11010TIP3   OH232962   3.352   7.535   0.406 -0.6085  0.1754  0.1045
11010TIP3    H132963   3.419   7.562   0.343 -0.0530  1.0641  1.0536
11010TIP3    H232964   3.269   7.552   0.362 -0.2851  3.6834  0.7615
11011TIP3   OH232965   5.538   0.911   1.289 -0.3527 -0.0892  0.2392
11011TIP3    H132966   5.469   0.944   1.347  1.5640  0.4477  2.2856
11011TIP3    H232967   5.594   0.859   1.346  2.0587  1.1178 -0.9483
11012TIP3   OH232968   7.119   1.417   1.829 -0.4190 -0.2260 -0.3550
11012TIP3    H132969   7.041   1.390   1.877  0.0789 -0.9026  0.0733
11012TIP3    H232970   7.101   1.508   1.804 -1.7058 -0.6456 -1.0121
11013TIP3   OH232971   6.053   0.972   2.417 -0.0819 -0.0379  0.0903
11013TIP3    H132972   5.965   0.938   2.403 -0.9535  1.4345  1.7163
11013TIP3    H232973   6.089   0.984   2.329 -1.7504 -0.0538 -0.6100
11014TIP3   OH232974   0.761   4.161   6.173  0.2139  0.0823  0.3412
11014TIP3    H132975   0.784   4.072   6.200 -0.5194 -0.0131  0.6659
11014TIP3    H232976   0.715   4.198   6.248  0.5335  0.7438  0.2132
11015TIP3   OH232977   6.392   4.562   5.592  0.4761 -0.3984  0.2574
11015TIP3    H132978   6.467   4.611   5.626 -0.2236  0.5329  0.4865
11015TIP3    H232979   6.316   4.609   5.625 -0.2303  0.3748 -2.3588
11016TIP3   OH232980   2.644   2.889   6.754  0.0407 -0.0490 -0.2654
11016TIP3    H132981   2.609   2.974   6.728  0.2401 -0.2103 -1.0771
11016TIP3    H232982   2.607   2.827   6.691 -1.1273 -0.7701  1.0900
11017TIP3   OH232983   7.344   1.257   1.173  0.3095 -0.1421  0.0152
11017TIP3    H132984   7.294   1.255   1.254 -1.2615 -3.4245 -0.9453
11017TIP3    H232985   7.409   1.188   1.183  0.0976 -0.5856 -1.4888
11018TIP3   OH232986   1.723   5.597   6.252 -0.1501  0.4014  0.5751
11018TIP3    H132987   1.656   5.614   6.318 -2.1053 -1.4766 -0.8801
11018TIP3    H232988   1.727   5.678   6.201 -3.0178 -0.2363 -0.7616
11019TIP3   OH232989   3.075   2.368   6.400  0.0886 -0.2766  0.6281
11019TIP3    H132990   3.066   2.275   6.379 -0.1444  0.0874 -0.9448
11019TIP3    H232991   3.003   2.386   6.459 -0.8049 -0.7593 -0.2909
11020TIP3   OH232992   6.181   0.765   2.512  0.4438 -0.1403  0.5187
11020TIP3    H132993   6.216   0.744   2.426  1.2429 -0.3925  0.8998
11020TIP3    H232994   6.131   0.845   2.499  0.6002 -0.1558 -0.1730
11021TIP3   OH232995   0.908   2.821   6.329 -0.0540 -0.1993 -0.4804
11021TIP3    H132996   0.894   2.863   6.414 -0.5521 -0.4418 -0.4397
11021TIP3    H232997   0.867   2.735   6.338 -0.1718 -0.1980 -0.9878
11022TIP3   OH232998   8.060   2.856   5.044  0.0304  0.5849  0.1618
11022TIP3    H132999   8.094   2.809   5.120  0.7847 -0.3353 -0.7259
11022TIP3    H233000   8.132   2.914   5.018  0.4198 -0.3609 -0.8872
11023TIP3   OH233001   6.413   1.963   0.126  0.3031 -0.6269  0.0410
11023TIP3    H133002   6.362   1.968   0.044 -0.6519  0.4937  0.6815
11023TIP3    H233003   6.380   1.885   0.170 -0.3949 -0.2778  0.1421
11024TIP3   OH233004   7.870   0.423   0.240  0.0404  0.4094 -0.1958
11024TIP3    H133005   7.774   0.423   0.245  0.0697 -0.4335  0.2971
11024TIP3    H233006   7.899   0.417   0.331  0.5784  3.5379 -0.1078
11025TIP3   OH233007   7.054   2.026   0.658 -0.8958 -0.8715  0.0280
11025TIP3    H133008   7.013   1.962   0.599 -1.1372 -1.1166  0.4564
11025TIP3    H233009   7.114   2.075   0.602 -3.2344  0.8345 -1.0424
11026TIP3   OH233010   6.972   2.062   0.180 -0.1055  0.3172  0.4694
11026TIP3    H133011   6.888   2.050   0.135 -0.9351 -2.0534  2.5155
11026TIP3    H233012   7.012   2.137   0.136 -2.1294 -0.1088 -2.2800
11027TIP3   OH233013   0.638   4.893   6.060  0.1965 -0.0165  0.3213
11027TIP3    H133014   0.721   4.847   6.067 -0.0648 -0.6680 -0.7701
11027TIP3    H233015   0.623   4.930   6.147  1.3941 -0.2930  0.6442
11028TIP3   OH233016   7.647   0.465   0.570  0.3676 -0.5022  0.2001
11028TIP3    H133017   7.668   0.406   0.498 -0.2645  0.9007 -1.1693
11028TIP3    H233018   7.577   0.420   0.618  0.9019 -1.5140  0.0412
11029TIP3   OH233019   1.404   4.711   6.321 -0.3627  0.9409 -0.5117
11029TIP3    H133020   1.445   4.671   6.244 -3.0321  0.2549 -1.6264
11029TIP3    H233021   1.362   4.790   6.287 -1.8082  0.4767  0.1898
11030TIP3   OH233022   3.207   6.940   1.014  0.1141  0.5147  0.3231
11030TIP3    H133023   3.131   6.883   0.999 -0.6654  1.2453  1.3437
11030TIP3    H233024   3.213   6.993   0.935 -1.8401  2.0037  1.1373
11031TIP3   OH233025   6.652   4.269   5.733  0.1988 -0.4740 -0.1147
11031TIP3    H133026   6.632   4.333   5.801  0.1859  1.6078 -2.0079
11031TIP3    H233027   6.745   4.249   5.745  0.0920 -0.4447  0.7757
11032TIP3   OH233028   7.548   4.897   5.432 -0.1601 -0.4374  0.3554
11032TIP3    H133029   7.523   4.980   5.472  0.5837 -0.1977  0.3298
11032TIP3    H233030   7.479   4.880   5.367  0.3501  0.7877 -0.5237
11033TIP3   OH233031   5.766   0.050   0.623 -0.3065  0.4724 -0.1284
11033TIP3    H133032   5.793   0.018   0.709  0.5546 -0.3778 -0.7001
11033TIP3    H233033   5.785   0.144   0.625  1.1511  0.1874  0.0805
11034TIP3   OH233034   7.894   4.686   6.624  0.1952  0.6319  0.2603
11034TIP3    H133035   7.855   4.749   6.563  0.2013 -0.5486 -0.9738
11034TIP3    H233036   7.820   4.652   6.674 -0.1327 -0.1955 -0.7722
11035TIP3   OH233037   1.353   5.727   5.350  0.1045 -0.4400 -0.0700
11035TIP3    H133038   1.380   5.638   5.371 -0.0647 -0.1759  1.2856
11035TIP3    H233039   1.352   5.729   5.254  1.7122 -1.4074 -0.1391
11036TIP3   OH233040   0.876   4.758   6.061  0.4461  0.2375 -0.2733
11036TIP3    H133041   0.951   4.758   6.120  0.6062  0.1822 -0.4785
11036TIP3    H233042   0.914   4.755   5.974  0.1968 -0.2891 -0.3664
11037TIP3   OH233043   0.697   5.974   6.491  0.0554 -0.5471  0.2966
11037TIP3    H133044   0.690   5.998   6.399 -0.3843 -1.5593  0.0555
11037TIP3    H233045   0.614   6.003   6.530 -0.1761 -0.9965  0.1533
11038TIP3   OH233046   2.744   6.546   6.226 -0.0102  0.3206  0.4771
11038TIP3    H133047   2.724   6.636   6.250 -1.0270 -0.3412  2.1799
11038TIP3    H233048   2.839   6.543   6.220 -0.0035  1.6737 -0.3399
11039TIP3   OH233049   3.945   7.829   2.536  0.1446  0.2230 -0.0760
11039TIP3    H133050   3.886   7.880   2.591  0.4625 -0.1415  0.6140
11039TIP3    H233051   3.888   7.788   2.471 -0.8420 -2.6841  2.4754
11040TIP3   OH233052   8.460   3.778   6.575  0.9793 -0.2027 -0.1888
11040TIP3    H133053   8.550   3.809   6.567  0.4234  2.1496  2.2250
11040TIP3    H233054   8.410   3.855   6.603 -1.5708 -1.7570 -0.3422
11041TIP3   OH233055   7.795   5.159   6.174  0.0406 -0.1591  0.0473
11041TIP3    H133056   7.731   5.153   6.103  0.9121  1.5943 -0.9173
11041TIP3    H233057   7.855   5.085   6.158  0.3479  0.3468 -1.1672
11042TIP3   OH233058   7.030   4.027   6.490  0.2942  0.2578  0.1296
11042TIP3    H133059   7.022   3.956   6.427  1.3033  0.7054 -0.5146
11042TIP3    H233060   7.071   4.098   6.441 -1.1023  1.4468  0.6399
11043TIP3   OH233061   3.930   6.266   1.476 -0.0547  0.4034  0.0395
11043TIP3    H133062   3.939   6.269   1.380  0.6986 -0.8717  0.0631
11043TIP3    H233063   3.840   6.237   1.490 -0.4965  1.5649 -0.2575
11044TIP3   OH233064   2.125   7.982   1.122 -0.1147 -0.1705 -0.0182
11044TIP3    H133065   2.184   7.952   1.053 -0.6027  0.0831 -0.5544
11044TIP3    H233066   2.099   7.902   1.168  0.7479 -0.2686  0.3103
11045TIP3   OH233067   1.642   4.841   5.804 -0.7954  0.2218 -0.0083
11045TIP3    H133068   1.581   4.907   5.837  0.9396  1.4833  0.7855
11045TIP3    H233069   1.668   4.791   5.881 -0.3135  0.1569 -0.2074
11046TIP3   OH233070   2.591   7.697   0.345 -0.7704  0.0369 -0.3133
11046TIP3    H133071   2.682   7.699   0.374 -0.7579  2.4185 -0.4538
11046TIP3    H233072   2.586   7.760   0.274 -2.5890  0.1018 -0.1708
11047TIP3   OH233073   2.026   5.861   1.816 -0.2938 -0.6909  0.2542
11047TIP3    H133074   1.973   5.905   1.749  0.5897 -1.5748 -1.0622
11047TIP3    H233075   1.973   5.864   1.895 -2.1916 -1.2846 -0.9569
11048TIP3   OH233076   1.019   2.211   5.638 -0.3911 -0.1263 -0.2608
11048TIP3    H133077   0.984   2.151   5.704 -0.6768 -1.2596 -1.4177
11048TIP3    H233078   1.036   2.292   5.686  1.0920 -1.4748  1.5923
11049TIP3   OH233079   4.911   1.058  -0.005 -0.1438  0.3501 -0.5455
11049TIP3    H133080   4.907   0.971   0.036  0.4875 -0.3812 -2.0109
11049TIP3    H233081   5.003   1.082   0.000 -0.4056  1.1831  0.3425
11050TIP3   OH233082   2.698   6.010   0.436 -0.7924  0.1311  0.5856
11050TIP3    H133083   2.722   6.099   0.413 -0.4457  0.6134  2.7180
11050TIP3    H233084   2.604   6.013   0.452 -1.0879 -0.2710 -1.0687
11051TIP3   OH233085   8.067   0.547   2.064 -0.4517  0.7469 -0.1288
11051TIP3    H133086   7.986   0.507   2.032 -0.5427  0.6642  0.1992
11051TIP3    H233087   8.039   0.631   2.100 -0.3701  0.7787 -0.1408
11052TIP3   OH233088   3.072   4.449   6.674 -0.0488 -0.1507  0.4190
11052TIP3    H133089   3.156   4.464   6.631  0.2978 -2.8371  0.0925
11052TIP3    H233090   3.053   4.531   6.719  1.8143  1.1338 -1.0661
11053TIP3   OH233091   1.464   3.673   6.208 -0.1472 -0.3415  0.4589
11053TIP3    H133092   1.440   3.730   6.281 -3.7052 -0.2566 -0.6742
11053TIP3    H233093   1.502   3.732   6.142 -0.3413  0.1347  0.7759
11054TIP3   OH233094   8.338   5.249   5.729 -0.5167 -1.1121 -0.7258
11054TIP3    H133095   8.329   5.173   5.786 -2.3014 -0.7444 -0.4809
11054TIP3    H233096   8.410   5.299   5.767 -0.1270 -2.0677 -0.1913
11055TIP3   OH233097   0.397   3.812   5.952  0.4342 -0.2070 -0.1177
11055TIP3    H133098   0.407   3.881   6.018  1.6915  0.1380 -0.6556
11055TIP3    H233099   0.307   3.782   5.963  0.5910 -0.0948  1.7093
11056TIP3   OH233100   1.870   3.608   6.823 -0.7018  0.0223  0.1886
11056TIP3    H133101   1.949   3.659   6.842  0.4144 -0.8046 -2.1144
11056TIP3    H233102   1.800   3.674   6.822  0.2340  1.0485  0.3446
11057TIP3   OH233103   2.233   5.065   5.889  0.2868 -0.3331  0.1672
11057TIP3    H133104   2.158   5.005   5.888 -0.7723  0.9289 -4.1142
11057TIP3    H233105   2.198   5.146   5.926 -0.7440  0.4717 -2.4398
11058TIP3   OH233106   2.139   5.090   4.745 -0.0323 -0.7579 -0.4409
11058TIP3    H133107   2.135   5.146   4.822 -0.7489  0.7674 -1.5571
11058TIP3    H233108   2.113   5.147   4.672  2.3629 -1.6623 -2.0889
11059TIP3   OH233109   7.184   1.720   1.529  0.2895 -0.0836 -0.2001
11059TIP3    H133110   7.229   1.643   1.563  1.3282  0.6405  0.0851
11059TIP3    H233111   7.188   1.784   1.600 -0.2496  0.3558 -0.5574
11060TIP3   OH233112   0.547   0.173   0.263 -0.6832 -0.2935 -0.6582
11060TIP3    H133113   0.618   0.116   0.234  0.8749  1.4695 -0.3863
11060TIP3    H233114   0.506   0.204   0.183  0.2240  0.3706 -0.8674
11061TIP3   OH233115   4.477   7.612   0.864  0.2651 -0.6968 -0.6369
11061TIP3    H133116   4.494   7.523   0.833 -1.4772 -1.3165  0.1392
11061TIP3    H233117   4.503   7.669   0.791  0.0640 -1.9159 -1.6749
11062TIP3   OH233118   4.339   1.657   1.342  0.5956 -0.1474  0.0843
11062TIP3    H133119   4.413   1.699   1.297  0.8567 -1.1030 -0.3929
11062TIP3    H233120   4.380   1.586   1.393  0.0945 -0.1851  0.4320
11063TIP3   OH233121   4.179   0.877   0.055  0.3498 -0.1968  0.5821
11063TIP3    H133122   4.110   0.831   0.102 -0.0237 -1.2253 -0.9376
11063TIP3    H233123   4.224   0.809   0.005  0.7399  0.8665 -0.5419
11064TIP3   OH233124   4.372   0.609   0.819  0.4264 -0.1699  0.6964
11064TIP3    H133125   4.309   0.666   0.863 -1.3242 -1.4723 -0.0508
11064TIP3    H233126   4.364   0.525   0.865  0.3470 -0.8427 -0.5166
11065TIP3   OH233127   3.796   7.914   0.823  0.4687 -0.3606 -0.2636
11065TIP3    H133128   3.758   7.930   0.737  0.4080  0.5977 -0.0645
11065TIP3    H233129   3.752   7.834   0.854 -0.1377 -0.2211 -0.7482
11066TIP3   OH233130   4.535   6.866   0.320 -0.4098 -0.2610 -0.2380
11066TIP3    H133131   4.569   6.948   0.354  0.5750 -0.7938  0.0729
11066TIP3    H233132   4.612   6.813   0.302 -1.0580 -1.4284  0.3249
11067TIP3   OH233133   1.409   4.293   6.145 -0.1017  0.1214  0.0720
11067TIP3    H133134   1.369   4.235   6.079 -0.1670  0.2006  0.0421
11067TIP3    H233135   1.441   4.368   6.095  0.3319 -0.0725  0.0628
11068TIP3   OH233136   6.922   1.558   4.083  0.4071  0.2197 -0.2344
11068TIP3    H133137   6.899   1.499   4.155  0.3834 -1.7618 -1.8041
11068TIP3    H233138   6.842   1.564   4.031  0.8527  0.4094 -0.9066
11069TIP3   OH233139   7.409   0.857   1.298 -0.1399 -0.0436  0.3715
11069TIP3    H133140   7.494   0.821   1.322 -0.9812 -1.2597  1.5425
11069TIP3    H233141   7.429   0.946   1.268  1.7119 -0.7975 -0.7414
11070TIP3   OH233142   5.043   7.551   2.190  0.2055  0.4368  0.6752
11070TIP3    H133143   4.980   7.497   2.141  1.9747  0.8598 -2.2448
11070TIP3    H233144   4.990   7.616   2.234 -1.6734 -1.4135  1.2420
11071TIP3   OH233145   7.367   4.875   5.234 -0.3675  0.1620 -1.1493
11071TIP3    H133146   7.272   4.884   5.224 -0.4238 -0.8061 -1.5481
11071TIP3    H233147   7.403   4.911   5.152 -0.3893  0.3928 -1.0602
11072TIP3   OH233148   7.826   3.613   6.859  0.1914 -0.1871 -0.2754
11072TIP3    H133149   7.839   3.617   6.954 -0.5332  1.5535 -0.2383
11072TIP3    H233150   7.830   3.704   6.830 -1.2707 -0.5377 -1.6728
11073TIP3   OH233151   2.905   6.498   3.646 -0.1500 -0.4662 -0.6347
11073TIP3    H133152   2.828   6.553   3.632  0.0790 -0.5247 -2.1798
11073TIP3    H233153   2.969   6.529   3.582 -0.1984 -2.8630 -1.9248
11074TIP3   OH233154   8.093   3.036   5.985 -0.4861  0.3646  0.0161
11074TIP3    H133155   8.044   3.063   5.908 -0.0196  0.9219 -0.0919
11074TIP3    H233156   8.121   3.117   6.025  1.7237  0.0643 -0.8264
11075TIP3   OH233157   3.653   6.549   1.261  0.0968 -0.5380 -0.0806
11075TIP3    H133158   3.680   6.498   1.185 -0.5803  0.7172 -1.1910
11075TIP3    H233159   3.733   6.594   1.289  0.4760 -1.4457  0.3163
11076TIP3   OH233160   0.793   4.026   6.546  0.2465 -0.0578 -0.1140
11076TIP3    H133161   0.878   4.065   6.525  0.1907  0.4857  0.6557
11076TIP3    H233162   0.729   4.087   6.510  0.1673  0.1670  0.4084
11077TIP3   OH233163   2.056   3.774   6.892  0.0588 -0.4692 -0.2995
11077TIP3    H133164   2.064   3.846   6.830 -0.3222  0.2667  0.4907
11077TIP3    H233165   2.144   3.761   6.926 -0.0976  0.4897  0.4999
11078TIP3   OH233166   0.886   0.036   0.905  0.3389  0.4075 -0.7259
11078TIP3    H133167   0.889  -0.046   0.855 -0.6169 -0.5343  0.7200
11078TIP3    H233168   0.806   0.080   0.875 -0.2981 -0.2131  0.0246
11079TIP3   OH233169   6.720   0.443   0.906  0.0906  0.7977  0.3987
11079TIP3    H133170   6.685   0.354   0.895  1.1899  0.5947 -1.6579
11079TIP3    H233171   6.644   0.494   0.935 -0.0491 -1.2367  3.9723
11080TIP3   OH233172   6.299   0.229   1.223 -0.1887 -0.0574  0.3220
11080TIP3    H133173   6.384   0.250   1.264  0.0529 -0.8391  0.2252
11080TIP3    H233174   6.314   0.146   1.178 -0.5032  0.7097 -1.2247
11081TIP3   OH233175   8.043   1.091   0.020  0.0846 -0.3664 -0.0780
11081TIP3    H133176   7.994   1.016   0.054  0.7460 -0.7040  0.1461
11081TIP3    H233177   8.034   1.158   0.088 -0.6981 -0.1693 -0.3826
11082TIP3   OH233178   8.105   0.034   1.362 -0.3328 -0.3757 -0.1130
11082TIP3    H133179   8.143  -0.013   1.288  0.6144  1.0327 -0.5353
11082TIP3    H233180   8.180   0.061   1.415 -1.0178 -1.4806  1.4325
11083TIP3   OH233181   0.512   5.428   5.936  0.4027  0.3350 -0.3466
11083TIP3    H133182   0.575   5.400   6.003  1.5778  0.8236 -1.2151
11083TIP3    H233183   0.501   5.351   5.880  0.0794  0.1877 -0.0787
11084TIP3   OH233184   4.776   7.304   0.610 -0.7520 -0.2919 -0.5500
11084TIP3    H133185   4.706   7.356   0.648 -1.0508 -0.6429 -0.6177
11084TIP3    H233186   4.850   7.317   0.670 -1.1707 -0.7137  0.0663
11085TIP3   OH233187   2.778   6.095   5.456  0.3043 -0.0456 -0.0015
11085TIP3    H133188   2.758   6.021   5.513 -0.3190 -0.7749 -1.1553
11085TIP3    H233189   2.722   6.083   5.379  1.3959  0.7187 -0.9405
11086TIP3   OH233190   1.267   6.052   6.037 -0.3803 -0.6342 -0.0642
11086TIP3    H133191   1.330   6.111   5.997 -1.4007  1.5423  1.4326
11086TIP3    H233192   1.212   6.022   5.965  1.1033 -0.9594 -1.0670
11087TIP3   OH233193   7.186   0.346   1.351  0.7132  0.3525  0.2338
11087TIP3    H133194   7.172   0.268   1.297 -0.1597  1.5858 -1.3360
11087TIP3    H233195   7.271   0.380   1.323  0.1388  1.1434 -0.5545
11088TIP3   OH233196   7.553   0.689   0.455 -0.2341  0.1348 -0.4879
11088TIP3    H133197   7.594   0.610   0.490  0.2506 -0.1703 -1.7236
11088TIP3    H233198   7.468   0.693   0.498 -0.2912 -1.0943 -0.4674
11089TIP3   OH233199   2.687   2.346   4.644 -0.2067 -0.0230  0.4985
11089TIP3    H133200   2.660   2.379   4.730  2.0081  1.6062  0.6263
11089TIP3    H233201   2.625   2.276   4.624  0.3751 -1.7181  4.2827
11090TIP3   OH233202   2.152   2.473   6.027 -0.8118 -0.3134  0.1916
11090TIP3    H133203   2.082   2.409   6.033 -0.6514 -0.3454  1.8709
11090TIP3    H233204   2.117   2.542   5.971 -1.6263 -1.0260 -0.1788
11091TIP3   OH233205   1.067   4.689   6.270  0.3608 -0.0160  0.1091
11091TIP3    H133206   1.118   4.613   6.301  0.5165 -0.1106 -0.3714
11091TIP3    H233207   1.011   4.712   6.344  2.2106  1.0616  1.1817
11092TIP3   OH233208   5.485   1.063   2.063  0.3110  0.8854 -0.0061
11092TIP3    H133209   5.473   1.031   2.153  0.7779  1.0330  0.1125
11092TIP3    H233210   5.492   0.983   2.010  0.6642  0.7932  0.1769
11093TIP3   OH233211   7.993   3.942   3.359  0.7301  0.6627  0.3155
11093TIP3    H133212   7.923   3.993   3.318 -0.5625  0.9348  2.7604
11093TIP3    H233213   8.074   3.984   3.328 -0.1847  1.1435 -1.5242
11094TIP3   OH233214   6.702   4.286   6.446  0.0991  0.0963  0.6296
11094TIP3    H133215   6.690   4.338   6.366 -0.3927  0.1865  0.7628
11094TIP3    H233216   6.777   4.328   6.490  1.4618 -0.9761 -0.5990
11095TIP3   OH233217   1.297   2.895   5.762 -0.2105 -0.0723 -0.1863
11095TIP3    H133218   1.332   2.940   5.685 -0.1632  0.1192 -0.0522
11095TIP3    H233219   1.229   2.954   5.796 -0.9517 -0.6279 -0.6860
11096TIP3   OH233220   0.119   0.799   0.139  0.0652 -0.1346 -0.0631
11096TIP3    H133221   0.025   0.781   0.140  0.0394 -0.0135 -0.2622
11096TIP3    H233222   0.126   0.884   0.095  0.3399 -0.5363 -0.8018
11097TIP3   OH233223   6.043   5.433   0.666 -0.2304  0.4079  0.2165
11097TIP3    H133224   6.071   5.404   0.579 -1.7972  0.6690 -0.3885
11097TIP3    H233225   5.991   5.361   0.701 -1.4060  1.1492  0.0393
11098TIP3   OH233226   7.365   4.667   3.439  0.1693  0.0048  0.2657
11098TIP3    H133227   7.389   4.760   3.441 -2.5330  0.8173 -2.0054
11098TIP3    H233228   7.410   4.632   3.362  0.7061 -0.4477  0.7786
11099TIP3   OH233229   1.950   7.094   1.182  1.0410 -0.2802  0.1689
11099TIP3    H133230   2.016   7.043   1.228  1.0817 -0.6411 -0.2958
11099TIP3    H233231   1.931   7.045   1.102 -2.0732 -1.7907  1.7646
11100TIP3   OH233232   2.317   4.092   6.442 -0.0758  0.1753 -0.2615
11100TIP3    H133233   2.248   4.157   6.427 -0.0884  0.1118 -0.4850
11100TIP3    H233234   2.297   4.055   6.527 -0.1854  0.3226 -0.2223
11101TIP3   OH233235   3.597   3.385   6.757  0.1728  0.7594 -0.5585
11101TIP3    H133236   3.587   3.423   6.670  2.6851 -1.5070 -1.9261
11101TIP3    H233237   3.527   3.319   6.763  1.6501 -1.0052 -2.0283
11102TIP3   OH233238   1.939   4.145   5.853  0.1419  0.0475 -0.1113
11102TIP3    H133239   1.999   4.104   5.915 -0.3576  0.9118  0.9608
11102TIP3    H233240   1.983   4.138   5.769  0.2311 -2.3676  0.1011
11103TIP3   OH233241   1.248   7.351   0.282  0.3085  0.1673 -0.4901
11103TIP3    H133242   1.227   7.378   0.372  2.7389  0.3976  0.0336
11103TIP3    H233243   1.186   7.400   0.228 -0.1510  1.2333  0.9655
11104TIP3   OH233244   6.499   0.830   0.698  0.4091 -0.2591  0.4426
11104TIP3    H133245   6.548   0.752   0.674 -0.6016 -0.9279  0.5213
11104TIP3    H233246   6.445   0.802   0.772 -0.4276  0.3388  0.0625
11105TIP3   OH233247   6.292   2.511   0.234  0.2533  0.1961  0.3572
11105TIP3    H133248   6.324   2.585   0.183 -1.8236  0.2958 -0.8366
11105TIP3    H233249   6.350   2.438   0.211  2.9130  1.6190  2.2620
11106TIP3   OH233250   7.562   1.089   1.195 -0.1794 -0.7707  0.0243
11106TIP3    H133251   7.632   1.085   1.261 -0.3244  0.6449  0.2776
11106TIP3    H233252   7.597   1.040   1.121  1.2020  0.1331  0.0605
11107TIP3   OH233253   1.389   2.625   6.301 -0.2999  0.1457  0.0772
11107TIP3    H133254   1.352   2.698   6.251 -0.6438  0.1159  0.2837
11107TIP3    H233255   1.480   2.620   6.273  0.1004  1.5265  1.0674
11108TIP3   OH233256   7.289   1.260   0.041  0.6388  0.0367 -0.0345
11108TIP3    H133257   7.207   1.253   0.090 -0.4638 -0.1668 -1.8762
11108TIP3    H233258   7.354   1.219   0.099 -0.8919 -1.4669  0.6808
11109TIP3   OH233259   6.999   3.611   0.722 -0.0149 -0.0241  0.9006
11109TIP3    H133260   6.920   3.664   0.713 -0.8141 -1.1047  1.4120
11109TIP3    H233261   6.967   3.525   0.748  1.0707 -1.3591 -1.9478
11110TIP3   OH233262   6.994   0.101   0.863  0.3940 -0.2784  0.9622
11110TIP3    H133263   6.941   0.060   0.795  0.7416  0.5720  0.1794
11110TIP3    H233264   7.068   0.041   0.874  0.8560  0.0888 -0.1159
11111TIP3   OH233265   2.554   5.844   5.433 -0.1986  0.0596  0.0903
11111TIP3    H133266   2.513   5.791   5.364 -2.4735 -0.0126  1.4551
11111TIP3    H233267   2.521   5.807   5.515 -0.2853  2.3587  1.1299
11112TIP3   OH233268   0.275   5.042   5.947 -0.1516 -0.3576  0.3881
11112TIP3    H133269   0.312   4.954   5.947  2.6233  0.7495 -0.5018
11112TIP3    H233270   0.285   5.072   5.857 -2.0364  0.4971  0.4445
11113TIP3   OH233271   8.422   3.401   4.487 -0.2259  0.1590  0.2311
11113TIP3    H133272   8.481   3.407   4.413 -2.4661  0.4000 -1.5862
11113TIP3    H233273   8.412   3.491   4.519  1.2909 -0.0389  1.2872
11114TIP3   OH233274   7.733   2.476   4.673  0.1948  0.1703  0.1089
11114TIP3    H133275   7.709   2.494   4.763  1.5594  2.4581  0.0551
11114TIP3    H233276   7.650   2.466   4.627 -0.5150  0.0828  1.4052
11115TIP3   OH233277   6.038   0.847   0.576 -0.0807  0.1351  1.0109
11115TIP3    H133278   6.034   0.891   0.661 -0.0293  0.6859  0.7288
11115TIP3    H233279   5.965   0.785   0.578  1.7097 -2.0280  2.6669
11116TIP3   OH233280   6.795   7.038   0.305  0.1002  0.3291  0.1470
11116TIP3    H133281   6.716   7.044   0.251 -0.2078  1.0088  0.6609
11116TIP3    H233282   6.798   6.947   0.333 -0.6301  0.3462  0.3031
11117TIP3   OH233283   8.256   2.059   6.539  0.1284  0.0468  0.7370
11117TIP3    H133284   8.346   2.090   6.528 -0.2596  1.1041  0.5001
11117TIP3    H233285   8.259   1.968   6.509  1.3749 -0.3144  1.8617
11118TIP3   OH233286   7.577   3.503   6.377  0.4019  0.4584  0.9142
11118TIP3    H133287   7.664   3.469   6.397 -0.2350 -1.9140 -0.1787
11118TIP3    H233288   7.549   3.547   6.458  2.6140  1.3132  1.2513
11119TIP3   OH233289   8.212   4.221   6.133 -1.0165 -0.2413  0.2302
11119TIP3    H133290   8.120   4.194   6.130 -0.6787 -1.3919 -0.0628
11119TIP3    H233291   8.219   4.292   6.069 -1.6701 -0.2353  0.1639
11120TIP3   OH233292   5.402   0.342   1.561 -0.3656 -0.0511 -0.4841
11120TIP3    H133293   5.327   0.346   1.620 -0.2222 -1.9051 -0.1443
11120TIP3    H233294   5.364   0.331   1.474 -0.5491  1.7299 -0.6428
11121TIP3   OH233295   2.717   3.106   5.253 -0.1189  0.2183  0.5369
11121TIP3    H133296   2.778   3.176   5.277 -0.4374  0.3769  0.8939
11121TIP3    H233297   2.764   3.056   5.186  0.5374  0.1418  1.0399
11122TIP3   OH233298   1.645   2.909   6.709  0.2260 -0.0512 -0.2697
11122TIP3    H133299   1.591   2.959   6.771 -0.3291  0.3737 -1.0862
11122TIP3    H233300   1.581   2.863   6.654  0.7222 -0.9090 -0.1502
11123TIP3   OH233301   0.058   2.815   5.058 -0.0517  0.3495 -0.1533
11123TIP3    H133302  -0.015   2.758   5.034  0.3177  0.4247 -1.5173
11123TIP3    H233303   0.076   2.866   4.978  1.3793  0.4439  0.2075
11124TIP3   OH233304   8.239   5.459   6.172 -0.0867  0.0824  0.7892
11124TIP3    H133305   8.262   5.378   6.217  0.5833  1.0276  2.1602
11124TIP3    H233306   8.157   5.439   6.126  0.0144 -1.3276  1.2168
11125TIP3   OH233307   8.165   2.975   1.052  0.3166 -0.2952  0.0193
11125TIP3    H133308   8.240   3.009   1.101  0.5324  0.4330 -0.8044
11125TIP3    H233309   8.204   2.916   0.987 -0.0567 -2.1622  1.4633
11126TIP3   OH233310   5.265   6.850   0.413  0.7419  0.2372 -0.3980
11126TIP3    H133311   5.356   6.874   0.432  0.7449  0.3210 -0.5228
11126TIP3    H233312   5.236   6.805   0.492  0.2509  2.0041  0.4659
11127TIP3   OH233313   5.143   7.458   0.318  0.2783 -0.3749  0.3341
11127TIP3    H133314   5.131   7.418   0.232  0.7170  0.4481 -0.1172
11127TIP3    H233315   5.236   7.480   0.322 -0.0120  0.9104  0.4282
11128TIP3   OH233316   0.788   0.593   1.551  0.3282 -0.2105 -0.6749
11128TIP3    H133317   0.818   0.678   1.583 -2.9931  0.2568  1.4380
11128TIP3    H233318   0.797   0.535   1.626  0.5984 -1.2284 -1.4847
11129TIP3   OH233319   1.824   7.984   6.443  0.5456 -0.5382 -0.3078
11129TIP3    H133320   1.907   7.937   6.438  0.9828  0.2481 -0.4620
11129TIP3    H233321   1.848   8.077   6.435 -0.3942 -0.3397 -0.8997
11130TIP3   OH233322   2.988   6.021   6.439 -0.1985  0.0931  0.2840
11130TIP3    H133323   3.061   5.960   6.431 -0.1648  0.0996  0.5454
11130TIP3    H233324   2.914   5.968   6.467 -0.4529 -0.0226 -0.5779
11131TIP3   OH233325   4.788   5.103   6.726  0.1346  0.0184  0.0082
11131TIP3    H133326   4.713   5.050   6.702 -0.7575  1.0061  0.5789
11131TIP3    H233327   4.760   5.153   6.803  1.6121 -0.1396  0.6810
11132TIP3   OH233328   3.671   4.831   4.870  0.2689  0.1271 -0.6634
11132TIP3    H133329   3.656   4.817   4.777 -0.6645 -0.1761 -0.4703
11132TIP3    H233330   3.634   4.917   4.888 -1.7978 -0.8466 -0.0757
11133TIP3   OH233331   0.478   3.723   5.098 -0.6175 -0.1260 -0.1154
11133TIP3    H133332   0.543   3.786   5.068 -1.6251  1.0524  0.1506
11133TIP3    H233333   0.398   3.747   5.052 -0.6844 -2.0652 -1.0562
11134TIP3   OH233334   0.069   4.837   6.672  0.2491 -0.0324  0.2072
11134TIP3    H133335   0.010   4.884   6.730 -0.1053  1.3255 -1.2341
11134TIP3    H233336   0.024   4.834   6.588  0.9378 -1.6256 -0.1371
11135TIP3   OH233337   3.781   6.675   6.764  0.0079  0.0146 -0.1813
11135TIP3    H133338   3.720   6.713   6.701 -1.2972 -2.5658 -0.5152
11135TIP3    H233339   3.754   6.584   6.773  1.5506 -0.2420  2.4567
11136TIP3   OH233340   1.843   3.851   5.332  0.5624 -0.5011 -0.0467
11136TIP3    H133341   1.935   3.824   5.327  1.0640  1.0785  0.2234
11136TIP3    H233342   1.798   3.798   5.267  1.6913 -1.2048 -0.2609
11137TIP3   OH233343   3.539   2.154   5.995  0.0711  0.6741 -0.4757
11137TIP3    H133344   3.497   2.112   6.070  0.3240 -0.3939 -0.9289
11137TIP3    H233345   3.467   2.199   5.950 -0.1689  0.8690  0.0983
11138TIP3   OH233346   5.457   4.826   5.054 -0.2847  0.3432  0.3050
11138TIP3    H133347   5.517   4.866   4.991 -1.4041 -1.1184 -1.7768
11138TIP3    H233348   5.493   4.738   5.068 -1.4673 -0.2688 -0.3710
11139TIP3   OH233349   7.317   0.815   0.340 -0.0002 -0.0398 -0.6390
11139TIP3    H133350   7.259   0.809   0.264 -0.5616 -0.5392 -0.1676
11139TIP3    H233351   7.402   0.787   0.307 -0.2507 -0.2904 -1.0725
11140TIP3   OH233352   4.625   3.986   4.495  0.5968 -0.0324  0.2338
11140TIP3    H133353   4.655   4.077   4.492 -1.6824  0.7302  0.1427
11140TIP3    H233354   4.546   3.989   4.548  0.6748 -2.0286  0.4691
11141TIP3   OH233355   0.938   1.111   1.753  0.0810  0.0403  0.7673
11141TIP3    H133356   0.964   1.186   1.700 -2.4582 -0.2919 -1.0388
11141TIP3    H233357   0.885   1.148   1.824 -1.5298 -0.0635 -0.3678
11142TIP3   OH233358   3.327   3.828   6.711  0.5105 -0.3058  0.2598
11142TIP3    H133359   3.368   3.841   6.797 -1.3903 -0.1428  1.1705
11142TIP3    H233360   3.374   3.886   6.652  2.7972 -1.4689  0.8691
11143TIP3   OH233361   2.904   2.345   4.461 -0.4629 -0.8386  0.2219
11143TIP3    H133362   2.858   2.325   4.542 -1.0748 -0.2550  0.0216
11143TIP3    H233363   2.915   2.440   4.462 -1.8997 -0.6285 -1.1212
11144TIP3   OH233364   5.121   5.944   0.546  0.5323  0.3836 -0.3123
11144TIP3    H133365   5.211   5.939   0.515  0.9440 -0.1738  0.9036
11144TIP3    H233366   5.110   5.865   0.600 -1.1416 -0.3233 -1.6084
11145TIP3   OH233367   1.354   1.417   0.603 -0.3545 -0.0470  0.3717
11145TIP3    H133368   1.443   1.391   0.627  0.1747  0.5530 -0.8836
11145TIP3    H233369   1.299   1.348   0.639  0.5056  0.1550  2.1497
11146TIP3   OH233370   7.731   7.754   2.325 -0.4588  0.1503  0.4343
11146TIP3    H133371   7.691   7.686   2.380 -1.2790  0.5234  0.3038
11146TIP3    H233372   7.790   7.801   2.384 -1.2690  0.4935  0.9780
11147TIP3   OH233373   7.858   6.438   1.914  0.0647  0.4067  0.0057
11147TIP3    H133374   7.816   6.477   1.990 -0.6218 -0.1231 -0.0895
11147TIP3    H233375   7.878   6.348   1.940 -2.2263 -0.4946 -1.1457
11148TIP3   OH233376   6.473   7.468   1.340 -0.4652  0.0541  0.0013
11148TIP3    H133377   6.500   7.548   1.295  1.7937 -1.3313 -1.2010
11148TIP3    H233378   6.525   7.467   1.420 -1.4514  0.4248  0.6565
11149TIP3   OH233379   0.978   0.306   2.599 -0.0604  0.4204  0.4639
11149TIP3    H133380   0.984   0.401   2.588  1.0544  0.1845 -1.0550
11149TIP3    H233381   0.918   0.277   2.530 -1.1315  0.1206  1.5078
11150TIP3   OH233382   0.456   1.384   0.387  0.1442 -0.2252  0.2752
11150TIP3    H133383   0.467   1.290   0.372 -2.4058 -0.6998  1.1324
11150TIP3    H233384   0.496   1.401   0.472 -0.7479 -0.8481  0.8262
11151TIP3   OH233385   2.578   5.226   6.001 -0.6174  0.1714 -0.6384
11151TIP3    H133386   2.501   5.270   5.964 -0.7241 -1.2371 -2.1503
11151TIP3    H233387   2.652   5.263   5.954 -0.2741  1.9839  1.2545
11152TIP3   OH233388   3.311   4.706   6.705  0.4644  0.2430 -0.2684
11152TIP3    H133389   3.391   4.680   6.660  0.9951  0.5496  0.4767
11152TIP3    H233390   3.341   4.758   6.780 -0.4110  0.0422  0.2364
11153TIP3   OH233391   3.180   4.305   5.579 -0.8055 -0.1602 -0.3837
11153TIP3    H133392   3.173   4.368   5.650 -0.0510 -0.2465 -0.2355
11153TIP3    H233393   3.167   4.357   5.500 -3.7643 -0.3810 -0.1254
11154TIP3   OH233394   2.154   5.112   5.221 -0.1619  0.3949  0.0783
11154TIP3    H133395   2.145   5.161   5.302 -0.0305  0.3353  0.1312
11154TIP3    H233396   2.097   5.036   5.232 -2.0139  1.6195 -0.8640
11155TIP3   OH233397   0.456   0.935   1.280 -0.0337 -0.3851 -0.4484
11155TIP3    H133398   0.374   0.957   1.325  0.4641 -0.1104  0.3417
11155TIP3    H233399   0.474   1.011   1.225 -0.4180 -0.5339 -0.7808
11156TIP3   OH233400   3.351   5.269   5.715 -0.7866  0.1503 -0.3144
11156TIP3    H133401   3.302   5.289   5.636 -1.7401 -1.5766 -0.1996
11156TIP3    H233402   3.316   5.184   5.744  0.8797 -0.1625  0.8807
11157TIP3   OH233403   0.085   1.134   0.824  1.0368  0.3061 -0.3454
11157TIP3    H133404   0.128   1.176   0.899  0.8832  0.8771 -0.5736
11157TIP3    H233405   0.043   1.056   0.860  0.0268  1.1716  0.3691
11158TIP3   OH233406   2.847   4.373   6.551 -0.3023  0.3760  0.7967
11158TIP3    H133407   2.923   4.392   6.607 -1.0011  0.7939  1.6184
11158TIP3    H233408   2.772   4.408   6.600 -1.0699 -0.3836  0.1786
11159TIP3   OH233409   3.947   4.674   4.069 -0.4109 -0.3406  0.4256
11159TIP3    H133410   4.003   4.724   4.128 -1.2537  1.6124 -0.3953
11159TIP3    H233411   4.004   4.604   4.036  0.2086 -1.1454  3.1057
11160TIP3   OH233412   4.457   5.356   6.303 -0.0536 -0.2022  0.2103
11160TIP3    H133413   4.456   5.415   6.227  0.8732 -0.6531 -0.1656
11160TIP3    H233414   4.532   5.387   6.355  0.8071 -1.4101 -0.2871
11161TIP3   OH233415   2.926   1.588   0.257  0.0550 -0.3034  0.1817
11161TIP3    H133416   2.871   1.519   0.220  0.5687  0.6233 -2.4092
11161TIP3    H233417   2.882   1.613   0.338 -1.4814 -1.9223 -0.1301
11162TIP3   OH233418   3.371   3.995   6.350 -0.3870 -0.1044 -0.1213
11162TIP3    H133419   3.373   3.900   6.340 -0.6176 -0.2103  0.8235
11162TIP3    H233420   3.293   4.022   6.302  0.4843 -0.2261 -1.6516
11163TIP3   OH233421   4.054   5.469   6.189 -0.3350 -0.2350 -0.1994
11163TIP3    H133422   3.986   5.411   6.153  0.1994 -0.4202 -0.9266
11163TIP3    H233423   4.113   5.485   6.115 -0.5148  1.2908 -0.0291
11164TIP3   OH233424   3.626   3.409   4.720  0.3617  0.1112  0.0002
11164TIP3    H133425   3.712   3.373   4.700  1.2234  1.7431  0.7122
11164TIP3    H233426   3.572   3.332   4.740  1.9018 -0.8649  0.4710
11165TIP3   OH233427   0.753   0.378   0.326 -0.1391  0.2187  0.9447
11165TIP3    H133428   0.696   0.349   0.398  2.2841 -0.2262  2.7596
11165TIP3    H233429   0.768   0.299   0.275 -0.8470  0.2581  0.6698
11166TIP3   OH233430   0.178   5.386   6.170  0.1895 -0.5645  0.3909
11166TIP3    H133431   0.248   5.347   6.118  0.6687  2.8162 -1.6152
11166TIP3    H233432   0.099   5.340   6.143  0.6907  0.0072 -2.1360
11167TIP3   OH233433   3.734   6.509   4.666  0.4306 -0.6042  0.0559
11167TIP3    H133434   3.677   6.432   4.673  1.6667 -1.6596 -1.0318
11167TIP3    H233435   3.807   6.490   4.724  0.6840 -0.1819 -0.1254
11168TIP3   OH233436   8.361   0.096   1.525 -0.1845 -0.1125 -0.0218
11168TIP3    H133437   8.321   0.085   1.612 -1.8618 -1.7851 -0.9713
11168TIP3    H233438   8.451   0.064   1.536 -0.8129 -1.6441  0.7527
11169TIP3   OH233439   3.212   5.965   5.986 -0.1160 -0.4139 -0.4826
11169TIP3    H133440   3.163   5.916   5.920 -2.1055  0.1298  0.5521
11169TIP3    H233441   3.263   6.029   5.935  0.1439 -1.5101 -1.6208
11170TIP3   OH233442   0.261   0.830   0.747 -0.0302  0.1401 -0.7962
11170TIP3    H133443   0.191   0.768   0.767  0.5965 -0.0726  0.8357
11170TIP3    H233444   0.284   0.813   0.655 -0.4763 -1.4261 -0.6232
11171TIP3   OH233445   3.699   0.847   5.099 -0.0850 -0.3809 -0.0499
11171TIP3    H133446   3.649   0.868   5.020  0.1462 -0.0634 -0.1148
11171TIP3    H233447   3.706   0.752   5.100 -2.3927 -0.5801  1.0015
11172TIP3   OH233448   0.569   4.658   5.720 -0.1499  0.2443 -0.3936
11172TIP3    H133449   0.504   4.691   5.657 -1.4169  0.7505  1.1261
11172TIP3    H233450   0.647   4.642   5.668 -1.0089  1.1390 -2.0068
11173TIP3   OH233451   4.779   5.857   5.709 -0.2987 -0.2223 -0.2113
11173TIP3    H133452   4.859   5.908   5.716  0.2566 -0.9674 -1.0936
11173TIP3    H233453   4.709   5.919   5.727  0.4318  0.6149 -0.2651
11174TIP3   OH233454   2.706   5.230   6.503 -0.1252 -0.3848  0.1389
11174TIP3    H133455   2.639   5.243   6.570  0.9336 -0.4560  1.2197
11174TIP3    H233456   2.766   5.166   6.541  2.0442  1.6528  0.3221
11175TIP3   OH233457   0.350   2.536   0.662 -0.1318 -0.0719 -0.6660
11175TIP3    H133458   0.398   2.617   0.645  1.1089 -0.8097 -0.6851
11175TIP3    H233459   0.385   2.504   0.745 -0.6064 -0.6081 -0.6700
11176TIP3   OH233460   4.998   4.329   5.188 -0.1726  0.4845  0.0564
11176TIP3    H133461   4.968   4.242   5.165 -0.2727  0.3450  0.6901
11176TIP3    H233462   5.027   4.321   5.279  1.4266  0.7162 -0.4235
11177TIP3   OH233463   3.574   4.723   6.181 -0.4107  0.8434  0.0182
11177TIP3    H133464   3.543   4.777   6.254 -0.0751  0.8208  0.1764
11177TIP3    H233465   3.538   4.766   6.103  0.6366  1.8525  0.0682
11178TIP3   OH233466   0.501   4.500   6.216  0.1395  0.2738  0.1308
11178TIP3    H133467   0.466   4.412   6.203 -0.2586  0.7005 -1.8750
11178TIP3    H233468   0.556   4.516   6.139  0.9525  1.4240  0.9298
11179TIP3   OH233469   2.808   5.220   5.349 -0.3735 -0.3712  0.1363
11179TIP3    H133470   2.877   5.182   5.403  0.6404  0.1263 -0.7775
11179TIP3    H233471   2.815   5.174   5.265  0.3913  1.2714 -0.7361
11180TIP3   OH233472   2.440   5.271   6.737  0.0019  0.2186 -0.3950
11180TIP3    H133473   2.387   5.238   6.810  0.2288 -0.9152 -0.7258
11180TIP3    H233474   2.440   5.366   6.749  0.9296 -0.0073  1.7141
11181TIP3   OH233475   0.225   0.950   1.461 -0.2985  0.2336 -0.2921
11181TIP3    H133476   0.149   1.008   1.466 -2.1767 -2.0424 -1.3471
11181TIP3    H233477   0.203   0.876   1.517  1.3134 -0.2752 -0.2992
11182TIP3   OH233478   4.780   7.880   0.444  0.3328 -0.0425 -0.4758
11182TIP3    H133479   4.815   7.940   0.510  1.6490  0.4109 -1.5463
11182TIP3    H233480   4.842   7.806   0.444  0.1802 -0.1745 -0.9786
11183TIP3   OH233481   7.775   0.709   2.683  0.0068  0.3038  0.3118
11183TIP3    H133482   7.753   0.746   2.769  0.5462  2.1322 -0.3035
11183TIP3    H233483   7.717   0.634   2.674 -0.1065  0.1196  2.2421
11184TIP3   OH233484   2.579   3.357   5.236  0.5153  0.1225  0.1942
11184TIP3    H133485   2.647   3.297   5.205 -0.3529 -1.5523  1.5038
11184TIP3    H233486   2.624   3.411   5.301  1.7765  2.2026 -2.2967
11185TIP3   OH233487   2.710   2.573   6.155 -0.6295 -0.2319 -0.2689
11185TIP3    H133488   2.746   2.569   6.243 -0.6738  1.8589 -0.1238
11185TIP3    H233489   2.616   2.563   6.166 -0.5238 -1.1490 -0.1981
11186TIP3   OH233490   5.065   6.362   1.556  0.5118 -0.0742 -0.7167
11186TIP3    H133491   5.138   6.373   1.616 -0.4604  0.4971  0.3716
11186TIP3    H233492   5.086   6.283   1.506  0.3845 -1.7095  1.7421
11187TIP3   OH233493   1.181   4.312   5.211 -0.2356  0.5073 -0.2180
11187TIP3    H133494   1.101   4.269   5.241  0.7242 -1.4277 -0.3602
11187TIP3    H233495   1.175   4.309   5.115 -0.5051  1.3803 -0.2376
11188TIP3   OH233496   3.478   2.539   3.644 -0.4067 -0.0439 -0.4872
11188TIP3    H133497   3.449   2.454   3.613 -0.9189 -0.7070  1.6826
11188TIP3    H233498   3.574   2.532   3.649 -0.1725  0.6237 -3.3516
11189TIP3   OH233499   2.417   6.591   4.553  0.1180 -0.0826  0.3172
11189TIP3    H133500   2.492   6.568   4.607  0.9922  2.1442  0.1150
11189TIP3    H233501   2.395   6.511   4.506  3.3042 -0.4246 -0.7184
11190TIP3   OH233502   5.828   6.437   0.112  0.0139 -0.4006  0.3947
11190TIP3    H133503   5.795   6.348   0.121  0.0043 -0.4145  0.2351
11190TIP3    H233504   5.855   6.462   0.200 -0.6405 -0.3032  0.5702
11191TIP3   OH233505   6.259   0.623   0.231  0.3257 -0.2923  0.3120
11191TIP3    H133506   6.259   0.534   0.265  1.2791 -0.8751 -1.1601
11191TIP3    H233507   6.315   0.672   0.291  1.4831 -1.1651 -0.0463
11192TIP3   OH233508   2.802   1.695   0.525  0.5324 -0.3258 -0.2195
11192TIP3    H133509   2.836   1.636   0.591  1.5579  0.5105  0.0179
11192TIP3    H233510   2.782   1.776   0.572 -1.8582 -0.8008 -0.3429
11193TIP3   OH233511   5.545   6.148   1.154  0.4646  0.2108 -0.1817
11193TIP3    H133512   5.619   6.122   1.209 -1.2498 -0.0475  2.0807
11193TIP3    H233513   5.525   6.238   1.181 -1.2069 -0.3656  0.5897
11194TIP3   OH233514   8.112   2.136   6.210  0.1998 -0.0205 -0.6191
11194TIP3    H133515   8.037   2.175   6.256 -0.4400 -1.6854 -0.2263
11194TIP3    H233516   8.080   2.122   6.121 -0.6393 -2.5255  0.0342
11195TIP3   OH233517   2.330   3.216   5.322  0.0890  0.1752 -0.2028
11195TIP3    H133518   2.336   3.208   5.417 -1.9017 -1.3022 -0.1905
11195TIP3    H233519   2.420   3.237   5.295  1.0967 -1.3486  1.8066
11196TIP3   OH233520   2.780   4.069   6.442  0.4127 -0.1712 -0.5565
11196TIP3    H133521   2.863   4.115   6.454 -0.6366  1.2124  1.8553
11196TIP3    H233522   2.723   4.134   6.400 -0.7604  0.4265  1.8990
11197TIP3   OH233523   0.607   3.606   3.919  0.2210  0.6679  0.3715
11197TIP3    H133524   0.523   3.591   3.962  0.8926  0.0833  1.5089
11197TIP3    H233525   0.586   3.610   3.826 -0.9941  0.0141  0.6063
11198TIP3   OH233526   2.348   1.795   0.301  0.5712  0.3567 -0.5034
11198TIP3    H133527   2.399   1.732   0.249  0.4888  1.4858 -1.9913
11198TIP3    H233528   2.307   1.741   0.369 -0.2850 -1.3880 -2.3296
11199TIP3   OH233529   4.086   5.528   4.404 -0.3859  0.1379  0.4139
11199TIP3    H133530   4.024   5.478   4.351  0.0976 -0.8300  0.7575
11199TIP3    H233531   4.053   5.520   4.493 -0.9457  1.3873  0.3310
11200TIP3   OH233532   1.201   5.295   6.956 -0.0344 -1.1943 -0.3853
11200TIP3    H133533   1.158   5.260   6.878 -1.4817  0.4374 -0.3534
11200TIP3    H233534   1.253   5.369   6.924  0.2853 -1.2389  0.0241
11201TIP3   OH233535   6.099   7.145   0.707 -0.0377 -0.0211 -0.0087
11201TIP3    H133536   6.154   7.068   0.717 -0.5171 -0.4659 -0.6982
11201TIP3    H233537   6.014   7.119   0.744  0.0593  0.4779  0.5704
11202TIP3   OH233538   5.292   7.247   0.515  0.3334  0.1089 -0.2498
11202TIP3    H133539   5.342   7.213   0.441  0.9275 -0.3962  0.3857
11202TIP3    H233540   5.329   7.333   0.532  0.3853  0.1066 -0.3503
11203TIP3   OH233541   2.615   4.149   6.867 -0.5303 -0.0691 -0.0806
11203TIP3    H133542   2.536   4.185   6.827 -0.0709  1.8586  0.6667
11203TIP3    H233543   2.687   4.188   6.816 -0.0427 -1.2129 -0.2785
11204TIP3   OH233544   0.272   1.550   0.625 -0.2355 -0.0023  0.3904
11204TIP3    H133545   0.309   1.521   0.542  0.3318 -2.7230  1.5004
11204TIP3    H233546   0.345   1.591   0.671 -0.3946  0.9469 -0.1947
11205TIP3   OH233547   2.967   4.625   5.527 -0.0323  0.6419 -0.0084
11205TIP3    H133548   3.005   4.660   5.607 -1.2062 -0.9842  1.3028
11205TIP3    H233549   2.874   4.614   5.547  0.0236 -1.7266 -0.8549
11206TIP3   OH233550   4.137   4.176   6.575  0.0600 -0.1321 -0.3580
11206TIP3    H133551   4.123   4.141   6.663 -0.1872 -1.6010 -0.9732
11206TIP3    H233552   4.062   4.146   6.525  0.0340  0.9773 -1.0008
11207TIP3   OH233553   2.116   1.325   0.185  0.0210 -0.8606  0.1105
11207TIP3    H133554   2.091   1.295   0.272 -0.7019  0.6480  0.4440
11207TIP3    H233555   2.159   1.249   0.145  2.5591 -0.8442  2.6352
11208TIP3   OH233556   0.651   0.580   0.118  0.0883 -0.3238 -0.0988
11208TIP3    H133557   0.643   0.640   0.191 -1.0901 -0.6610  0.0510
11208TIP3    H233558   0.652   0.493   0.158 -1.9412 -0.5822 -0.5626
11209TIP3   OH233559   2.852   0.853   0.612 -0.3630 -0.3340  0.9045
11209TIP3    H133560   2.934   0.882   0.571 -0.4567 -0.4650  0.6179
11209TIP3    H233561   2.799   0.932   0.618 -0.9739 -0.5983 -0.7164
11210TIP3   OH233562   1.345   1.678   0.073  0.7099 -0.0288  0.2725
11210TIP3    H133563   1.410   1.748   0.062  0.2830  0.5705  1.4726
11210TIP3    H233564   1.276   1.718   0.126 -0.1986 -0.9457 -0.2001
11211TIP3   OH233565   7.616   2.711   0.396 -0.3384  1.1733 -0.1340
11211TIP3    H133566   7.538   2.718   0.340 -0.2026  2.8226 -0.1273
11211TIP3    H233567   7.615   2.620   0.425  0.5813 -0.2678 -4.2351
11212TIP3   OH233568   5.489   7.782   1.469 -0.2823 -0.4094  0.0300
11212TIP3    H133569   5.405   7.798   1.512 -0.6345 -2.9104  0.3201
11212TIP3    H233570   5.539   7.730   1.531  0.9367 -0.1634 -0.7301
11213TIP3   OH233571   0.576   5.509   6.588  0.1174  0.9879 -0.2769
11213TIP3    H133572   0.577   5.449   6.514 -0.9447 -1.3537  1.5251
11213TIP3    H233573   0.637   5.579   6.564  2.1343 -1.2999 -2.0574
11214TIP3   OH233574   8.362   1.412   0.960 -0.0937  0.2289 -0.3608
11214TIP3    H133575   8.405   1.406   1.045 -0.3943  0.1036 -0.2191
11214TIP3    H233576   8.431   1.443   0.901  0.0403  0.5879 -0.0169
11215TIP3   OH233577   1.281   4.784   4.573 -0.0854  0.0514  0.2444
11215TIP3    H133578   1.355   4.778   4.512  1.8256  0.0386  2.4916
11215TIP3    H233579   1.283   4.875   4.603 -0.3746 -0.2059  1.0542
11216TIP3   OH233580   7.252   0.180   1.137 -0.5077 -0.0535  0.0392
11216TIP3    H133581   7.340   0.202   1.166 -0.3701  0.8692 -1.0073
11216TIP3    H233582   7.258   0.181   1.041 -1.3505 -1.2507 -0.0306
11217TIP3   OH233583   8.165   6.428   2.269 -0.3721 -0.0687  0.1956
11217TIP3    H133584   8.155   6.471   2.184  1.3982 -0.1995 -0.0819
11217TIP3    H233585   8.081   6.384   2.283 -1.1445  1.0253 -0.8779
11218TIP3   OH233586   0.453   1.461   1.096  0.4059 -0.2808 -0.1438
11218TIP3    H133587   0.468   1.391   1.160  0.1297 -1.5753 -1.4735
11218TIP3    H233588   0.536   1.471   1.051  0.3422  0.0072 -0.1973
11219TIP3   OH233589   5.132   2.678   4.300  0.2448 -0.1589  0.0212
11219TIP3    H133590   5.218   2.651   4.332  0.1051 -0.2084  0.3583
11219TIP3    H233591   5.075   2.603   4.316 -0.1170  0.2821  0.8539
11220TIP3   OH233592   0.845   0.215   1.457  0.0528 -0.2723 -0.2386
11220TIP3    H133593   0.755   0.243   1.445  0.4472  1.1472  0.0588
11220TIP3    H233594   0.839   0.120   1.472 -1.2774 -0.3557 -1.3006
11221TIP3   OH233595   3.233   4.435   6.413  0.8208  0.1942 -0.0876
11221TIP3    H133596   3.171   4.418   6.342 -0.7884  0.7331  1.1711
11221TIP3    H233597   3.319   4.423   6.373 -0.0716  0.2897 -2.0799
11222TIP3   OH233598   0.372   1.910   0.521 -0.1402  0.3157  0.0678
11222TIP3    H133599   0.382   1.818   0.498  0.3372  0.8091 -1.7758
11222TIP3    H233600   0.277   1.923   0.526 -0.2139 -0.2286  0.1932
11223TIP3   OH233601   5.628   2.036   1.488  0.0677 -0.0891 -0.6086
11223TIP3    H133602   5.603   2.128   1.481  0.6411  0.2391  1.4254
11223TIP3    H233603   5.555   1.989   1.448 -0.5330  1.2127 -1.0882
11224TIP3   OH233604   1.948   4.517   6.358  0.5628  0.2021  0.5134
11224TIP3    H133605   1.964   4.585   6.293  0.1880  1.2371  1.4823
11224TIP3    H233606   2.034   4.502   6.398  0.8893 -0.7860 -0.5483
11225TIP3   OH233607   1.241   4.497   6.304 -0.5573 -0.8569 -0.7236
11225TIP3    H133608   1.270   4.432   6.241  0.3872  0.5583 -1.7794
11225TIP3    H233609   1.308   4.566   6.299  0.1038 -1.1711  2.5359
11226TIP3   OH233610   7.855   3.093   1.223  0.1658  0.1825 -0.0656
11226TIP3    H133611   7.816   3.145   1.293 -1.3289 -1.1751  0.1546
11226TIP3    H233612   7.867   3.006   1.262  2.8407  0.3857 -0.3439
11227TIP3   OH233613   6.935   0.040   0.131 -0.3896 -0.4670 -0.1491
11227TIP3    H133614   6.908  -0.026   0.195  0.3346 -0.3091  0.3300
11227TIP3    H233615   7.026   0.059   0.154 -0.5225  0.5220 -0.4363
11228TIP3   OH233616   1.006   0.291   0.917 -0.2187 -0.8782 -0.2577
11228TIP3    H133617   0.954   0.217   0.949 -0.8056 -0.9673 -1.3645
11228TIP3    H233618   0.963   0.316   0.835  1.4187 -0.8758 -1.1447
11229TIP3   OH233619   4.068   4.130   4.960  0.5740  1.2101 -0.2626
11229TIP3    H133620   4.144   4.073   4.975 -0.5845 -0.4039 -0.4020
11229TIP3    H233621   3.994   4.080   4.993 -0.3099  3.2624  0.9654
11230TIP3   OH233622   0.071   2.456   0.151 -0.5491 -0.2568  0.3606
11230TIP3    H133623  -0.001   2.393   0.144 -0.4012 -0.2798 -1.1736
11230TIP3    H233624   0.103   2.466   0.061  1.9420 -0.9227  1.1288
11231TIP3   OH233625   2.215   4.343   3.233  0.2535  0.3548  0.2192
11231TIP3    H133626   2.152   4.401   3.191 -0.2639 -0.7504 -0.5667
11231TIP3    H233627   2.165   4.297   3.300  0.3042 -0.2727 -0.1709
11232TIP3   OH233628   1.757   3.358   6.792  0.1277  0.1833 -0.2139
11232TIP3    H133629   1.792   3.447   6.796 -1.0580  0.6307  0.8768
11232TIP3    H233630   1.762   3.327   6.882 -1.7513  0.0864 -0.1101
11233TIP3   OH233631   3.835   4.039   6.977 -0.3773  0.5971  0.2824
11233TIP3    H133632   3.807   3.964   6.924 -1.8806  1.2971  0.0620
11233TIP3    H233633   3.855   4.107   6.913  5.1642 -0.8306  0.1662
11234TIP3   OH233634   2.662   7.241   1.270 -0.0268 -0.3392  0.2021
11234TIP3    H133635   2.692   7.230   1.360  3.1290 -0.5448 -0.8370
11234TIP3    H233636   2.626   7.329   1.267  2.5519  0.7823  0.9701
11235TIP3   OH233637   3.888   5.195   4.839  0.1529 -0.6801  0.1968
11235TIP3    H133638   3.825   5.257   4.875  0.2493 -0.1108 -0.6065
11235TIP3    H233639   3.972   5.221   4.877  0.4973  0.8299 -1.5532
11236TIP3   OH233640   1.201   2.095   6.008  0.3536 -1.0097  0.4589
11236TIP3    H133641   1.234   2.039   5.938 -1.1044 -1.6421  0.2650
11236TIP3    H233642   1.184   2.035   6.081 -1.2550 -0.8572  0.2343
11237TIP3   OH233643   2.800   3.910   6.205  0.4284  0.0722 -0.4737
11237TIP3    H133644   2.881   3.859   6.196  0.6804  0.0361  1.8483
11237TIP3    H233645   2.806   3.950   6.292 -2.0742  0.0562 -0.2579
11238TIP3   OH233646   0.019   1.306   0.601  0.3077  0.3832  0.7993
11238TIP3    H133647   0.082   1.290   0.671  0.4489 -1.4831  0.2553
11238TIP3    H233648  -0.053   1.246   0.619 -0.7426  1.5841  0.6783
11239TIP3   OH233649   1.020   4.487   6.086 -0.3813 -0.2312 -0.4109
11239TIP3    H133650   1.028   4.537   6.005 -1.9081 -0.9211 -1.0156
11239TIP3    H233651   1.022   4.553   6.156 -0.9886  0.5364 -1.1144
11240TIP3   OH233652   2.509   6.039   6.943  0.4587 -0.2133 -0.1520
11240TIP3    H133653   2.576   6.075   6.885  0.5411 -1.4567 -0.8610
11240TIP3    H233654   2.426   6.070   6.906  0.5176 -0.8950 -0.8694
11241TIP3   OH233655   7.117   7.534   1.031  0.3508  0.1101  0.0450
11241TIP3    H133656   7.092   7.492   0.949 -0.3464  2.1032 -0.7949
11241TIP3    H233657   7.138   7.624   1.006 -0.0523  0.7923  2.0835
11242TIP3   OH233658   2.496   5.214   4.933 -0.0938  0.0322  0.1985
11242TIP3    H133659   2.454   5.290   4.892 -0.1253 -0.7133 -1.1901
11242TIP3    H233660   2.581   5.246   4.962 -0.7963  1.0386  1.2075
11243TIP3   OH233661   2.204   4.599   6.171  0.4352 -0.2755  0.1589
11243TIP3    H133662   2.243   4.685   6.163  0.8391 -0.5423 -0.7597
11243TIP3    H233663   2.111   4.613   6.154  0.0108  0.4510  2.9154
11244TIP3   OH233664   3.119   4.219   5.196  0.3544 -0.4005 -1.0426
11244TIP3    H133665   3.149   4.309   5.210 -1.1777  0.3907 -2.6119
11244TIP3    H233666   3.036   4.213   5.244  0.6002 -1.0667 -0.6922
11245TIP3   OH233667   5.345   7.661   0.077 -0.3244 -0.2232 -0.0977
11245TIP3    H133668   5.419   7.690   0.024 -0.6789 -0.4201 -0.7037
11245TIP3    H233669   5.351   7.566   0.079 -0.9213 -0.2815 -0.6893
11246TIP3   OH233670   6.806   7.118   1.880  0.3825 -0.4296 -0.0679
11246TIP3    H133671   6.884   7.173   1.874  0.8070 -1.0461 -0.2305
11246TIP3    H233672   6.814   7.057   1.807 -0.2482 -0.4968 -0.0779
11247TIP3   OH233673   2.000   5.079   5.487 -0.1984  0.3057 -0.5269
11247TIP3    H133674   2.064   5.042   5.548  1.3625 -0.0579 -2.3233
11247TIP3    H233675   1.918   5.036   5.510  0.3007  0.3515  1.4560
11248TIP3   OH233676   2.449   4.618   5.715 -0.5382 -0.2664 -0.6827
11248TIP3    H133677   2.413   4.673   5.785  0.2245 -0.2746 -0.2833
11248TIP3    H233678   2.442   4.672   5.636  1.8951  1.1603  0.0071
11249TIP3   OH233679   1.994   3.577   5.486  0.1746  0.0661  0.1499
11249TIP3    H133680   1.911   3.619   5.510 -0.2319  0.1355 -1.3074
11249TIP3    H233681   2.046   3.648   5.449  0.4178 -0.2283 -0.0720
11250TIP3   OH233682   1.096   7.015   6.739  0.1265 -0.3180 -0.1496
11250TIP3    H133683   1.053   6.972   6.813 -1.7621 -0.2777 -1.1871
11250TIP3    H233684   1.184   7.036   6.771 -0.3510 -1.1240  1.7645
11251TIP3   OH233685   5.659   7.978   0.211  0.3715 -0.5628  0.4114
11251TIP3    H133686   5.681   7.996   0.120  0.4658 -0.1774  0.5114
11251TIP3    H233687   5.566   8.001   0.218 -0.0996 -2.2279 -0.0216
11252TIP3   OH233688   3.096   4.142   6.844  0.2618 -0.1862  0.3218
11252TIP3    H133689   3.175   4.173   6.888 -0.7277  0.5030  1.6356
11252TIP3    H233690   3.026   4.198   6.878 -0.9076 -1.2670 -0.2739
11253TIP3   OH233691   7.951   2.188   0.516  0.2270 -0.6355 -0.3697
11253TIP3    H133692   7.877   2.135   0.547  0.0096 -0.1546 -0.0449
11253TIP3    H233693   7.963   2.162   0.425 -0.4041 -0.6553 -0.4530
11254TIP3   OH233694   0.717   0.938   0.023  0.1607 -0.2953 -0.4991
11254TIP3    H133695   0.707   1.019  -0.026  1.9578 -0.2100 -0.7630
11254TIP3    H233696   0.630   0.898   0.022 -0.8503  1.8306  0.0302
11255TIP3   OH233697   0.188   0.531   0.187  0.2500  0.3094 -0.2951
11255TIP3    H133698   0.170   0.624   0.172  2.7125  1.0941  1.3064
11255TIP3    H233699   0.216   0.498   0.102  0.4605  1.3233 -0.6270
11256TIP3   OH233700   8.220   0.533   0.960 -0.0687 -0.4478 -0.4127
11256TIP3    H133701   8.150   0.503   1.018  0.1376 -0.2354 -0.0613
11256TIP3    H233702   8.263   0.604   1.007  1.1947 -1.4079 -0.0830
11257TIP3   OH233703   3.391   2.745   6.253 -0.4568 -0.3506 -0.5044
11257TIP3    H133704   3.449   2.697   6.312 -2.0761 -2.4365 -0.5897
11257TIP3    H233705   3.306   2.704   6.263 -1.5583  1.5329 -1.7185
11258TIP3   OH233706   3.294   7.226   1.081  0.4276 -0.2382 -0.0470
11258TIP3    H133707   3.263   7.206   0.993  1.3014  0.3321 -0.4951
11258TIP3    H233708   3.386   7.200   1.080  0.1618 -1.2573  1.0422
11259TIP3   OH233709   5.321   6.671   0.179 -0.2471  0.5005  0.3307
11259TIP3    H133710   5.308   6.710   0.265  0.1674  0.0684  0.5893
11259TIP3    H233711   5.390   6.605   0.192 -0.8306 -0.2095 -0.1296
11260TIP3   OH233712   0.284   1.461   1.828  0.0043 -0.1654 -0.0829
11260TIP3    H133713   0.368   1.491   1.861  0.2483  0.9834 -1.6963
11260TIP3    H233714   0.299   1.370   1.803  1.2662  0.5421 -2.0073
11261TIP3   OH233715   3.158   5.561   6.511  0.0061  0.0078 -0.0973
11261TIP3    H133716   3.206   5.637   6.479 -0.7944  0.5555 -0.0359
11261TIP3    H233717   3.224   5.493   6.523  0.6439  0.5173 -0.7028
11262TIP3   OH233718   4.724   4.082   6.049 -0.0789 -0.1934  0.0647
11262TIP3    H133719   4.647   4.070   6.105 -1.0318 -0.1584 -1.2387
11262TIP3    H233720   4.784   4.135   6.102 -0.0873 -1.9452  1.8954
11263TIP3   OH233721   1.127   1.823   2.556  0.1737 -0.0538 -0.4884
11263TIP3    H133722   1.177   1.809   2.476  0.1433  0.1338 -0.5410
11263TIP3    H233723   1.138   1.742   2.606 -0.9096 -0.6999 -1.2674
11264TIP3   OH233724   8.155   1.636   2.156  0.6772  0.8242  0.3964
11264TIP3    H133725   8.137   1.620   2.064  0.6743 -1.6857  0.7939
11264TIP3    H233726   8.216   1.710   2.157 -0.1490  1.5531 -1.5471
11265TIP3   OH233727   6.255   7.953   0.005 -0.3496 -0.1135 -0.1357
11265TIP3    H133728   6.220   7.884   0.061  0.8176 -0.1121  0.6023
11265TIP3    H233729   6.349   7.956   0.025  0.0567  0.0121 -1.9540
11266TIP3   OH233730   3.494   6.985   6.462  0.1691  0.1839  0.1480
11266TIP3    H133731   3.485   7.066   6.512  1.2130  0.4102 -0.0381
11266TIP3    H233732   3.417   6.984   6.404 -2.2349 -1.1133  3.1924
11267TIP3   OH233733   1.318   4.240   6.625 -0.0957 -0.0126 -0.3252
11267TIP3    H133734   1.356   4.208   6.543 -0.0488  0.5985 -0.5467
11267TIP3    H233735   1.300   4.333   6.608 -1.5843 -0.2649 -0.1912
11268TIP3   OH233736   4.435   5.533   5.841  0.4793 -0.3458  0.4684
11268TIP3    H133737   4.371   5.569   5.778  0.1161  0.0689  1.0665
11268TIP3    H233738   4.423   5.438   5.836  0.5275 -0.3254 -0.1621
11269TIP3   OH233739   4.989   4.062   6.002  0.2092 -0.1448  0.3028
11269TIP3    H133740   4.970   4.104   6.086  0.8685  0.9347 -0.0649
11269TIP3    H233741   4.906   4.063   5.955 -0.0280 -0.2195  0.7220
11270TIP3   OH233742   0.885   3.904   5.815 -0.1494 -0.1293  0.2995
11270TIP3    H133743   0.970   3.942   5.838 -0.9571  1.6576  0.4194
11270TIP3    H233744   0.829   3.979   5.796 -1.8845 -1.2359  0.8395
11271TIP3   OH233745   0.396   0.362   0.405 -0.3157  0.2328  0.0763
11271TIP3    H133746   0.330   0.401   0.347 -1.7429 -0.7360  1.0364
11271TIP3    H233747   0.422   0.281   0.361 -0.6100  0.0360  0.2661
11272TIP3   OH233748   4.056   5.167   6.165  0.4703  0.0604 -0.1392
11272TIP3    H133749   4.133   5.170   6.221 -0.3688 -0.3546  1.0458
11272TIP3    H233750   4.088   5.130   6.082  1.9571  1.7426 -0.3584
11273TIP3   OH233751   3.852   5.062   6.554  0.3658  0.0925  0.1016
11273TIP3    H133752   3.784   4.999   6.578  0.3667  0.3608  0.8064
11273TIP3    H233753   3.905   5.071   6.633  1.6696 -0.6771 -0.6606
11274TIP3   OH233754   6.929   0.024   1.320  0.1188 -0.2160  0.0947
11274TIP3    H133755   6.932   0.096   1.257  0.4472 -0.7919 -0.5498
11274TIP3    H233756   7.016  -0.014   1.318 -0.3395 -1.2660 -0.3098
11275TIP3   OH233757   3.749   4.417   6.641  0.0410  0.1543  0.1678
11275TIP3    H133758   3.675   4.451   6.590 -0.7340 -2.2610 -0.4120
11275TIP3    H233759   3.825   4.430   6.585 -0.5829 -1.0620 -1.0024
11276TIP3   OH233760   4.125   4.369   5.937 -0.2740 -0.2578  1.0374
11276TIP3    H133761   4.141   4.423   6.014 -1.1440 -1.2640  1.9315
11276TIP3    H233762   4.031   4.376   5.921  0.1798  1.4374 -1.0727
11277TIP3   OH233763   2.240   0.068   0.431  0.0618 -0.6639  0.5288
11277TIP3    H133764   2.168   0.023   0.385  1.0718 -0.8896 -0.8735
11277TIP3    H233765   2.200   0.149   0.463 -1.1778 -1.4377  0.9985
11278TIP3   OH233766   5.917   7.688   1.019  1.1089 -0.3708  0.0067
11278TIP3    H133767   6.001   7.666   1.059  1.4907 -1.3092 -1.2499
11278TIP3    H233768   5.920   7.783   1.006  2.2217 -0.4690 -0.5489
11279TIP3   OH233769   0.467   1.271   2.163  0.1825  0.4517 -0.3578
11279TIP3    H133770   0.495   1.213   2.234 -0.6970  0.2220 -0.1866
11279TIP3    H233771   0.548   1.313   2.132  0.3596  1.9290  1.9805
11280TIP3   OH233772   2.950   3.315   6.215  0.4169 -0.1776  0.2195
11280TIP3    H133773   3.011   3.285   6.148  0.1590 -0.9809  0.3333
11280TIP3    H233774   2.993   3.296   6.298  0.1832 -0.3919  0.2948
11281TIP3   OH233775   4.781   3.556   6.592  0.4750 -0.4150 -0.0205
11281TIP3    H133776   4.873   3.579   6.604 -0.2512  2.8068 -0.1612
11281TIP3    H233777   4.742   3.633   6.550 -2.1577 -1.9770 -0.5804
11282TIP3   OH233778   1.635   7.032   6.082 -0.3833  0.1264 -0.1319
11282TIP3    H133779   1.671   7.061   6.166 -0.7643  0.3246 -0.0401
11282TIP3    H233780   1.648   6.937   6.082  1.9369  0.4024 -0.9327
11283TIP3   OH233781   5.421   3.813   6.478  0.0219  0.0261 -0.5422
11283TIP3    H133782   5.488   3.879   6.496  1.4663 -1.7653  0.8097
11283TIP3    H233783   5.410   3.766   6.560 -1.1661 -1.2543 -1.4047
11284TIP3   OH233784   1.329   5.387   6.122  0.0755  0.0899 -0.5123
11284TIP3    H133785   1.246   5.426   6.096 -0.2078 -0.2170 -0.0612
11284TIP3    H233786   1.364   5.447   6.188 -0.1376 -0.1705 -0.1627
11285TIP3   OH233787   5.696   2.134   0.837  0.5309 -0.1683 -0.1114
11285TIP3    H133788   5.631   2.064   0.837 -1.5853  1.7244 -1.5354
11285TIP3    H233789   5.690   2.172   0.925  0.0849 -0.3153 -0.0786
11286TIP3   OH233790   5.154   5.004   6.725  0.5029  0.1037  0.7006
11286TIP3    H133791   5.233   5.009   6.672  0.7241 -2.2810  0.7696
11286TIP3    H233792   5.083   5.022   6.664  0.8535 -1.2852 -0.1282
11287TIP3   OH233793   2.970   6.253   5.371  0.3314 -0.1594 -0.7489
11287TIP3    H133794   3.045   6.232   5.426  0.7295 -0.6217 -1.4608
11287TIP3    H233795   2.901   6.193   5.401  0.7085 -0.7722 -1.1075
11288TIP3   OH233796   3.351   6.004   6.641  0.2937  0.1558 -0.0637
11288TIP3    H133797   3.390   6.008   6.729  0.1894 -1.0874  0.0480
11288TIP3    H233798   3.310   6.090   6.629  0.3595  0.3585  1.0880
11289TIP3   OH233799   4.481   5.858   5.851 -0.2859 -0.2702  0.2211
11289TIP3    H133800   4.438   5.878   5.768  1.1173 -0.5553 -0.5852
11289TIP3    H233801   4.485   5.762   5.853 -0.4853 -0.2707  0.7197
11290TIP3   OH233802   6.154   3.948   4.649  0.9809 -0.5075 -0.0221
11290TIP3    H133803   6.100   3.960   4.727  1.1401 -1.7458  0.2888
11290TIP3    H233804   6.093   3.917   4.582  1.2667 -1.7534  0.2846
11291TIP3   OH233805   3.654   7.223   4.893 -0.3257 -0.4449 -0.4057
11291TIP3    H133806   3.748   7.242   4.897 -0.3993 -0.1067 -0.2532
11291TIP3    H233807   3.635   7.214   4.800 -0.1503 -0.4710 -0.4386
11292TIP3   OH233808   4.254   5.178   6.390 -0.5091  0.1610 -0.1548
11292TIP3    H133809   4.176   5.222   6.423 -0.6131 -0.9354  1.1118
11292TIP3    H233810   4.312   5.249   6.363 -1.1342  1.0369  0.7735
11293TIP3   OH233811   4.292   4.886   4.483 -0.4879  0.3056 -0.4959
11293TIP3    H133812   4.262   4.959   4.536  1.6019 -0.3455  1.6749
11293TIP3    H233813   4.362   4.922   4.428  0.1495  0.0760  0.1607
11294TIP3   OH233814   5.280   4.748   5.779  0.3597  0.4783 -0.1346
11294TIP3    H133815   5.358   4.733   5.727  0.6221  1.4993 -0.0536
11294TIP3    H233816   5.224   4.672   5.762  2.2440 -1.3238  1.4492
11295TIP3   OH233817   4.750   6.990   6.088  0.2641  0.6136  0.4013
11295TIP3    H133818   4.772   7.062   6.147 -1.2064 -0.2348  2.0493
11295TIP3    H233819   4.825   6.931   6.092  0.8926  1.3855  0.0931
11296TIP3   OH233820   2.939   2.607   6.802 -0.3205  0.1562 -0.2028
11296TIP3    H133821   2.969   2.583   6.890 -0.7173 -0.1984 -0.1588
11296TIP3    H233822   2.843   2.603   6.808 -0.3607  0.6585 -0.5032
11297TIP3   OH233823   3.964   5.176   6.785 -0.4718  0.6233  0.3723
11297TIP3    H133824   4.019   5.252   6.767  0.9220 -0.5490 -0.3739
11297TIP3    H233825   4.002   5.138   6.864  0.5401 -0.8726 -0.8203
11298TIP3   OH233826   8.255   2.007   0.670 -0.2496  0.1675 -0.8773
11298TIP3    H133827   8.180   2.008   0.730 -0.0970 -0.2887 -0.6750
11298TIP3    H233828   8.282   2.098   0.663 -1.2058  0.4231 -1.4223
11299TIP3   OH233829   5.779   7.986   1.550 -0.6632 -0.1024  0.2446
11299TIP3    H133830   5.872   7.991   1.569 -0.7715 -0.0131  0.7554
11299TIP3    H233831   5.753   7.898   1.576 -0.9990  0.3211  1.3727
11300TIP3   OH233832   3.142   4.853   5.516 -0.5352  0.9026  0.1418
11300TIP3    H133833   3.215   4.797   5.543  0.0129  1.8727  0.7310
11300TIP3    H233834   3.093   4.801   5.454  0.8371  0.3338 -0.4841
11301TIP3   OH233835   5.032   5.498   5.462  0.5317 -0.0802  0.1013
11301TIP3    H133836   4.955   5.532   5.507  0.8330 -1.2389  1.5278
11301TIP3    H233837   5.090   5.574   5.454 -0.9913  0.9688 -1.5896
11302TIP3   OH233838   5.415   3.924   6.172 -0.1866  0.0477  0.0429
11302TIP3    H133839   5.353   3.915   6.245 -0.3198  2.3447  0.2665
11302TIP3    H233840   5.414   3.839   6.128 -1.4201 -0.8108  1.6931
11303TIP3   OH233841   2.181   4.487   6.767  0.7077 -0.5582 -0.3335
11303TIP3    H133842   2.194   4.500   6.860  0.8163 -0.4995 -0.3565
11303TIP3    H233843   2.099   4.531   6.747  1.3472  0.5622 -0.5136
11304TIP3   OH233844   2.643   3.689   6.787  0.0897  0.0350 -0.0371
11304TIP3    H133845   2.656   3.596   6.766  0.3365 -0.0181  0.3370
11304TIP3    H233846   2.683   3.736   6.714  0.2541 -0.1507 -0.0686
11305TIP3   OH233847   4.274   3.805   6.330 -0.1673 -0.7046  0.0744
11305TIP3    H133848   4.359   3.829   6.367 -0.5951  0.3868  0.3639
11305TIP3    H233849   4.258   3.869   6.261 -2.0025  0.8377  1.8397
11306TIP3   OH233850   6.202   6.266   1.521  0.0362 -0.3349 -0.1344
11306TIP3    H133851   6.266   6.263   1.451  2.2681  0.5585  1.8000
11306TIP3    H233852   6.252   6.244   1.600 -1.6077  2.1212  1.6748
11307TIP3   OH233853   6.583   0.177   0.899  0.0576  0.0560 -0.4690
11307TIP3    H133854   6.556   0.126   0.975  0.2684  1.0863  0.2965
11307TIP3    H233855   6.607   0.111   0.833 -1.3307 -0.8527 -0.0890
11308TIP3   OH233856   4.494   3.813   6.863  0.2002 -0.1810 -0.0059
11308TIP3    H133857   4.518   3.725   6.834 -0.4550 -0.4545  0.2656
11308TIP3    H233858   4.403   3.805   6.892 -0.0446  0.7030 -0.4936
11309TIP3   OH233859   2.089   3.958   5.994 -0.4847 -0.5442  0.3960
11309TIP3    H133860   2.121   3.914   5.916 -0.4492 -0.3872  0.3213
11309TIP3    H233861   2.067   3.887   6.055  2.3505 -0.6225  1.4071
11310TIP3   OH233862   0.088   4.564   6.741 -0.3055  0.3446  0.2798
11310TIP3    H133863   0.066   4.657   6.734  0.7349  0.6860  1.3315
11310TIP3    H233864   0.168   4.562   6.794 -1.0175 -1.2314  1.3368
11311TIP3   OH233865   2.398   7.004   6.010  0.0282 -0.5378 -0.0727
11311TIP3    H133866   2.371   6.918   6.041  1.4577 -0.5022  1.3350
11311TIP3    H233867   2.478   7.023   6.059 -0.1390  1.4852 -0.5375
11312TIP3   OH233868   1.758   3.966   6.733 -0.1263  0.7288 -0.1104
11312TIP3    H133869   1.687   3.904   6.712 -0.9886  1.3481  0.9291
11312TIP3    H233870   1.762   4.024   6.657  0.3734 -0.2944 -0.8889
11313TIP3   OH233871   0.626   3.168   2.212  0.2353 -0.0070 -0.2361
11313TIP3    H133872   0.657   3.241   2.265 -1.4853 -0.2774  1.1971
11313TIP3    H233873   0.551   3.202   2.164 -0.5845 -0.8067  0.4517
11314TIP3   OH233874   1.048   1.472   0.147 -0.1965 -0.1377 -0.1315
11314TIP3    H133875   1.121   1.418   0.117 -0.3111  0.3271 -1.2641
11314TIP3    H233876   1.087   1.559   0.159 -0.1799 -0.2858  0.9572
11315TIP3   OH233877   0.531   1.109   1.059 -0.2048  0.0502 -0.1116
11315TIP3    H133878   0.554   1.043   0.994  0.7227 -0.6043  0.8632
11315TIP3    H233879   0.588   1.183   1.039  0.1672 -0.1971  0.0393
11316TIP3   OH233880   8.065   2.410   0.402  0.1546  0.6695  0.0482
11316TIP3    H133881   8.082   2.377   0.313 -1.4676  1.4730 -0.5903
11316TIP3    H233882   8.012   2.342   0.443 -0.4592  1.0147 -0.1627
11317TIP3   OH233883   1.209   1.657   0.601 -0.1750  0.1183  0.3964
11317TIP3    H133884   1.257   1.574   0.612  1.2619  0.9298  0.4035
11317TIP3    H233885   1.278   1.724   0.600 -1.4907  1.5253  2.6392
11318TIP3   OH233886   1.941   5.984   6.598  0.6647 -0.1051  0.0736
11318TIP3    H133887   1.867   5.929   6.572 -0.6916  0.9039  1.7086
11318TIP3    H233888   2.003   5.923   6.637 -0.5388 -0.5885  1.2568
11319TIP3   OH233889   4.277   5.431   5.245 -0.1370  0.1999  0.1017
11319TIP3    H133890   4.266   5.356   5.303  0.2230 -0.1142 -0.2386
11319TIP3    H233891   4.328   5.398   5.171  0.5412  0.9311  0.2397
11320TIP3   OH233892   3.003   6.759   5.737  0.7825  0.4131 -0.1285
11320TIP3    H133893   3.029   6.847   5.712  1.4253 -0.0039 -0.9735
11320TIP3    H233894   2.980   6.717   5.654  0.3528 -0.1692  0.2809
11321TIP3   OH233895   2.470   6.773   5.449  0.4790 -0.2080  0.5423
11321TIP3    H133896   2.378   6.761   5.426  0.2003  1.4124  0.7417
11321TIP3    H233897   2.468   6.815   5.535  1.3781  1.2232 -0.1247
11322TIP3   OH233898   6.295   0.837   0.435  0.0465 -0.0448  0.0542
11322TIP3    H133899   6.344   0.770   0.483  0.1614 -1.0292 -1.4028
11322TIP3    H233900   6.212   0.845   0.482 -0.2235 -1.6758 -0.1126
11323TIP3   OH233901   2.310   4.036   6.703  0.0307 -0.3505 -0.5613
11323TIP3    H133902   2.325   3.949   6.740  0.6733 -0.6087 -1.4104
11323TIP3    H233903   2.228   4.065   6.742  1.2938 -0.0946  2.0469
11324TIP3   OH233904   1.149   5.243   6.697 -0.4204  0.1004  0.3799
11324TIP3    H133905   1.150   5.168   6.638  3.2256 -0.0842  0.5993
11324TIP3    H233906   1.119   5.316   6.643 -1.9850 -1.0472 -0.3500
11325TIP3   OH233907   7.298   0.942   0.912 -0.0849  0.0106 -0.7095
11325TIP3    H133908   7.218   0.895   0.888 -0.9544  0.2928  1.4680
11325TIP3    H233909   7.270   1.033   0.919  0.0146 -0.1015  1.6038
11326TIP3   OH233910   8.388   3.491   0.981  0.0471 -0.6717 -0.1718
11326TIP3    H133911   8.450   3.505   1.053  1.5732 -0.7245 -1.4338
11326TIP3    H233912   8.403   3.565   0.922 -0.8909 -0.8366 -0.6195
11327TIP3   OH233913   1.041   1.878   0.670  0.5076 -0.1734 -0.3570
11327TIP3    H133914   0.988   1.892   0.749 -0.9557  0.6763 -1.4739
11327TIP3    H233915   1.044   1.783   0.660 -1.9055 -0.2301 -0.9745
11328TIP3   OH233916   0.994   1.633   0.407  0.2039  0.1147 -0.3317
11328TIP3    H133917   1.072   1.633   0.462  0.0621 -1.8738 -0.1132
11328TIP3    H233918   1.025   1.663   0.321  0.9656  0.5190  0.0837
11329TIP3   OH233919   3.386   7.261   1.352 -0.6300  0.1241 -0.6769
11329TIP3    H133920   3.317   7.266   1.286  0.1293  2.1759 -1.3484
11329TIP3    H233921   3.339   7.247   1.435 -1.7490  0.2578 -1.2870
11330TIP3   OH233922   1.016   3.348   5.777  0.0119 -0.8272 -0.0507
11330TIP3    H133923   0.934   3.391   5.753  0.7844  0.4579 -0.4332
11330TIP3    H233924   1.074   3.420   5.805  1.2519 -1.6333 -0.5027
11331TIP3   OH233925   0.596   4.698   6.423 -0.6823  0.2883  0.0996
11331TIP3    H133926   0.581   4.617   6.373 -0.5934  0.5447 -0.3414
11331TIP3    H233927   0.566   4.768   6.365  1.3900  0.7418 -0.4393
11332TIP3   OH233928   8.275   0.368   1.531 -0.3723 -0.6761 -0.1816
11332TIP3    H133929   8.325   0.286   1.537  1.0553  0.2202  0.4393
11332TIP3    H233930   8.292   0.412   1.614 -2.0575 -0.2666 -0.0480
11333TIP3   OH233931   3.724   3.587   4.252  0.1102  0.2223  0.0584
11333TIP3    H133932   3.736   3.640   4.173 -0.4581  0.7629  0.3277
11333TIP3    H233933   3.801   3.606   4.305  1.2468 -1.3187 -1.0236
11334TIP3   OH233934   8.296   1.966   1.804  0.4082 -0.3527 -0.3866
11334TIP3    H133935   8.333   1.944   1.718  1.1906  3.0558 -1.0305
11334TIP3    H233936   8.224   2.027   1.784  0.2076  0.0080  1.3281
11335TIP3   OH233937   2.180   4.468   6.481 -0.0370 -0.3934  0.2794
11335TIP3    H133938   2.180   4.507   6.568 -2.2917  1.9895 -0.7256
11335TIP3    H233939   2.251   4.511   6.435 -0.7600  0.5441  0.0279
11336TIP3   OH233940   0.399   0.543   0.003  0.0424  0.1529 -0.5000
11336TIP3    H133941   0.459   0.578   0.069 -0.7113 -1.1202  0.8668
11336TIP3    H233942   0.407   0.605  -0.071  0.6990  1.7208  0.8433
11337TIP3   OH233943   0.785   2.173   0.983 -0.0225 -0.0062  0.3444
11337TIP3    H133944   0.709   2.169   0.925  0.2741  1.0616 -0.1362
11337TIP3    H233945   0.836   2.247   0.950  1.3930 -0.9096  0.4648
11338TIP3   OH233946   2.590   4.282   4.348  0.6761  0.5125 -0.2489
11338TIP3    H133947   2.494   4.286   4.348  0.6564  0.0101  0.8124
11338TIP3    H233948   2.614   4.300   4.257 -0.4748 -0.3935 -0.7472
11339TIP3   OH233949   2.029   4.084   6.759  0.3032  0.6313 -0.3983
11339TIP3    H133950   2.011   4.169   6.799 -0.7607  0.3392 -0.2448
11339TIP3    H233951   1.945   4.039   6.759  0.9150 -0.5311 -0.2224
11340TIP3   OH233952   4.053   2.875   6.870  0.7808  0.4361 -0.2921
11340TIP3    H133953   3.986   2.943   6.865  1.1026  0.8642  0.9404
11340TIP3    H233954   4.133   2.922   6.894  1.0278 -0.3495  0.4887
11341TIP3   OH233955   8.029   1.160   1.084  0.3109  0.4385  0.1521
11341TIP3    H133956   8.115   1.138   1.121  0.4832  0.8375 -0.0060
11341TIP3    H233957   8.020   1.103   1.008  0.2662  0.1213  0.3935
11342TIP3   OH233958   1.160   1.430   1.039  0.2003 -0.3048  0.0708
11342TIP3    H133959   1.209   1.352   1.015  1.4236  0.8845 -1.3753
11342TIP3    H233960   1.159   1.428   1.135  0.1287 -2.1277  0.0544
11343TIP3   OH233961   4.011   4.475   5.223  0.8652 -0.2163 -0.1023
11343TIP3    H133962   4.066   4.429   5.287  0.6335 -1.1590 -0.5885
11343TIP3    H233963   3.957   4.407   5.183 -1.8693  0.9231  1.5458
11344TIP3   OH233964   5.206   3.736   6.295  0.2781 -0.1860  0.0958
11344TIP3    H133965   5.150   3.783   6.357  1.6496  0.6230  0.7467
11344TIP3    H233966   5.288   3.722   6.342  0.5562 -1.5543 -0.7665
11345TIP3   OH233967   6.651   3.600   4.714 -0.0265 -0.0992 -0.3550
11345TIP3    H133968   6.571   3.587   4.765 -0.0034 -0.2596 -0.3595
11345TIP3    H233969   6.642   3.541   4.639 -0.2992  0.5218 -0.8107
11346TIP3   OH233970   4.724   4.408   4.916 -0.5785 -0.0534 -0.1657
11346TIP3    H133971   4.674   4.490   4.918 -0.1899  0.1542  1.1035
11346TIP3    H233972   4.816   4.437   4.913 -0.2674 -0.4171  4.0247
11347TIP3   OH233973   5.552   5.305   4.871 -0.6947  0.0865 -0.6708
11347TIP3    H133974   5.475   5.251   4.852 -1.0158 -0.6319  2.3825
11347TIP3    H233975   5.529   5.392   4.837 -3.0226 -0.0273  0.5367
11348TIP3   OH233976   0.942   4.862   6.465  0.2091 -0.6253  0.5896
11348TIP3    H133977   0.929   4.925   6.394 -0.4189  0.0221  1.2674
11348TIP3    H233978   0.855   4.829   6.484  0.4699 -1.3105  0.6027
11349TIP3   OH233979   3.958   5.036   5.639 -0.4147  0.0996  0.1520
11349TIP3    H133980   3.996   4.965   5.691  2.5277  0.4024 -1.4829
11349TIP3    H233981   3.889   4.994   5.587  2.8719 -2.1501 -2.5967
11350TIP3   OH233982   1.516   5.071   6.691  0.2096  0.0481  0.4325
11350TIP3    H133983   1.566   5.145   6.724 -1.0001  0.8113  0.5869
11350TIP3    H233984   1.480   5.101   6.607  0.0829 -0.5202  0.2745
11351TIP3   OH233985   7.803   5.566   4.221  0.0879 -0.1295  0.2184
11351TIP3    H133986   7.734   5.568   4.288 -0.0151 -0.3177  0.1158
11351TIP3    H233987   7.758   5.585   4.139  0.1417 -0.3484  0.1372
11352TIP3   OH233988   5.162   4.393   4.820 -0.8379 -0.1273  0.2117
11352TIP3    H133989   5.207   4.316   4.854  0.0324  0.1917 -0.2108
11352TIP3    H233990   5.135   4.369   4.731 -1.0548 -0.1368  0.2792
11353TIP3   OH233991   6.557   3.234   4.092  0.0697 -0.0560 -0.4929
11353TIP3    H133992   6.467   3.246   4.124  0.9597  1.1532  1.6712
11353TIP3    H233993   6.584   3.321   4.062  1.0101 -0.0826  0.2404
11354TIP3   OH233994   6.528   6.472   0.427 -0.5721 -0.4502 -0.1953
11354TIP3    H133995   6.475   6.546   0.399 -2.6333 -1.9271 -0.3398
11354TIP3    H233996   6.488   6.445   0.510  2.1885  0.6009  1.5433
11355TIP3   OH233997   1.809   1.517   0.956 -0.5379  0.8933  0.5209
11355TIP3    H133998   1.813   1.510   1.051 -0.4443  0.3832  0.4827
11355TIP3    H233999   1.822   1.427   0.925  2.9565  1.5511 -0.1016
11356TIP3   OH234000   4.878   3.795   5.321 -0.0358 -0.1794 -0.2155
11356TIP3    H134001   4.895   3.703   5.302 -0.0429 -0.1378 -0.4256
11356TIP3    H234002   4.815   3.822   5.255  0.5495  0.1766 -0.6386
11357TIP3   OH234003   4.314   6.031   6.718 -0.0314 -0.6810 -0.0462
11357TIP3    H134004   4.250   6.089   6.759 -0.7967 -1.2026 -0.4859
11357TIP3    H234005   4.381   6.089   6.683 -0.1102 -0.1450  0.6827
11358TIP3   OH234006   5.017   5.273   3.914  0.0051  0.2400  0.3428
11358TIP3    H134007   4.989   5.363   3.898 -0.6287 -0.3639 -2.1010
11358TIP3    H234008   4.947   5.236   3.968 -2.1944 -0.1739 -2.6861
11359TIP3   OH234009   3.861   3.299   4.599  0.1735  0.3987  0.6721
11359TIP3    H134010   3.858   3.266   4.509 -1.5725  0.5777  0.6568
11359TIP3    H234011   3.909   3.231   4.647 -0.6618 -0.6723  0.0185
11360TIP3   OH234012   5.702   4.535   4.606  0.0280 -0.0062 -0.2263
11360TIP3    H134013   5.729   4.486   4.528 -0.9157 -0.4293 -0.3041
11360TIP3    H234014   5.617   4.573   4.582  1.0033  2.1207 -0.3448
11361TIP3   OH234015   5.795   3.456   5.353 -0.1806 -0.0986 -0.2111
11361TIP3    H134016   5.741   3.388   5.393  0.9825 -1.1910 -0.4464
11361TIP3    H234017   5.754   3.538   5.379 -2.3526 -0.9044 -0.9752
11362TIP3   OH234018   1.990   0.005   0.049  0.3922 -0.2715  0.1656
11362TIP3    H134019   2.081  -0.015   0.073  1.2127  1.4655 -1.3347
11362TIP3    H234020   1.982   0.099   0.062 -1.8557 -0.7091  2.2546
11363TIP3   OH234021   4.582   4.173   6.634 -0.4600  0.3041  0.2784
11363TIP3    H134022   4.538   4.122   6.702  0.1728 -0.2470  0.2789
11363TIP3    H234023   4.514   4.230   6.599 -1.7720 -2.1969 -1.3895
11364TIP3   OH234024   2.791   3.735   4.806 -0.3852 -0.1692  0.1535
11364TIP3    H134025   2.827   3.823   4.796  0.2549 -0.6248 -1.7238
11364TIP3    H234026   2.718   3.731   4.744 -0.5915 -0.8840  0.4296
11365TIP3   OH234027   6.677   7.301   0.378 -0.3320 -0.0368  0.0345
11365TIP3    H134028   6.586   7.283   0.403 -0.5209  0.7484 -0.0582
11365TIP3    H234029   6.721   7.217   0.384 -0.6612 -0.1103  1.8178
11366TIP3   OH234030   4.483   6.028   5.166 -0.2031  0.0399  0.0641
11366TIP3    H134031   4.434   5.963   5.116 -0.7345  0.7649 -0.3586
11366TIP3    H234032   4.497   6.100   5.105  1.9134 -0.4006 -0.0141
11367TIP3   OH234033   2.255   1.137   0.046 -0.1448 -0.0232 -0.1605
11367TIP3    H134034   2.239   1.117  -0.046 -0.8454 -0.2179  0.0015
11367TIP3    H234035   2.245   1.053   0.091  0.7547 -0.0344  0.0215
11368TIP3   OH234036   5.816   2.925   5.393 -0.5753  0.3004 -0.4507
11368TIP3    H134037   5.887   2.924   5.458 -1.3827  0.5612  0.4521
11368TIP3    H234038   5.839   2.996   5.334 -0.0528  0.3464 -0.1967
11369TIP3   OH234039   5.484   4.681   5.618  0.8989 -0.1732 -0.5521
11369TIP3    H134040   5.509   4.589   5.613  1.9316  0.1843 -2.5577
11369TIP3    H234041   5.483   4.711   5.527 -0.0037  1.6465  0.0261
11370TIP3   OH234042   5.762   5.038   5.275  0.0020  0.0869  0.4468
11370TIP3    H134043   5.753   4.959   5.222  1.8808 -0.9482  1.6179
11370TIP3    H234044   5.710   5.020   5.353 -0.0713  0.2664  0.4396
11371TIP3   OH234045   6.119   4.091   6.694  0.3721  0.0455  0.0640
11371TIP3    H134046   6.105   4.001   6.722  0.2237  0.4854  1.4562
11371TIP3    H234047   6.145   4.084   6.602 -1.0429 -1.3021 -0.2456
11372TIP3   OH234048   1.455   0.069   0.388  0.4590 -0.2904  0.5996
11372TIP3    H134049   1.368   0.034   0.409 -0.3057  0.4886 -1.2378
11372TIP3    H234050   1.450   0.161   0.413  0.9616 -0.3687  1.0117
11373TIP3   OH234051   3.796   4.649   5.238 -0.3398 -0.5435  0.2220
11373TIP3    H134052   3.871   4.592   5.219  0.8960 -0.0825  3.4053
11373TIP3    H234053   3.734   4.593   5.284 -1.3317 -0.5186 -1.0344
11374TIP3   OH234054   5.940   5.728   5.201 -0.5720 -0.0684 -0.3337
11374TIP3    H134055   5.883   5.651   5.209  0.0460 -0.6027 -1.0241
11374TIP3    H234056   5.939   5.749   5.108 -1.3507  1.2403 -0.0428
11375TIP3   OH234057   5.744   3.896   6.448 -0.0215 -0.4473 -0.2798
11375TIP3    H134058   5.701   3.933   6.371 -0.6473 -1.3188 -0.3702
11375TIP3    H234059   5.836   3.888   6.423 -0.2450 -0.8522 -0.9972
11376TIP3   OH234060   5.809   4.418   5.137  0.6671 -0.5356 -0.3529
11376TIP3    H134061   5.817   4.443   5.045 -1.9161  0.3558 -0.3664
11376TIP3    H234062   5.765   4.333   5.134  2.7172 -1.6350 -0.0072
11377TIP3   OH234063   0.653   2.252   0.753  0.3857 -0.2945  0.0383
11377TIP3    H134064   0.723   2.289   0.700  0.8802 -2.1546 -0.6308
11377TIP3    H234065   0.611   2.187   0.697 -0.2886 -0.9570  1.2733
11378TIP3   OH234066   6.974   7.893   1.191 -0.1998  0.0135  0.0863
11378TIP3    H134067   6.940   7.939   1.114  2.7827  0.1847 -1.2154
11378TIP3    H234068   6.903   7.898   1.255 -0.9005  4.3650 -0.8539
11379TIP3   OH234069   5.106   4.832   6.319  0.1842  0.1148 -0.0659
11379TIP3    H134070   5.188   4.792   6.346 -0.6044 -2.0993 -0.9026
11379TIP3    H234071   5.117   4.849   6.226 -0.0180  0.6058 -0.0055
11380TIP3   OH234072   5.373   3.099   6.574 -0.6509 -0.4757  0.3765
11380TIP3    H134073   5.381   3.029   6.640 -0.1316  0.6986  1.5888
11380TIP3    H234074   5.334   3.172   6.622  2.4757  1.4292  0.1767
11381TIP3   OH234075   5.766   6.115   5.576 -0.7830  0.1631  0.0774
11381TIP3    H134076   5.849   6.123   5.622 -1.3628 -0.2186  1.2051
11381TIP3    H234077   5.750   6.020   5.571 -1.0187  0.2232 -0.3911
11382TIP3   OH234078   3.593   5.605   5.564 -0.5590  0.0586  0.0625
11382TIP3    H134079   3.546   5.616   5.481  0.1948 -0.8650 -0.4894
11382TIP3    H234080   3.650   5.682   5.569 -0.6717  0.1615 -0.2168
11383TIP3   OH234081   3.728   0.663   0.337  0.7700 -0.1855  0.1926
11383TIP3    H134082   3.681   0.656   0.255 -0.9333  0.4826  1.0949
11383TIP3    H234083   3.721   0.575   0.376 -0.5386  0.1559  0.7477
11384TIP3   OH234084   3.731   0.195   0.773 -0.0874  0.8262  0.0857
11384TIP3    H134085   3.686   0.138   0.836 -1.6251  1.5237 -0.3607
11384TIP3    H234086   3.706   0.284   0.799  0.9230  1.2274 -0.2763
11385TIP3   OH234087   4.373   3.943   5.469  0.3466 -1.4701  0.2151
11385TIP3    H134088   4.463   3.914   5.479  0.0128 -2.9498 -0.9342
11385TIP3    H234089   4.379   4.024   5.418  0.9327 -2.3533 -1.1502
11386TIP3   OH234090   5.289   0.979   5.548  0.5618 -0.2783  0.3563
11386TIP3    H134091   5.343   0.943   5.619  0.1086 -0.2379  0.7226
11386TIP3    H234092   5.351   0.997   5.478  0.9900 -0.4864  0.6789
11387TIP3   OH234093   5.277   4.122   4.845 -0.1201 -1.1393 -0.0467
11387TIP3    H134094   5.187   4.089   4.851 -0.1796 -1.4188 -2.1454
11387TIP3    H234095   5.329   4.046   4.821  0.4230 -0.6634 -0.4050
11388TIP3   OH234096   3.855   4.285   5.104  0.2955  0.5812 -1.3526
11388TIP3    H134097   3.867   4.192   5.122  0.3887  1.0527  1.1343
11388TIP3    H234098   3.782   4.288   5.042 -0.8657 -1.0542 -0.1156
11389TIP3   OH234099   1.938   2.251   0.127  0.2196  0.0728  0.0633
11389TIP3    H134100   1.849   2.271   0.098  0.0274 -0.0421  0.5713
11389TIP3    H234101   1.930   2.237   0.221  0.9259  0.9495  0.2610
11390TIP3   OH234102  -0.025   1.818   1.342 -0.2378 -0.5064  0.4048
11390TIP3    H134103  -0.010   1.889   1.281 -0.3131 -0.8724 -0.0426
11390TIP3    H234104   0.059   1.771   1.346 -0.1332 -0.2825  0.8395
11391TIP3   OH234105   5.248   5.204   5.961  0.1514 -0.1625  0.5828
11391TIP3    H134106   5.239   5.123   5.911 -0.4331 -0.3079  0.9115
11391TIP3    H234107   5.341   5.212   5.980  0.5711  0.5348 -1.6106
11392TIP3   OH234108   4.451   0.418   0.643  0.1104 -0.2664  0.4623
11392TIP3    H134109   4.425   0.486   0.705  1.3685 -0.0975  0.8260
11392TIP3    H234110   4.495   0.352   0.697  0.8352 -0.3235 -0.1854
11393TIP3   OH234111   3.633   2.846   0.176 -0.0111  0.5109 -0.3297
11393TIP3    H134112   3.625   2.774   0.238 -1.1668  0.5203 -0.4545
11393TIP3    H234113   3.580   2.820   0.101  1.3710  0.5044 -1.3226
11394TIP3   OH234114   2.807   3.373   0.997 -0.0036 -0.8663  0.5925
11394TIP3    H134115   2.731   3.429   0.983  0.1674 -0.6067  0.7002
11394TIP3    H234116   2.857   3.417   1.066  2.0461  0.8299 -1.8641
11395TIP3   OH234117   4.852   6.640   4.336  0.1107 -0.0331 -0.4067
11395TIP3    H134118   4.853   6.590   4.418 -0.9918 -0.3161 -0.5577
11395TIP3    H234119   4.848   6.731   4.363  1.6269 -0.0329 -0.1320
11396TIP3   OH234120   5.265   4.121   5.218  0.1916  0.0534 -0.5989
11396TIP3    H134121   5.221   4.085   5.141  1.4523  0.8721 -1.7186
11396TIP3    H234122   5.352   4.080   5.217  0.0664 -0.2672  0.6417
11397TIP3   OH234123   1.376   0.466   0.130 -0.1987 -0.4339  0.1643
11397TIP3    H134124   1.370   0.393   0.068  2.0205 -0.1569 -0.4278
11397TIP3    H234125   1.467   0.496   0.123 -0.6565  1.3797  1.5527
11398TIP3   OH234126   0.392   0.511   1.805  1.0367  0.3287 -0.2868
11398TIP3    H134127   0.400   0.574   1.733 -1.6229  0.6332 -0.3514
11398TIP3    H234128   0.398   0.426   1.762 -0.9673  0.5061 -0.9536
11399TIP3   OH234129   3.072   5.441   5.920 -0.0904 -0.0136 -0.1003
11399TIP3    H134130   3.062   5.348   5.941 -1.8486  0.5591  1.7294
11399TIP3    H234131   3.066   5.445   5.824 -0.6424 -1.7015 -0.1486
11400TIP3   OH234132   5.654   2.507   5.880  0.1261 -0.4498 -0.7249
11400TIP3    H134133   5.735   2.554   5.860  0.0226  0.0247 -0.0296
11400TIP3    H234134   5.639   2.452   5.803 -0.8473  2.1724 -2.4585
11401TIP3   OH234135   4.493   4.136   6.233 -0.1947  0.1260 -0.0623
11401TIP3    H134136   4.488   4.231   6.239 -2.3753  0.0447  0.0697
11401TIP3    H234137   4.405   4.109   6.204  0.5918 -1.7946 -0.7734
11402TIP3   OH234138   6.060   3.640   6.211 -0.2876  0.5197  0.1973
11402TIP3    H134139   5.998   3.626   6.139 -1.8382  0.3006  1.5302
11402TIP3    H234140   6.106   3.721   6.187  0.0918 -0.1940 -1.6095
11403TIP3   OH234141   1.560   1.698   0.952  0.1627 -0.1344  0.1605
11403TIP3    H134142   1.505   1.665   1.024  0.3918 -1.1579 -0.1263
11403TIP3    H234143   1.621   1.626   0.934  0.3422  0.2602 -0.8162
11404TIP3   OH234144   5.413   2.102   6.555 -0.4210 -0.0842  0.5922
11404TIP3    H134145   5.416   2.189   6.514  1.1855 -0.8044 -0.8601
11404TIP3    H234146   5.466   2.112   6.634  0.9206 -0.0928 -0.2918
11405TIP3   OH234147   5.435   4.602   4.552  0.1551  0.4040  0.4700
11405TIP3    H134148   5.436   4.697   4.541 -1.0657  0.3281 -0.2648
11405TIP3    H234149   5.394   4.589   4.638 -2.7550  0.4179 -0.8676
11406TIP3   OH234150   5.958   3.478   6.870 -0.3033  0.1713  0.4769
11406TIP3    H134151   5.997   3.462   6.784 -1.0842  1.4603 -0.1428
11406TIP3    H234152   5.906   3.558   6.857 -0.7607  0.1290  2.0385
11407TIP3   OH234153   4.060   4.745   5.285  0.0241 -0.4080 -0.0820
11407TIP3    H134154   4.037   4.658   5.250 -0.8384 -0.5744  0.8898
11407TIP3    H234155   3.994   4.803   5.248 -0.1185 -0.3718  0.2247
11408TIP3   OH234156   0.879   2.057   0.395  0.0556  0.1150  0.3479
11408TIP3    H134157   0.852   2.007   0.471  0.9815  0.7020  1.0810
11408TIP3    H234158   0.974   2.044   0.390 -0.0260 -0.1104 -0.8434
11409TIP3   OH234159   3.252   4.521   4.659  0.0734 -0.0917  0.9190
11409TIP3    H134160   3.237   4.480   4.574 -0.4852  0.7830  0.5872
11409TIP3    H234161   3.171   4.503   4.708 -0.1239  0.4989  0.8144
11410TIP3   OH234162   1.011   0.687   1.261  0.3855 -0.3249  0.0266
11410TIP3    H134163   0.995   0.593   1.273 -1.2636  0.0846  1.2985
11410TIP3    H234164   1.054   0.715   1.342 -0.1169  0.2203  0.1128
11411TIP3   OH234165   1.656   2.207   0.194 -0.5318  0.0472 -0.8200
11411TIP3    H134166   1.581   2.171   0.147 -2.6765  0.5602  2.0374
11411TIP3    H234167   1.673   2.145   0.264  1.0090  0.4861 -0.7976
11412TIP3   OH234168   3.640   2.855   6.216  0.1014 -0.5724 -0.3511
11412TIP3    H134169   3.676   2.782   6.266 -1.1834 -0.2775  1.0307
11412TIP3    H234170   3.549   2.830   6.199 -0.2606  0.5511 -0.1313
11413TIP3   OH234171   4.102   6.225   6.784  0.3089 -0.3432 -0.1067
11413TIP3    H134172   4.086   6.242   6.692  0.3990  0.8408  0.0991
11413TIP3    H234173   4.028   6.265   6.830  1.2504  0.7651  0.4690
11414TIP3   OH234174   0.747   2.166   0.130  0.1553 -0.3803  0.1034
11414TIP3    H134175   0.750   2.105   0.203  3.2713 -0.5173 -0.0818
11414TIP3    H234176   0.728   2.251   0.171 -0.3335 -0.8138  0.7933
11415TIP3   OH234177   5.005   3.186   5.964 -0.0583  0.3897  1.0162
11415TIP3    H134178   4.991   3.256   5.901 -1.7037 -1.3515 -0.6270
11415TIP3    H234179   5.089   3.148   5.939 -0.7582 -0.3657 -0.2334
11416TIP3   OH234180   5.992   3.649   4.278 -0.1828  0.5379  0.0705
11416TIP3    H134181   5.929   3.644   4.351  0.5038 -0.5381  0.5905
11416TIP3    H234182   5.949   3.706   4.214 -0.1061  2.8319  1.9890
11417TIP3   OH234183   4.819   2.151   5.123 -0.2414 -0.4298 -0.2299
11417TIP3    H134184   4.835   2.217   5.056  0.7298 -0.6729 -0.2386
11417TIP3    H234185   4.897   2.155   5.179 -0.0378 -1.7839 -0.4150
11418TIP3   OH234186   1.879  -0.012   0.984 -0.0928  0.0724  0.5665
11418TIP3    H134187   1.822   0.039   0.926  1.5149  1.3733  0.0911
11418TIP3    H234188   1.875   0.034   1.068 -0.9813 -0.7535  0.9815
11419TIP3   OH234189   3.857   0.127   0.549 -0.3045  0.8002 -0.4496
11419TIP3    H134190   3.833   0.044   0.508 -3.0573  1.2298  0.2159
11419TIP3    H234191   3.799   0.134   0.625  2.2818  1.7001  1.5093
11420TIP3   OH234192   6.162   4.287   4.224 -0.4347  0.6695  0.9146
11420TIP3    H134193   6.214   4.271   4.146  1.3556  3.1071  1.5578
11420TIP3    H234194   6.071   4.281   4.194  0.2115 -0.7103 -0.8432
11421TIP3   OH234195   4.252   3.557   4.726  0.5355 -0.0309 -0.2026
11421TIP3    H134196   4.242   3.555   4.821 -0.4880  3.3407 -0.1774
11421TIP3    H234197   4.165   3.579   4.693  0.4692 -2.8988 -2.0555
11422TIP3   OH234198   4.865   3.562   5.543  0.0432  0.7443  0.8649
11422TIP3    H134199   4.859   3.600   5.630  0.0389 -0.1458  1.2496
11422TIP3    H234200   4.957   3.576   5.517  0.2339  0.3482  1.3145
11423TIP3   OH234201   4.490   4.441   6.258  0.7080 -0.9860  0.0924
11423TIP3    H134202   4.461   4.521   6.213  1.3482 -1.1602 -0.6272
11423TIP3    H234203   4.562   4.470   6.314  0.6981 -0.9958  0.1096
11424TIP3   OH234204   5.580   3.363   4.782  0.3756 -0.0567  0.0028
11424TIP3    H134205   5.549   3.451   4.803 -0.8992 -0.4515 -0.1515
11424TIP3    H234206   5.675   3.369   4.788  0.2504  0.9944  1.3341
11425TIP3   OH234207   3.616   3.121   6.313  0.2654  0.2626  0.3723
11425TIP3    H134208   3.612   3.032   6.279 -1.7586  0.2034  0.7297
11425TIP3    H234209   3.633   3.111   6.406  2.3939  0.3407  0.0243
11426TIP3   OH234210   6.683   7.556   0.456 -0.1740 -0.3253 -0.6963
11426TIP3    H134211   6.754   7.542   0.393  0.2962  0.1933 -0.2852
11426TIP3    H234212   6.632   7.475   0.453 -0.0550 -0.3739 -1.6125
11427TIP3   OH234213   3.427   4.398   5.706  0.3741 -0.3806 -0.6766
11427TIP3    H134214   3.514   4.391   5.667 -0.0953  0.4311 -1.8961
11427TIP3    H234215   3.371   4.347   5.648 -0.2318  0.3672 -0.7496
11428TIP3   OH234216   3.731   5.558   6.184  0.1108  0.2003  0.0587
11428TIP3    H134217   3.774   5.473   6.191  0.6281  0.3884 -0.8178
11428TIP3    H234218   3.803   5.620   6.168 -0.2607  0.7976  0.6705
11429TIP3   OH234219   4.929   3.405   4.906  0.1140  0.1391  0.1403
11429TIP3    H134220   5.005   3.376   4.856  1.4867  0.5145  1.9726
11429TIP3    H234221   4.920   3.498   4.885  0.3058  0.1513  0.1115
11430TIP3   OH234222   5.202   5.301   5.608 -0.0910 -0.1722 -0.5231
11430TIP3    H134223   5.161   5.228   5.561 -1.1123  1.4457 -2.2277
11430TIP3    H234224   5.164   5.379   5.568  2.0283  1.3224  0.3102
11431TIP3   OH234225   3.710   4.597   5.899  0.1797  0.4633 -0.4921
11431TIP3    H134226   3.747   4.620   5.985 -0.4157 -0.4505  0.0198
11431TIP3    H234227   3.757   4.517   5.874 -1.6042 -0.8663  0.2918
11432TIP3   OH234228   5.041   3.504   5.955  0.2282  1.1062  0.5640
11432TIP3    H134229   5.002   3.510   6.042 -0.4684 -1.1655  0.4492
11432TIP3    H234230   5.135   3.506   5.971  0.1163 -0.2488  1.4604
11433TIP3   OH234231   6.438   2.712   6.246 -0.3567 -0.7488 -0.2154
11433TIP3    H134232   6.385   2.644   6.204 -1.1209 -0.5060  0.3506
11433TIP3    H234233   6.527   2.696   6.214 -0.0843 -3.5301  1.7795
11434TIP3   OH234234   6.360   4.927   5.032 -0.1093 -0.1929  0.0581
11434TIP3    H134235   6.403   4.860   5.086 -2.1031 -0.6941  1.0804
11434TIP3    H234236   6.318   4.877   4.961 -0.3888  0.1168  0.0070
11435TIP3   OH234237   6.524   2.404   4.272 -0.0355 -0.2904 -0.0293
11435TIP3    H134238   6.504   2.493   4.242  0.0485 -0.0819  0.5233
11435TIP3    H234239   6.537   2.413   4.367 -0.9955 -1.0503  0.1846
11436TIP3   OH234240   5.312   2.290   4.128 -0.3520 -0.0553 -0.2599
11436TIP3    H134241   5.372   2.238   4.181 -0.6518 -0.1583 -0.0244
11436TIP3    H234242   5.226   2.251   4.143 -1.3201  3.2196  3.4127
11437TIP3   OH234243   2.385   0.999   0.330  0.0877  0.2191 -0.1533
11437TIP3    H134244   2.463   1.025   0.379 -0.4091  1.7290 -0.1478
11437TIP3    H234245   2.322   1.070   0.345 -0.7299 -0.2147 -1.4377
11438TIP3   OH234246   2.501   3.298   4.991  0.1009  0.3601 -0.1824
11438TIP3    H134247   2.519   3.333   5.079 -0.8821  0.0159  0.1603
11438TIP3    H234248   2.406   3.308   4.981  0.4828  2.4488 -2.0937
11439TIP3   OH234249   6.158   4.881   5.477 -0.4892 -0.1114 -0.0761
11439TIP3    H134250   6.147   4.958   5.534 -2.0596 -1.5180  1.5780
11439TIP3    H234251   6.174   4.918   5.390  0.9170  2.0833  1.0677
11440TIP3   OH234252   1.877   1.981   0.158  0.5396  0.5951  0.2660
11440TIP3    H134253   1.911   2.070   0.147  0.8598  0.4850  0.3748
11440TIP3    H234254   1.836   1.960   0.074 -1.3636  1.6325  0.9006
11441TIP3   OH234255   3.374   3.077   4.118  0.1904 -0.5684 -0.3850
11441TIP3    H134256   3.452   3.063   4.064  0.1505 -0.6483 -0.4214
11441TIP3    H234257   3.371   3.172   4.131  1.4494 -0.7304  1.3336
11442TIP3   OH234258   7.028   5.223   5.175 -0.1405  0.4558 -0.0321
11442TIP3    H134259   7.075   5.147   5.141 -0.1506 -0.0822  1.1637
11442TIP3    H234260   6.953   5.232   5.115 -0.5152 -0.8819  0.2081
11443TIP3   OH234261   7.791   7.570   0.023 -0.0692 -0.0551  0.1061
11443TIP3    H134262   7.846   7.643  -0.005  0.2663 -0.4636 -0.3144
11443TIP3    H234263   7.781   7.582   0.117 -0.8874  1.1165 -0.1224
11444TIP3   OH234264   4.736   6.418   4.228 -0.3069  0.2886 -0.0332
11444TIP3    H134265   4.742   6.513   4.224  4.2340  0.1603  0.7699
11444TIP3    H234266   4.717   6.392   4.138 -1.6304  1.9422 -0.2566
11445TIP3   OH234267   5.240   6.277   6.708  0.2358 -0.3583  0.6090
11445TIP3    H134268   5.308   6.249   6.646  0.1859  0.8005  0.0305
11445TIP3    H234269   5.288   6.321   6.778  0.2902 -1.6445  1.3998
11446TIP3   OH234270   4.206   4.603   4.563  0.1745  0.4246  0.4412
11446TIP3    H134271   4.229   4.584   4.653 -0.9938 -0.0011  0.6660
11446TIP3    H234272   4.229   4.695   4.551 -1.0304  0.9134  1.6491
11447TIP3   OH234273   2.634   3.804   0.049 -0.5805 -0.2399  0.1412
11447TIP3    H134274   2.608   3.820   0.139 -0.0495  1.1775  0.0558
11447TIP3    H234275   2.713   3.751   0.055  1.0730  2.1870  0.6098
11448TIP3   OH234276   1.512   1.434   0.217  0.1273  0.1599 -0.3075
11448TIP3    H134277   1.472   1.508   0.263 -1.9221  0.2937 -2.2328
11448TIP3    H234278   1.458   1.422   0.139  1.0234 -2.7609 -0.5291
11449TIP3   OH234279   2.186   2.146   0.064  0.0475  0.2981  0.1343
11449TIP3    H134280   2.108   2.186   0.101  0.9216  0.2142  2.0880
11449TIP3    H234281   2.203   2.069   0.118  2.4864  1.2675  0.8373
11450TIP3   OH234282   5.237   4.503   5.099 -0.5838 -0.1698  0.0299
11450TIP3    H134283   5.160   4.454   5.127 -0.5884  0.5101  1.2437
11450TIP3    H234284   5.307   4.473   5.157 -0.6947  1.5903  1.1268
11451TIP3   OH234285   4.135   1.542   0.249 -0.0922 -0.0587 -0.0881
11451TIP3    H134286   4.172   1.478   0.188  4.1225  0.2611  2.0057
11451TIP3    H234287   4.179   1.624   0.227 -1.9189  1.0846  0.4375
11452TIP3   OH234288   4.575   3.428   3.513 -0.5021  0.1716 -0.1805
11452TIP3    H134289   4.611   3.351   3.557 -0.5131  1.0537  1.3981
11452TIP3    H234290   4.607   3.502   3.563  1.0290  1.3353 -2.7666
11453TIP3   OH234291   3.887   4.133   5.649  0.2989  0.0779  0.0973
11453TIP3    H134292   3.927   4.216   5.623 -0.0486 -0.0761 -0.9613
11453TIP3    H234293   3.958   4.069   5.640  0.4583  0.1850  0.5391
11454TIP3   OH234294   5.900   4.109   4.807 -0.5627 -0.3947  0.6535
11454TIP3    H134295   5.952   4.190   4.810 -0.3259 -0.5823  1.9380
11454TIP3    H234296   5.821   4.134   4.760 -0.0133  0.3131  0.0815
11455TIP3   OH234297   2.539   0.875   0.742 -0.3951  0.0599 -0.6460
11455TIP3    H134298   2.547   0.934   0.667  1.3169  0.4530 -0.1830
11455TIP3    H234299   2.471   0.813   0.716 -0.3686  0.6425 -2.2093
11456TIP3   OH234300   4.838   3.692   4.905  0.0418  0.3550  0.2434
11456TIP3    H134301   4.746   3.671   4.923  0.6919 -1.2475  1.7968
11456TIP3    H234302   4.836   3.735   4.819 -1.8821 -2.0220 -0.9775
11457TIP3   OH234303   5.884   4.247   6.806  0.5372 -0.0991 -0.0265
11457TIP3    H134304   5.971   4.230   6.770 -1.0545 -1.4042 -3.3892
11457TIP3    H234305   5.835   4.286   6.734 -1.7304  0.5155  1.7834
11458TIP3   OH234306   3.041   5.370   5.654 -0.1193 -0.3013 -0.4116
11458TIP3    H134307   3.118   5.371   5.597 -0.4827  2.1261 -0.9205
11458TIP3    H234308   2.980   5.311   5.610  0.4827 -0.2575 -1.3228
11459TIP3   OH234309   7.701   3.569   4.708 -0.1198 -0.1837  0.0090
11459TIP3    H134310   7.619   3.575   4.757  2.1560  1.4613  3.8328
11459TIP3    H234311   7.733   3.481   4.726 -1.1807 -0.9880 -1.8502
11460TIP3   OH234312   6.078   4.690   5.134  0.1563  0.1178 -0.4873
11460TIP3    H134313   6.094   4.610   5.183  3.6459  0.7717 -0.3738
11460TIP3    H234314   6.069   4.662   5.043  1.4286 -0.4526 -0.4571
11461TIP3   OH234315   3.552   2.522   5.920  0.6210 -0.1604  0.2464
11461TIP3    H134316   3.631   2.530   5.973  0.9636 -2.9286  0.2227
11461TIP3    H234317   3.584   2.511   5.831  0.1754 -0.1864  0.0881
11462TIP3   OH234318   4.222   5.293   3.858 -0.1296  0.4492 -0.3364
11462TIP3    H134319   4.177   5.366   3.815  0.8540  1.0797 -0.3199
11462TIP3    H234320   4.286   5.263   3.792  1.5685  1.5903  0.7493
11463TIP3   OH234321   3.938   4.388   5.587 -0.0610  0.5457  0.2229
11463TIP3    H134322   4.022   4.386   5.542  0.0061 -2.2650  0.4049
11463TIP3    H234323   3.912   4.481   5.585  2.3391  1.2300 -1.0716
11464TIP3   OH234324   5.127   5.450   6.769  0.2330 -0.1085  0.6896
11464TIP3    H134325   5.054   5.489   6.817  0.2691  1.2969 -0.3561
11464TIP3    H234326   5.089   5.374   6.726 -0.9448  1.2532 -0.7746
11465TIP3   OH234327   2.694   3.828   6.548  0.3553  0.0434 -0.2190
11465TIP3    H134328   2.734   3.906   6.509  0.8615  1.1229  2.3164
11465TIP3    H234329   2.613   3.816   6.499  0.7043  1.6333 -1.2447
11466TIP3   OH234330   7.126   6.894   1.061 -0.0597 -0.1873  0.0477
11466TIP3    H134331   7.179   6.919   0.986  0.9778  0.7027  1.0435
11466TIP3    H234332   7.059   6.837   1.026  1.0571 -0.6420 -1.3810
11467TIP3   OH234333   5.719   4.294   6.615  0.0257 -0.0605 -0.0292
11467TIP3    H134334   5.733   4.377   6.568  0.7086 -0.4942 -0.5955
11467TIP3    H234335   5.669   4.240   6.553  1.4658 -0.8598 -0.5164
11468TIP3   OH234336   7.079   7.755   0.382  0.0907 -0.6649 -0.0456
11468TIP3    H134337   7.109   7.792   0.465 -0.5251 -2.2285  0.9046
11468TIP3    H234338   7.056   7.831   0.329  0.9499  0.3754  1.0408
11469TIP3   OH234339   0.839   1.417   0.484 -0.1165 -0.5123 -0.3397
11469TIP3    H134340   0.866   1.394   0.573 -1.1076  1.0284  0.3856
11469TIP3    H234341   0.891   1.495   0.463 -1.4191  0.3855 -0.2791
11470TIP3   OH234342   2.947   5.899   5.030  0.6720  0.3482 -0.0573
11470TIP3    H134343   3.010   5.884   5.100  1.0781  1.8712 -0.0794
11470TIP3    H234344   2.943   5.994   5.021 -1.4753  0.2692 -0.2113
11471TIP3   OH234345   8.365   1.525   0.642  0.5149 -0.2753  0.6326
11471TIP3    H134346   8.423   1.450   0.653  1.6726  0.3006 -1.2318
11471TIP3    H234347   8.412   1.598   0.682  1.7698  0.4796 -2.1053
11472TIP3   OH234348   2.324   3.674   5.568  0.0861 -0.2048 -0.2970
11472TIP3    H134349   2.280   3.622   5.500  2.4926  0.5234 -2.4810
11472TIP3    H234350   2.417   3.669   5.545  0.9087  0.3881  2.7570
11473TIP3   OH234351   4.172   6.518   6.746  0.6955  0.0341  0.3936
11473TIP3    H134352   4.162   6.586   6.680 -0.1628 -0.1459  0.3359
11473TIP3    H234353   4.186   6.566   6.828  1.0190  0.2623  0.2083
11474TIP3   OH234354   1.641   1.908   0.285 -0.2904 -0.3145 -0.1815
11474TIP3    H134355   1.622   1.872   0.199 -0.0559 -1.2259  0.1413
11474TIP3    H234356   1.733   1.888   0.300 -0.3285 -0.1650  0.2760
11475TIP3   OH234357   0.391   0.667   0.542  0.3449 -0.6989 -0.1460
11475TIP3    H134358   0.469   0.644   0.492 -0.0511 -0.4379 -0.8923
11475TIP3    H234359   0.335   0.589   0.536  0.1688 -0.5567 -0.3716
11476TIP3   OH234360   5.506   4.004   5.120  0.5897  0.3926  0.0094
11476TIP3    H134361   5.590   3.983   5.078 -0.5857 -0.2123 -2.1595
11476TIP3    H234362   5.484   3.926   5.170 -0.3554 -0.8985 -2.3233
11477TIP3   OH234363   2.621   1.047   0.510 -0.1305 -0.1446  0.0831
11477TIP3    H134364   2.691   1.014   0.454 -0.6356  1.0454 -1.2756
11477TIP3    H234365   2.667   1.098   0.577  0.3188  0.7444 -0.8785
11478TIP3   OH234366   6.997   4.745   6.609 -0.0582 -0.4873  0.4185
11478TIP3    H134367   7.061   4.760   6.680  1.2001 -0.6855 -0.6519
11478TIP3    H234368   6.984   4.831   6.571 -1.3363 -0.2471  1.3855
11479TIP3   OH234369   4.971   7.259   3.624  0.5577 -0.3384  1.6244
11479TIP3    H134370   4.901   7.316   3.657 -0.2318 -0.4390  0.1742
11479TIP3    H234371   4.946   7.171   3.652 -0.4153 -0.5005  0.3021
11480TIP3   OH234372   0.023   7.661   0.594  0.3163 -0.0858  0.4711
11480TIP3    H134373   0.006   7.720   0.667 -1.5446 -1.5861  1.2787
11480TIP3    H234374  -0.027   7.698   0.521  1.8826  1.2055  0.0117
11481TIP3   OH234375   4.654   6.651   6.819 -0.5946  0.3713 -0.8537
11481TIP3    H134376   4.633   6.559   6.800 -1.0174  0.4853 -0.9306
11481TIP3    H234377   4.744   6.661   6.789  1.1271 -1.2707  3.3013
11482TIP3   OH234378   5.533   3.373   6.498 -0.0126  0.2086 -0.6020
11482TIP3    H134379   5.458   3.398   6.553 -0.2207 -0.5801 -0.5164
11482TIP3    H234380   5.564   3.455   6.461  0.1420  0.7547  0.7250
11483TIP3   OH234381   6.622   4.284   6.771 -0.3556  0.1365  0.1858
11483TIP3    H134382   6.536   4.263   6.735  0.0256 -1.0927 -0.0347
11483TIP3    H234383   6.681   4.219   6.733  0.6637  0.9281  0.3881
11484TIP3   OH234384   6.181   5.809   4.841  0.0367 -0.2453 -0.0519
11484TIP3    H134385   6.208   5.884   4.895  1.5432 -1.6648  1.2409
11484TIP3    H234386   6.230   5.819   4.760  1.4548 -0.6625  0.7362
11485TIP3   OH234387   6.808   6.421   1.439 -0.1533 -0.3185 -0.4746
11485TIP3    H134388   6.780   6.363   1.509 -2.4014  2.3091  0.8971
11485TIP3    H234389   6.904   6.419   1.443 -0.2449 -1.2202  1.8218
11486TIP3   OH234390   4.078   4.446   6.603 -0.0334 -0.2661 -0.5671
11486TIP3    H134391   4.108   4.355   6.609  0.6928  0.0190  0.1085
11486TIP3    H234392   4.070   4.475   6.694 -0.7082  0.2110 -0.7708
11487TIP3   OH234393   5.234   4.286   6.665  0.1602 -0.4883  0.2298
11487TIP3    H134394   5.318   4.285   6.710 -0.0454 -1.6511  0.5985
11487TIP3    H234395   5.213   4.194   6.651 -0.8169 -0.1935 -0.3037
11488TIP3   OH234396   1.480   7.736   1.773 -0.1941  0.4195 -0.6555
11488TIP3    H134397   1.416   7.806   1.787 -1.0064 -0.3857 -0.3592
11488TIP3    H234398   1.430   7.655   1.783  1.3344 -0.2453  1.8278
11489TIP3   OH234399   5.394   4.320   6.276  0.2023 -0.1126  0.5178
11489TIP3    H134400   5.309   4.363   6.271  0.7278  0.7421 -2.1193
11489TIP3    H234401   5.395   4.261   6.201  1.3058 -1.3269  1.4691
11490TIP3   OH234402   8.444   7.967   0.042 -0.0283  0.1113 -0.5841
11490TIP3    H134403   8.366   8.019   0.025 -0.5787 -0.6692 -0.4763
11490TIP3    H234404   8.472   7.936  -0.044 -2.4513 -3.3185 -0.2494
11491TIP3   OH234405   4.216   4.290   6.867  0.1843 -0.4922 -0.0495
11491TIP3    H134406   4.309   4.308   6.854  0.1362 -1.0918 -1.2340
11491TIP3    H234407   4.199   4.210   6.817 -1.4906  0.9111 -1.7906
11492TIP3   OH234408   3.480   4.442   6.270  0.3535  0.3323  0.4570
11492TIP3    H134409   3.549   4.507   6.280  1.1055 -0.1058 -1.5402
11492TIP3    H234410   3.445   4.457   6.182  1.8304 -3.1240 -0.7937
11493TIP3   OH234411   4.666   3.280   5.940 -0.1295 -0.1354 -0.1075
11493TIP3    H134412   4.592   3.227   5.972  1.1946 -1.5678  0.6744
11493TIP3    H234413   4.724   3.288   6.016  1.9802 -1.6439 -1.4810
11494TIP3   OH234414   2.797   5.431   5.977  0.4362  0.3502  0.1911
11494TIP3    H134415   2.891   5.444   5.978  0.2795  1.5122  0.4303
11494TIP3    H234416   2.776   5.399   6.065  0.8609 -1.9347 -0.4935
11495TIP3   OH234417   3.143   5.872   5.227 -0.2108 -0.5751  0.2057
11495TIP3    H134418   3.120   5.779   5.228 -1.8599 -0.1771 -0.2613
11495TIP3    H234419   3.222   5.877   5.281 -0.0986 -2.2470  0.2332
11496TIP3   OH234420   4.156   4.355   5.434  0.1117  0.1066 -0.2582
11496TIP3    H134421   4.213   4.428   5.457  0.4893 -0.0131 -0.7875
11496TIP3    H234422   4.216   4.285   5.407 -0.2953  0.1309 -1.2524
11497TIP3   OH234423   5.040   3.265   5.568 -0.4085  0.0544 -0.3218
11497TIP3    H134424   5.120   3.264   5.621 -0.6034  0.8934  0.0052
11497TIP3    H234425   4.978   3.317   5.619 -0.1038  2.2034 -2.0644
11498TIP3   OH234426   5.689   5.628   6.260  0.1335  0.0150  0.3650
11498TIP3    H134427   5.679   5.548   6.310 -0.2451  0.0867  0.3987
11498TIP3    H234428   5.766   5.671   6.298 -0.9151  0.7055  1.7251
11499TIP3   OH234429   1.887   1.240   0.007 -0.1313  0.4521 -0.4981
11499TIP3    H134430   1.944   1.294   0.062 -1.2204 -0.0084  1.0876
11499TIP3    H234431   1.806   1.231   0.057 -0.8350 -0.6694 -1.8106
11500TIP3   OH234432   6.302   4.711   4.281  0.4180 -0.4614  0.1277
11500TIP3    H134433   6.312   4.617   4.296 -0.9134 -0.3760  1.6913
11500TIP3    H234434   6.253   4.718   4.200 -1.1164 -1.1662  0.9879
11501TIP3   OH234435   6.031   4.477   5.821  0.7318  0.4846 -0.0507
11501TIP3    H134436   6.097   4.436   5.765  1.7069  0.1236  1.3334
11501TIP3    H234437   5.983   4.404   5.859  1.7310  0.6377  1.5393
11502TIP3   OH234438   4.999   4.888   5.166 -0.4176  0.1661 -0.1036
11502TIP3    H134439   4.921   4.939   5.145  0.3215  1.2504 -0.2619
11502TIP3    H234440   5.044   4.877   5.082  0.6435  1.3335  0.2795
11503TIP3   OH234441   3.951   4.792   5.797  0.3213 -0.4513  0.0139
11503TIP3    H134442   4.041   4.760   5.800  0.1060 -1.4167 -2.8051
11503TIP3    H234443   3.910   4.753   5.874  1.9330 -1.1189  0.5692
11504TIP3   OH234444   4.613   5.995   6.845 -1.0656 -0.1030 -0.1638
11504TIP3    H134445   4.684   6.034   6.794 -1.1555 -0.3560 -0.4844
11504TIP3    H234446   4.588   5.916   6.796 -0.1298 -1.1845  1.0526
11505TIP3   OH234447   5.696   5.129   3.544 -0.4661  0.4349  0.4158
11505TIP3    H134448   5.656   5.125   3.457  1.3359 -1.8089 -0.3630
11505TIP3    H234449   5.758   5.202   3.538 -0.4471  0.3768 -0.1429
11506TIP3   OH234450   7.206   7.842   0.759  0.0422 -0.5818  0.2199
11506TIP3    H134451   7.300   7.827   0.744  0.5187  1.1433  1.3662
11506TIP3    H234452   7.194   7.822   0.852 -0.9346 -1.7744 -0.1595
11507TIP3   OH234453   3.795   2.545   6.059 -0.6037  0.3533 -0.4644
11507TIP3    H134454   3.815   2.536   6.152 -1.6350 -1.0302 -0.3573
11507TIP3    H234455   3.867   2.502   6.014 -0.4194  0.4702 -0.2782
11508TIP3   OH234456   4.692   2.734   6.037 -0.4038 -0.3434 -0.5273
11508TIP3    H134457   4.669   2.810   5.983  0.4459  0.4298  0.1696
11508TIP3    H234458   4.712   2.665   5.975 -1.7750 -0.1701 -1.1677
11509TIP3   OH234459   7.177   4.736   6.823  0.2857  0.0830 -0.0636
11509TIP3    H134460   7.249   4.798   6.825 -0.1287  0.5496  2.8156
11509TIP3    H234461   7.219   4.650   6.817  0.9987  0.4745 -0.6764
11510TIP3   OH234462   4.095   2.895   5.585  0.2721  0.6041 -0.1193
11510TIP3    H134463   4.063   2.892   5.675  2.2938 -0.8554  0.6011
11510TIP3    H234464   4.125   2.806   5.568  0.0877  0.9243 -2.1639
11511TIP3   OH234465   5.030   2.840   6.411 -0.8507  0.1435 -0.4092
11511TIP3    H134466   5.111   2.807   6.451 -1.1448 -0.0426  0.0351
11511TIP3    H234467   5.044   2.934   6.401  0.0069 -0.1064 -1.6974
11512TIP3   OH234468   5.417   2.561   6.227 -0.4307  0.1526 -0.0993
11512TIP3    H134469   5.390   2.637   6.175 -0.2110 -0.4480 -1.1125
11512TIP3    H234470   5.418   2.593   6.317  0.6305  1.6435 -0.6143
11513TIP3   OH234471   6.973   5.603   6.648 -0.4867  0.2579 -0.0760
11513TIP3    H134472   6.944   5.546   6.719 -1.1558 -0.7531 -1.1520
11513TIP3    H234473   6.893   5.626   6.601 -0.0340  0.7825 -0.5976
11514TIP3   OH234474   2.631   2.143   0.164  0.1227  0.2099 -0.3629
11514TIP3    H134475   2.669   2.213   0.217 -0.4166  0.1831  0.0515
11514TIP3    H234476   2.605   2.186   0.082 -2.2241  0.9315  0.7374
11515TIP3   OH234477   7.221   6.898   0.377  0.2783  0.1623 -0.3502
11515TIP3    H134478   7.152   6.943   0.328  0.4884  0.2541 -0.5664
11515TIP3    H234479   7.255   6.833   0.315  1.4154  1.1462 -0.7637
11516TIP3   OH234480   4.885   1.202   4.704 -0.8108 -0.0766  0.1752
11516TIP3    H134481   4.877   1.116   4.745  0.4014 -0.3063 -0.0498
11516TIP3    H234482   4.949   1.248   4.758 -1.5859  0.7461  0.3974
11517TIP3   OH234483   7.628   6.946   0.707  0.1184 -0.0001 -0.1422
11517TIP3    H134484   7.596   7.036   0.697 -1.7331 -0.8452 -2.0753
11517TIP3    H234485   7.550   6.892   0.700  1.4158 -1.8562 -0.4657
11518TIP3   OH234486   3.615   7.817   5.554  0.0087  0.0988  0.3836
11518TIP3    H134487   3.520   7.813   5.566  0.2592 -3.2092  2.0187
11518TIP3    H234488   3.649   7.846   5.639  0.5152 -0.1709  0.2779
11519TIP3   OH234489   6.210   4.039   5.294 -0.0398  0.1993 -0.7323
11519TIP3    H134490   6.267   3.963   5.281 -0.8040 -0.6054  0.4985
11519TIP3    H234491   6.211   4.054   5.388 -1.2788  0.6320 -0.7752
11520TIP3   OH234492   5.732   5.002   2.513  0.1717  0.3647 -0.5240
11520TIP3    H134493   5.807   5.061   2.524 -0.2532  0.8141 -0.0130
11520TIP3    H234494   5.741   4.969   2.423  0.6305  0.9045 -0.6818
11521TIP3   OH234495   2.654   2.250   5.583  0.1420  0.2475  0.5160
11521TIP3    H134496   2.676   2.165   5.545 -0.3568  1.0120 -1.5272
11521TIP3    H234497   2.735   2.278   5.626  0.9498 -0.2866 -0.6415
11522TIP3   OH234498   5.467   4.511   6.040 -0.6408 -0.5144  0.1118
11522TIP3    H134499   5.404   4.478   5.975 -0.7242  1.7546 -1.0363
11522TIP3    H234500   5.553   4.492   6.002 -0.6825  2.5249 -1.6666
11523TIP3   OH234501   3.319   2.903   6.040 -0.1978  0.1562  0.1679
11523TIP3    H134502   3.398   2.953   6.019 -0.0456 -0.2583 -0.2817
11523TIP3    H234503   3.349   2.835   6.101 -0.4882  0.8789  1.1181
11524TIP3   OH234504   5.578   6.311   5.895  0.3815  0.9915  0.0686
11524TIP3    H134505   5.523   6.353   5.961 -1.3659 -0.9440 -0.1202
11524TIP3    H234506   5.569   6.368   5.818 -0.3795  1.3538  0.4197
11525TIP3   OH234507   3.280   7.196   6.836  0.1868  0.6411 -0.0069
11525TIP3    H134508   3.272   7.269   6.898  0.6132  0.6871 -0.0063
11525TIP3    H234509   3.203   7.141   6.854  0.8606  0.1089  1.2712
11526TIP3   OH234510   4.279   0.177   1.089  0.2398 -0.1379 -0.0779
11526TIP3    H134511   4.369   0.194   1.117 -0.0690  1.1933  0.1530
11526TIP3    H234512   4.282   0.186   0.993  0.1884  0.7267 -0.0017
11527TIP3   OH234513   5.102   5.022   5.789 -0.4068  0.2847  0.2424
11527TIP3    H134514   5.121   4.933   5.759 -0.7477  0.3118 -0.0714
11527TIP3    H234515   5.136   5.078   5.719  0.3668  0.4272  0.7339
11528TIP3   OH234516   1.740   0.143   0.168  0.2053  0.7774  0.3916
11528TIP3    H134517   1.730   0.143   0.263  1.9274  2.7568  0.6167
11528TIP3    H234518   1.822   0.190   0.153  0.0436  0.3315 -2.0714
11529TIP3   OH234519   5.084   6.075   6.758  0.3972 -0.3632 -0.6296
11529TIP3    H134520   5.142   6.143   6.725  0.4989 -0.0083  0.2510
11529TIP3    H234521   5.050   6.110   6.841 -1.5660 -0.3065 -1.4315
11530TIP3   OH234522   4.733   5.908   5.212 -0.5501  0.1166  0.8835
11530TIP3    H134523   4.768   5.873   5.130  0.5712  2.6561  0.1973
11530TIP3    H234524   4.663   5.968   5.184  0.1344  1.3349  1.7395
11531TIP3   OH234525   5.384   4.437   5.321  0.3069 -0.3063 -0.1878
11531TIP3    H134526   5.447   4.467   5.386  0.6460  1.2047 -1.1998
11531TIP3    H234527   5.313   4.398   5.373  0.8687  0.2872  1.0470
11532TIP3   OH234528   2.756   2.782   0.040  0.1307 -0.0505 -0.5663
11532TIP3    H134529   2.712   2.842  -0.021  0.0395  0.7099  0.2302
11532TIP3    H234530   2.700   2.782   0.118 -0.9364 -2.7416 -1.2981
11533TIP3   OH234531   8.343   1.826   0.886 -0.1699  0.1249  0.1428
11533TIP3    H134532   8.382   1.835   0.799 -0.3164  0.9834  0.1561
11533TIP3    H234533   8.399   1.764   0.931 -1.2330 -1.8628 -1.2183
11534TIP3   OH234534   5.158   0.518   6.141  0.4684  0.0091  0.3665
11534TIP3    H134535   5.124   0.430   6.130 -0.2927  0.2589  0.6556
11534TIP3    H234536   5.124   0.547   6.226 -0.7412  1.2055 -0.4894
11535TIP3   OH234537   4.908   7.830   6.079 -0.3324  0.0396 -0.0998
11535TIP3    H134538   4.986   7.817   6.025 -0.3892  0.0779 -0.1916
11535TIP3    H234539   4.921   7.772   6.154 -0.4760 -0.3720 -0.3889
11536TIP3   OH234540   1.317   1.223   1.554 -0.2172  0.4882  0.2127
11536TIP3    H134541   1.380   1.178   1.612  1.4366 -0.4125 -2.2072
11536TIP3    H234542   1.308   1.310   1.592  2.6187  0.6890  0.5448
11537TIP3   OH234543   6.471   3.096   5.704  0.2246  0.2809  0.5557
11537TIP3    H134544   6.470   3.178   5.654  1.3678 -0.4106 -0.6231
11537TIP3    H234545   6.400   3.106   5.767 -0.2419  1.8068 -0.1835
11538TIP3   OH234546   4.893   3.964   5.714  0.3146 -0.4015  0.0693
11538TIP3    H134547   4.897   3.876   5.751  0.6035 -0.0541  0.8748
11538TIP3    H234548   4.814   4.003   5.753  1.3063  0.3982  1.2991
11539TIP3   OH234549   4.117   3.280   4.872  0.6707 -0.0595  0.0105
11539TIP3    H134550   4.202   3.319   4.854  0.4328  0.4832  0.0515
11539TIP3    H234551   4.104   3.216   4.802  2.4719 -2.3600  1.7007
11540TIP3   OH234552   4.553   5.231   3.949 -0.1040  0.1103 -0.4484
11540TIP3    H134553   4.588   5.304   3.897 -0.0349  1.4806  1.4548
11540TIP3    H234554   4.501   5.180   3.887  1.9696  0.3038 -2.4111
11541TIP3   OH234555   3.722   4.236   6.074 -0.2139 -0.3038  0.1055
11541TIP3    H134556   3.691   4.210   6.161  0.8401  2.9263  1.5547
11541TIP3    H234557   3.648   4.282   6.035  0.2753  0.9135  0.5712
11542TIP3   OH234558   3.264   0.572   0.487  0.2732  0.1036 -0.1173
11542TIP3    H134559   3.292   0.519   0.413  2.4367 -1.5226  1.7981
11542TIP3    H234560   3.215   0.512   0.542  1.6002  0.3861  1.4131
11543TIP3   OH234561   6.060   4.236   4.509 -0.1152  0.4589  0.6182
11543TIP3    H134562   6.107   4.154   4.497  0.2995  0.7932 -0.0740
11543TIP3    H234563   6.117   4.303   4.470 -0.8975  0.9420  0.2889
11544TIP3   OH234564   5.239   5.509   4.949  0.9107 -0.3245 -0.5537
11544TIP3    H134565   5.309   5.569   4.924  0.8474 -0.1287 -0.2612
11544TIP3    H234566   5.280   5.446   5.008  1.5462 -2.0075 -2.6971
11545TIP3   OH234567   3.900   4.964   4.480  0.2814 -0.1626  0.4810
11545TIP3    H134568   3.889   4.869   4.489 -3.5565  0.2445  0.6025
11545TIP3    H234569   3.949   4.974   4.398  0.3079 -2.2376  0.2152
11546TIP3   OH234570   3.534   3.149   4.791  0.4539 -0.3076 -0.4209
11546TIP3    H134571   3.475   3.105   4.729  0.6405  1.5856 -1.9857
11546TIP3    H234572   3.484   3.156   4.872 -0.8923 -0.1211 -1.2685
11547TIP3   OH234573   5.093   3.885   5.451  0.1111 -0.1156  0.1144
11547TIP3    H134574   5.014   3.845   5.415  0.1918 -0.5606  0.4315
11547TIP3    H234575   5.063   3.967   5.490  0.4169  1.7093 -3.2979
11548TIP3   OH234576   6.305   6.390   3.567  0.2375  0.2106 -0.0461
11548TIP3    H134577   6.252   6.457   3.523  0.9503  0.8426  0.0484
11548TIP3    H234578   6.255   6.368   3.645 -1.2459 -1.2116 -1.3477
11549TIP3   OH234579   5.215   5.116   3.807  0.1628 -0.4372 -0.6619
11549TIP3    H134580   5.159   5.179   3.853  0.2344 -0.5938 -0.3589
11549TIP3    H234581   5.189   5.031   3.842 -0.6234 -0.6732 -1.7927
11550TIP3   OH234582   6.394   4.141   4.694 -0.4999 -0.0249 -0.1954
11550TIP3    H134583   6.347   4.184   4.765 -0.0576  1.7298 -0.9318
11550TIP3    H234584   6.336   4.070   4.665 -0.7400 -0.6701  1.8050
11551TIP3   OH234585   2.793   0.917   0.340 -0.5193 -0.0749  0.0781
11551TIP3    H134586   2.815   0.954   0.255  0.8857 -0.7103  0.1572
11551TIP3    H234587   2.837   0.832   0.342 -0.9400 -0.2758  1.2438
11552TIP3   OH234588   2.854   4.564   5.841  0.6506 -0.0347  0.1974
11552TIP3    H134589   2.810   4.555   5.926 -2.0368  1.1596 -1.0045
11552TIP3    H234590   2.811   4.500   5.785  0.2075  1.3149 -1.0615
11553TIP3   OH234591   6.440   4.130   5.650  0.0403  0.1910  0.0969
11553TIP3    H134592   6.521   4.167   5.684  0.5167 -0.2849 -0.4894
11553TIP3    H234593   6.451   4.036   5.660 -0.2137  0.0987 -0.4748
11554TIP3   OH234594   4.895   6.326   6.553 -0.6048 -0.4665  0.0182
11554TIP3    H134595   4.941   6.400   6.515 -0.2109 -0.9102 -0.3791
11554TIP3    H234596   4.931   6.317   6.641 -1.1628  0.2548  0.3258
11555TIP3   OH234597   5.975   1.688   5.489  0.1269  0.4061 -0.0080
11555TIP3    H134598   5.963   1.597   5.518  2.2543 -0.8810 -2.8892
11555TIP3    H234599   5.886   1.717   5.466 -0.4880 -1.2095  0.2440
11556TIP3   OH234600   8.028   2.049   5.680 -0.4191 -0.0749  0.2396
11556TIP3    H134601   8.010   1.960   5.651  3.2681 -0.0655 -2.4316
11556TIP3    H234602   7.983   2.105   5.618 -0.8160 -0.0775  0.5251
11557TIP3   OH234603   5.406   3.322   3.760  0.4023  0.3441  0.6239
11557TIP3    H134604   5.482   3.270   3.734  1.5493  0.6736  3.2097
11557TIP3    H234605   5.346   3.258   3.798  0.0598  0.3325  0.0751
11558TIP3   OH234606   7.601   4.763   4.189  0.5436  0.5532  0.1618
11558TIP3    H134607   7.580   4.678   4.229  2.5564  0.0036  0.0955
11558TIP3    H234608   7.516   4.804   4.175 -0.4646 -1.4934  0.1037
11559TIP3   OH234609   5.852   3.194   4.219 -0.2646  0.3584  0.3207
11559TIP3    H134610   5.814   3.165   4.302  1.4509 -0.8748  0.7124
11559TIP3    H234611   5.823   3.128   4.156  1.3629 -0.7175  0.6660
11560TIP3   OH234612   6.045   4.622   5.428  0.1141  0.4443 -0.0999
11560TIP3    H134613   5.951   4.615   5.441  0.5385 -2.7448  1.8287
11560TIP3    H234614   6.074   4.683   5.495 -0.6119  1.8412 -1.0341
11561TIP3   OH234615   6.745   5.166   3.403  0.2450  0.4972  0.1202
11561TIP3    H134616   6.798   5.210   3.336  1.2113  0.9942  1.2046
11561TIP3    H234617   6.661   5.212   3.400 -0.1083 -0.1923 -1.4998
11562TIP3   OH234618   6.354   4.819   6.134 -0.1877  0.0659  0.4788
11562TIP3    H134619   6.282   4.806   6.196  0.8997  1.6410  2.1303
11562TIP3    H234620   6.337   4.904   6.094 -0.8256 -0.9009 -1.3460
11563TIP3   OH234621   6.688   4.070   4.875  0.2821 -0.1984 -0.2669
11563TIP3    H134622   6.612   4.127   4.861 -0.2281 -0.9110 -0.4361
11563TIP3    H234623   6.653   3.981   4.868  0.8950 -0.5481  0.9438
11564TIP3   OH234624   0.644   4.934   4.249 -0.2087 -0.0077  0.1764
11564TIP3    H134625   0.563   4.959   4.204 -0.4724  0.8723  1.1102
11564TIP3    H234626   0.713   4.948   4.184 -0.7534 -0.3202 -0.4741
11565TIP3   OH234627   7.438   4.452   6.826 -0.3130  0.0861  0.4910
11565TIP3    H134628   7.421   4.441   6.732  0.0076  0.7180  0.3584
11565TIP3    H234629   7.356   4.425   6.868 -0.5764  0.1243  0.0143
11566TIP3   OH234630   7.394   3.531   5.162 -0.2051  0.4653  0.0298
11566TIP3    H134631   7.435   3.616   5.148  1.2476 -0.3825 -1.0026
11566TIP3    H234632   7.317   3.532   5.105 -0.2873  1.1513  0.1522
11567TIP3   OH234633   5.731   1.573   0.725 -0.8476 -0.2629 -0.2414
11567TIP3    H134634   5.819   1.536   0.736 -1.0749 -0.8065 -0.2540
11567TIP3    H234635   5.680   1.502   0.687 -0.9316  0.5039 -1.5767
11568TIP3   OH234636   0.551   5.298   6.390  0.6389 -0.0281 -0.5509
11568TIP3    H134637   0.500   5.278   6.468  0.8744 -1.2325 -0.6932
11568TIP3    H234638   0.497   5.269   6.316 -0.0662  2.1344 -0.9136
11569TIP3   OH234639   5.951   4.261   6.012  0.1191 -0.2829  0.2526
11569TIP3    H134640   5.971   4.181   6.060  1.4849  0.8701  1.6455
11569TIP3    H234641   5.855   4.264   6.009  0.0073 -0.5014  2.7420
11570TIP3   OH234642   7.513   5.089   6.385  0.1947 -0.2332 -0.2618
11570TIP3    H134643   7.526   5.163   6.445  1.2807  0.5568 -1.4583
11570TIP3    H234644   7.531   5.125   6.298  1.1140 -2.0050 -0.8257
11571TIP3   OH234645   6.066   6.200   5.453 -0.0151  0.0367 -0.2249
11571TIP3    H134646   6.146   6.247   5.476 -0.4555  1.1733 -0.9850
11571TIP3    H234647   6.049   6.144   5.528  0.6574  0.8922  0.5780
11572TIP3   OH234648   6.611   4.499   5.924  0.3507  0.4382 -0.4990
11572TIP3    H134649   6.536   4.553   5.901 -0.1646  0.0681  0.2492
11572TIP3    H234650   6.687   4.545   5.889 -0.1928  1.0337 -0.8958
11573TIP3   OH234651   8.128   5.284   5.591  0.1634 -0.1272  0.3227
11573TIP3    H134652   8.194   5.297   5.659 -0.4311 -0.8396  1.0432
11573TIP3    H234653   8.144   5.195   5.559 -1.2307 -0.7851  1.3781
11574TIP3   OH234654   7.665   5.307   5.479  0.2507  0.2582  0.4964
11574TIP3    H134655   7.681   5.277   5.569 -1.1137 -0.9268  0.3735
11574TIP3    H234656   7.577   5.346   5.483 -0.1636 -0.5724 -0.5100
11575TIP3   OH234657   4.733   2.185   4.086  0.1263 -0.0079 -0.1708
11575TIP3    H134658   4.660   2.216   4.033  0.5982  0.0783 -0.7669
11575TIP3    H234659   4.733   2.090   4.074  0.8289  0.0998 -1.1022
11576TIP3   OH234660   6.755   5.150   4.709 -0.8743  0.3674 -0.0475
11576TIP3    H134661   6.676   5.107   4.740 -0.1275 -0.6081  0.5139
11576TIP3    H234662   6.726   5.203   4.634 -2.0766  0.1498  0.2682
11577TIP3   OH234663   7.082   3.518   5.420 -0.6414 -0.0947  0.1426
11577TIP3    H134664   7.110   3.593   5.470  1.1270  0.0696 -1.0506
11577TIP3    H234665   7.145   3.449   5.442 -1.7198 -0.9639  0.5518
11578TIP3   OH234666   7.023   3.949   4.363  0.4220  0.0064 -0.4279
11578TIP3    H134667   7.102   3.986   4.400 -0.6865  0.9408  1.0596
11578TIP3    H234668   7.025   3.857   4.389  2.5560 -0.7657 -3.0774
11579TIP3   OH234669   6.455   3.454   5.295  0.2608 -0.1763  0.1941
11579TIP3    H134670   6.539   3.478   5.256  1.2700 -2.0176  1.2055
11579TIP3    H234671   6.433   3.370   5.256 -0.7802 -0.0307  0.4499
11580TIP3   OH234672   6.483   4.047   6.346  0.6267 -0.6916  0.5833
11580TIP3    H134673   6.529   4.125   6.378 -0.3413  0.0486  0.2029
11580TIP3    H234674   6.471   4.064   6.252 -0.0660 -1.0492  0.6077
11581TIP3   OH234675   4.769   5.032   5.087  0.1317  0.5071  0.5257
11581TIP3    H134676   4.682   5.001   5.113  0.3486  0.1350  0.8020
11581TIP3    H234677   4.792   5.098   5.153  0.1786  0.4033  0.6141
11582TIP3   OH234678   6.886   6.708   3.361 -0.1723 -0.2361  0.4340
11582TIP3    H134679   6.926   6.718   3.274 -3.2635  2.7377 -0.7370
11582TIP3    H234680   6.824   6.636   3.350 -0.4874  0.0695  0.2035
11583TIP3   OH234681   5.711   4.451   4.877 -0.1870  0.3312 -0.9090
11583TIP3    H134682   5.645   4.383   4.888  1.4574 -0.9789  1.2246
11583TIP3    H234683   5.726   4.456   4.783 -1.7366 -0.8784 -1.2278
11584TIP3   OH234684   6.842   2.472   3.645 -0.5052 -0.8343 -0.8485
11584TIP3    H134685   6.767   2.531   3.653 -1.1616 -1.8483  0.7674
11584TIP3    H234686   6.913   2.526   3.612 -1.4039  0.5916 -0.4641
11585TIP3   OH234687   7.793   2.077   3.636  0.3721 -0.1301  0.5736
11585TIP3    H134688   7.885   2.094   3.617 -0.2106  0.6219 -1.7599
11585TIP3    H234689   7.775   1.994   3.591 -0.0199 -0.4022  1.2319
11586TIP3   OH234690   7.709   6.414   5.029 -0.2171  0.0010 -0.0129
11586TIP3    H134691   7.619   6.439   5.008 -0.4395 -1.3700 -0.6978
11586TIP3    H234692   7.735   6.355   4.959  1.0016 -0.1388  0.5387
11587TIP3   OH234693   6.812   4.450   4.326  0.0206  0.1712 -0.4912
11587TIP3    H134694   6.817   4.410   4.413  1.8004  0.4718 -0.4270
11587TIP3    H234695   6.777   4.537   4.341 -0.0519  0.0779 -0.1190
11588TIP3   OH234696   6.368   5.557   4.468  0.4019  0.0878 -0.0979
11588TIP3    H134697   6.454   5.555   4.426  1.5450  1.9864  2.0398
11588TIP3    H234698   6.331   5.641   4.442 -0.5180 -0.4070 -0.4041
11589TIP3   OH234699   6.628   3.769   4.348 -0.1419 -0.0900  0.1077
11589TIP3    H134700   6.632   3.783   4.443  0.4430 -0.9204  0.2112
11589TIP3    H234701   6.535   3.766   4.328 -0.3097 -2.6138  1.0713
11590TIP3   OH234702   5.201   3.642   4.364  0.1117  0.4215  0.1707
11590TIP3    H134703   5.147   3.585   4.419  0.3733  0.4574  0.4687
11590TIP3    H234704   5.290   3.606   4.373  0.4586  1.5249  1.2132
11591TIP3   OH234705   7.919   5.812   5.312 -0.1739  0.2464 -0.1154
11591TIP3    H134706   7.893   5.720   5.317 -2.2879  0.8291  0.0932
11591TIP3    H234707   7.965   5.829   5.394  1.8978 -1.1045 -0.9692
11592TIP3   OH234708   5.600   6.202   6.216  0.5053 -0.3011 -0.1977
11592TIP3    H134709   5.589   6.125   6.271  1.2433  0.2855  0.7899
11592TIP3    H234710   5.548   6.270   6.260  1.6952  0.3685  0.1995
11593TIP3   OH234711   8.065   4.459   3.945  0.6365 -0.0846 -0.2301
11593TIP3    H134712   8.084   4.550   3.923 -0.1327  0.5198  1.4578
11593TIP3    H234713   7.971   4.449   3.928  0.7838 -0.6480 -0.7136
11594TIP3   OH234714   5.694   5.888   5.829 -0.2440 -0.6724  0.2957
11594TIP3    H134715   5.727   5.971   5.862  0.1429 -0.0670 -1.5890
11594TIP3    H234716   5.602   5.886   5.858 -0.2662  0.4088  0.3310
11595TIP3   OH234717   6.497   2.670   4.226 -0.1479  0.4467 -0.3774
11595TIP3    H134718   6.420   2.702   4.274  0.2450  1.9127 -0.6887
11595TIP3    H234719   6.484   2.701   4.136  0.4796  0.1176 -0.5866
11596TIP3   OH234720   5.167   7.035   6.006 -0.1361  0.1549 -0.1468
11596TIP3    H134721   5.189   6.961   5.949  0.2397  1.1874 -1.3552
11596TIP3    H234722   5.238   7.038   6.070 -0.8436 -1.3517  0.7600
11597TIP3   OH234723   5.808   6.015   5.181  0.5519  0.3766 -0.1733
11597TIP3    H134724   5.765   5.994   5.264  0.9809  0.6625  0.1239
11597TIP3    H234725   5.874   5.946   5.171 -0.0705 -0.1450 -0.6999
11598TIP3   OH234726   6.934   6.050   3.906  0.2974 -0.2649 -0.7222
11598TIP3    H134727   6.987   6.130   3.909 -1.0144  0.5563  1.9715
11598TIP3    H234728   6.853   6.077   3.863 -0.3867  0.0310  0.7260
11599TIP3   OH234729   7.164   5.259   4.468 -0.1131  0.1825 -0.0235
11599TIP3    H134730   7.235   5.204   4.434 -1.7340 -1.0468 -1.4718
11599TIP3    H234731   7.148   5.224   4.556  0.5847 -0.0164  0.0299
11600TIP3   OH234732   2.385   1.139   4.969  0.6830  0.3246  0.0960
11600TIP3    H134733   2.472   1.143   5.009  0.7701 -1.5343  0.1545
11600TIP3    H234734   2.377   1.048   4.938 -0.1083  1.2129 -2.4658
11601TIP3   OH234735   7.377   3.548   5.827 -0.1067 -0.2256  0.2250
11601TIP3    H134736   7.285   3.569   5.841  0.0942  0.6927  0.1809
11601TIP3    H234737   7.425   3.614   5.877  0.5273 -0.8508  0.4563
11602TIP3   OH234738   6.954   7.509   0.320  0.2621 -0.5069 -0.1780
11602TIP3    H134739   6.962   7.498   0.226  2.6975 -3.5772  0.2973
11602TIP3    H234740   6.999   7.591   0.339 -2.3917  1.4435 -1.8716
11603TIP3   OH234741   0.072   4.887   6.258 -0.0270  0.1745  0.1284
11603TIP3    H134742   0.143   4.868   6.320  0.4400 -0.4344 -0.5798
11603TIP3    H234743   0.025   4.803   6.249 -1.2775  0.7497  1.1408
11604TIP3   OH234744   1.818   3.604   5.157 -0.2311  0.2267  0.1885
11604TIP3    H134745   1.846   3.679   5.104 -2.6445 -0.0061 -1.4991
11604TIP3    H234746   1.890   3.542   5.152  0.8804  1.5287 -0.1864
11605TIP3   OH234747   6.012   5.014   6.174 -0.7106  0.5228  0.2216
11605TIP3    H134748   5.933   4.980   6.217 -0.7344  0.8014  0.4021
11605TIP3    H234749   5.987   5.024   6.082 -0.4941 -0.5918  0.0383
11606TIP3   OH234750   4.465   6.719   4.413  0.2893  0.3678 -0.7569
11606TIP3    H134751   4.536   6.686   4.468 -0.5313  0.2508  0.2636
11606TIP3    H234752   4.438   6.645   4.361 -0.5915 -0.2084  0.4938
11607TIP3   OH234753   6.963   6.814   2.415  0.5317 -0.5986 -0.0848
11607TIP3    H134754   6.942   6.899   2.375 -0.5650 -1.2315 -0.8811
11607TIP3    H234755   6.878   6.772   2.426  1.1590 -2.0597 -0.7612
11608TIP3   OH234756   7.055   5.059   3.917 -0.1176 -0.0353  0.8688
11608TIP3    H134757   7.077   4.971   3.887  1.9644  0.6732  0.1845
11608TIP3    H234758   7.136   5.092   3.956 -0.6079  1.8660  0.3705
11609TIP3   OH234759   5.336   0.498   0.837 -0.2479 -0.0924 -0.4953
11609TIP3    H134760   5.405   0.549   0.795 -0.8558  3.2125  2.2880
11609TIP3    H234761   5.254   0.540   0.808 -0.9155 -1.4641 -0.6379
11610TIP3   OH234762   6.033   4.376   4.737  0.0046  0.1089  0.3373
11610TIP3    H134763   6.087   4.318   4.790  1.9244  0.7985 -0.7981
11610TIP3    H234764   6.038   4.339   4.649 -0.9313  0.5086  0.1054
11611TIP3   OH234765   7.575   0.962   6.020  0.1939  0.5458  0.2058
11611TIP3    H134766   7.607   0.984   5.932 -0.0889 -0.5188 -0.1744
11611TIP3    H234767   7.609   0.874   6.036  0.6768  0.9462  1.3800
11612TIP3   OH234768   5.858   2.755   4.125 -0.5278 -0.3501  0.2727
11612TIP3    H134769   5.805   2.833   4.107 -2.0118 -1.6284 -0.9283
11612TIP3    H234770   5.948   2.788   4.127 -1.0673  1.2619 -1.0534
11613TIP3   OH234771   4.403   3.016   6.685 -0.2667  0.1023  0.2660
11613TIP3    H134772   4.461   3.072   6.633 -0.4420 -0.2915 -0.3572
11613TIP3    H234773   4.329   2.997   6.628 -0.2004 -0.7832  0.4643
11614TIP3   OH234774   5.995   4.620   4.868 -0.2646  1.0341 -0.2034
11614TIP3    H134775   6.016   4.535   4.828  0.4767  0.9537  0.3481
11614TIP3    H234776   5.914   4.646   4.826 -1.3666 -0.7098  0.7530
11615TIP3   OH234777   4.984   5.866   4.662  0.0949 -0.4979  0.3665
11615TIP3    H134778   5.068   5.906   4.684 -0.6048  0.4755  1.3709
11615TIP3    H234779   5.006   5.779   4.629  1.4783 -0.3053  0.7590
11616TIP3   OH234780   1.800   6.926   3.574 -0.0598 -0.1797 -0.0742
11616TIP3    H134781   1.839   6.892   3.655 -0.2729 -0.9235 -0.2757
11616TIP3    H234782   1.821   7.019   3.574 -1.1889  0.1033  1.5010
11617TIP3   OH234783   6.672   4.652   4.765 -0.6104 -0.0794  0.9187
11617TIP3    H134784   6.661   4.728   4.823  1.0004 -0.9065  2.3768
11617TIP3    H234785   6.655   4.686   4.677 -2.0269  1.4671  1.7625
11618TIP3   OH234786   7.609   4.259   4.154 -0.2825 -0.1269  0.0024
11618TIP3    H134787   7.543   4.311   4.200 -1.3339 -2.5786  1.3638
11618TIP3    H234788   7.681   4.320   4.138 -1.8782  1.9842  0.6390
11619TIP3   OH234789   5.703   4.750   5.924  0.0316 -0.2472 -0.7817
11619TIP3    H134790   5.614   4.735   5.956  0.2894  0.7491  0.4395
11619TIP3    H234791   5.760   4.729   5.999  0.9152 -2.1547 -1.9523
11620TIP3   OH234792   6.121   3.405   6.010  0.1446  0.3936  0.1203
11620TIP3    H134793   6.029   3.393   5.987  0.4976 -1.4275 -0.4815
11620TIP3    H234794   6.152   3.473   5.951 -0.5737  0.2872 -0.3891
11621TIP3   OH234795   6.831   1.124   5.222  0.6089  0.1087  0.2339
11621TIP3    H134796   6.822   1.034   5.254  2.2984 -0.3514 -0.5305
11621TIP3    H234797   6.810   1.179   5.298  1.5082 -0.9509  1.2669
11622TIP3   OH234798   5.837   3.693   5.057 -0.0399  0.2190 -0.0381
11622TIP3    H134799   5.764   3.643   5.093  1.2538 -1.6724  0.0331
11622TIP3    H234800   5.895   3.709   5.132  1.6446 -1.9369 -0.8392
11623TIP3   OH234801   6.206   4.458   4.417 -0.2890  0.1574  0.0584
11623TIP3    H134802   6.215   4.398   4.343 -0.5668 -1.6006  1.4096
11623TIP3    H234803   6.295   4.482   4.440 -0.1794  0.3258 -0.5301
11624TIP3   OH234804   7.214   6.210   3.974  0.8038 -0.2863 -0.0722
11624TIP3    H134805   7.151   6.277   4.001 -1.1756 -2.2799  0.3409
11624TIP3    H234806   7.222   6.222   3.879 -1.8960 -1.4267 -0.4741
11625TIP3   OH234807   3.787   3.693   5.182 -0.2404  0.2228 -0.1767
11625TIP3    H134808   3.839   3.621   5.144 -0.3098 -0.5736  1.1973
11625TIP3    H234809   3.696   3.667   5.168 -0.2871  0.9446 -1.3196
11626TIP3   OH234810   2.768   1.137   0.731  0.2610 -0.1151 -0.1819
11626TIP3    H134811   2.857   1.151   0.764 -0.1755  0.7043  0.6762
11626TIP3    H234812   2.714   1.198   0.780 -0.5744  0.4085 -1.7005
11627TIP3   OH234813   7.807   2.502   5.138 -0.2518  0.3366 -0.2401
11627TIP3    H134814   7.804   2.594   5.162  0.4221  0.2941  0.0272
11627TIP3    H234815   7.838   2.458   5.217  1.2044  0.1005 -0.9265
11628TIP3   OH234816   4.419   3.980   4.661 -1.1812 -0.5049 -0.0423
11628TIP3    H134817   4.354   3.940   4.720 -0.8487 -1.6874 -0.4507
11628TIP3    H234818   4.442   4.062   4.703 -1.7811 -0.8097  0.9134
11629TIP3   OH234819   0.942   4.886   4.355 -0.3027  0.0801  0.3472
11629TIP3    H134820   0.905   4.968   4.323  0.9501  0.1093 -1.0820
11629TIP3    H234821   1.037   4.899   4.351 -0.0922 -0.4957  2.5888
11630TIP3   OH234822   8.021   6.260   4.806  0.4861 -0.1546  1.0555
11630TIP3    H134823   8.108   6.224   4.788  0.0769 -0.8088  0.3362
11630TIP3    H234824   8.037   6.338   4.859  1.6423  0.6893 -0.4890
11631TIP3   OH234825   5.765   4.878   3.669 -0.7755  0.1254  0.0432
11631TIP3    H134826   5.757   4.944   3.600 -1.0087  1.5856  1.4109
11631TIP3    H234827   5.681   4.833   3.669 -0.4073 -0.5930 -1.2939
11632TIP3   OH234828   6.124   3.885   5.801 -0.1519 -0.0689  0.1532
11632TIP3    H134829   6.056   3.820   5.819  0.5767 -0.9267 -0.1629
11632TIP3    H234830   6.205   3.844   5.830  0.6349 -0.2317 -2.1452
11633TIP3   OH234831   0.055   5.662   5.138 -0.1231  0.1660 -0.1177
11633TIP3    H134832   0.118   5.624   5.198  0.3851 -0.9628 -1.3407
11633TIP3    H234833   0.103   5.669   5.055 -1.9904 -1.8701 -1.3954
11634TIP3   OH234834   5.547   3.002   5.354  0.4206 -0.3272  0.0003
11634TIP3    H134835   5.572   3.064   5.286  1.4885 -0.8885 -0.1278
11634TIP3    H234836   5.630   2.977   5.396 -0.1385 -0.6409  0.9288
11635TIP3   OH234837   6.130   4.761   6.301  0.3796  0.0414 -0.6185
11635TIP3    H134838   6.090   4.834   6.255 -1.0121 -0.5008 -0.2992
11635TIP3    H234839   6.087   4.683   6.265 -0.5815 -0.3981  1.4452
11636TIP3   OH234840   6.728   2.717   4.690  0.2015 -0.0914 -0.2378
11636TIP3    H134841   6.771   2.774   4.627  0.1511 -1.2577 -1.3346
11636TIP3    H234842   6.764   2.744   4.775  0.0948  1.6384 -0.7213
11637TIP3   OH234843   3.599   3.271   6.098 -0.5270 -0.1278 -0.5176
11637TIP3    H134844   3.571   3.204   6.036 -0.4594 -0.4347 -0.2170
11637TIP3    H234845   3.588   3.231   6.184 -0.7300  0.3369 -0.3209
11638TIP3   OH234846   6.990   2.177   4.244 -0.3789  0.4114 -0.1690
11638TIP3    H134847   6.908   2.136   4.270 -0.4996  0.4435 -0.4991
11638TIP3    H234848   6.999   2.156   4.151  0.0861  0.2363 -0.0852
11639TIP3   OH234849   6.872   4.445   3.731 -0.0289 -0.2856 -1.2549
11639TIP3    H134850   6.919   4.478   3.808  0.6554  0.0411 -1.8120
11639TIP3    H234851   6.888   4.510   3.663 -2.4316  0.5549 -1.0890
11640TIP3   OH234852   7.002   3.086   4.397 -0.4186  0.2861  0.0295
11640TIP3    H134853   6.949   3.099   4.475 -1.9101  2.8708 -1.3219
11640TIP3    H234854   6.938   3.077   4.326  0.9267 -0.1145 -1.1579
11641TIP3   OH234855   5.293   2.369   3.779 -0.8529 -0.7456 -0.0915
11641TIP3    H134856   5.274   2.402   3.691  1.0096 -0.7355 -0.5060
11641TIP3    H234857   5.213   2.387   3.828 -0.7712  2.2389 -0.9325
11642TIP3   OH234858   6.719   6.122   4.784 -0.1764  0.0013 -0.0677
11642TIP3    H134859   6.739   6.164   4.868 -0.0780 -0.9970  0.4258
11642TIP3    H234860   6.624   6.108   4.786 -0.1379 -0.2581 -0.0052
11643TIP3   OH234861   6.023   4.654   6.839 -0.1491  0.0118 -0.5017
11643TIP3    H134862   6.042   4.650   6.933 -0.2397  0.1227 -0.4790
11643TIP3    H234863   5.992   4.743   6.824  2.2054  0.7807 -1.0836
11644TIP3   OH234864   7.723   5.163   4.090 -0.6210 -1.1570  0.0703
11644TIP3    H134865   7.773   5.231   4.044  0.5994 -1.4155  0.9623
11644TIP3    H234866   7.650   5.210   4.130 -0.8666 -0.6944 -0.9079
11645TIP3   OH234867   2.965   1.398   0.561  0.2503  0.4563  0.5480
11645TIP3    H134868   2.992   1.352   0.482 -3.8055 -3.1682  1.0156
11645TIP3    H234869   3.014   1.355   0.632  0.8608  0.8983  0.3907
11646TIP3   OH234870   6.459   4.901   4.526  0.1786  0.7341  0.4666
11646TIP3    H134871   6.378   4.850   4.531  0.0055  1.0867  1.3968
11646TIP3    H234872   6.468   4.941   4.613  0.1972  2.4540 -0.3118
11647TIP3   OH234873   8.421   4.090   5.059  0.2331 -0.1791  0.2962
11647TIP3    H134874   8.456   4.178   5.076  0.1327 -0.2176  0.7093
11647TIP3    H234875   8.327   4.099   5.073  0.1669 -0.2469 -0.1070
11648TIP3   OH234876   5.904   5.378   5.568 -0.5642 -0.0744  0.0357
11648TIP3    H134877   5.908   5.434   5.490  0.7597 -1.3180 -0.8205
11648TIP3    H234878   5.983   5.398   5.617 -1.1616  0.3583  0.8431
11649TIP3   OH234879   4.498   4.174   4.870 -0.0664  0.1847  0.4325
11649TIP3    H134880   4.569   4.216   4.919  2.5295  0.1604 -3.1056
11649TIP3    H234881   4.444   4.246   4.840  0.6416  0.5094 -0.0787
11650TIP3   OH234882   6.656   4.838   4.162  0.4194 -0.3740  0.5433
11650TIP3    H134883   6.580   4.891   4.182  0.5869 -0.3419  1.1088
11650TIP3    H234884   6.717   4.898   4.119  0.5167 -0.1662  0.9734
11651TIP3   OH234885   5.555   6.686   4.777 -0.3628 -0.4752 -0.3815
11651TIP3    H134886   5.475   6.645   4.808 -0.3740  0.6708  1.1972
11651TIP3    H234887   5.528   6.738   4.701 -0.9442 -0.8290 -0.4180
11652TIP3   OH234888   6.780   3.865   5.100 -0.0487  0.0585  0.0545
11652TIP3    H134889   6.807   3.796   5.040 -2.6040 -2.7307  1.9360
11652TIP3    H234890   6.858   3.886   5.150  1.2606  0.0313 -1.9189
11653TIP3   OH234891   6.873   5.232   6.630 -0.8676  0.5779 -0.0605
11653TIP3    H134892   6.842   5.183   6.705 -0.9025  1.6933  0.6679
11653TIP3    H234893   6.930   5.171   6.583  0.7095  0.4827  1.9130
11654TIP3   OH234894   7.053   5.828   3.793 -0.0038  0.2841 -0.3619
11654TIP3    H134895   7.119   5.798   3.855 -0.4939 -1.8033 -0.7855
11654TIP3    H234896   7.014   5.905   3.835  1.2162  0.2601  0.8664
11655TIP3   OH234897   3.821   2.272   0.235  0.1789  0.2120  0.5885
11655TIP3    H134898   3.803   2.309   0.148  1.2591 -0.8815 -0.1292
11655TIP3    H234899   3.820   2.347   0.294  0.0312  1.0605 -0.4769
11656TIP3   OH234900   7.057   6.069   3.434  0.0217 -0.5110 -0.4587
11656TIP3    H134901   7.141   6.042   3.470 -0.0959 -1.1803 -0.6650
11656TIP3    H234902   7.078   6.137   3.370  0.3633 -0.3657 -0.1904
11657TIP3   OH234903   6.564   4.154   6.089  0.0628  0.1387 -0.0226
11657TIP3    H134904   6.509   4.208   6.033  1.1715 -0.1629 -1.4215
11657TIP3    H234905   6.653   4.184   6.073  0.4846 -0.5739  0.8937
11658TIP3   OH234906   7.095   3.591   5.151  0.5355  0.0409 -0.0138
11658TIP3    H134907   7.105   3.686   5.143 -1.3835  0.3195  0.6397
11658TIP3    H234908   7.095   3.575   5.246 -0.9756 -0.3744 -0.0680
11659TIP3   OH234909   6.271   4.778   4.834 -0.3246 -1.0122 -0.1461
11659TIP3    H134910   6.289   4.691   4.799 -2.5550 -1.5392 -0.0575
11659TIP3    H234911   6.176   4.789   4.824  0.0608  1.8672 -1.2258
11660TIP3   OH234912   6.522   5.951   3.632  0.2746 -0.0134 -0.3042
11660TIP3    H134913   6.571   5.868   3.632  2.0568  0.9978  0.7915
11660TIP3    H234914   6.590   6.018   3.643 -1.1232  1.6107 -1.4789
11661TIP3   OH234915   7.083   5.713   5.890 -0.1258 -0.2736  1.0182
11661TIP3    H134916   7.051   5.761   5.813  2.2551 -1.1707 -0.5862
11661TIP3    H234917   7.008   5.659   5.917 -0.9618 -0.0460 -0.7647
11662TIP3   OH234918   5.437   4.114   5.962 -0.4823  0.1374  0.6705
11662TIP3    H134919   5.413   4.042   6.021  0.8488 -0.3785  0.5897
11662TIP3    H234920   5.460   4.071   5.880 -1.4088  0.7923  0.0517
11663TIP3   OH234921   8.192   5.593   5.765 -0.1345  0.4631 -0.2125
11663TIP3    H134922   8.110   5.551   5.738 -1.2457  2.0820  0.5321
11663TIP3    H234923   8.181   5.610   5.858  0.8746  1.1041 -0.2013
11664TIP3   OH234924   5.948   4.229   5.635  0.1418 -0.4607  0.0245
11664TIP3    H134925   6.040   4.247   5.616  0.2831 -1.4976 -0.3339
11664TIP3    H234926   5.905   4.314   5.630  0.9807 -0.0543 -0.3876
11665TIP3   OH234927   3.604   6.664   3.656 -0.1330  0.3425 -0.0964
11665TIP3    H134928   3.651   6.685   3.575  0.9042  1.3890  0.7522
11665TIP3    H234929   3.640   6.580   3.684  2.0848  1.6538  1.1301
11666TIP3   OH234930   5.548   3.050   3.413 -0.1540 -0.3548  0.0315
11666TIP3    H134931   5.477   3.010   3.464 -0.5875  1.0087  0.5284
11666TIP3    H234932   5.588   2.977   3.366 -0.8744 -1.3792  0.9767
11667TIP3   OH234933   6.316   5.124   6.646 -0.3987 -0.3429 -0.0587
11667TIP3    H134934   6.265   5.118   6.565  0.4368 -0.1020 -0.6199
11667TIP3    H234935   6.277   5.197   6.694  0.0959  0.5459 -0.9812
11668TIP3   OH234936   6.257   2.195   5.241 -0.1590 -0.5931  0.1943
11668TIP3    H134937   6.214   2.177   5.158 -1.3321  1.0762  0.4065
11668TIP3    H234938   6.190   2.241   5.293  1.8328  2.0167  0.5511
11669TIP3   OH234939   4.394   3.333   4.917 -0.3287  0.6270  0.3534
11669TIP3    H134940   4.448   3.261   4.886 -2.9171  0.0197 -2.9320
11669TIP3    H234941   4.449   3.411   4.906  1.2138 -0.4056  0.6511
11670TIP3   OH234942   5.612   3.873   5.851  0.1110 -1.2194 -0.1246
11670TIP3    H134943   5.601   3.884   5.757  1.9236  0.9285 -0.1270
11670TIP3    H234944   5.690   3.924   5.873 -0.2629 -1.6799  2.5525
11671TIP3   OH234945   7.563   3.083   5.172 -0.2922 -0.1620 -0.0344
11671TIP3    H134946   7.644   3.035   5.152 -0.8596 -1.3211  0.3952
11671TIP3    H234947   7.510   3.020   5.221 -0.7324  1.1862  1.2182
11672TIP3   OH234948   6.566   5.979   5.076 -0.1660 -0.3476  0.0030
11672TIP3    H134949   6.556   5.889   5.106  1.3736 -0.9866 -1.3880
11672TIP3    H234950   6.660   5.997   5.083 -0.4562  1.1594  0.2786
11673TIP3   OH234951   4.963   4.742   4.814 -0.2451  0.6283  0.8054
11673TIP3    H134952   4.956   4.680   4.886  0.7405 -0.5715 -0.1083
11673TIP3    H234953   5.055   4.768   4.813  0.3378 -1.3905 -1.6460
11674TIP3   OH234954   6.225   4.359   5.645 -0.1516  0.5739  0.2093
11674TIP3    H134955   6.291   4.291   5.627  0.9114  1.5929  0.2065
11674TIP3    H234956   6.269   4.441   5.623 -1.8699  1.1756 -0.9885
11675TIP3   OH234957   7.381   6.227   2.667 -0.2846 -0.3233  0.0059
11675TIP3    H134958   7.400   6.321   2.669  0.1895 -0.4058 -0.4685
11675TIP3    H234959   7.317   6.217   2.597  0.8468 -0.5564 -1.0113
11676TIP3   OH234960   5.762   5.656   5.655  0.2729  0.0290  0.1712
11676TIP3    H134961   5.767   5.569   5.694  0.9001  0.8797  2.0556
11676TIP3    H234962   5.671   5.683   5.668  0.1619 -0.2002 -0.1177
11677TIP3   OH234963   4.519   2.588   5.732 -0.4881  0.2376  0.3512
11677TIP3    H134964   4.487   2.637   5.656 -0.0009 -0.0674 -0.0518
11677TIP3    H234965   4.470   2.506   5.730  2.1217 -1.3556 -1.7723
11678TIP3   OH234966   6.037   6.060   6.011  0.1754 -0.3101 -0.3367
11678TIP3    H134967   6.026   5.970   5.980  0.0305  0.0373 -1.3268
11678TIP3    H234968   5.948   6.093   6.022  0.2300 -0.5108  0.6880
11679TIP3   OH234969   7.331   5.184   5.685 -0.0068 -0.0098 -0.0594
11679TIP3    H134970   7.254   5.183   5.628 -0.2944 -1.1168  0.3445
11679TIP3    H234971   7.305   5.133   5.761  0.3284  1.5841  1.1523
11680TIP3   OH234972   4.594   4.985   5.843 -0.0955  0.7000 -0.3838
11680TIP3    H134973   4.671   5.011   5.792  1.1388 -1.9899  0.0324
11680TIP3    H234974   4.549   4.922   5.787 -0.0566 -0.4209  0.8298
11681TIP3   OH234975   4.162   2.784   1.224  0.0448 -0.0814  0.3057
11681TIP3    H134976   4.119   2.870   1.223 -0.8566 -0.5321 -0.2349
11681TIP3    H234977   4.192   2.771   1.134 -0.2531 -0.5530  0.2777
11682TIP3   OH234978   7.364   2.529   3.425 -0.0940  0.1211  0.4429
11682TIP3    H134979   7.359   2.453   3.483  0.1237  0.1343  0.4811
11682TIP3    H234980   7.297   2.588   3.457  0.7917  0.6239  1.4058
11683TIP3   OH234981   0.039   5.880   5.438  0.2619 -0.6662  0.0824
11683TIP3    H134982  -0.027   5.854   5.373  0.8945 -2.7774  0.2578
11683TIP3    H234983  -0.008   5.881   5.521 -0.5860  2.1754 -0.3731
11684TIP3   OH234984   6.086   4.571   4.123 -0.0783  0.4385 -0.1268
11684TIP3    H134985   6.024   4.574   4.050 -0.4897 -0.3267  0.1926
11684TIP3    H234986   6.031   4.555   4.200  0.5789 -0.8693  0.0776
11685TIP3   OH234987   5.404   7.959   5.706 -0.1682  0.0547  0.0909
11685TIP3    H134988   5.320   8.005   5.714 -0.1361  0.1643 -0.2007
11685TIP3    H234989   5.403   7.894   5.776 -0.8295 -0.4664 -0.4030
11686TIP3   OH234990   5.539   2.902   2.314  0.5450 -0.5819  0.2892
11686TIP3    H134991   5.445   2.896   2.330  0.8169 -0.2427  2.1897
11686TIP3    H234992   5.567   2.812   2.300  0.3200 -0.9659  2.1894
11687TIP3   OH234993   7.907   4.098   5.482  0.2620  0.5903  0.2967
11687TIP3    H134994   7.899   4.187   5.515  0.7885  1.2061 -1.2384
11687TIP3    H234995   7.911   4.044   5.561 -3.6902  1.5703  1.2675
11688TIP3   OH234996   6.430   5.382   4.041 -0.3312 -0.0862 -0.3059
11688TIP3    H134997   6.410   5.476   4.044  2.4606  0.5701 -1.0531
11688TIP3    H234998   6.496   5.374   3.972 -1.5687 -2.8123 -1.2170
11689TIP3   OH234999   5.221   1.319   5.110 -0.6697  0.2531 -0.6335
11689TIP3    H135000   5.149   1.330   5.172 -0.5498 -1.6644 -0.1299
11689TIP3    H235001   5.294   1.367   5.149 -1.3309  1.2369 -0.5894
11690TIP3   OH235002   1.884   7.467   0.439  0.4827  0.2744 -0.2636
11690TIP3    H135003   1.960   7.509   0.480 -2.0272  2.0426  2.8417
11690TIP3    H235004   1.847   7.534   0.382  1.8639 -0.9886 -2.7385
11691TIP3   OH235005   6.847   3.918   3.808 -0.1318  0.0941 -0.3967
11691TIP3    H135006   6.820   3.860   3.879  0.4306 -1.2647 -1.2751
11691TIP3    H235007   6.941   3.904   3.799 -0.4031 -0.7243 -2.2551
11692TIP3   OH235008   7.377   5.389   5.984 -0.1062  0.4163  0.0405
11692TIP3    H135009   7.443   5.455   5.963 -0.1582  0.7668  0.9214
11692TIP3    H235010   7.336   5.368   5.901  0.2012  1.1950 -0.3138
11693TIP3   OH235011   8.474   2.982   5.804  0.0457 -0.5047  0.6321
11693TIP3    H135012   8.437   3.070   5.797  0.5308 -0.4082 -0.8982
11693TIP3    H235013   8.406   2.923   5.772  0.7656 -0.4196 -1.1269
11694TIP3   OH235014   6.689   4.885   4.984  0.5107  0.0841  0.3483
11694TIP3    H135015   6.762   4.891   5.045 -0.1946  2.2990  1.0158
11694TIP3    H235016   6.614   4.864   5.039  0.3862 -0.8313 -0.1613
11695TIP3   OH235017   4.486   0.409   0.967  0.1637 -0.0649  0.0203
11695TIP3    H135018   4.504   0.336   0.907 -0.0428  0.4546 -0.6758
11695TIP3    H235019   4.570   0.424   1.011  0.3477 -0.3628 -0.2264
11696TIP3   OH235020   6.020   4.087   1.771  0.2872  0.1496 -0.6636
11696TIP3    H135021   5.985   4.125   1.691 -0.6995  0.7450  0.0400
11696TIP3    H235022   6.010   4.155   1.837  2.9126  0.3870 -0.4506
11697TIP3   OH235023   5.459   4.763   6.145  0.4602 -0.1342 -0.5220
11697TIP3    H135024   5.453   4.672   6.119 -1.0522  0.5002 -2.4759
11697TIP3    H235025   5.403   4.770   6.222  0.0654 -0.7232 -0.7545
11698TIP3   OH235026   6.175   4.935   5.235  0.4604 -0.1451  0.0167
11698TIP3    H135027   6.233   4.945   5.159  0.1743  1.6594  0.0152
11698TIP3    H235028   6.136   4.849   5.224  1.5346 -0.4983 -1.1143
11699TIP3   OH235029   7.743   4.838   5.094 -0.2833 -0.3165  0.1177
11699TIP3    H135030   7.669   4.867   5.148  0.1477 -2.5370  1.9374
11699TIP3    H235031   7.705   4.772   5.036 -0.1178 -0.0332 -0.3163
11700TIP3   OH235032   5.154   4.465   6.257 -0.4402 -0.2342  0.6036
11700TIP3    H135033   5.090   4.465   6.185 -1.8397  0.7842  1.8254
11700TIP3    H235034   5.105   4.437   6.333  1.0500 -1.3051  1.1942
11701TIP3   OH235035   5.512   3.219   6.263 -0.1551 -0.3962  0.1044
11701TIP3    H135036   5.435   3.166   6.284 -1.3780  1.3366  0.1601
11701TIP3    H235037   5.529   3.269   6.342 -0.7842  1.3767 -0.8525
11702TIP3   OH235038   2.718   1.552   1.284 -0.4577 -0.1969  0.3152
11702TIP3    H135039   2.786   1.501   1.240  0.7300  0.7107  1.0677
11702TIP3    H235040   2.746   1.643   1.273 -1.0721  0.1319  1.4383
11703TIP3   OH235041   0.714   7.777   0.982 -0.3996  0.1905  0.1391
11703TIP3    H135042   0.634   7.799   0.935  0.7694  1.4845 -1.3077
11703TIP3    H235043   0.709   7.825   1.064 -0.8945  0.6456 -0.1565
11704TIP3   OH235044   5.230   3.405   4.906 -0.1981 -0.2792 -0.2832
11704TIP3    H135045   5.299   3.460   4.869 -0.7161 -0.1765 -1.1062
11704TIP3    H235046   5.180   3.464   4.962 -0.2709 -0.1045 -0.5324
11705TIP3   OH235047   6.453   4.893   5.445  0.1924 -0.7598  0.0418
11705TIP3    H135048   6.413   4.946   5.513 -1.0455 -0.7612 -0.6580
11705TIP3    H235049   6.379   4.864   5.391  0.8860 -2.8371  0.1705
11706TIP3   OH235050   3.877   6.718   4.546 -0.0750  0.3267 -0.1373
11706TIP3    H135051   3.810   6.651   4.535 -1.3198  1.5104  0.0618
11706TIP3    H235052   3.918   6.697   4.630 -0.1161 -0.4735 -0.3121
11707TIP3   OH235053   5.516   4.264   4.951 -0.5861  0.1121 -0.5058
11707TIP3    H135054   5.427   4.230   4.944 -0.6516 -0.3279  1.9137
11707TIP3    H235055   5.540   4.249   5.042  2.0763 -0.0090 -1.1820
11708TIP3   OH235056   4.545   4.425   4.551  0.4663  0.3753 -0.2611
11708TIP3    H135057   4.530   4.519   4.552  1.6597  0.5894 -1.6087
11708TIP3    H235058   4.499   4.393   4.629  1.4622  2.2799  1.1637
11709TIP3   OH235059   5.692   4.470   5.866  0.2596  0.0740  0.3475
11709TIP3    H135060   5.706   4.433   5.779 -1.8758  1.2069 -0.5238
11709TIP3    H235061   5.692   4.564   5.852 -0.2717  0.2574  1.5351
11710TIP3   OH235062   5.861   7.112   4.158  0.1302 -0.1331 -0.7344
11710TIP3    H135063   5.885   7.038   4.213  0.5922  0.3847 -0.2343
11710TIP3    H235064   5.901   7.188   4.200 -1.7933  0.6656 -0.2702
11711TIP3   OH235065   0.886   6.435   5.680 -0.2858  0.8161 -0.1790
11711TIP3    H135066   0.838   6.357   5.707 -0.1409  0.8225  0.0953
11711TIP3    H235067   0.927   6.467   5.760  0.7639  0.4190 -0.5489
11712TIP3   OH235068   0.706   5.270   5.140 -0.0310 -0.0182 -0.4074
11712TIP3    H135069   0.729   5.196   5.085  0.2419  0.6727 -1.2321
11712TIP3    H235070   0.781   5.280   5.199 -1.1054 -1.8816  1.3153
11713TIP3   OH235071   8.415   4.604   5.148  0.3283 -0.1756  0.2376
11713TIP3    H135072   8.471   4.609   5.226  2.4391  0.6764 -1.2888
11713TIP3    H235073   8.339   4.657   5.170  0.4735 -0.6918  2.0697
11714TIP3   OH235074   0.054   5.000   4.528  0.2451 -0.3513 -0.1239
11714TIP3    H135075   0.095   4.919   4.496 -1.3622 -1.1008 -0.3557
11714TIP3    H235076  -0.034   4.997   4.493 -0.3648  0.6797  1.2690
11715TIP3   OH235077   7.084   4.812   3.743  0.8378  0.1493 -0.6989
11715TIP3    H135078   7.110   4.798   3.652  0.2600  1.7575 -1.1300
11715TIP3    H235079   7.165   4.805   3.793  1.3247  0.2687 -1.4658
11716TIP3   OH235080   5.435   7.671   4.952 -0.1778  0.0338 -0.7484
11716TIP3    H135081   5.523   7.665   4.990 -0.1690  0.3723 -0.7177
11716TIP3    H235082   5.391   7.591   4.980  0.0511 -0.0361 -0.5904
11717TIP3   OH235083   7.491   3.334   5.934 -0.0382  0.8357  0.3486
11717TIP3    H135084   7.422   3.275   5.965  0.4163  0.7058  1.1564
11717TIP3    H235085   7.446   3.401   5.885 -0.3814 -1.3952 -2.5247
11718TIP3   OH235086   6.678   1.524   5.553  0.2946  0.1975  0.1343
11718TIP3    H135087   6.737   1.596   5.531  1.4205 -0.6437  0.3444
11718TIP3    H235088   6.648   1.543   5.642 -0.3999  1.0492 -0.2729
11719TIP3   OH235089   7.680   4.396   5.897  0.2089  0.4505  0.1387
11719TIP3    H135090   7.633   4.440   5.826 -0.1281  0.6707  0.4964
11719TIP3    H235091   7.615   4.336   5.935  0.7260 -0.5338 -0.4925
11720TIP3   OH235092   0.427   1.070   5.898  0.5652 -0.0432  0.0382
11720TIP3    H135093   0.521   1.078   5.911  0.8163 -1.6156 -0.6822
11720TIP3    H235094   0.410   0.976   5.901 -0.4749 -0.0267 -3.0762
11721TIP3   OH235095   7.231   5.965   4.161 -0.1133  0.3078  0.0641
11721TIP3    H135096   7.213   6.014   4.081 -0.9943 -0.4637 -0.2289
11721TIP3    H235097   7.262   6.031   4.223  0.6225  0.9052 -0.9182
11722TIP3   OH235098   4.780   0.426   0.500  0.7420 -0.3069 -0.0759
11722TIP3    H135099   4.798   0.398   0.590  0.1260  0.2323  0.2187
11722TIP3    H235100   4.766   0.520   0.507  0.0501 -0.3665 -0.6430
11723TIP3   OH235101   7.180   2.354   4.033  0.0546  0.2355  0.1041
11723TIP3    H135102   7.100   2.406   4.032  0.1381  0.3403 -1.2742
11723TIP3    H235103   7.150   2.263   4.040 -0.0904  0.4423  2.5101
11724TIP3   OH235104   7.768   3.981   5.279  0.5838 -0.5095  0.0918
11724TIP3    H135105   7.838   4.018   5.332  1.5886 -0.1637 -1.4424
11724TIP3    H235106   7.756   3.892   5.312  0.8919 -0.1578  1.1635
11725TIP3   OH235107   6.882   5.514   5.921  0.4931 -0.0770  0.0367
11725TIP3    H135108   6.859   5.445   5.860  0.3484  1.8400 -2.1731
11725TIP3    H235109   6.810   5.516   5.984  0.4415 -1.8367  0.0375
11726TIP3   OH235110   8.254   6.547   4.930 -0.3331 -0.2537 -0.0702
11726TIP3    H135111   8.158   6.545   4.925 -0.3248 -1.0153  0.0568
11726TIP3    H235112   8.276   6.481   4.995  0.1680  1.3782  1.4752
11727TIP3   OH235113   7.410   6.803   0.637 -0.3341  0.0103  0.1316
11727TIP3    H135114   7.443   6.714   0.625 -0.4010  0.1778 -1.4524
11727TIP3    H235115   7.349   6.815   0.564 -0.3738  1.3204  0.3822
11728TIP3   OH235116   6.871   5.776   4.406 -0.1122  0.6754 -0.4512
11728TIP3    H135117   6.829   5.786   4.321 -4.4305 -0.2592  1.4370
11728TIP3    H235118   6.829   5.841   4.461 -1.3170 -2.2462  2.2663
11729TIP3   OH235119   8.047   4.882   3.925  0.3083  0.0070  0.3571
11729TIP3    H135120   8.051   4.962   3.871  2.7771 -0.6612 -0.5538
11729TIP3    H235121   7.958   4.880   3.959  0.5864  3.9226  1.5622
11730TIP3   OH235122   8.423   7.575   0.061  0.0564  0.0161  0.7139
11730TIP3    H135123   8.459   7.512   0.123 -0.3544  0.0891  1.0291
11730TIP3    H235124   8.500   7.616   0.020  0.3351 -1.6311 -0.4684
11731TIP3   OH235125   6.751   2.890   4.001  0.6252  0.4777 -0.2933
11731TIP3    H135126   6.679   2.898   3.938 -1.8847  2.8930  2.7061
11731TIP3    H235127   6.770   2.981   4.026  4.1955 -0.1777 -0.3416
11732TIP3   OH235128   6.279   1.926   3.016  0.0587  0.5522 -0.7606
11732TIP3    H135129   6.221   1.988   3.062  0.8142  1.2753 -0.7829
11732TIP3    H235130   6.337   1.892   3.084  0.5752  0.9292 -1.0159
11733TIP3   OH235131   6.309   2.901   3.637 -0.5891 -0.1004  0.2748
11733TIP3    H135132   6.281   2.989   3.611  0.2403 -0.1075 -0.6662
11733TIP3    H235133   6.328   2.856   3.555  0.4300 -0.6735  0.8102
11734TIP3   OH235134   4.261   3.536   6.299  0.7895 -0.5431 -0.2322
11734TIP3    H135135   4.268   3.545   6.204  0.4251  1.2669 -0.1093
11734TIP3    H235136   4.264   3.626   6.332 -1.4878 -0.9799  1.2983
11735TIP3   OH235137   8.221   6.188   4.635  1.2925  0.2459 -0.3893
11735TIP3    H135138   8.211   6.125   4.564  0.9352  1.2578 -1.2437
11735TIP3    H235139   8.302   6.234   4.616  0.8808  0.9419 -0.4768
11736TIP3   OH235140   5.225   4.751   5.272  0.2590  0.3522  0.5924
11736TIP3    H135141   5.150   4.806   5.248  0.4548  1.1804  1.8698
11736TIP3    H235142   5.228   4.685   5.203 -1.1973  0.7509  0.1213
11737TIP3   OH235143   6.022   6.602   4.076 -0.3661  0.4622  0.6452
11737TIP3    H135144   6.001   6.508   4.076 -1.4076  0.6494 -1.9006
11737TIP3    H235145   5.974   6.637   4.151 -0.7123 -0.8816  1.0677
11738TIP3   OH235146   8.034   6.082   5.057  0.3004 -0.2494  0.1221
11738TIP3    H135147   8.126   6.086   5.080  0.4679  1.4293 -0.7786
11738TIP3    H235148   8.032   6.081   4.961 -0.5526 -2.7603  0.0980
11739TIP3   OH235149   8.144   6.922   3.541  0.4806 -0.1881 -0.1758
11739TIP3    H135150   8.113   6.979   3.470 -0.5353  1.0782  1.2555
11739TIP3    H235151   8.228   6.889   3.509 -0.3917 -0.4026 -2.3642
11740TIP3   OH235152   6.873   5.427   6.821  0.0163 -0.0622  0.0158
11740TIP3    H135153   6.809   5.396   6.886 -0.5626 -0.2252 -0.6208
11740TIP3    H235154   6.905   5.347   6.780 -0.6107  0.1034 -0.8166
11741TIP3   OH235155   6.622   3.771   5.293  0.1712 -0.0122  0.9138
11741TIP3    H135156   6.671   3.823   5.229 -0.9400  0.3259  0.3251
11741TIP3    H235157   6.685   3.754   5.363  0.9102  1.0747  0.5289
11742TIP3   OH235158   1.278   0.288   1.177 -0.1473  0.0192 -0.7956
11742TIP3    H135159   1.336   0.318   1.246  0.2993  2.6112 -2.2201
11742TIP3    H235160   1.199   0.259   1.222  0.6447  0.4231  0.8821
11743TIP3   OH235161   6.698   7.736   4.888  0.1675 -0.5867 -0.3573
11743TIP3    H135162   6.671   7.652   4.926 -1.9703  0.5760  0.7996
11743TIP3    H235163   6.693   7.722   4.794 -1.5047 -1.3647 -0.1737
11744TIP3   OH235164   1.384   2.133   0.078 -0.0248  0.6323  0.1306
11744TIP3    H135165   1.356   2.147  -0.013 -0.4511  1.4477  0.3761
11744TIP3    H235166   1.339   2.202   0.127 -0.7121 -0.5079  1.1313
11745TIP3   OH235167   5.988   6.036   4.696 -0.0677 -0.2921 -0.2503
11745TIP3    H135168   6.031   6.047   4.781  0.8752  1.4604 -0.9319
11745TIP3    H235169   6.007   5.945   4.672 -1.9003 -1.3880  2.2203
11746TIP3   OH235170   6.339   4.312   5.910 -0.4883  0.2306  0.0182
11746TIP3    H135171   6.344   4.407   5.920 -0.5404  0.5111 -2.4113
11746TIP3    H235172   6.311   4.299   5.820  1.4596 -2.1359 -0.2933
11747TIP3   OH235173   8.147   1.555   5.286  0.1193 -0.3384 -0.2839
11747TIP3    H135174   8.197   1.529   5.363 -1.8567 -0.3233  1.0563
11747TIP3    H235175   8.055   1.539   5.311 -0.6369  0.8772 -2.1556
11748TIP3   OH235176   6.761   5.316   6.289 -0.3617 -0.4008 -0.3350
11748TIP3    H135177   6.706   5.291   6.364  0.6116  0.2513  0.6072
11748TIP3    H235178   6.698   5.339   6.220 -1.3089  1.1741  1.0064
11749TIP3   OH235179   6.607   4.325   5.204  0.6724  0.1083  0.1727
11749TIP3    H135180   6.515   4.307   5.186  0.8675 -2.1019  1.1875
11749TIP3    H235181   6.640   4.367   5.125 -1.4248  1.7961  0.1610
11750TIP3   OH235182   6.631   3.047   5.291 -0.2297 -0.2875  0.0822
11750TIP3    H135183   6.718   3.082   5.307 -0.2008  0.2776 -1.2514
11750TIP3    H235184   6.643   2.952   5.283  0.0354 -0.3691  1.3466
11751TIP3   OH235185   6.814   1.318   5.426  0.0532  0.0267 -0.0376
11751TIP3    H135186   6.780   1.398   5.465  2.1848  0.5683  0.7962
11751TIP3    H235187   6.746   1.253   5.441 -1.1564  1.3564  0.4123
11752TIP3   OH235188   0.554   4.266   2.501 -0.5975 -0.6577 -0.3365
11752TIP3    H135189   0.463   4.277   2.474 -1.1946 -2.9586  0.5758
11752TIP3    H235190   0.555   4.183   2.549  2.5752 -2.2527 -2.9633
11753TIP3   OH235191   7.805   4.499   3.350 -0.1554  0.5037  0.0319
11753TIP3    H135192   7.722   4.452   3.353 -0.3432  0.9685  2.6850
11753TIP3    H235193   7.864   4.442   3.300 -0.6851 -2.0267  2.2411
11754TIP3   OH235194   3.156   5.400   3.891  0.0244  0.4512  0.0023
11754TIP3    H135195   3.128   5.321   3.844  0.6607  0.8061 -0.9931
11754TIP3    H235196   3.116   5.392   3.977 -0.8351 -0.4133 -0.4684
11755TIP3   OH235197   0.174   7.674   0.237 -0.4447 -0.0873 -0.4271
11755TIP3    H135198   0.116   7.743   0.270 -1.7291 -0.4315 -1.8815
11755TIP3    H235199   0.122   7.594   0.247 -0.3379 -0.3563 -2.0225
11756TIP3   OH235200   7.833   5.135   6.532  0.0945 -0.3401 -0.3329
11756TIP3    H135201   7.857   5.059   6.479 -0.2735 -0.2805 -0.5839
11756TIP3    H235202   7.764   5.102   6.590 -1.2163  0.2342 -1.5698
11757TIP3   OH235203   6.647   5.974   4.053 -0.0858 -0.1893 -0.1096
11757TIP3    H135204   6.719   5.933   4.005 -1.4145 -0.0376 -2.3268
11757TIP3    H235205   6.601   5.901   4.094 -0.8478 -0.6938 -1.8038
11758TIP3   OH235206   6.617   7.150   3.545 -0.2360 -0.1295  0.2048
11758TIP3    H135207   6.598   7.158   3.638  0.4404  1.1003  0.2451
11758TIP3    H235208   6.536   7.179   3.502  0.7523  2.9967  0.3929
11759TIP3   OH235209   2.246   7.624   0.186  0.2291 -0.1253  0.6590
11759TIP3    H135210   2.272   7.677   0.261  0.3789 -0.0019  0.5195
11759TIP3    H235211   2.220   7.540   0.224  0.5975 -0.1667  0.8223
11760TIP3   OH235212   7.551   2.667   6.457 -0.0059  0.2112 -0.3068
11760TIP3    H135213   7.597   2.742   6.497 -0.2593 -0.7762  1.8619
11760TIP3    H235214   7.622   2.612   6.424  0.2801  0.0341  0.5926
11761TIP3   OH235215   6.148   5.022   4.658 -0.5362  0.6397 -0.1962
11761TIP3    H135216   6.179   4.940   4.620  0.2202  0.7290  0.2155
11761TIP3    H235217   6.083   4.995   4.723 -1.0096  0.4244 -0.7593
11762TIP3   OH235218   6.214   1.813   5.438  0.1716 -0.0942  0.3606
11762TIP3    H135219   6.120   1.798   5.451  0.1622  0.6639  1.2281
11762TIP3    H235220   6.230   1.788   5.347 -1.3364  2.0204 -0.5283
11763TIP3   OH235221   5.348   4.350   4.399  0.5887  0.3543  0.0415
11763TIP3    H135222   5.374   4.425   4.453  0.3539  1.1809 -0.9680
11763TIP3    H235223   5.270   4.316   4.442  0.1947  1.2309  0.0477
11764TIP3   OH235224   2.077   4.800   4.354  0.4369 -0.2049  0.9505
11764TIP3    H135225   2.086   4.705   4.348 -0.6188 -0.2837  0.4967
11764TIP3    H235226   2.133   4.835   4.285 -2.6054 -0.6773 -1.9108
11765TIP3   OH235227   1.263   5.728   3.808 -0.0247 -0.8356  0.1493
11765TIP3    H135228   1.342   5.748   3.859 -2.1648  1.3588  2.7411
11765TIP3    H235229   1.285   5.756   3.719  1.3239  1.9971  1.3065
11766TIP3   OH235230   7.906   5.349   4.008 -0.0222  0.1877  0.6978
11766TIP3    H135231   7.903   5.389   4.095 -0.6516  1.5252  0.0763
11766TIP3    H235232   7.988   5.380   3.971  0.0328 -0.0193  0.6485
11767TIP3   OH235233   2.797   5.330   6.231 -0.3425 -0.3965  0.5967
11767TIP3    H135234   2.761   5.306   6.317 -0.0416  0.8770  1.0927
11767TIP3    H235235   2.869   5.269   6.217  0.5672  0.3510  1.9429
11768TIP3   OH235236   6.590   5.267   6.057 -0.5029  0.1429 -0.1297
11768TIP3    H135237   6.515   5.300   6.107 -1.6996 -1.3982 -0.8772
11768TIP3    H235238   6.556   5.255   5.968  1.2719  1.6799 -1.0559
11769TIP3   OH235239   7.260   3.082   4.147 -0.6980 -0.8587 -0.1466
11769TIP3    H135240   7.165   3.076   4.138 -1.0089  3.2226 -0.2051
11769TIP3    H235241   7.275   3.103   4.239  0.1050 -0.5847 -0.3342
11770TIP3   OH235242   8.172   4.979   3.455  0.2609 -0.3227  0.5499
11770TIP3    H135243   8.091   5.029   3.464 -0.0069 -0.8517  1.0985
11770TIP3    H235244   8.218   4.992   3.538  0.5065 -0.4461  0.4349
11771TIP3   OH235245   0.372   6.712   3.515 -0.3669 -0.2271 -0.0072
11771TIP3    H135246   0.460   6.687   3.488  1.3997  0.2188  4.7959
11771TIP3    H235247   0.336   6.634   3.556 -1.4875  0.1708 -0.1922
11772TIP3   OH235248   7.569   4.641   3.203 -0.1322  0.0790 -0.5176
11772TIP3    H135249   7.531   4.689   3.131 -0.1210  0.6640 -0.1344
11772TIP3    H235250   7.603   4.708   3.262  1.2582 -0.4281 -0.7308
11773TIP3   OH235251   3.633   7.516   0.921  0.2792  0.2060 -0.1529
11773TIP3    H135252   3.648   7.490   0.829  1.6347  1.7512 -0.3822
11773TIP3    H235253   3.613   7.609   0.917 -1.1221 -0.0360  1.0036
11774TIP3   OH235254   7.341   3.661   4.194 -0.3043 -0.1684 -0.2605
11774TIP3    H135255   7.296   3.660   4.109 -3.5080 -0.7323  1.3673
11774TIP3    H235256   7.275   3.692   4.256  1.8569 -0.1185  2.1020
11775TIP3   OH235257   3.028   5.326   4.924  0.1163 -0.4405 -0.3415
11775TIP3    H135258   3.048   5.291   4.837  0.4185 -0.4224 -0.2804
11775TIP3    H235259   3.107   5.308   4.976  0.0831 -0.1084 -0.1757
11776TIP3   OH235260   7.129   7.318   2.912  0.0081  0.6270 -0.2867
11776TIP3    H135261   7.044   7.278   2.927 -0.1750  0.5907 -1.3860
11776TIP3    H235262   7.155   7.352   2.997 -3.4093  5.1753 -0.9158
11777TIP3   OH235263   7.405   6.237   4.180 -0.2676 -0.2881  0.0992
11777TIP3    H135264   7.333   6.220   4.119 -0.1765 -1.3595  0.2861
11777TIP3    H235265   7.456   6.307   4.138 -0.2531 -0.9638 -1.0136
11778TIP3   OH235266   5.660   6.921   5.258 -0.1717  0.5788 -0.3346
11778TIP3    H135267   5.593   6.870   5.305 -2.1917  0.7784 -2.8631
11778TIP3    H235268   5.740   6.909   5.309 -1.8991 -0.5360  2.2020
11779TIP3   OH235269   7.757   7.158   3.769  0.0137  0.1688  0.0293
11779TIP3    H135270   7.672   7.197   3.788 -0.3359 -0.8037  0.5060
11779TIP3    H235271   7.746   7.065   3.789  0.7204 -0.2511 -1.4327
11780TIP3   OH235272   7.666   4.320   4.728  0.0091  0.2361  0.0976
11780TIP3    H135273   7.674   4.403   4.682 -0.5889 -0.5839 -1.5023
11780TIP3    H235274   7.753   4.281   4.724  0.7400  1.5045  2.3214
11781TIP3   OH235275   0.234   4.515   5.265 -0.0005  0.3307  0.1678
11781TIP3    H135276   0.154   4.483   5.307 -1.0546 -0.3325 -2.2604
11781TIP3    H235277   0.283   4.435   5.244 -0.4384  0.5153 -1.6553
11782TIP3   OH235278   0.671   0.611   4.897 -1.0536 -0.1176 -0.2125
11782TIP3    H135279   0.701   0.687   4.947 -1.1029 -0.5484  0.4950
11782TIP3    H235280   0.632   0.647   4.818 -0.1573  0.5434 -0.3703
11783TIP3   OH235281   7.290   2.687   5.246  0.0719 -0.9025 -0.2098
11783TIP3    H135282   7.205   2.724   5.269 -1.1624 -1.7846 -3.0741
11783TIP3    H235283   7.334   2.672   5.330 -1.6440  1.7163  1.2246
11784TIP3   OH235284   0.820   5.189   5.645 -0.2833 -0.5452  0.4493
11784TIP3    H135285   0.901   5.220   5.687 -1.8748 -0.4426  3.5727
11784TIP3    H235286   0.800   5.107   5.690 -2.3056 -0.2099  0.1988
11785TIP3   OH235287   7.531   3.969   4.158  0.1553 -0.0741  0.1851
11785TIP3    H135288   7.542   4.064   4.149 -0.8345 -0.1068 -1.4599
11785TIP3    H235289   7.437   3.955   4.150  0.3843 -1.2894 -0.4014
11786TIP3   OH235290   6.004   6.093   5.707 -0.0996 -0.6064 -0.0391
11786TIP3    H135291   5.979   6.001   5.707  0.4227 -0.7596  1.7438
11786TIP3    H235292   6.034   6.110   5.796  0.5832  1.0796 -0.5716
11787TIP3   OH235293   7.686   7.012   4.424  0.1687  0.3105  0.0057
11787TIP3    H135294   7.730   6.991   4.506 -0.1461  0.3777  0.1886
11787TIP3    H235295   7.600   6.971   4.431 -0.1582  1.0023  0.0427
11788TIP3   OH235296   1.681   4.644   6.574  0.1137 -0.7249 -0.8030
11788TIP3    H135297   1.726   4.727   6.556  0.5960 -0.3787  1.8790
11788TIP3    H235298   1.589   4.668   6.584  0.2483 -0.5172 -0.0617
11789TIP3   OH235299   0.447   5.100   4.107  0.2769 -0.2943 -0.3447
11789TIP3    H135300   0.505   5.143   4.044  0.0580  0.4778 -0.0350
11789TIP3    H235301   0.387   5.170   4.135 -0.9127 -1.1288 -0.7941
11790TIP3   OH235302   0.221   5.629   4.314  0.2231  0.5437  0.1057
11790TIP3    H135303   0.291   5.693   4.322 -0.1938  1.1536 -1.0719
11790TIP3    H235304   0.158   5.654   4.381  0.6452  0.6107  0.4805
11791TIP3   OH235305   4.195   7.857   0.602 -0.5212 -0.3330  0.0517
11791TIP3    H135306   4.168   7.767   0.622  1.7727 -1.1210 -0.3076
11791TIP3    H235307   4.279   7.868   0.646  0.1158  1.0029 -1.4388
11792TIP3   OH235308   1.125   7.183   4.932 -0.0921  0.0747 -0.1954
11792TIP3    H135309   1.035   7.207   4.952  0.7238  1.4291  1.9608
11792TIP3    H235310   1.179   7.246   4.979  2.0122 -0.9527 -1.1220
11793TIP3   OH235311   7.804   4.942   5.937 -0.3360  0.5886 -0.9026
11793TIP3    H135312   7.853   4.897   6.006 -0.1429  1.0546 -0.7376
11793TIP3    H235313   7.857   4.931   5.858  1.4081  3.4141 -0.1848
11794TIP3   OH235314   6.834   6.011   5.052  0.3380 -0.2697 -0.3754
11794TIP3    H135315   6.909   6.070   5.051  1.4090 -1.5898 -0.0700
11794TIP3    H235316   6.835   5.972   5.139 -1.1980  0.3201 -0.0935
11795TIP3   OH235317   2.317   0.864   4.625  0.1754  0.1581 -0.1402
11795TIP3    H135318   2.276   0.948   4.605  0.0715 -0.0116 -0.6619
11795TIP3    H235319   2.405   0.871   4.588 -0.2148 -0.3735 -1.1811
11796TIP3   OH235320   8.154   4.659   5.226  0.1050 -0.3529  0.1147
11796TIP3    H135321   8.143   4.710   5.146  1.2598 -1.0642 -0.5011
11796TIP3    H235322   8.065   4.651   5.261 -0.4332 -0.1703 -1.1731
11797TIP3   OH235323   0.475   5.420   5.275  0.3025  0.0052  0.3506
11797TIP3    H135324   0.503   5.345   5.328 -1.6292 -0.0756  1.2715
11797TIP3    H235325   0.520   5.407   5.191  0.1219 -2.1156  0.5424
11798TIP3   OH235326   0.500   6.295   5.337 -0.2955  0.1246 -0.1399
11798TIP3    H135327   0.578   6.240   5.346 -0.4126  0.0268  0.3060
11798TIP3    H235328   0.437   6.258   5.399 -0.7472  0.1199 -0.5946
11799TIP3   OH235329   6.770   4.078   6.650  0.0202 -0.3297 -0.0678
11799TIP3    H135330   6.836   4.100   6.584  1.2650 -0.0742  1.2322
11799TIP3    H235331   6.693   4.052   6.599  0.7041  0.5923 -1.6135
11800TIP3   OH235332   1.545   6.135   4.783  0.6096  0.4857  0.1673
11800TIP3    H135333   1.514   6.135   4.873 -1.9299  2.8188 -0.6523
11800TIP3    H235334   1.638   6.159   4.789  0.7608 -0.5422  2.2046
11801TIP3   OH235335   7.710   5.760   4.426 -0.3411 -0.2597 -0.0540
11801TIP3    H135336   7.752   5.698   4.485  0.5368 -2.5513 -2.9830
11801TIP3    H235337   7.778   5.824   4.404  0.0977 -0.9184 -0.6226
11802TIP3   OH235338   5.688   2.864   3.800  0.0257 -0.0344 -0.0685
11802TIP3    H135339   5.745   2.799   3.758  1.1336  1.4435 -0.9094
11802TIP3    H235340   5.599   2.829   3.787  0.5859 -1.2917 -0.6559
11803TIP3   OH235341   6.977   6.379   3.981 -0.3962  0.3789 -0.5795
11803TIP3    H135342   6.966   6.374   4.076 -2.2651 -2.7481 -0.8939
11803TIP3    H235343   6.912   6.444   3.953 -0.9989  0.0927  0.1303
11804TIP3   OH235344   0.260   4.309   6.079  0.2082 -0.8899 -0.1111
11804TIP3    H135345   0.286   4.307   5.987  0.5521  1.5060 -0.0935
11804TIP3    H235346   0.204   4.386   6.087  1.1185 -0.4100  1.9179
11805TIP3   OH235347   8.102   3.485   4.920 -0.1649  0.0682 -0.0351
11805TIP3    H135348   8.019   3.462   4.879 -0.6554 -1.0917  1.5239
11805TIP3    H235349   8.160   3.412   4.901  0.1439  0.3414 -0.1521
11806TIP3   OH235350   7.081   5.784   5.607 -0.7810  0.2954  0.1551
11806TIP3    H135351   7.125   5.808   5.525 -1.6642  2.1575  0.1868
11806TIP3    H235352   7.053   5.693   5.594 -0.5956  0.4538 -1.4827
11807TIP3   OH235353   8.118   6.473   3.641 -0.1582  0.1873 -0.0724
11807TIP3    H135354   8.207   6.501   3.664  0.7586 -0.7373 -2.3647
11807TIP3    H235355   8.065   6.553   3.646  1.2497  1.1864 -0.8456
11808TIP3   OH235356   7.792   5.984   4.671  0.2560  0.3671  0.8485
11808TIP3    H135357   7.743   6.066   4.676 -2.5911 -1.1708 -0.3255
11808TIP3    H235358   7.752   5.928   4.737 -0.3886 -1.2888 -0.8804
11809TIP3   OH235359   1.974   4.604   3.980  0.7989 -0.9158  0.3750
11809TIP3    H135360   2.057   4.640   4.010  0.4550 -0.6734  1.0360
11809TIP3    H235361   1.984   4.597   3.885  0.0789  2.9737 -0.0509
11810TIP3   OH235362   1.521   3.007   4.658  0.0766  0.0456  0.0142
11810TIP3    H135363   1.455   3.003   4.727  0.8846  1.4012  0.8836
11810TIP3    H235364   1.556   3.096   4.662  1.2064 -0.3223 -1.1379
11811TIP3   OH235365   6.605   1.941   0.616 -0.0312  0.2160 -0.3249
11811TIP3    H135366   6.618   1.951   0.522  0.4783  0.4419 -0.2336
11811TIP3    H235367   6.636   2.023   0.654  0.6503 -0.2305  0.1135
11812TIP3   OH235368   8.035   5.042   6.098 -0.0062 -0.6749 -0.2605
11812TIP3    H135369   8.028   5.134   6.072 -0.9535 -1.1070 -1.5809
11812TIP3    H235370   8.129   5.025   6.102  0.1655  0.1497 -0.7285
11813TIP3   OH235371   7.533   5.266   4.932 -0.4023 -0.0049  0.2952
11813TIP3    H135372   7.503   5.357   4.933  1.3470  0.6102 -0.2300
11813TIP3    H235373   7.626   5.272   4.955  0.6147 -1.2939 -3.2567
11814TIP3   OH235374   7.481   2.861   0.945  0.2110 -0.8621 -0.8474
11814TIP3    H135375   7.564   2.837   0.985  1.4956  4.0274 -0.2767
11814TIP3    H235376   7.505   2.896   0.859 -1.3733 -0.0935 -0.9961
11815TIP3   OH235377   2.330   4.830   6.152  0.1231 -0.4280 -0.1620
11815TIP3    H135378   2.335   4.868   6.240  1.0132  0.0440 -0.4088
11815TIP3    H235379   2.384   4.888   6.098 -0.6622 -0.5345 -1.0846
11816TIP3   OH235380   8.204   5.195   4.590  0.1633 -0.0238  0.1640
11816TIP3    H135381   8.218   5.177   4.497  2.0322 -0.8525  0.5784
11816TIP3    H235382   8.134   5.260   4.592 -0.3851 -0.5242 -1.7917
11817TIP3   OH235383   6.946   4.618   4.801  0.4116  0.3844  0.2857
11817TIP3    H135384   6.857   4.612   4.767  0.5447 -0.9326  0.1497
11817TIP3    H235385   6.999   4.563   4.743  0.6687 -1.7405  2.4556
11818TIP3   OH235386   7.336   7.186   3.123 -0.1264 -0.4765  0.0215
11818TIP3    H135387   7.305   7.273   3.147  0.5565 -0.5796  1.3522
11818TIP3    H235388   7.410   7.202   3.065 -1.2550 -0.2026 -1.3399
11819TIP3   OH235389   0.512   6.162   4.603  0.4003 -0.0109 -0.5996
11819TIP3    H135390   0.602   6.131   4.614  0.5507 -0.3635 -2.5731
11819TIP3    H235391   0.521   6.248   4.562 -0.1411  0.4311  0.2022
11820TIP3   OH235392   1.942   5.023   4.306  0.0645  0.1761  0.4355
11820TIP3    H135393   1.995   4.943   4.317  0.4019 -0.3511 -4.0674
11820TIP3    H235394   1.861   4.992   4.265 -1.8964  1.6147  3.0534
11821TIP3   OH235395   1.418   5.153   6.245  0.5235 -0.3244 -0.2363
11821TIP3    H135396   1.398   5.237   6.204  0.6262 -0.1342  0.1002
11821TIP3    H235397   1.437   5.175   6.336  0.6381 -0.7023 -0.1692
11822TIP3   OH235398   7.095   2.839   4.539  0.2332  0.3740  0.6232
11822TIP3    H135399   7.125   2.750   4.558  1.4333  0.7729  0.6934
11822TIP3    H235400   7.149   2.866   4.465 -0.6591  0.7730  0.1162
11823TIP3   OH235401   0.564   5.859   5.339  0.5082  0.1272 -0.3320
11823TIP3    H135402   0.480   5.904   5.325  0.5442  0.0118 -0.9290
11823TIP3    H235403   0.543   5.788   5.400  0.2866  0.4556 -0.0272
11824TIP3   OH235404   7.564   5.015   4.552 -0.5500  0.1553 -0.4807
11824TIP3    H135405   7.640   4.978   4.597  0.7010  2.7586 -0.3766
11824TIP3    H235406   7.489   4.976   4.596  0.6952 -2.2432 -0.3857
11825TIP3   OH235407   0.971   3.684   5.359  0.3790  0.3907  0.5789
11825TIP3    H135408   0.955   3.590   5.366 -0.3992  0.4943  0.2403
11825TIP3    H235409   1.043   3.701   5.419 -0.7650 -0.0974  2.1044
11826TIP3   OH235410   7.434   4.412   5.049 -0.3279  0.0663 -0.1774
11826TIP3    H135411   7.500   4.344   5.066 -0.1519 -0.2356 -1.9576
11826TIP3    H235412   7.466   4.488   5.097  0.7611 -0.3979 -0.1412
11827TIP3   OH235413   0.842   4.735   5.475 -0.1329  0.4740 -0.4565
11827TIP3    H135414   0.844   4.649   5.434 -3.2620 -0.0965  0.4337
11827TIP3    H235415   0.802   4.793   5.410  2.1579  1.3488 -1.1359
11828TIP3   OH235416   2.556   2.680   6.572  0.3383 -0.1460  0.2579
11828TIP3    H135417   2.510   2.707   6.493  0.8991  0.9849  0.2994
11828TIP3    H235418   2.635   2.637   6.539 -0.3625 -1.4031  0.1948
11829TIP3   OH235419   6.825   4.302   3.378  0.2345  0.7341 -0.1410
11829TIP3    H135420   6.764   4.376   3.369 -0.6389  0.1162  0.5641
11829TIP3    H235421   6.771   4.232   3.415  1.5599  0.4263  1.2387
11830TIP3   OH235422   3.555   6.886   5.179 -0.4297 -0.2752  0.7236
11830TIP3    H135423   3.471   6.856   5.213 -1.0213  1.8916  1.2333
11830TIP3    H235424   3.543   6.980   5.163  0.5453 -0.7305 -3.2934
11831TIP3   OH235425   0.233   4.952   3.744  0.1674 -0.5717 -0.5136
11831TIP3    H135426   0.299   4.897   3.702 -0.0547 -0.5568 -0.8781
11831TIP3    H235427   0.264   5.041   3.730  1.6998 -0.6686  1.9955
11832TIP3   OH235428   8.049   2.990   3.598  0.0471  0.2989  0.1942
11832TIP3    H135429   8.133   2.995   3.644 -0.8599  0.7295  1.8408
11832TIP3    H235430   8.014   2.903   3.620 -0.0801  0.2373 -0.2409
11833TIP3   OH235431   0.601   5.042   3.479 -0.2998 -0.1297  0.2161
11833TIP3    H135432   0.683   5.021   3.522  0.5758  1.9453 -0.3366
11833TIP3    H235433   0.533   5.019   3.542  0.6615 -2.3272  0.4886
11834TIP3   OH235434   7.297   4.806   3.893 -0.0839  0.8613  0.2728
11834TIP3    H135435   7.267   4.763   3.972  0.3319 -1.6932 -0.9252
11834TIP3    H235436   7.366   4.866   3.922 -0.4187  0.4608  1.8955
11835TIP3   OH235437   7.124   1.920   0.356 -0.4221 -0.1256  0.0932
11835TIP3    H135438   7.050   1.954   0.306 -0.0933 -2.3302 -1.9835
11835TIP3    H235439   7.198   1.973   0.326 -0.7793  0.7283  0.6847
11836TIP3   OH235440   7.722   2.757   5.259  0.0920 -0.1194  0.6035
11836TIP3    H135441   7.647   2.755   5.199  0.7121 -1.0912 -0.1638
11836TIP3    H235442   7.768   2.838   5.237 -0.1565 -0.0434  0.3554
11837TIP3   OH235443   2.353   5.705   5.592 -0.5673  0.3810  0.3159
11837TIP3    H135444   2.399   5.622   5.605  2.1679  1.6766 -0.6554
11837TIP3    H235445   2.261   5.684   5.607  0.0891 -2.7683  0.3331
11838TIP3   OH235446   1.785   4.511   1.541  0.0669 -0.2012  0.3863
11838TIP3    H135447   1.715   4.452   1.514  1.0394  0.2115 -3.2772
11838TIP3    H235448   1.864   4.457   1.537  0.7447  0.8864 -1.4765
11839TIP3   OH235449   1.009   5.056   5.380  0.5839 -0.2080 -0.1719
11839TIP3    H135450   1.048   5.039   5.466  1.1389  1.0787 -0.1613
11839TIP3    H235451   1.044   4.987   5.323  0.4562 -0.8799  0.5615
11840TIP3   OH235452   0.454   6.595   4.426  0.1324 -0.2295 -0.1968
11840TIP3    H135453   0.498   6.672   4.391 -0.1861 -0.1324 -0.3879
11840TIP3    H235454   0.525   6.536   4.453  0.3842 -0.8440 -2.1796
11841TIP3   OH235455   0.843   6.143   5.020  0.2816 -0.0449  0.0324
11841TIP3    H135456   0.824   6.233   5.045  0.8062  0.2994 -0.8261
11841TIP3    H235457   0.868   6.100   5.102  1.9476  1.0753  0.1232
11842TIP3   OH235458   0.286   6.043   5.076 -0.1996  0.2756 -0.3640
11842TIP3    H135459   0.272   5.996   5.158 -1.2105 -0.8656 -1.1817
11842TIP3    H235460   0.340   6.119   5.100 -1.2437  0.4410  1.5000
11843TIP3   OH235461   1.767   4.689   6.069 -0.4034 -0.4957  0.6074
11843TIP3    H135462   1.824   4.726   6.136  0.1183 -0.8915  0.3896
11843TIP3    H235463   1.828   4.647   6.007 -0.7627  1.1280 -0.8922
11844TIP3   OH235464   0.613   5.007   4.522 -0.2605  0.3069 -0.2004
11844TIP3    H135465   0.632   4.979   4.432  0.7659 -0.7695  0.3395
11844TIP3    H235466   0.531   4.963   4.543 -0.1282 -0.0152 -0.3561
11845TIP3   OH235467   7.472   3.203   4.015  0.6165  0.4387  0.0166
11845TIP3    H135468   7.447   3.281   4.065  0.4926 -0.4477  1.3479
11845TIP3    H235469   7.428   3.131   4.060  0.2942 -0.3448 -1.5252
11846TIP3   OH235470   7.591   6.103   4.311  0.1486 -0.3245 -0.3202
11846TIP3    H135471   7.523   6.155   4.269  1.1010  0.5911 -0.7769
11846TIP3    H235472   7.654   6.168   4.343 -0.8899 -0.9573  3.2099
11847TIP3   OH235473   7.060   6.377   3.328  0.0423  0.2519 -0.1686
11847TIP3    H135474   6.977   6.417   3.302  0.9558  0.6199 -2.6964
11847TIP3    H235475   7.119   6.451   3.344  0.6970 -0.0186 -1.2706
11848TIP3   OH235476   8.120   6.841   2.327  0.4166  0.1915 -0.6779
11848TIP3    H135477   8.070   6.897   2.386  0.4746 -0.2194 -0.2349
11848TIP3    H235478   8.070   6.841   2.246 -0.4317 -0.4059 -0.1642
11849TIP3   OH235479   0.050   5.959   4.949 -0.7297  0.7306 -0.2324
11849TIP3    H135480   0.046   5.863   4.950 -0.9729  0.7143 -2.1806
11849TIP3    H235481   0.133   5.980   4.992 -0.9664 -0.3201  0.7703
11850TIP3   OH235482   0.311   5.061   3.245  0.6030  0.1070  0.1942
11850TIP3    H135483   0.313   5.120   3.320 -1.4085  0.1482  0.2405
11850TIP3    H235484   0.271   5.113   3.175  0.3796 -0.6558 -0.2469
11851TIP3   OH235485   2.018   4.134   5.575 -0.4897  0.9496 -0.2939
11851TIP3    H135486   2.104   4.134   5.531 -2.1427 -1.9204 -3.8070
11851TIP3    H235487   1.962   4.186   5.517 -2.2857 -1.3666 -0.6995
11852TIP3   OH235488   2.083   6.253   4.811  0.3599 -0.6492  0.1190
11852TIP3    H135489   2.082   6.288   4.722 -1.3615 -0.4746  0.1895
11852TIP3    H235490   2.172   6.222   4.823  1.1321  1.0594 -0.9827
11853TIP3   OH235491   1.953   4.595   4.653 -0.7305  0.4437 -0.4484
11853TIP3    H135492   2.045   4.607   4.630 -0.4229 -2.5026 -0.9025
11853TIP3    H235493   1.943   4.501   4.666 -3.3846  0.8664  0.9266
11854TIP3   OH235494   1.561   3.816   5.992 -0.3902  0.7220  0.4631
11854TIP3    H135495   1.643   3.781   5.957 -0.2610  1.5252 -0.0756
11854TIP3    H235496   1.577   3.911   5.998 -1.4996  0.9582 -0.2590
11855TIP3   OH235497   0.955   3.415   5.353  0.5534  0.6560  0.2553
11855TIP3    H135498   1.020   3.345   5.351  0.4481  0.5469  0.6043
11855TIP3    H235499   0.877   3.375   5.391  1.1785  1.5098  2.5324
11856TIP3   OH235500   6.323   5.612   4.962 -0.1087  0.7286 -0.4004
11856TIP3    H135501   6.270   5.531   4.964 -0.5425  1.0256  1.3215
11856TIP3    H235502   6.271   5.673   4.911 -1.3338  0.9211  1.0310
11857TIP3   OH235503   1.192   4.903   5.230  0.3682  0.7811 -0.2124
11857TIP3    H135504   1.213   4.850   5.307 -1.0804 -0.2203 -0.4739
11857TIP3    H235505   1.240   4.863   5.158 -0.7883 -0.2695 -0.4244
11858TIP3   OH235506   7.753   6.087   3.026 -0.3550  0.5193  0.1723
11858TIP3    H135507   7.812   6.032   3.078 -0.2706  0.4993  0.0545
11858TIP3    H235508   7.787   6.176   3.037 -0.2708  0.5001  0.0582
11859TIP3   OH235509   0.116   3.724   5.316  0.2872 -0.0203  0.1414
11859TIP3    H135510   0.085   3.759   5.233  0.7252 -0.5127 -0.2303
11859TIP3    H235511   0.038   3.693   5.360  0.1199 -0.2283 -0.3048
11860TIP3   OH235512   5.977   3.938   3.158  0.7245  0.2067 -0.2196
11860TIP3    H135513   5.979   3.850   3.120 -0.0117  0.6334 -1.2602
11860TIP3    H235514   5.891   3.946   3.199  1.6837 -0.4252  2.0168
11861TIP3   OH235515   8.377   6.552   3.811  0.2325 -0.1518  0.1571
11861TIP3    H135516   8.448   6.608   3.843  1.2621 -1.1292 -0.3857
11861TIP3    H235517   8.302   6.575   3.866  0.5305  2.0042 -0.2876
11862TIP3   OH235518   0.953   4.190   5.287 -0.3140  0.1363 -0.8580
11862TIP3    H135519   0.905   4.234   5.358 -0.6801  0.2018 -1.1461
11862TIP3    H235520   0.951   4.098   5.311  1.5566  0.3832  0.4174
11863TIP3   OH235521   5.951   6.880   3.462  0.1488  0.8670 -0.4357
11863TIP3    H135522   5.968   6.843   3.549 -1.1932  0.2773 -0.4224
11863TIP3    H235523   5.901   6.960   3.479 -1.4865 -0.0746 -0.7346
11864TIP3   OH235524   6.736   4.681   3.205  0.3089 -0.1294 -0.0835
11864TIP3    H135525   6.802   4.698   3.137  1.1229  2.2553  1.2336
11864TIP3    H235526   6.749   4.751   3.268 -1.4152 -1.4808  1.8179
11865TIP3   OH235527   7.046   6.499   2.803 -0.7167  0.5703 -0.0834
11865TIP3    H135528   6.955   6.525   2.787 -0.7521 -0.5712 -1.8655
11865TIP3    H235529   7.097   6.552   2.742 -0.0191  2.2297  1.8827
11866TIP3   OH235530   6.820   2.709   3.796  0.2691  0.7415 -0.3367
11866TIP3    H135531   6.775   2.793   3.809  1.2167  1.3095 -0.6644
11866TIP3    H235532   6.866   2.719   3.712  1.4140  0.3686  0.2318
11867TIP3   OH235533   1.054   5.176   5.799 -0.1114 -0.4210 -0.7716
11867TIP3    H135534   1.114   5.251   5.792  0.0860 -0.5244 -0.2502
11867TIP3    H235535   1.086   5.113   5.735 -0.4910  0.0874 -1.4585
11868TIP3   OH235536   7.966   5.172   3.273 -0.4664 -0.3415 -0.0009
11868TIP3    H135537   7.953   5.224   3.352 -1.4054  1.2754 -1.1960
11868TIP3    H235538   8.017   5.228   3.215 -2.9761 -0.0196 -1.9788
11869TIP3   OH235539   7.775   5.295   4.592  0.0337 -0.1212  0.5074
11869TIP3    H135540   7.836   5.257   4.656  0.2540 -0.4346  0.1122
11869TIP3    H235541   7.704   5.230   4.585 -0.2866  0.1888  0.8793
11870TIP3   OH235542   1.270   5.747   3.533 -0.3849  0.1146  0.5059
11870TIP3    H135543   1.327   5.819   3.505 -0.0868  1.2453  3.7062
11870TIP3    H235544   1.186   5.765   3.491 -0.0091  1.7509  0.4201
11871TIP3   OH235545   5.219   0.638   0.091  1.1089  0.3926  0.1609
11871TIP3    H135546   5.235   0.580   0.166 -0.9876 -0.9043 -0.3491
11871TIP3    H235547   5.278   0.605   0.023  1.0709 -0.1560  0.3830
11872TIP3   OH235548   7.786   4.887   4.039 -0.5069 -0.0026  0.3216
11872TIP3    H135549   7.704   4.853   4.075 -0.5945  0.5570  0.6477
11872TIP3    H235550   7.782   4.981   4.053  0.5601 -0.0669  1.0925
11873TIP3   OH235551   7.470   6.473   4.882 -0.0235 -0.2487 -0.0529
11873TIP3    H135552   7.390   6.513   4.915 -0.1240 -2.1522  2.2029
11873TIP3    H235553   7.444   6.430   4.800 -1.3938 -1.0859  0.8079
11874TIP3   OH235554   7.920   5.941   4.442 -0.0825 -0.0362  0.2709
11874TIP3    H135555   7.997   5.998   4.435  1.3785 -1.9750  0.0893
11874TIP3    H235556   7.894   5.947   4.534  0.2167  0.7204  0.3119
11875TIP3   OH235557   1.303   6.009   2.228  0.2000  0.1578 -0.2372
11875TIP3    H135558   1.366   5.994   2.157  0.2956  1.0825 -0.3572
11875TIP3    H235559   1.354   6.001   2.308  0.3918  0.5262 -0.3226
11876TIP3   OH235560   0.289   5.402   2.439 -0.1558  0.2046  0.3678
11876TIP3    H135561   0.290   5.470   2.371  0.1465  0.0642  0.2268
11876TIP3    H235562   0.231   5.335   2.405  1.7409 -0.9037 -0.7976
11877TIP3   OH235563   6.779   7.345   3.711  0.4624  0.5257 -0.2621
11877TIP3    H135564   6.715   7.295   3.660 -0.4911  1.3527  0.0974
11877TIP3    H235565   6.864   7.308   3.686 -0.0637  0.2142 -1.6533
11878TIP3   OH235566   1.515   3.659   5.510 -0.0160 -0.0518 -0.1714
11878TIP3    H135567   1.499   3.752   5.522  0.1096 -0.2518  1.7923
11878TIP3    H235568   1.592   3.641   5.564 -1.2420 -1.6696  1.1125
11879TIP3   OH235569   7.816   5.551   5.391  0.0565  0.4542  0.4607
11879TIP3    H135570   7.786   5.460   5.387  0.9293  0.0844  2.1750
11879TIP3    H235571   7.756   5.593   5.453 -0.0702  0.9585  0.0038
11880TIP3   OH235572   8.151   6.444   4.208  0.4454  0.4563  0.3244
11880TIP3    H135573   8.167   6.362   4.161  0.3738 -0.0381  1.1474
11880TIP3    H235574   8.173   6.424   4.299  1.2564  1.6107  0.3885
11881TIP3   OH235575   0.430   3.978   5.717  0.2596 -0.0658  0.0404
11881TIP3    H135576   0.373   3.921   5.770  1.6266  0.3534  2.0047
11881TIP3    H235577   0.435   4.059   5.767  1.3663  0.4337 -0.8759
11882TIP3   OH235578   6.650   4.417   4.928 -0.7879 -0.5018  0.5410
11882TIP3    H135579   6.734   4.371   4.940 -0.8125 -0.9846 -1.0938
11882TIP3    H235580   6.669   4.485   4.863 -2.3248 -2.4481 -2.0102
11883TIP3   OH235581   6.941   3.358   3.219 -0.4985  0.3633  0.0493
11883TIP3    H135582   7.032   3.354   3.250 -0.3313  1.3844 -0.2976
11883TIP3    H235583   6.905   3.436   3.260 -1.7040 -0.8904  1.4206
11884TIP3   OH235584   0.213   4.470   6.526 -0.1692  0.4527  0.0911
11884TIP3    H135585   0.224   4.548   6.472  1.1294  0.3691  0.2150
11884TIP3    H235586   0.158   4.500   6.599 -0.7500  0.9182 -0.5302
11885TIP3   OH235587   1.425   6.096   5.070  0.6632  0.3316 -0.0759
11885TIP3    H135588   1.426   6.039   5.148  1.4082  3.4225  2.2627
11885TIP3    H235589   1.355   6.158   5.087  1.7466  1.9020 -1.2523
11886TIP3   OH235590   3.109   1.370   5.115  0.3881 -0.0958  0.3397
11886TIP3    H135591   3.111   1.466   5.117 -0.2198 -0.0907  0.9826
11886TIP3    H235592   3.110   1.344   5.207  0.0987 -0.6963  0.1770
11887TIP3   OH235593   0.176   3.438   5.271 -0.0883  0.0000 -0.0593
11887TIP3    H135594   0.181   3.401   5.359 -4.2066  2.0414  1.1477
11887TIP3    H235595   0.159   3.532   5.285 -1.8740  0.1763 -2.9849
11888TIP3   OH235596   6.710   5.286   5.487  0.9436 -0.2109 -0.5007
11888TIP3    H135597   6.679   5.234   5.413  0.0576  0.4035 -0.5627
11888TIP3    H235598   6.638   5.285   5.549  1.0644  0.6370 -0.3437
11889TIP3   OH235599   8.380   5.745   6.302  0.3311 -0.1671  0.2917
11889TIP3    H135600   8.467   5.730   6.264 -0.1027  0.0612 -0.8052
11889TIP3    H235601   8.319   5.713   6.235 -0.4311 -0.3333  1.0603
11890TIP3   OH235602   0.767   5.889   4.207 -0.4488  0.6710  0.0821
11890TIP3    H135603   0.695   5.944   4.177  0.6768  2.4477  0.5479
11890TIP3    H235604   0.830   5.951   4.245  0.8835 -0.9378  0.5441
11891TIP3   OH235605   2.065   5.611   6.335  0.3647 -0.0987  0.0536
11891TIP3    H135606   2.005   5.536   6.340  2.4723 -1.7366  1.3746
11891TIP3    H235607   2.135   5.581   6.278  0.8217  1.1700 -0.0534
11892TIP3   OH235608   4.398   7.424   6.459  0.1297  0.0850 -0.4839
11892TIP3    H135609   4.456   7.395   6.389  1.3778  1.1374  0.0675
11892TIP3    H235610   4.362   7.507   6.428 -0.1206  0.0326 -0.3288
11893TIP3   OH235611   8.459   4.505   5.966 -0.2779  0.3362 -0.4616
11893TIP3    H135612   8.551   4.522   5.945 -0.4740  0.2016 -1.4439
11893TIP3    H235613   8.423   4.467   5.886 -0.7893 -1.1310  0.4484
11894TIP3   OH235614   8.332   1.152   0.018 -0.2667 -0.5686  0.4852
11894TIP3    H135615   8.344   1.084   0.085  0.5267 -0.3810  0.5394
11894TIP3    H235616   8.239   1.146  -0.005 -0.1447 -1.8786  0.2640
11895TIP3   OH235617   6.299   4.618   5.306  0.4200  0.2590 -0.3772
11895TIP3    H135618   6.329   4.575   5.386  0.9334 -2.4383 -1.9507
11895TIP3    H235619   6.205   4.630   5.319  0.5635  0.1854  0.7640
11896TIP3   OH235620   0.866   7.832   6.602  0.0394 -0.0045  0.3921
11896TIP3    H135621   0.898   7.765   6.541  0.9195  0.2635  0.5548
11896TIP3    H235622   0.857   7.786   6.685  0.9313  0.1306  0.5774
11897TIP3   OH235623   0.314   5.502   5.044 -0.5043  0.3192 -0.1889
11897TIP3    H135624   0.384   5.564   5.022 -0.7730  0.6657 -0.0785
11897TIP3    H235625   0.310   5.503   5.139 -1.3361  1.0630 -0.2288
11898TIP3   OH235626   7.602   3.686   4.088  0.6542 -0.0505  0.3165
11898TIP3    H135627   7.600   3.592   4.070 -1.5024  0.2105 -0.8803
11898TIP3    H235628   7.519   3.703   4.133  0.4571  1.5037 -0.6188
11899TIP3   OH235629   5.822   4.939   6.352  0.2121 -1.0728  0.0447
11899TIP3    H135630   5.735   4.964   6.382 -0.0201 -1.4103 -0.3472
11899TIP3    H235631   5.834   4.850   6.384  0.1964 -1.2223 -0.3702
11900TIP3   OH235632   6.475   6.067   3.073  0.0445 -0.4376  0.2741
11900TIP3    H135633   6.387   6.055   3.036  0.6848 -2.7933 -0.5812
11900TIP3    H235634   6.512   6.140   3.023 -1.2482  0.3067  0.3594
11901TIP3   OH235635   6.655   5.798   5.549  0.2634 -0.1841 -0.5257
11901TIP3    H135636   6.639   5.713   5.589 -0.9186  0.1253 -0.3358
11901TIP3    H235637   6.652   5.860   5.622 -0.1675  0.1753 -0.8465
11902TIP3   OH235638   6.707   3.114   4.688 -0.2610  0.5171 -0.4524
11902TIP3    H135639   6.644   3.044   4.668  0.5324  0.4566 -2.8588
11902TIP3    H235640   6.747   3.086   4.770 -3.2284  0.4808  1.0580
11903TIP3   OH235641   4.932   0.742   0.039  0.0493  0.5582 -0.5824
11903TIP3    H135642   5.021   0.729   0.073  0.3039  2.3199 -0.5494
11903TIP3    H235643   4.925   0.681  -0.034  0.8303 -0.5201  0.2246
11904TIP3   OH235644   0.735   6.930   4.468 -0.1623  0.1726 -0.2998
11904TIP3    H135645   0.821   6.905   4.435 -0.7495  0.2075 -1.8781
11904TIP3    H235646   0.728   6.886   4.553  1.6505  0.6699  0.1130
11905TIP3   OH235647   7.333   4.834   5.707  0.4130 -0.3893 -0.5432
11905TIP3    H135648   7.330   4.741   5.730  0.6410 -0.2476  0.0709
11905TIP3    H235649   7.407   4.869   5.756  0.4395  0.0805 -0.9131
11906TIP3   OH235650   7.080   4.473   3.502  0.2947 -1.0700  0.2988
11906TIP3    H135651   7.053   4.418   3.427  1.0466 -1.0392  0.0052
11906TIP3    H235652   7.146   4.420   3.548  1.8057  0.0136 -0.5848
11907TIP3   OH235653   3.716   3.990   1.346  0.1957  0.0105  0.3351
11907TIP3    H135654   3.689   3.976   1.256 -1.2423  1.0296  0.5941
11907TIP3    H235655   3.811   4.002   1.341  0.2674 -0.9392 -0.9011
11908TIP3   OH235656   7.267   6.600   4.489 -0.2414  0.5715  0.0971
11908TIP3    H135657   7.209   6.537   4.531 -0.7544  1.6307  1.0338
11908TIP3    H235658   7.236   6.606   4.399  0.5650 -1.3811 -0.3292
11909TIP3   OH235659   8.120   4.830   2.385 -0.5087 -0.5832 -0.1608
11909TIP3    H135660   8.107   4.899   2.320 -1.5068  0.6947  1.3656
11909TIP3    H235661   8.213   4.833   2.404 -0.8764  1.9264  1.5563
11910TIP3   OH235662   0.286   2.464   5.178 -0.4875  0.3390  0.1364
11910TIP3    H135663   0.256   2.405   5.247 -2.2235 -0.0135 -0.8786
11910TIP3    H235664   0.254   2.425   5.097 -0.9736  2.2312 -0.6238
11911TIP3   OH235665   0.954   6.429   2.924  0.0647 -0.4191  0.5667
11911TIP3    H135666   0.860   6.416   2.934  0.0949 -0.5438  0.6939
11911TIP3    H235667   0.963   6.479   2.844 -0.1557  0.2235  0.9389
11912TIP3   OH235668   4.857   1.649   0.414 -0.2226  0.2036 -0.0781
11912TIP3    H135669   4.834   1.562   0.446 -0.9014  1.0012  1.6226
11912TIP3    H235670   4.949   1.641   0.387 -0.5186 -1.2329 -0.7132
11913TIP3   OH235671   8.051   4.524   4.867 -0.3593 -0.0265 -0.9178
11913TIP3    H135672   8.071   4.611   4.902 -0.4639 -0.2462 -0.3096
11913TIP3    H235673   8.100   4.520   4.785  1.6081 -0.3274  0.2299
11914TIP3   OH235674   6.918   5.789   2.923 -0.0015 -0.3893  0.2545
11914TIP3    H135675   6.928   5.862   2.984 -1.2822  0.0528 -0.0342
11914TIP3    H235676   7.001   5.786   2.875  0.5796 -0.0193  1.2282
11915TIP3   OH235677   8.365   4.982   5.914 -0.4238  0.3362 -0.5013
11915TIP3    H135678   8.435   5.013   5.971  0.7726 -0.7158 -1.3922
11915TIP3    H235679   8.335   4.901   5.955 -0.9358  0.6388 -0.2743
11916TIP3   OH235680   8.208   5.346   3.431  0.2398 -0.0035 -0.2237
11916TIP3    H135681   8.263   5.382   3.361 -0.4048 -0.6087 -1.0469
11916TIP3    H235682   8.186   5.258   3.401 -1.9659  0.5604 -0.3408
11917TIP3   OH235683   0.143   5.384   4.802 -0.6364  0.3595  0.1254
11917TIP3    H135684   0.144   5.299   4.759  0.9077  0.5089 -0.1679
11917TIP3    H235685   0.161   5.365   4.894 -1.9868  0.2179  0.3643
11918TIP3   OH235686   1.649   4.895   3.191  0.3503 -0.1742 -0.3041
11918TIP3    H135687   1.690   4.810   3.180 -0.5275 -0.5851 -0.4590
11918TIP3    H235688   1.606   4.891   3.277 -1.4498 -0.6445 -1.2090
11919TIP3   OH235689   0.916   6.401   4.486 -0.2000  0.7094 -0.0312
11919TIP3    H135690   0.992   6.386   4.430 -0.6024 -0.6965 -0.2236
11919TIP3    H235691   0.909   6.496   4.492  0.6948  0.8626 -1.2096
11920TIP3   OH235692   7.329   4.854   4.462 -0.0950 -0.4100 -0.2697
11920TIP3    H135693   7.268   4.841   4.535  1.1237  2.5261  1.3503
11920TIP3    H235694   7.408   4.807   4.488 -0.1605 -0.5842 -0.3833
11921TIP3   OH235695   6.437   6.037   4.853 -0.0891  0.3062 -0.4079
11921TIP3    H135696   6.359   6.071   4.897  0.1108  0.4870 -0.1915
11921TIP3    H235697   6.485   5.991   4.922 -0.0444  0.1240 -0.5594
11922TIP3   OH235698   6.616   5.701   3.682  0.7215  0.0079 -1.0177
11922TIP3    H135699   6.693   5.648   3.661 -0.2965 -0.7452 -2.9472
11922TIP3    H235700   6.547   5.667   3.625 -1.0967  0.5690  0.7883
11923TIP3   OH235701   7.707   4.535   6.796  0.4418  0.2210 -0.1962
11923TIP3    H135702   7.755   4.453   6.790  1.3683  0.8006 -0.7569
11923TIP3    H235703   7.616   4.508   6.809  0.5597 -0.9106 -1.5570
11924TIP3   OH235704   6.300   5.550   6.600  0.1444 -0.1394 -0.5922
11924TIP3    H135705   6.221   5.500   6.576  0.2994  0.0164 -1.4601
11924TIP3    H235706   6.267   5.639   6.615 -0.2464 -0.6354  1.6814
11925TIP3   OH235707   6.819   6.605   3.908  0.0930  0.4754  0.3157
11925TIP3    H135708   6.818   6.667   3.835 -1.1478  0.3056  0.1717
11925TIP3    H235709   6.859   6.653   3.980  0.1492  1.0733 -0.1127
11926TIP3   OH235710   7.917   4.464   6.441  0.0156 -0.2154  0.1898
11926TIP3    H135711   7.898   4.391   6.500  1.1738  0.3907  1.3478
11926TIP3    H235712   7.903   4.543   6.494 -0.6998  0.4043 -0.8890
11927TIP3   OH235713   1.780   0.911   0.227  0.5400 -0.1509 -0.1114
11927TIP3    H135714   1.809   0.997   0.197  1.5476 -0.6837 -0.7154
11927TIP3    H235715   1.808   0.851   0.158  0.7688 -1.1044  0.7940
11928TIP3   OH235716   4.685   7.005   5.044  0.6949  0.2581 -0.8674
11928TIP3    H135717   4.633   7.074   5.003  0.6693  0.7084 -0.0788
11928TIP3    H235718   4.743   6.973   4.974  0.5769  0.9485 -1.2761
11929TIP3   OH235719   7.947   3.674   4.125  0.1371 -0.2220  0.8613
11929TIP3    H135720   7.969   3.650   4.035 -0.2690  0.2399  0.6340
11929TIP3    H235721   7.966   3.596   4.176 -0.9965 -0.9750  0.1590
11930TIP3   OH235722   7.973   3.388   4.655 -0.4638 -0.7766  0.2071
11930TIP3    H135723   7.884   3.388   4.691 -0.9725  0.3411 -0.9711
11930TIP3    H235724   7.960   3.378   4.560  0.6961 -1.1066  0.0813
11931TIP3   OH235725   7.717   7.837   3.424  0.2193  0.2130  0.3342
11931TIP3    H135726   7.758   7.922   3.411  2.3425 -0.9399 -0.7881
11931TIP3    H235727   7.762   7.779   3.363 -2.6469 -1.2776 -0.4825
11932TIP3   OH235728   0.958   5.198   3.214 -0.0575 -0.0123  0.3834
11932TIP3    H135729   0.948   5.154   3.129  1.4678 -1.2858  0.8422
11932TIP3    H235730   0.889   5.264   3.215  0.5272  0.7122 -2.2966
11933TIP3   OH235731   6.028   1.792   4.592  0.2236  0.3973  0.7656
11933TIP3    H135732   6.013   1.883   4.616  0.8353  0.2828  1.6236
11933TIP3    H235733   5.941   1.759   4.569  0.0761  1.3166 -0.0085
11934TIP3   OH235734   8.312   5.135   5.023  0.0990  0.0441 -0.0956
11934TIP3    H135735   8.356   5.126   4.939 -1.1491 -0.3890 -0.7071
11934TIP3    H235736   8.339   5.221   5.055 -1.0534  1.1140 -1.9117
11935TIP3   OH235737   6.562   6.771   3.547 -0.1471 -0.5524  0.7555
11935TIP3    H135738   6.485   6.826   3.531  0.5558  0.7361  1.6648
11935TIP3    H235739   6.535   6.713   3.619  0.5929  1.7624  2.9740
11936TIP3   OH235740   0.867   5.001   4.058  0.3823  0.3394 -0.2407
11936TIP3    H135741   0.828   5.055   3.989  0.6569  0.1065 -0.5815
11936TIP3    H235742   0.935   5.056   4.097 -0.4122  0.8129  0.4775
11937TIP3   OH235743   1.513   5.689   6.450 -0.7434  0.8394  0.3655
11937TIP3    H135744   1.505   5.775   6.492 -0.6245  2.2563 -2.4415
11937TIP3    H235745   1.430   5.677   6.404 -0.8063 -0.6364  0.8366
11938TIP3   OH235746   0.412   2.462   0.092  0.3877  0.2604 -0.2081
11938TIP3    H135747   0.497   2.460   0.135  0.2599 -1.1446 -0.0043
11938TIP3    H235748   0.429   2.432   0.003  0.1729  0.2958 -0.2621
11939TIP3   OH235749   1.346   7.310   6.916  0.0232  0.0752 -0.5964
11939TIP3    H135750   1.363   7.301   6.822  2.7326 -0.3817 -0.0935
11939TIP3    H235751   1.343   7.404   6.931  1.0540  0.1500 -0.8784
11940TIP3   OH235752   8.086   2.322   0.713  0.9004  0.1525 -0.1091
11940TIP3    H135753   8.045   2.403   0.743  0.1140 -0.0035 -0.7628
11940TIP3    H235754   8.021   2.281   0.657  1.4245 -0.7719 -0.0542
11941TIP3   OH235755   5.860   0.709   0.035 -0.0926 -0.0934  0.4182
11941TIP3    H135756   5.940   0.748   0.000  0.1087 -0.2470  0.7059
11941TIP3    H235757   5.868   0.718   0.130 -0.3567 -0.2275  0.4534
11942TIP3   OH235758   0.107   6.048   4.698  0.2449 -0.3611  0.2539
11942TIP3    H135759   0.074   6.137   4.713  2.3236  0.7596 -1.5311
11942TIP3    H235760   0.090   6.003   4.780 -0.5338  1.7897  1.3328
11943TIP3   OH235761   0.332   1.237   0.677  0.3774  0.4957 -0.2665
11943TIP3    H135762   0.281   1.177   0.732 -0.7937  0.4868 -1.3251
11943TIP3    H235763   0.309   1.324   0.709  0.9708  0.4417  0.3259
11944TIP3   OH235764   7.751   3.002   0.088  0.4340 -0.2059 -0.0166
11944TIP3    H135765   7.715   3.081   0.046 -1.1294 -0.1568  1.3668
11944TIP3    H235766   7.818   3.034   0.148  1.3103 -0.1190 -1.0287
11945TIP3   OH235767   5.299   0.053   5.127  0.0558  0.6319 -0.3104
11945TIP3    H135768   5.365   0.028   5.063  0.1213 -1.6633  0.6088
11945TIP3    H235769   5.220   0.070   5.076  0.2740 -0.5741 -1.0603
11946TIP3   OH235770   0.290   2.505   0.954 -0.7127 -0.0900  0.0423
11946TIP3    H135771   0.237   2.452   1.015 -1.5734  0.8730  0.1512
11946TIP3    H235772   0.249   2.592   0.957  0.6638  0.5741 -0.1613
11947TIP3   OH235773   0.074   5.867   6.648 -0.0195 -0.5333 -0.0957
11947TIP3    H135774   0.113   5.846   6.563  2.2124  1.5461  0.3323
11947TIP3    H235775   0.148   5.863   6.709 -1.0378  0.6858  1.2543
11948TIP3   OH235776   7.996   2.625   0.041  0.9557 -0.2837  0.2666
11948TIP3    H135777   7.908   2.631   0.006 -0.2647 -0.1913  3.2206
11948TIP3    H235778   7.991   2.669   0.126  3.2322 -2.5068  1.6024
11949TIP3   OH235779   7.185   2.871   0.974 -0.0486  0.0500 -0.1947
11949TIP3    H135780   7.281   2.872   0.972  0.0158  0.7192  1.9815
11949TIP3    H235781   7.163   2.795   1.029 -0.7547  0.1160 -0.3829
11950TIP3   OH235782   2.197   4.799   4.862 -0.5489  0.1049 -0.4042
11950TIP3    H135783   2.109   4.778   4.892 -0.8073  1.3575 -0.2723
11950TIP3    H235784   2.194   4.893   4.843  0.2591 -0.2066 -2.1061
11951TIP3   OH235785   0.501   4.951   5.183 -0.6261 -0.7677 -0.2635
11951TIP3    H135786   0.520   5.021   5.120 -2.7187  1.4521  1.4864
11951TIP3    H235787   0.584   4.936   5.228  0.0562 -0.0121 -1.2557
11952TIP3   OH235788   3.676   6.915   5.931  0.0261  0.0839 -0.7824
11952TIP3    H135789   3.642   6.834   5.891  2.4811 -0.7639 -1.2141
11952TIP3    H235790   3.615   6.983   5.901 -1.1501 -1.3408 -1.7365
11953TIP3   OH235791   4.139   0.361   6.710  0.1845 -0.0049  0.3951
11953TIP3    H135792   4.160   0.295   6.644 -1.9829  0.2995 -0.6285
11953TIP3    H235793   4.101   0.311   6.783  1.2863 -0.1816  0.8686
11954TIP3   OH235794   7.314   4.021   0.979  0.4557  0.2771  0.1546
11954TIP3    H135795   7.303   4.001   0.886  1.2191  0.4434  0.0254
11954TIP3    H235796   7.238   3.981   1.021  0.7108 -0.8118 -0.4018
11955TIP3   OH235797   8.285   5.701   4.983 -0.6624  0.4450  0.2751
11955TIP3    H135798   8.361   5.656   4.945 -0.6768  0.6974 -0.0529
11955TIP3    H235799   8.275   5.780   4.931 -0.8095  0.6948  0.6757
11956TIP3   OH235800   2.876   7.395   4.688  0.0824 -0.0702  0.0754
11956TIP3    H135801   2.914   7.309   4.671  1.3417  0.5558 -0.2905
11956TIP3    H235802   2.781   7.380   4.687  0.2998 -1.8051  1.8442
11957TIP3   OH235803   0.267   4.062   6.405  0.4813  0.0482 -0.2623
11957TIP3    H135804   0.219   4.129   6.453  1.0513  0.4880 -0.3110
11957TIP3    H235805   0.358   4.071   6.433  0.4563 -1.1771  0.2743
11958TIP3   OH235806   3.418   7.484   4.792  0.1648 -0.2275 -0.3201
11958TIP3    H135807   3.410   7.446   4.880 -1.4136 -0.7666 -0.6831
11958TIP3    H235808   3.329   7.510   4.769  0.8730  1.7022 -0.9792
11959TIP3   OH235809   6.894   3.057   0.032 -0.4608  0.2909  0.2934
11959TIP3    H135810   6.942   3.139   0.029  1.3824 -0.7494  0.4794
11959TIP3    H235811   6.958   2.992   0.060 -0.5586 -2.1046 -4.4934
11960TIP3   OH235812   1.585   7.531   6.320 -0.0113  0.0334 -0.6757
11960TIP3    H135813   1.627   7.613   6.347  0.7745 -0.5985  0.0117
11960TIP3    H235814   1.646   7.493   6.257  0.0053 -0.4363 -0.3698
11961TIP3   OH235815   5.785   1.369   1.433 -0.0724  0.0364  0.1821
11961TIP3    H135816   5.807   1.461   1.415  0.4376 -0.0715  0.2621
11961TIP3    H235817   5.866   1.331   1.468 -0.3750 -0.3644  0.4471
11962TIP3   OH235818   5.481   1.938   1.254 -0.4485  0.9380  0.4622
11962TIP3    H135819   5.501   1.845   1.269 -1.1595  0.7814  0.4723
11962TIP3    H235820   5.521   1.958   1.169 -1.0163  0.3940  0.0630
11963TIP3   OH235821   7.377   2.712   1.174 -0.3861  0.0801  0.2210
11963TIP3    H135822   7.410   2.625   1.153 -1.1595 -0.2986  0.5674
11963TIP3    H235823   7.425   2.771   1.116  0.5150 -0.5204  0.3474
11964TIP3   OH235824   0.858   6.486   6.012 -0.8000  0.4306  0.0898
11964TIP3    H135825   0.934   6.534   5.980 -1.0999  0.9322  0.1289
11964TIP3    H235826   0.875   6.395   5.989  0.0816  0.4626  0.6181
11965TIP3   OH235827   0.775   6.102   4.566  0.4282  0.0313 -0.2931
11965TIP3    H135828   0.819   6.087   4.482  0.5779  0.6770 -0.3302
11965TIP3    H235829   0.839   6.076   4.632  0.2424 -0.6569 -0.3817
11966TIP3   OH235830   1.747   7.323   5.674 -0.2379  0.0664 -0.2996
11966TIP3    H135831   1.670   7.338   5.618 -1.3973  1.5988  1.6374
11966TIP3    H235832   1.714   7.268   5.745  0.3505  1.0602  0.7547
11967TIP3   OH235833   6.146   0.669   1.042  0.0022 -0.2305 -0.1431
11967TIP3    H135834   6.118   0.746   1.091  0.7689  0.2180 -0.3986
11967TIP3    H235835   6.132   0.596   1.102  0.8043  0.2952  0.6889
11968TIP3   OH235836   7.540   1.841   0.359 -0.8284 -0.2675  0.0491
11968TIP3    H135837   7.509   1.754   0.384  2.6582 -1.4312  0.5558
11968TIP3    H235838   7.579   1.829   0.272 -0.6345  0.8873 -0.0377
11969TIP3   OH235839   1.374   0.988   1.259 -0.0947  0.3924  0.1346
11969TIP3    H135840   1.341   1.063   1.210  1.3366 -1.1750 -3.4650
11969TIP3    H235841   1.328   0.912   1.221  0.0403 -0.7627  2.2035
11970TIP3   OH235842   2.388   5.414   4.800 -0.0217 -0.3719 -0.1549
11970TIP3    H135843   2.319   5.450   4.745  0.4233  0.0334 -0.4598
11970TIP3    H235844   2.469   5.446   4.760  0.3138 -0.2359  0.6281
11971TIP3   OH235845   7.055   1.744   0.845 -0.3175  0.7282 -0.4006
11971TIP3    H135846   7.002   1.823   0.859 -1.7575 -0.3104  0.1528
11971TIP3    H235847   7.006   1.694   0.779 -0.2137 -0.3912  0.3503
11972TIP3   OH235848   0.905   6.168   5.791  0.4350  0.1562 -0.0495
11972TIP3    H135849   0.853   6.097   5.829  0.0428  0.6497  0.3445
11972TIP3    H235850   0.976   6.182   5.854 -1.9093  3.0387  2.1250
11973TIP3   OH235851   4.600   2.154   0.275 -0.4498  0.2745 -0.0173
11973TIP3    H135852   4.624   2.149   0.182 -1.0305  1.4319 -0.2288
11973TIP3    H235853   4.674   2.112   0.320 -0.6087 -1.1765 -1.0544
11974TIP3   OH235854   0.477   6.841   4.730 -0.0927 -0.1010 -0.0789
11974TIP3    H135855   0.566   6.877   4.722 -1.0392  2.3757 -0.0763
11974TIP3    H235856   0.485   6.770   4.792  1.8197  0.4274  0.3113
11975TIP3   OH235857   6.866   3.829   0.586 -0.0256 -0.2816  0.1893
11975TIP3    H135858   6.772   3.819   0.573  0.2884 -2.6069 -0.5102
11975TIP3    H235859   6.879   3.924   0.593 -2.1273  0.2136 -1.9326
11976TIP3   OH235860   5.020   2.132   0.192  0.1977  0.4891 -0.2360
11976TIP3    H135861   5.083   2.063   0.172 -0.2210  0.7286 -2.4881
11976TIP3    H235862   5.057   2.210   0.151 -0.3138  1.2017  0.6293
11977TIP3   OH235863   0.535   5.618   5.469 -0.2254 -0.5322 -0.4287
11977TIP3    H135864   0.534   5.542   5.411  2.0779 -1.8353  1.1409
11977TIP3    H235865   0.579   5.587   5.548  0.6160  2.3761  0.3104
11978TIP3   OH235866   0.806   4.387   6.559  0.2888 -0.1332  0.0684
11978TIP3    H135867   0.895   4.379   6.525  1.0501 -1.3742  2.2693
11978TIP3    H235868   0.810   4.457   6.623 -0.1302 -0.7370  0.7641
11979TIP3   OH235869   4.252   7.393   1.948 -0.0570  0.4758 -0.0232
11979TIP3    H135870   4.188   7.413   1.880 -1.1864  1.1541  1.2279
11979TIP3    H235871   4.234   7.302   1.971  1.6874 -0.4276 -2.0603
11980TIP3   OH235872   1.146   5.784   6.544 -0.4821 -0.0537  0.0907
11980TIP3    H135873   1.103   5.794   6.459  0.5121 -0.9059 -0.5240
11980TIP3    H235874   1.080   5.739   6.598 -1.0722  0.3857 -0.2493
11981TIP3   OH235875   1.862   7.051   5.411 -0.0344 -0.0001 -0.2819
11981TIP3    H135876   1.769   7.072   5.400 -0.0978 -0.4089 -0.5396
11981TIP3    H235877   1.869   7.023   5.503 -0.1346  0.2069 -0.2120
11982TIP3   OH235878   1.710   6.089   6.295  0.1035  0.1867  0.2361
11982TIP3    H135879   1.673   6.177   6.302  1.0183  0.5389  0.7583
11982TIP3    H235880   1.713   6.056   6.384 -2.7287 -1.4427 -0.2451
11983TIP3   OH235881   7.530   2.478   0.527 -0.1677 -0.8084  0.0114
11983TIP3    H135882   7.485   2.543   0.582 -1.3109 -1.9807  0.4832
11983TIP3    H235883   7.582   2.427   0.588  1.5447  0.2847 -0.4858
11984TIP3   OH235884   3.440   0.435   6.046 -0.1215 -0.2616  0.0438
11984TIP3    H135885   3.448   0.494   5.971  0.5548  0.6827  0.8577
11984TIP3    H235886   3.350   0.447   6.077 -0.7824 -1.5005 -1.2940
11985TIP3   OH235887   0.593   7.154   5.041  0.0882  0.1029  0.2708
11985TIP3    H135888   0.509   7.171   5.083  0.1894 -0.0112  0.5177
11985TIP3    H235889   0.571   7.136   4.950 -0.2182 -0.5740  0.4792
11986TIP3   OH235890   7.030   4.131   1.195  0.3696 -0.2220 -0.2790
11986TIP3    H135891   7.001   4.117   1.105 -1.0717  0.9259 -0.0068
11986TIP3    H235892   6.962   4.092   1.249  1.2418 -0.9276  0.3340
11987TIP3   OH235893   8.257   4.596   5.734  0.3763  0.2569  0.2948
11987TIP3    H135894   8.269   4.551   5.650 -3.9933 -0.5335 -0.0523
11987TIP3    H235895   8.229   4.684   5.709  1.9821  0.9768  0.9791
11988TIP3   OH235896   5.740   5.160   0.197 -0.0186 -0.2685  0.2523
11988TIP3    H135897   5.680   5.188   0.266 -0.4153 -0.7782  0.1182
11988TIP3    H235898   5.792   5.090   0.237  0.7549  0.4375  0.4896
11989TIP3   OH235899   3.497   0.975   5.696 -0.2681  0.1626  0.4386
11989TIP3    H135900   3.573   0.919   5.709  1.0839  1.8817 -0.0280
11989TIP3    H235901   3.432   0.917   5.655  0.7608 -1.3104  0.8616
11990TIP3   OH235902   2.383   4.991   6.397 -0.1159 -0.0554 -0.3549
11990TIP3    H135903   2.401   4.990   6.491  0.1786 -0.3240 -0.4149
11990TIP3    H235904   2.462   5.027   6.357 -0.4315  0.5360 -0.4587
11991TIP3   OH235905   1.159   5.457   6.543  0.0535 -0.0067 -0.0847
11991TIP3    H135906   1.072   5.482   6.513 -0.7546 -2.3491  0.2335
11991TIP3    H235907   1.173   5.509   6.623 -0.0091  2.2029 -1.4750
11992TIP3   OH235908   2.070   6.254   6.549 -0.4713 -0.5692  0.0384
11992TIP3    H135909   2.121   6.178   6.524  2.6874  1.5184 -0.1703
11992TIP3    H235910   2.030   6.229   6.633  1.4615 -2.0664  0.5688
11993TIP3   OH235911   1.398   6.006   5.337  0.0051 -0.0569 -0.6332
11993TIP3    H135912   1.327   6.020   5.400  1.5521  0.9058  0.9189
11993TIP3    H235913   1.416   5.912   5.341 -0.3713 -0.1113 -0.1639
11994TIP3   OH235914   5.276   0.764   1.120 -0.4156  0.1974  0.4947
11994TIP3    H135915   5.271   0.686   1.175  1.5144 -0.4621 -0.2354
11994TIP3    H235916   5.330   0.738   1.045 -0.2517  2.0546 -0.0659
11995TIP3   OH235917   0.206   6.186   3.696  0.4375  0.2291 -0.4504
11995TIP3    H135918   0.198   6.166   3.603  0.5251  0.8627 -0.5956
11995TIP3    H235919   0.183   6.278   3.703 -0.1802  0.0274  0.2463
11996TIP3   OH235920   0.904   5.111   6.009  0.1329 -0.6970  0.1893
11996TIP3    H135921   0.865   5.042   5.956  0.8425 -2.5577  2.0077
11996TIP3    H235922   0.974   5.147   5.955 -0.9323 -0.6707 -1.1937
11997TIP3   OH235923   0.328   4.880   0.054  0.2125  0.9867 -0.2585
11997TIP3    H135924   0.285   4.796   0.039  1.2286  0.4683 -0.3204
11997TIP3    H235925   0.259   4.945   0.043 -0.4745  0.1895 -0.6821
11998TIP3   OH235926   3.116   1.036   6.043 -0.2842 -0.2330  0.0280
11998TIP3    H135927   3.206   1.051   6.014 -0.6707 -2.7365 -2.7363
11998TIP3    H235928   3.067   1.111   6.011  0.3865 -0.0885 -0.6709
11999TIP3   OH235929   7.593   2.930   1.710 -0.2842 -0.0430  0.2258
11999TIP3    H135930   7.633   2.851   1.746  3.1565  0.9918 -1.1384
11999TIP3    H235931   7.583   2.911   1.616 -2.2433  0.0429  0.4020
12000TIP3   OH235932   1.285   7.190   5.722 -0.0874  0.1157 -0.4910
12000TIP3    H135933   1.260   7.276   5.687  0.3547  0.1138 -0.8230
12000TIP3    H235934   1.272   7.198   5.816 -0.1076  0.5307 -0.5265
12001TIP3   OH235935   7.966   5.468   6.088  0.1674 -0.4504  0.4397
12001TIP3    H135936   7.876   5.465   6.057 -0.4555 -0.7790  2.2232
12001TIP3    H235937   7.961   5.511   6.174  1.4317 -2.2984  1.4704
12002TIP3   OH235938   4.472   3.523   1.687  0.2781 -0.0801  0.3736
12002TIP3    H135939   4.567   3.512   1.684  0.1644 -1.2694  1.0203
12002TIP3    H235940   4.437   3.437   1.664 -0.6301 -0.1517  1.9206
12003TIP3   OH235941   7.819   7.639   3.781  0.9026 -0.4921  0.1847
12003TIP3    H135942   7.762   7.592   3.720  0.7489 -2.4395  1.7750
12003TIP3    H235943   7.866   7.702   3.726 -2.4014  0.8048 -1.2215
12004TIP3   OH235944   7.714   3.133   1.552 -0.3776 -0.0871  0.2461
12004TIP3    H135945   7.624   3.165   1.547 -0.2529  0.3271  0.6297
12004TIP3    H235946   7.714   3.072   1.626  0.0251  1.1263  1.2587
12005TIP3   OH235947   0.298   5.557   5.717 -0.0869  0.3005  0.3819
12005TIP3    H135948   0.370   5.573   5.656 -0.3337 -0.3440 -0.0911
12005TIP3    H235949   0.235   5.505   5.667 -0.5892  0.3162  0.9858
12006TIP3   OH235950   7.522   2.494   1.044  0.0595 -0.6827  0.1892
12006TIP3    H135951   7.478   2.507   0.960  1.9776 -1.3541 -0.9460
12006TIP3    H235952   7.611   2.466   1.021  0.5323 -1.1479  2.4433
12007TIP3   OH235953   8.377   2.807   0.890 -0.3932  0.8173  0.8230
12007TIP3    H135954   8.441   2.877   0.900 -0.0854  0.5095  0.9854
12007TIP3    H235955   8.386   2.779   0.799 -1.6122  2.0541  0.2847
12008TIP3   OH235956   7.946   0.465   1.554  0.1186 -0.4523 -0.4566
12008TIP3    H135957   7.948   0.420   1.638 -2.2457  0.0672 -0.0864
12008TIP3    H235958   7.857   0.500   1.547  1.2636  2.3986 -1.6581
12009TIP3   OH235959   0.362   6.210   6.838 -0.4240 -0.4717 -0.0616
12009TIP3    H135960   0.358   6.230   6.932  1.3982  3.0553 -0.6692
12009TIP3    H235961   0.270   6.203   6.812 -1.0453  1.2560  1.4994
12010TIP3   OH235962   3.656   1.206   1.298  0.1906  0.0303  0.7648
12010TIP3    H135963   3.707   1.286   1.308  1.3682 -0.6916  0.6287
12010TIP3    H235964   3.673   1.156   1.377  0.2306 -0.5101  0.4182
12011TIP3   OH235965   5.578   0.687   1.096 -0.1558  0.1036  0.5185
12011TIP3    H135966   5.560   0.754   1.162 -0.4682  0.7474 -0.2200
12011TIP3    H235967   5.615   0.614   1.146  1.5059  1.3584  1.1417
12012TIP3   OH235968   4.433   2.864   0.980 -0.1617 -0.5317  0.0667
12012TIP3    H135969   4.475   2.816   0.909 -0.2100 -0.6974  0.1499
12012TIP3    H235970   4.342   2.834   0.977  0.1394 -1.5697  1.0795
12013TIP3   OH235971   7.657   0.140   1.393  0.2876 -0.4086 -0.7253
12013TIP3    H135972   7.745   0.168   1.369 -0.1748  0.0067 -1.9360
12013TIP3    H235973   7.671   0.082   1.469  1.3792  1.7742  0.8076
12014TIP3   OH235974   2.988   7.324   6.799  0.5372 -0.3115 -0.0185
12014TIP3    H135975   3.005   7.335   6.706 -0.0613  0.0324 -0.0970
12014TIP3    H235976   2.911   7.267   6.802  0.1075  0.2813  0.2425
12015TIP3   OH235977   7.166   1.656   0.403  0.0649 -0.6269  0.1292
12015TIP3    H135978   7.149   1.750   0.405 -0.1103 -0.6301 -0.9104
12015TIP3    H235979   7.128   1.623   0.485 -0.8654  0.0434 -0.0267
12016TIP3   OH235980   2.586   6.319   5.523  0.2453  0.5575  0.0192
12016TIP3    H135981   2.605   6.412   5.539 -0.1551  0.5526  0.5236
12016TIP3    H235982   2.668   6.284   5.489  0.2230  1.2380 -0.7757
12017TIP3   OH235983   0.245   5.597   5.322 -0.1544 -0.0264 -0.1589
12017TIP3    H135984   0.314   5.531   5.326 -0.2156 -0.0796  0.0099
12017TIP3    H235985   0.183   5.571   5.390  0.0777  0.4894  0.2574
12018TIP3   OH235986   0.644   2.643   0.686  0.8550 -0.4767 -0.3515
12018TIP3    H135987   0.616   2.686   0.766  0.8426 -0.7076 -0.2314
12018TIP3    H235988   0.728   2.603   0.708  1.0562 -0.1816 -0.5765
12019TIP3   OH235989   2.091   5.936   5.765 -0.0021  0.5988  0.4066
12019TIP3    H135990   2.034   5.995   5.716 -0.9697  0.9904  1.9543
12019TIP3    H235991   2.051   5.850   5.755  0.4177  0.4968 -0.3950
12020TIP3   OH235992   3.136   5.424   6.801 -0.2562  0.3754 -0.5086
12020TIP3    H135993   3.115   5.400   6.891 -1.6485  1.7363 -0.4360
12020TIP3    H235994   3.166   5.515   6.807 -0.9194  0.6738 -1.4688
12021TIP3   OH235995   2.711   6.521   5.084  0.2947  0.3783 -0.3754
12021TIP3    H135996   2.735   6.560   5.000  0.0160  0.5135 -0.3915
12021TIP3    H235997   2.725   6.591   5.148  1.1150  0.0832 -0.2248
12022TIP3   OH235998   1.786   5.919   4.890 -1.0091 -0.1921  0.2738
12022TIP3    H135999   1.842   5.928   4.812 -0.5859 -0.0472  0.5885
12022TIP3    H236000   1.838   5.864   4.950 -0.3067  1.6247  1.3828
12023TIP3   OH236001   3.089   6.619   5.474 -0.2079  0.6207 -0.2306
12023TIP3    H136002   3.122   6.559   5.406 -0.3141 -1.9057  1.8568
12023TIP3    H236003   3.006   6.651   5.439 -0.3238 -0.7479 -1.2659
12024TIP3   OH236004   8.034   5.468   5.185 -0.1686  0.8306 -0.4889
12024TIP3    H136005   7.962   5.475   5.248  0.9778 -0.0333  0.9332
12024TIP3    H236006   8.109   5.440   5.237  0.8044  0.1264 -2.2356
12025TIP3   OH236007   1.936   5.557   6.650  0.2557 -0.8416  0.4757
12025TIP3    H136008   1.856   5.581   6.696  0.3633  1.3098 -0.4031
12025TIP3    H236009   1.906   5.505   6.576 -0.6735  2.5705 -1.6494
12026TIP3   OH236010   6.736   2.779   0.513 -0.2348  0.0092 -0.0268
12026TIP3    H136011   6.714   2.859   0.560 -0.5327 -0.7859  1.2172
12026TIP3    H236012   6.807   2.740   0.565  0.5522 -0.0570 -1.1418
12027TIP3   OH236013   2.405   7.569   5.471 -0.0327 -0.3512 -0.4620
12027TIP3    H136014   2.440   7.657   5.474 -0.3715 -0.2062 -0.6804
12027TIP3    H236015   2.422   7.540   5.381 -1.3458  0.0868 -0.8653
12028TIP3   OH236016   6.790   1.732   0.716 -0.3345  0.0066 -0.6029
12028TIP3    H136017   6.726   1.680   0.766 -0.0731 -0.6226 -0.9153
12028TIP3    H236018   6.743   1.812   0.694 -1.1444 -0.6025 -1.1407
12029TIP3   OH236019   2.032   4.871   5.294  0.4752 -0.2559  0.2683
12029TIP3    H136020   2.037   4.786   5.338 -0.5031 -1.0728 -1.1799
12029TIP3    H236021   2.065   4.933   5.359 -0.0276 -1.5676  1.8120
12030TIP3   OH236022   1.477   6.550   4.906 -0.3816 -0.0210 -0.4073
12030TIP3    H136023   1.409   6.562   4.973 -1.6087 -3.1953 -0.9886
12030TIP3    H236024   1.549   6.605   4.935 -1.9380  0.8036  2.0619
12031TIP3   OH236025   8.305   1.038   1.196 -0.0067  0.1346  0.0138
12031TIP3    H136026   8.308   0.999   1.283  0.2828 -0.3734 -0.2171
12031TIP3    H236027   8.380   1.097   1.192 -0.8425  1.2594  0.6101
12032TIP3   OH236028   1.384   5.933   6.562 -1.0615 -0.1463 -0.5889
12032TIP3    H136029   1.300   5.888   6.560 -1.2211  0.1287 -0.1233
12032TIP3    H236030   1.368   6.020   6.526 -1.4657  0.6925  1.5450
12033TIP3   OH236031   7.049   2.303   1.392  0.2568 -0.0370 -0.0386
12033TIP3    H136032   7.111   2.237   1.361  0.0127  0.0280 -0.6738
12033TIP3    H236033   6.998   2.258   1.460 -0.4147 -0.7537 -0.9931
12034TIP3   OH236034  -0.011   7.270   4.253  0.2801  0.6350 -0.2643
12034TIP3    H136035   0.070   7.239   4.293  0.1693  1.3118  0.4964
12034TIP3    H236036  -0.043   7.338   4.313 -2.6657 -2.0091  1.2764
12035TIP3   OH236037   2.383   7.741   4.408 -0.1139 -0.0889  0.1869
12035TIP3    H136038   2.460   7.690   4.435 -1.1392 -0.5300  2.4815
12035TIP3    H236039   2.378   7.812   4.472 -1.1935  0.3335 -0.3537
12036TIP3   OH236040   3.304   1.187   6.278 -0.4877 -0.2457  0.4475
12036TIP3    H136041   3.398   1.185   6.259 -0.3804  0.5749  0.8800
12036TIP3    H236042   3.273   1.100   6.251  0.4841 -0.7100  0.7793
12037TIP3   OH236043   4.035   7.779   0.171 -0.6360  0.0151  0.3010
12037TIP3    H136044   4.020   7.744   0.258 -0.9753 -2.9543 -0.9047
12037TIP3    H236045   4.126   7.755   0.150 -0.8873 -0.2272 -0.5565
12038TIP3   OH236046   1.359   6.643   6.225  0.1939 -0.2051  0.1146
12038TIP3    H136047   1.357   6.618   6.132  1.1835  1.4696 -0.3734
12038TIP3    H236048   1.298   6.717   6.231  1.1934  0.5860  0.5212
12039TIP3   OH236049   3.898   0.339   6.010  0.2652 -0.2681  0.0996
12039TIP3    H136050   3.912   0.249   6.039  0.4301 -0.5695 -0.8903
12039TIP3    H236051   3.826   0.333   5.947 -0.1917  0.3931  0.5530
12040TIP3   OH236052   7.051   0.819   0.872 -0.2136 -0.1356 -0.4266
12040TIP3    H136053   6.958   0.840   0.864  0.1743  3.5351  3.2695
12040TIP3    H236054   7.054   0.748   0.936 -0.3858  0.0694 -0.1948
12041TIP3   OH236055   4.856   8.004   1.927  0.3443  0.1215  0.0940
12041TIP3    H136056   4.883   8.080   1.876  0.7444  0.0118  0.1353
12041TIP3    H236057   4.923   7.938   1.907 -0.1239 -0.2867 -0.1133
12042TIP3   OH236058   8.185   1.030   0.897 -0.0500  0.2370  0.3619
12042TIP3    H136059   8.259   1.047   0.955 -0.1738  0.0702  0.5709
12042TIP3    H236060   8.205   0.946   0.857 -1.2390 -0.9664  2.2064
12043TIP3   OH236061   8.327   5.872   6.542  0.5530 -0.5408 -0.3300
12043TIP3    H136062   8.326   5.874   6.447 -0.1448  0.0225 -0.3196
12043TIP3    H236063   8.420   5.870   6.566  0.7241 -0.8034 -1.0209
12044TIP3   OH236064   1.592   3.664   6.451  0.1149  0.4033 -0.2186
12044TIP3    H136065   1.583   3.608   6.374 -1.5451 -0.6954  0.7304
12044TIP3    H236066   1.519   3.725   6.446  1.7749  2.3934 -1.1099
12045TIP3   OH236067   3.338   7.999   1.134 -0.6365 -0.0351 -0.2070
12045TIP3    H136068   3.273   8.067   1.152 -1.6592 -1.3207  1.1164
12045TIP3    H236069   3.315   7.967   1.047 -0.2535  1.1716 -0.7689
12046TIP3   OH236070   1.013   5.794   3.921 -0.2684 -0.3608  0.2413
12046TIP3    H136071   1.001   5.726   3.987  0.8402 -0.4902  0.3317
12046TIP3    H236072   1.083   5.760   3.865  0.5997  0.8939  0.5534
12047TIP3   OH236073   8.001   6.709   4.271 -0.1376  0.0263  0.2885
12047TIP3    H136074   7.982   6.802   4.286 -1.2661 -0.2324  0.5229
12047TIP3    H236075   8.090   6.697   4.305 -0.4340  0.7590  1.3514
12048TIP3   OH236076   3.124   6.517   5.993 -0.1663 -0.0189  0.0431
12048TIP3    H136077   3.067   6.570   5.938  0.6204  0.4401 -0.3368
12048TIP3    H236078   3.081   6.518   6.079 -1.2452 -0.5051 -0.4825
12049TIP3   OH236079   0.850   7.576   6.083 -0.1073 -0.2976 -0.1120
12049TIP3    H136080   0.903   7.648   6.117  1.8628 -1.6190 -0.3239
12049TIP3    H236081   0.779   7.620   6.036  0.3234  1.5084  0.8570
12050TIP3   OH236082   2.718   4.939   5.545  0.1794 -0.3940  0.4703
12050TIP3    H136083   2.704   4.901   5.632 -1.3012 -2.3119 -0.5669
12050TIP3    H236084   2.686   4.872   5.485 -0.1704  1.5333 -1.5150
12051TIP3   OH236085   8.326   3.089   0.495  0.2555  0.3433  0.2092
12051TIP3    H136086   8.309   2.999   0.467 -0.2619  1.5270 -3.4935
12051TIP3    H236087   8.287   3.094   0.583 -0.9063 -2.6393 -0.0714
12052TIP3   OH236088   3.138   7.412   5.454  0.0678 -0.1517 -0.0192
12052TIP3    H136089   3.067   7.349   5.445  0.5615 -0.9929  1.7369
12052TIP3    H236090   3.211   7.362   5.490  1.4456  0.7929 -1.3956
12053TIP3   OH236091   2.880   6.289   6.641  0.0590 -0.1222 -0.3888
12053TIP3    H136092   2.891   6.218   6.705 -1.0007  0.6544  0.6672
12053TIP3    H236093   2.789   6.316   6.651 -0.0262  0.2188 -2.0244
12054TIP3   OH236094   7.112   2.748   0.378  0.4020  0.1630  0.1166
12054TIP3    H136095   7.131   2.835   0.344 -0.2136 -0.0590 -0.8073
12054TIP3    H236096   7.087   2.697   0.301 -3.3732  0.2665  1.1721
12055TIP3   OH236097   3.268   5.804   6.442 -0.3406 -0.0961 -0.2796
12055TIP3    H136098   3.362   5.788   6.438 -0.2545  0.0124  0.9649
12055TIP3    H236099   3.257   5.864   6.516 -1.4183 -0.3462 -0.2214
12056TIP3   OH236100   0.578   4.650   0.007 -0.3330  0.4440  0.7010
12056TIP3    H136101   0.671   4.651  -0.017 -1.0178  0.5763 -2.0478
12056TIP3    H236102   0.556   4.742   0.019 -0.4612  0.5330 -0.1579
12057TIP3   OH236103   3.448   7.495   5.072  0.2179 -1.0475  0.7395
12057TIP3    H136104   3.403   7.572   5.108 -1.0364 -1.7535  0.7381
12057TIP3    H236105   3.442   7.430   5.143 -0.0297 -1.6186  0.1955
12058TIP3   OH236106   1.422   2.660   0.045 -0.4589  0.4890  0.3466
12058TIP3    H136107   1.489   2.720   0.013 -0.6903  0.5872  0.0440
12058TIP3    H236108   1.471   2.584   0.078 -0.1996  0.5841  0.1754
12059TIP3   OH236109   7.666   3.032   0.528 -0.1661  0.2305 -0.6885
12059TIP3    H136110   7.754   2.997   0.513 -0.2949  0.3289 -1.7181
12059TIP3    H236111   7.651   3.091   0.454  0.5089  3.4219  1.5962
12060TIP3   OH236112   0.563   1.526   0.614 -0.3122  0.2986 -0.1140
12060TIP3    H136113   0.630   1.582   0.575 -0.3104 -0.4239 -1.1832
12060TIP3    H236114   0.609   1.477   0.682 -0.2427  1.3439  0.6119
12061TIP3   OH236115   1.037   7.481   5.252  0.0942  0.1382 -0.5135
12061TIP3    H136116   0.980   7.548   5.215 -0.6547  0.2426  0.7898
12061TIP3    H236117   1.015   7.480   5.346  3.9317  1.8632  0.4914
12062TIP3   OH236118   0.184   3.755   0.551 -0.1904  0.4492  0.2705
12062TIP3    H136119   0.248   3.761   0.622  0.3928  2.6182 -0.4043
12062TIP3    H236120   0.232   3.715   0.479  0.5070  2.3285 -0.3247
12063TIP3   OH236121   0.542   6.572   5.144  0.0161 -0.0313 -0.1052
12063TIP3    H136122   0.465   6.579   5.087  0.0580  0.3435 -0.1195
12063TIP3    H236123   0.519   6.504   5.208  1.0072 -2.3875 -2.1793
12064TIP3   OH236124   0.062   0.940   0.550 -0.3219  0.5206 -0.0120
12064TIP3    H136125   0.076   1.029   0.584  0.3311  0.1624  0.6666
12064TIP3    H236126   0.125   0.931   0.478  1.0047 -0.0786  1.1937
12065TIP3   OH236127   0.445   4.735   6.657  0.1420  0.0464  0.1349
12065TIP3    H136128   0.433   4.646   6.691  1.7505  0.4942  1.9480
12065TIP3    H236129   0.504   4.725   6.582  1.1550 -0.3042  0.9711
12066TIP3   OH236130   4.980   6.606   3.593  0.2406 -0.2159  0.2828
12066TIP3    H136131   4.912   6.605   3.525  1.6660 -1.6247 -1.1736
12066TIP3    H236132   5.014   6.696   3.592 -1.4012  0.4223  0.8356
12067TIP3   OH236133   1.592   7.075   5.426  0.2719 -0.0999 -0.3221
12067TIP3    H136134   1.592   6.982   5.449  0.2275 -0.1975 -0.7214
12067TIP3    H236135   1.561   7.078   5.336 -1.1298  0.4211  0.1647
12068TIP3   OH236136   1.101   5.563   5.993 -0.3721  0.1021  0.2324
12068TIP3    H136137   1.090   5.640   6.048 -2.8401 -0.1503  0.1415
12068TIP3    H236138   1.066   5.588   5.908  0.8082 -0.4357 -0.4277
12069TIP3   OH236139   3.588   7.302   5.656  0.0625  0.0920  0.1319
12069TIP3    H136140   3.569   7.239   5.586 -1.1224  0.4652  0.1123
12069TIP3    H236141   3.587   7.249   5.736 -0.1120 -0.0627  0.0278
12070TIP3   OH236142   0.039   6.626   4.602 -0.2687 -0.1589 -0.4709
12070TIP3    H136143   0.131   6.598   4.596  0.2377  1.2258  0.5684
12070TIP3    H236144   0.020   6.666   4.517 -0.5018 -2.1502 -1.3733
12071TIP3   OH236145   0.316   5.367   0.454 -0.3950  0.1201  0.4165
12071TIP3    H136146   0.358   5.451   0.476 -1.0841  0.3224  0.9840
12071TIP3    H236147   0.370   5.331   0.384  0.0276  0.9456  0.3092
12072TIP3   OH236148   7.018   7.318   2.266  0.3210 -1.0106  0.2351
12072TIP3    H136149   6.983   7.374   2.335 -0.3190 -1.0640 -0.0384
12072TIP3    H236150   7.069   7.376   2.210  0.4843 -0.8891  0.5101
12073TIP3   OH236151   3.014   7.186   6.116  0.2351  0.1671 -0.1409
12073TIP3    H136152   3.075   7.149   6.052 -1.0418 -0.0809 -1.2081
12073TIP3    H236153   2.965   7.253   6.068 -1.4151 -0.6975  0.3073
12074TIP3   OH236154   3.772   6.074   6.611  0.4705 -0.5145  0.0460
12074TIP3    H136155   3.807   5.986   6.601  0.6754 -0.5535  1.0572
12074TIP3    H236156   3.761   6.085   6.705  0.2722  0.4755 -0.0872
12075TIP3   OH236157   3.875   6.868   5.245  0.2435 -0.5825 -0.2280
12075TIP3    H136158   3.816   6.913   5.185 -0.4716 -0.2070  0.7513
12075TIP3    H236159   3.820   6.844   5.319  0.6967 -2.7150 -0.5448
12076TIP3   OH236160   2.798   5.841   6.942  0.3350  0.1036 -0.0834
12076TIP3    H136161   2.738   5.886   7.002 -0.8349  0.4998 -1.5146
12076TIP3    H236162   2.792   5.892   6.861  1.6952 -0.5785 -0.6199
12077TIP3   OH236163   7.509   4.826   6.460  0.0250 -0.1391 -0.1621
12077TIP3    H136164   7.500   4.921   6.468  1.9019  0.0549 -0.1282
12077TIP3    H236165   7.482   4.792   6.546 -2.3734  0.1915 -0.7337
12078TIP3   OH236166   1.287   6.530   4.707 -0.1108  0.2239  0.1329
12078TIP3    H136167   1.228   6.518   4.781  1.9820 -0.1134  1.7728
12078TIP3    H236168   1.374   6.540   4.746  0.6658  3.0079 -2.0988
12079TIP3   OH236169   0.361   2.455   1.740 -0.3946 -0.7480  0.5802
12079TIP3    H136170   0.297   2.468   1.809 -0.6300 -0.1157  0.2480
12079TIP3    H236171   0.337   2.371   1.701 -0.5489 -0.8803  0.9552
12080TIP3   OH236172   2.508   5.854   5.800  0.3195  0.0181 -0.0438
12080TIP3    H136173   2.456   5.789   5.753  1.8807 -1.5251  0.3074
12080TIP3    H236174   2.510   5.930   5.742 -2.0405  0.0016 -0.1906
12081TIP3   OH236175   2.344   6.531   5.799  0.2294 -0.4574 -0.9805
12081TIP3    H136176   2.429   6.502   5.766  0.4492  0.1126 -0.9171
12081TIP3    H236177   2.337   6.622   5.772  1.4780  0.7891  2.5342
12082TIP3   OH236178   8.422   2.187   1.010 -0.2098 -0.0876 -0.6344
12082TIP3    H136179   8.440   2.171   0.918  0.5155  3.4005 -1.1718
12082TIP3    H236180   8.329   2.211   1.012 -0.4419 -0.9961 -0.3192
12083TIP3   OH236181   4.188   6.075   6.315  0.5741  0.0835 -0.5508
12083TIP3    H136182   4.261   6.136   6.301 -0.1243  0.6036 -1.9913
12083TIP3    H236183   4.192   6.015   6.241 -0.4811  0.1417 -0.6634
12084TIP3   OH236184   6.498   0.571   6.847  0.3158 -0.1036 -0.0070
12084TIP3    H136185   6.566   0.584   6.914 -0.0946  0.3860  0.3150
12084TIP3    H236186   6.506   0.478   6.824 -1.7047 -1.1293  3.1000
12085TIP3   OH236187   1.187   1.182   1.324 -0.3769  0.3517 -0.1468
12085TIP3    H136188   1.159   1.273   1.314  0.4223  0.5929 -0.1839
12085TIP3    H236189   1.242   1.181   1.403 -0.0147 -0.0125 -0.3992
12086TIP3   OH236190   3.180   5.360   5.409 -0.4699  0.3314  0.0338
12086TIP3    H136191   3.227   5.423   5.355  1.8399 -1.8807 -0.6373
12086TIP3    H236192   3.130   5.308   5.347 -2.9164  1.8490  0.6437
12087TIP3   OH236193   2.302   6.539   5.215 -0.1748  0.0462 -0.0852
12087TIP3    H136194   2.257   6.624   5.210  0.4795  0.3128 -1.4684
12087TIP3    H236195   2.301   6.518   5.309  0.3127  1.9431  0.3748
12088TIP3   OH236196   4.231   7.663   5.226  0.0251  0.0980 -0.4701
12088TIP3    H136197   4.164   7.722   5.189  0.2644  0.8566  0.2839
12088TIP3    H236198   4.183   7.584   5.249 -0.1710 -0.3119 -2.2052
12089TIP3   OH236199   0.120   3.603   1.193  0.0938 -0.6664  0.4129
12089TIP3    H136200   0.175   3.655   1.252 -0.6217 -1.1297  1.5010
12089TIP3    H236201   0.051   3.664   1.167 -1.1950 -1.2810  2.3198
12090TIP3   OH236202   4.380   5.070   6.060 -0.1042 -0.0471 -0.1254
12090TIP3    H136203   4.381   5.038   6.150 -0.6641  0.0529 -0.0822
12090TIP3    H236204   4.423   5.001   6.009 -2.5857 -1.5378 -0.2620
12091TIP3   OH236205   7.802   7.280   4.395  0.5875 -0.5756  0.1209
12091TIP3    H136206   7.896   7.270   4.402  0.4092 -3.1403 -0.8385
12091TIP3    H236207   7.766   7.194   4.416 -1.6940  0.8481  2.5569
12092TIP3   OH236208   3.954   4.821   5.015 -0.3869  0.0871  0.0942
12092TIP3    H136209   3.989   4.793   4.930 -1.0446 -1.1711  0.2262
12092TIP3    H236210   3.865   4.788   5.017 -0.7004  0.9452  0.8896
12093TIP3   OH236211   2.512   7.690   5.820 -0.2605 -0.0603 -0.1480
12093TIP3    H136212   2.603   7.674   5.797 -0.7415 -2.4505 -0.4767
12093TIP3    H236213   2.471   7.603   5.823 -2.5106  0.9490  0.0539
12094TIP3   OH236214   7.155   4.995   5.046  0.3708 -0.8965  0.0869
12094TIP3    H136215   7.085   4.929   5.039 -0.8313  0.5371 -1.9939
12094TIP3    H236216   7.204   4.987   4.964  2.0851 -1.2226  1.1228
12095TIP3   OH236217   2.826   7.507   6.420  0.0649 -0.2125  0.4806
12095TIP3    H136218   2.756   7.482   6.480 -0.3693  1.6784  0.7920
12095TIP3    H236219   2.781   7.544   6.344  0.6703 -0.9688 -0.2528
12096TIP3   OH236220   0.472   2.572   2.154 -0.0129  0.0413 -0.4281
12096TIP3    H136221   0.386   2.539   2.126 -0.7582 -0.9012  2.7979
12096TIP3    H236222   0.486   2.532   2.240  2.8199  1.7099 -0.0690
12097TIP3   OH236223   6.432   0.942   3.492  0.7699  0.1721 -0.0557
12097TIP3    H136224   6.375   1.014   3.520  1.2042  0.7698 -0.6777
12097TIP3    H236225   6.499   0.936   3.560 -0.3144 -0.8637  0.9332
12098TIP3   OH236226   3.084   5.845   2.938  0.6992 -0.1813  0.0821
12098TIP3    H136227   3.007   5.850   2.881  0.8369 -0.1131 -0.0975
12098TIP3    H236228   3.146   5.908   2.901  0.6590  0.1122  0.5059
12099TIP3   OH236229   3.318   7.207   4.553 -0.1857  0.0375 -0.1019
12099TIP3    H136230   3.261   7.186   4.479  0.4980 -1.3411 -0.2602
12099TIP3    H236231   3.365   7.125   4.570 -0.3776  0.3409  1.9077
12100TIP3   OH236232   8.137   0.913   3.692  0.6606 -0.3216 -0.2814
12100TIP3    H136233   8.231   0.900   3.687  0.8978  1.1584  0.0763
12100TIP3    H236234   8.125   0.977   3.763 -0.3989  1.4840 -2.0380
12101TIP3   OH236235   8.084   1.346   0.112  0.7128  0.4137 -0.3531
12101TIP3    H136236   8.012   1.407   0.096  0.2065 -0.1380 -0.1776
12101TIP3    H236237   8.116   1.370   0.199 -1.1871 -1.2516  0.8635
12102TIP3   OH236238   2.169   7.882   6.714  0.7034 -0.4766  0.6106
12102TIP3    H136239   2.221   7.812   6.752  0.2343 -1.3418 -0.3182
12102TIP3    H236240   2.079   7.862   6.740  0.7589  0.8147  1.9111
12103TIP3   OH236241   2.373   5.637   6.453  0.4725  0.3977  0.1916
12103TIP3    H136242   2.465   5.628   6.476  1.0305  2.0156 -1.2177
12103TIP3    H236243   2.373   5.639   6.357 -1.0912 -0.1250  0.1644
12104TIP3   OH236244   1.258   2.368   0.208  0.6090  0.6241  0.0649
12104TIP3    H136245   1.202   2.413   0.271 -0.0245  1.6671 -1.2318
12104TIP3    H236246   1.216   2.383   0.124  1.1956 -1.1468 -0.5718
12105TIP3   OH236247   3.350   4.698   5.523 -0.2158 -0.5061 -0.1260
12105TIP3    H136248   3.399   4.661   5.596  0.3311  0.2075 -0.1242
12105TIP3    H236249   3.398   4.671   5.445  0.7366  1.0128 -0.0722
12106TIP3   OH236250   2.622   6.225   6.743  0.4041  0.2277  0.3452
12106TIP3    H136251   2.534   6.240   6.709  0.8964  3.0881  0.1947
12106TIP3    H236252   2.659   6.157   6.688 -0.7452  0.9792 -1.3864
12107TIP3   OH236253   8.187   1.866   0.452  0.9788  0.0407  0.4776
12107TIP3    H136254   8.236   1.889   0.530  0.5819  0.2640  0.6634
12107TIP3    H236255   8.242   1.893   0.379  1.3712 -0.2109  0.6790
12108TIP3   OH236256   4.061   4.574   6.860  0.2171  0.1474 -0.4412
12108TIP3    H136257   4.090   4.531   6.940  0.1847 -1.4979 -1.2907
12108TIP3    H236258   4.029   4.659   6.889  1.1777 -0.0129  1.1498
12109TIP3   OH236259   1.485   5.559   5.617  0.3264 -0.3739  0.4490
12109TIP3    H136260   1.527   5.548   5.532  0.2885 -0.8807  0.4892
12109TIP3    H236261   1.554   5.589   5.675  0.3290  0.0751  0.2150
12110TIP3   OH236262   2.512   6.484   6.421 -0.0609  0.6320 -0.0070
12110TIP3    H136263   2.430   6.471   6.375  0.8029 -0.6385 -1.2461
12110TIP3    H236264   2.505   6.571   6.459 -2.2789  0.2409  0.5535
12111TIP3   OH236265   0.291   1.317   0.117  0.2862 -0.5049 -0.0613
12111TIP3    H136266   0.268   1.331   0.209 -1.2123  1.5819 -0.7070
12111TIP3    H236267   0.378   1.356   0.108 -0.5308  1.3906 -0.0137
12112TIP3   OH236268   1.288   5.335   5.706 -0.0371 -0.6055  0.0482
12112TIP3    H136269   1.340   5.294   5.638 -1.3078 -0.5184 -0.9959
12112TIP3    H236270   1.352   5.376   5.764  1.0408 -0.0461 -1.4971
12113TIP3   OH236271   7.914   4.881   0.670  0.2724  0.1555  0.0140
12113TIP3    H136272   7.951   4.968   0.654  0.4987 -0.1165 -0.9022
12113TIP3    H236273   7.846   4.871   0.603  1.4581 -1.1123 -1.0145
12114TIP3   OH236274   2.398   4.730   6.564 -0.1853  0.1287 -0.2627
12114TIP3    H136275   2.481   4.739   6.516  0.6060 -1.0453  0.8517
12114TIP3    H236276   2.389   4.813   6.611  0.2940  0.3117 -0.4807
12115TIP3   OH236277   0.393   5.529   4.736 -0.3209  0.2958 -0.0890
12115TIP3    H136278   0.308   5.488   4.724 -1.2123  2.0583  0.1137
12115TIP3    H236279   0.398   5.548   4.830 -0.1654  1.1380 -0.2587
12116TIP3   OH236280   2.424   3.800   6.457 -0.0145  0.4128  0.0945
12116TIP3    H136281   2.466   3.751   6.386  0.0275  0.5796  0.0034
12116TIP3    H236282   2.435   3.892   6.432  0.1023  0.4761  0.3758
12117TIP3   OH236283   8.479   1.151   2.294  0.0173  0.4548  0.3346
12117TIP3    H136284   8.490   1.220   2.360 -0.4601  2.3097 -1.4982
12117TIP3    H236285   8.500   1.070   2.341  2.9121  2.0560  1.9059
12118TIP3   OH236286   7.955   4.403   0.550 -0.2295  0.0164 -0.1285
12118TIP3    H136287   7.997   4.473   0.501 -0.3897 -0.1908 -0.5615
12118TIP3    H236288   8.008   4.395   0.630  0.5094 -0.1941 -0.6340
12119TIP3   OH236289   1.073   6.642   5.925  0.1423 -0.2095  0.2933
12119TIP3    H136290   1.151   6.593   5.899  1.0174  1.6828 -0.7874
12119TIP3    H236291   1.067   6.713   5.861 -3.1560 -0.9789 -0.3472
12120TIP3   OH236292   3.346   7.687   6.719  0.0166 -0.5098  0.0977
12120TIP3    H136293   3.253   7.667   6.707  0.6303 -2.3045 -2.0731
12120TIP3    H236294   3.347   7.763   6.777 -2.9269  1.6971 -2.5966
12121TIP3   OH236295   8.150   0.249   0.588  0.2381  0.1907 -0.4023
12121TIP3    H136296   8.144   0.271   0.681 -0.0442  1.9119 -0.8283
12121TIP3    H236297   8.174   0.156   0.588  0.9487  0.3462  1.3954
12122TIP3   OH236298   1.662   6.020   6.562  0.7288  0.2873  0.3976
12122TIP3    H136299   1.674   6.027   6.656  0.8440  0.1210  0.3963
12122TIP3    H236300   1.571   5.995   6.551  0.9729 -0.6575  0.5078
12123TIP3   OH236301   0.994   2.105  -0.031  0.3245 -0.0349  0.5633
12123TIP3    H136302   0.911   2.125   0.012 -0.9034 -2.3867 -0.6574
12123TIP3    H236303   1.061   2.145   0.026 -1.6547  2.8586  0.9684
12124TIP3   OH236304   0.850   5.695   5.879  0.0757 -0.4652  0.2735
12124TIP3    H136305   0.891   5.682   5.794  2.7858 -2.1086  1.7427
12124TIP3    H236306   0.804   5.613   5.896 -0.8025  0.0113  0.2120
12125TIP3   OH236307   6.991   0.519   0.769 -0.0392 -0.3922 -0.4294
12125TIP3    H136308   7.045   0.464   0.825  0.4329  1.2065  0.7236
12125TIP3    H236309   6.902   0.509   0.804 -0.2270 -1.6739 -1.2471
12126TIP3   OH236310   3.134   5.787   5.782  0.3312 -0.4341  0.3401
12126TIP3    H136311   3.154   5.853   5.716 -0.1887 -1.1744 -0.5656
12126TIP3    H236312   3.066   5.733   5.742  1.5125 -2.1689  0.6401
12127TIP3   OH236313   0.013   1.197   1.185 -0.4504  0.0725 -0.6285
12127TIP3    H136314   0.025   1.291   1.176 -0.9030  0.1129 -0.8543
12127TIP3    H236315   0.097   1.159   1.160 -0.7887  0.3306 -2.2384
12128TIP3   OH236316   3.553   5.137   4.116 -0.1176 -0.4241 -0.0254
12128TIP3    H136317   3.641   5.147   4.154 -1.3430 -1.9594  3.5028
12128TIP3    H236318   3.562   5.062   4.057  1.3019  0.4659 -0.9839
12129TIP3   OH236319   4.659   5.544   5.115  0.2580 -0.4974  0.4631
12129TIP3    H136320   4.737   5.540   5.060 -0.8256  0.1928 -1.1455
12129TIP3    H236321   4.597   5.485   5.073 -0.8552  0.6458  0.4956
12130TIP3   OH236322   2.065   5.807   3.817  0.4277  0.0548 -0.6010
12130TIP3    H136323   2.027   5.877   3.764  0.1931  0.4347  0.0725
12130TIP3    H236324   2.136   5.771   3.762  0.7038  0.9706 -0.8449
12131TIP3   OH236325   7.507   0.189   1.179  0.0013  0.4067 -0.2845
12131TIP3    H136326   7.529   0.153   1.264 -1.5905 -2.4049 -1.0084
12131TIP3    H236327   7.590   0.222   1.144  1.0263 -0.2784  1.4748
12132TIP3   OH236328   3.025   6.492   6.247  0.2200 -0.5391  0.1700
12132TIP3    H136329   3.058   6.403   6.256  4.3966  1.0792  2.0910
12132TIP3    H236330   3.018   6.525   6.336 -2.2943  0.7747 -0.4507
12133TIP3   OH236331   4.816   5.164   5.339  0.6344  0.0119 -0.0728
12133TIP3    H136332   4.899   5.206   5.317  0.7039  0.0510  0.2529
12133TIP3    H236333   4.764   5.234   5.378  1.4282 -0.5951  2.1951
12134TIP3   OH236334   1.820   6.844   6.710  0.0400 -0.3702  0.0685
12134TIP3    H136335   1.900   6.848   6.658 -1.5609 -0.4324 -2.4564
12134TIP3    H236336   1.760   6.906   6.669 -1.3408 -0.5294  1.7455
12135TIP3   OH236337   7.168   1.211   0.930  0.3551 -0.2525  0.0367
12135TIP3    H136338   7.078   1.241   0.946  0.1019 -0.8449 -0.2240
12135TIP3    H236339   7.215   1.232   1.011 -0.2385 -0.7206  0.5174
12136TIP3   OH236340   7.265   2.436   0.454  0.2550 -0.5569 -0.9613
12136TIP3    H136341   7.278   2.452   0.360  1.0854 -0.0164 -0.7666
12136TIP3    H236342   7.272   2.523   0.494 -1.1227 -0.6446 -0.5025
12137TIP3   OH236343   4.283   5.829   6.424  0.1054  0.4796 -0.2452
12137TIP3    H136344   4.266   5.923   6.419  0.1735  0.4771 -0.5085
12137TIP3    H236345   4.243   5.793   6.345  0.7028  0.3803 -0.5068
12138TIP3   OH236346   4.073   6.986   6.393 -0.5748  0.0751 -0.5192
12138TIP3    H136347   4.111   6.902   6.368  0.3984  0.6242 -0.9298
12138TIP3    H236348   3.982   6.982   6.363 -0.7193 -1.0913  0.0778
12139TIP3   OH236349   7.130   1.039   5.362  0.4416 -0.3478  0.2041
12139TIP3    H136350   7.127   1.108   5.296  1.4015 -1.2284 -0.7622
12139TIP3    H236351   7.038   1.018   5.379  0.1926 -0.3408 -1.0830
12140TIP3   OH236352   3.931   7.158   4.618 -0.3879 -0.1434  0.2000
12140TIP3    H136353   3.950   7.171   4.711  0.2817  1.9959 -0.2202
12140TIP3    H236354   4.017   7.149   4.577 -0.7241 -4.7644  0.2359
12141TIP3   OH236355   0.690   1.495   1.273 -0.3171  0.8050  0.5087
12141TIP3    H136356   0.645   1.518   1.355 -0.8326 -1.0266  0.7412
12141TIP3    H236357   0.732   1.411   1.291 -0.1938  0.5226 -1.0404
12142TIP3   OH236358   0.817   5.961   5.935  0.0460  0.2535  0.6477
12142TIP3    H136359   0.806   5.957   6.030 -4.2345 -0.2534  0.1949
12142TIP3    H236360   0.826   5.870   5.908 -1.5306  0.1855  0.3095
12143TIP3   OH236361   2.079   5.710   5.473 -0.6372  0.3739 -0.3954
12143TIP3    H136362   2.086   5.792   5.425 -2.3508  0.2115 -0.9798
12143TIP3    H236363   2.048   5.647   5.408 -1.1334 -0.2916  0.4697
12144TIP3   OH236364   2.779   5.956   4.650 -0.1334 -0.2410 -0.7692
12144TIP3    H136365   2.782   5.921   4.561 -0.5736 -1.7922 -0.1940
12144TIP3    H236366   2.806   5.883   4.705  2.2015  1.3068  0.2336
12145TIP3   OH236367   3.188   6.785   6.131 -0.2627 -0.2938  0.0322
12145TIP3    H136368   3.218   6.876   6.131  0.2629 -0.4563  1.0523
12145TIP3    H236369   3.196   6.758   6.223  1.2421 -1.8991 -0.5517
12146TIP3   OH236370   1.581   7.803   6.067  0.2089 -0.4526  0.2412
12146TIP3    H136371   1.511   7.838   6.012  1.1173  1.3741  0.2144
12146TIP3    H236372   1.558   7.829   6.156  1.7105  1.6630  0.0391
12147TIP3   OH236373   0.551   0.054   1.474 -0.3891 -0.3821 -0.4357
12147TIP3    H136374   0.498   0.040   1.396 -0.1335  1.2773 -0.9389
12147TIP3    H236375   0.587  -0.032   1.495 -0.6591 -0.8894 -2.0000
12148TIP3   OH236376   2.430   6.355   3.813 -0.8460 -0.0774 -0.1806
12148TIP3    H136377   2.335   6.368   3.806 -0.7573  0.2083 -0.9065
12148TIP3    H236378   2.465   6.392   3.732 -0.0214  0.7722  0.5529
12149TIP3   OH236379   2.075   6.479   3.502 -0.0832  0.4783 -0.0310
12149TIP3    H136380   2.059   6.570   3.476  0.2494 -0.0146 -1.9997
12149TIP3    H236381   1.999   6.431   3.471 -0.8050  0.2365  2.0183
12150TIP3   OH236382   6.542   2.692   5.803 -0.5630 -0.4888 -0.1836
12150TIP3    H136383   6.610   2.756   5.823 -1.4902  1.2776 -2.4299
12150TIP3    H236384   6.486   2.692   5.880  1.3906 -1.2113  1.2742
12151TIP3   OH236385   1.051   1.081   1.106 -0.0835 -0.0092  0.0277
12151TIP3    H136386   1.100   1.100   1.186  1.1108 -0.4868 -0.5730
12151TIP3    H236387   1.010   0.996   1.123  0.5445 -0.3317 -0.0229
12152TIP3   OH236388   1.961   7.401   5.922  0.0318 -0.0007  0.0659
12152TIP3    H136389   2.007   7.318   5.935  0.6197  0.2420 -0.3954
12152TIP3    H236390   1.876   7.377   5.886  0.4504 -0.3672 -0.6830
12153TIP3   OH236391   6.612   4.968   0.588  0.2900 -0.2715  0.0490
12153TIP3    H136392   6.644   5.047   0.633  0.5863 -0.5331  0.3023
12153TIP3    H236393   6.625   4.898   0.652 -0.3731 -0.4521 -0.0196
12154TIP3   OH236394   3.147   7.771   4.935  0.4728 -0.5790  0.3039
12154TIP3    H136395   3.092   7.693   4.942  0.7940 -0.8129  0.2583
12154TIP3    H236396   3.205   7.767   5.011  1.6534 -1.3041 -0.6149
12155TIP3   OH236397   1.347   4.832   5.989 -0.4021 -0.0329  0.2080
12155TIP3    H136398   1.388   4.917   5.972  0.5590 -0.7362 -1.0470
12155TIP3    H236399   1.293   4.847   6.067  0.6056  1.4389  0.6483
12156TIP3   OH236400   1.488   6.163   5.666  0.6177 -0.2993 -0.4515
12156TIP3    H136401   1.525   6.244   5.631  0.0073  0.2357  0.1294
12156TIP3    H236402   1.523   6.094   5.610  0.8420  0.4046 -1.1814
12157TIP3   OH236403   2.374   4.971   6.684  0.2844  0.1562 -0.2860
12157TIP3    H136404   2.284   4.961   6.717  0.8394  0.6060  1.4179
12157TIP3    H236405   2.415   5.033   6.744  1.3665  0.9630 -1.8236
12158TIP3   OH236406   8.299   0.929   0.495 -0.4260  0.2140 -0.3047
12158TIP3    H136407   8.286   1.008   0.546 -1.4732 -0.3019  0.2504
12158TIP3    H236408   8.388   0.901   0.515 -0.2176  0.9872 -0.1425
12159TIP3   OH236409   2.555   7.773   6.476 -0.1813  0.1215 -0.1418
12159TIP3    H136410   2.492   7.760   6.405 -2.0384  1.9372  1.1067
12159TIP3    H236411   2.501   7.791   6.553  1.8532  0.8195  1.1525
12160TIP3   OH236412   5.752   0.635   0.526 -0.0474  0.3519  1.0317
12160TIP3    H136413   5.801   0.556   0.551  0.7239  0.2498 -0.7085
12160TIP3    H236414   5.803   0.673   0.454  0.1912  3.0600  2.5654
12161TIP3   OH236415   3.535   6.243   6.610 -0.0576 -0.3517 -0.4251
12161TIP3    H136416   3.535   6.149   6.632  0.3611 -0.0067  1.1588
12161TIP3    H236417   3.535   6.245   6.515 -0.4565 -1.9672 -0.4885
12162TIP3   OH236418   1.565   7.494   6.582  0.2784  0.2693  0.1676
12162TIP3    H136419   1.492   7.551   6.606  0.6370  0.5551  0.5939
12162TIP3    H236420   1.566   7.495   6.486  0.4286  1.1718  0.1788
12163TIP3   OH236421   3.790   6.377   6.063 -0.3694  0.6949  0.5255
12163TIP3    H136422   3.824   6.455   6.020  0.6713 -0.7051 -1.2373
12163TIP3    H236423   3.846   6.365   6.139  0.8606  0.4002 -0.4254
12164TIP3   OH236424   2.940   3.170   5.024 -0.3021 -0.2303 -0.8663
12164TIP3    H136425   3.013   3.209   4.976 -0.4168 -0.7434 -1.4715
12164TIP3    H236426   2.889   3.124   4.957  0.2327 -2.0298 -0.0976
12165TIP3   OH236427   7.388   1.112   5.433 -0.2942  0.3917 -0.4606
12165TIP3    H136428   7.300   1.078   5.423 -0.1743  0.1574 -0.7191
12165TIP3    H236429   7.380   1.207   5.419 -0.7490  0.5821  0.9804
12166TIP3   OH236430   2.252   7.041   6.412 -0.2183  0.1528  0.7207
12166TIP3    H136431   2.215   7.049   6.500  0.1222  0.3818  0.8461
12166TIP3    H236432   2.230   7.123   6.369  1.7878  1.0952  1.4314
12167TIP3   OH236433   1.857   7.366   5.421  0.2012  0.2545  0.2998
12167TIP3    H136434   1.799   7.342   5.493  0.2216 -0.3037  0.1383
12167TIP3    H236435   1.938   7.317   5.438  0.0225 -0.3012 -0.3757
12168TIP3   OH236436   8.056   3.217   1.071  1.0623  0.2273 -0.1215
12168TIP3    H136437   8.092   3.130   1.055 -0.6122 -0.0627 -2.5853
12168TIP3    H236438   7.974   3.201   1.118  1.6379  0.6031  1.0366
12169TIP3   OH236439   6.672   0.355   5.104  0.3556  0.0326 -0.1885
12169TIP3    H136440   6.628   0.440   5.109  0.5956  0.2861 -2.0064
12169TIP3    H236441   6.743   0.369   5.042  0.5900 -1.4268 -0.2547
12170TIP3   OH236442   2.624   5.615   6.513 -0.6497  0.7280  0.4924
12170TIP3    H136443   2.689   5.552   6.482 -0.6371  0.3691  1.2409
12170TIP3    H236444   2.639   5.620   6.607 -0.6403  1.8670  0.4327
12171TIP3   OH236445   2.977   7.522   5.672  0.1726 -0.5179 -0.4340
12171TIP3    H136446   3.039   7.463   5.630  1.5816 -0.0905  0.9778
12171TIP3    H236447   3.030   7.596   5.700 -1.0880  0.1325  0.2707
12172TIP3   OH236448   0.035   4.723   1.553  0.4769  0.3370  0.3541
12172TIP3    H136449  -0.034   4.677   1.600 -0.6370  0.9948 -0.6019
12172TIP3    H236450   0.027   4.814   1.580  0.7325  0.4807 -0.0397
12173TIP3   OH236451   7.475   3.235   0.060  0.1191  0.0442 -0.1982
12173TIP3    H136452   7.432   3.151   0.072  0.6033 -0.1669  0.0526
12173TIP3    H236453   7.425   3.278  -0.010 -1.5262  0.4874  1.1984
12174TIP3   OH236454   5.176   1.009   3.722  0.2682 -0.2327 -0.2363
12174TIP3    H136455   5.087   0.972   3.716 -0.5211  1.7191 -1.0486
12174TIP3    H236456   5.162   1.101   3.743  2.1673 -0.1639  0.8066
12175TIP3   OH236457   6.224   0.270   6.864 -0.2405 -0.4433  0.4353
12175TIP3    H136458   6.219   0.331   6.790 -1.7228 -2.2514 -0.9969
12175TIP3    H236459   6.286   0.203   6.835  0.1585 -0.4866  1.3655
12176TIP3   OH236460   2.306   7.293   6.867 -0.1531 -0.1816  0.3228
12176TIP3    H136461   2.368   7.229   6.905 -0.7232  0.0898  1.7531
12176TIP3    H236462   2.222   7.248   6.869 -0.1796 -0.1651 -0.6462
12177TIP3   OH236463   1.886   5.423   6.414  0.1217 -0.0735 -0.2497
12177TIP3    H136464   1.897   5.331   6.389 -0.1763  0.2900 -1.7710
12177TIP3    H236465   1.814   5.454   6.359 -2.7669 -0.0992  3.3912
12178TIP3   OH236466   3.779   5.398   4.975  0.4386 -0.4417 -0.3086
12178TIP3    H136467   3.802   5.354   5.056  0.9891 -0.5502 -0.5212
12178TIP3    H236468   3.724   5.471   5.002  0.0510 -0.8846  0.1021
12179TIP3   OH236469   2.935   6.843   6.034 -0.7699  0.7563 -0.2752
12179TIP3    H136470   2.944   6.851   5.939 -2.4319 -2.1189 -0.7506
12179TIP3    H236471   3.022   6.819   6.065 -0.1252  2.1381 -1.0240
12180TIP3   OH236472   3.817   7.058   6.678 -0.0932 -0.2983 -0.2191
12180TIP3    H136473   3.807   7.029   6.588 -0.0914 -0.4373 -0.1742
12180TIP3    H236474   3.727   7.066   6.710 -0.0910 -0.3586 -0.1976
12181TIP3   OH236475   0.566   3.597   0.430  0.0923 -0.0033 -0.4783
12181TIP3    H136476   0.647   3.546   0.426  0.0412 -0.1375  0.2313
12181TIP3    H236477   0.501   3.537   0.466 -0.0483  0.4614  0.0548
12182TIP3   OH236478   0.353   1.050   1.822  0.0077 -0.3845 -0.3292
12182TIP3    H136479   0.381   0.958   1.825  0.0654 -0.3383  0.6847
12182TIP3    H236480   0.341   1.074   1.913  1.1916  1.0040 -0.5306
12183TIP3   OH236481   2.372   5.642   6.172 -0.3894  0.1496 -0.1892
12183TIP3    H136482   2.461   5.642   6.137 -0.5951 -0.1946 -0.7162
12183TIP3    H236483   2.315   5.635   6.095 -0.8671  0.2429  0.1500
12184TIP3   OH236484   2.682   6.499   6.632 -0.2961 -0.3351 -0.4289
12184TIP3    H136485   2.641   6.487   6.547 -2.3424  0.8494  0.3625
12184TIP3    H236486   2.660   6.588   6.658  1.3971 -0.2327  0.7685
12185TIP3   OH236487   3.614   4.612   6.498  0.2158 -0.3319  0.3931
12185TIP3    H136488   3.563   4.692   6.490  0.8742  0.1184  0.6021
12185TIP3    H236489   3.705   4.642   6.495  0.5071 -1.3460 -2.3822
12186TIP3   OH236490   3.637   6.879   6.891 -0.0097 -0.2103  0.4550
12186TIP3    H136491   3.660   6.966   6.924 -1.7722  0.0885  0.9663
12186TIP3    H236492   3.721   6.835   6.878  0.9484  2.0128 -1.0769
12187TIP3   OH236493   4.294   6.492   4.824 -0.5010 -1.0232 -0.1172
12187TIP3    H136494   4.230   6.426   4.796 -0.9597 -0.9606  0.7603
12187TIP3    H236495   4.310   6.472   4.916 -0.9272  0.3100  0.2639
12188TIP3   OH236496   8.226   1.918   3.159 -0.1151  0.1400 -0.2128
12188TIP3    H136497   8.306   1.959   3.127  0.6793  0.0423  1.6007
12188TIP3    H236498   8.248   1.825   3.166 -0.8297 -0.0958 -1.0265
12189TIP3   OH236499   0.440   6.541   4.869  0.8271 -0.0019  0.3319
12189TIP3    H136500   0.384   6.515   4.796  0.8176  0.5161  0.1492
12189TIP3    H236501   0.516   6.483   4.863 -0.0416 -1.2163  1.0389
12190TIP3   OH236502   2.772   5.461   5.485  0.3151 -0.1104 -0.1636
12190TIP3    H136503   2.770   5.376   5.442 -1.0357  0.3458 -1.0333
12190TIP3    H236504   2.747   5.442   5.576  2.9724 -1.0393  0.4238
12191TIP3   OH236505   2.323   3.249   6.474  0.4451  0.5791  0.5413
12191TIP3    H136506   2.230   3.249   6.450  0.7516 -1.1125 -0.7321
12191TIP3    H236507   2.326   3.301   6.555 -1.6388  0.4699  0.7352
12192TIP3   OH236508   4.397   6.947   5.734  0.3743 -0.1397 -0.3711
12192TIP3    H136509   4.390   6.891   5.811 -0.2655  0.9360  0.3608
12192TIP3    H236510   4.308   6.953   5.700  0.0482  2.1831  0.8182
12193TIP3   OH236511   6.162   3.352   0.353 -0.4138 -0.2243 -0.2127
12193TIP3    H136512   6.080   3.359   0.403 -0.2501 -0.3665  0.0732
12193TIP3    H236513   6.158   3.266   0.312 -0.4246 -0.2167 -0.2269
12194TIP3   OH236514   0.306   4.949   6.738 -0.2449  0.0649  0.3152
12194TIP3    H136515   0.233   4.899   6.701  0.9492  0.0764 -2.1668
12194TIP3    H236516   0.381   4.889   6.731  0.9250  1.6623 -1.4669
12195TIP3   OH236517   7.135   1.265   2.114 -0.3764 -0.1468  0.1830
12195TIP3    H136518   7.212   1.222   2.076  0.2109 -0.0702  1.2563
12195TIP3    H236519   7.164   1.353   2.136 -0.3869 -0.5137  1.7585
12196TIP3   OH236520   5.028   6.538   5.814 -0.1131  0.1153 -0.1961
12196TIP3    H136521   5.006   6.453   5.853 -2.5701  1.8565  2.4113
12196TIP3    H236522   4.992   6.534   5.726 -1.0122 -1.2361  0.2069
12197TIP3   OH236523   1.920   2.245   0.387  0.4839  0.5753 -0.3125
12197TIP3    H136524   1.856   2.259   0.457  0.1336 -1.0641 -0.2732
12197TIP3    H236525   2.005   2.246   0.431  0.2619 -0.5012  0.1500
12198TIP3   OH236526   8.462   2.166   0.445 -0.3205  0.4837  0.0294
12198TIP3    H136527   8.439   2.166   0.538 -0.2422  1.6460  0.0605
12198TIP3    H236528   8.434   2.252   0.413  0.0736  0.2723 -0.9148
12199TIP3   OH236529   0.155   3.249   0.680  0.6628  0.4506 -0.2056
12199TIP3    H136530   0.145   3.304   0.757  0.3870 -0.7674  0.6398
12199TIP3    H236531   0.105   3.294   0.612 -2.7071 -0.6162  1.4338
12200TIP3   OH236532   0.913   0.835   2.225 -0.4344  0.2105 -0.0075
12200TIP3    H136533   0.902   0.921   2.185 -1.0974  0.1681  0.0753
12200TIP3    H236534   0.919   0.853   2.319 -1.0434  0.1322  0.0501
12201TIP3   OH236535   2.643   7.113   5.695 -0.1596 -0.3049  0.2361
12201TIP3    H136536   2.631   7.189   5.638 -0.9190  0.5263  1.4742
12201TIP3    H236537   2.734   7.088   5.683  0.1663  0.9665  0.0050
12202TIP3   OH236538   2.045   5.959   5.354  0.1142 -0.7045 -0.3757
12202TIP3    H136539   2.019   6.033   5.299  0.5462 -0.1706  0.1213
12202TIP3    H236540   2.134   5.981   5.382 -0.2891 -0.7098  0.9523
12203TIP3   OH236541   2.457   5.934   4.194  0.5324 -0.3990 -0.4258
12203TIP3    H136542   2.466   5.852   4.146  0.1416  0.0363 -1.2601
12203TIP3    H236543   2.443   6.000   4.126 -1.6297  0.0073  0.3607
12204TIP3   OH236544   1.783   7.132   6.301 -0.4074  0.0954 -0.3166
12204TIP3    H136545   1.850   7.065   6.293 -1.2121 -0.5911 -1.5467
12204TIP3    H236546   1.831   7.215   6.300  0.4910 -0.4207 -0.0697
12205TIP3   OH236547   6.115   1.696   5.749  0.2668 -0.5167 -0.5798
12205TIP3    H136548   6.102   1.770   5.808  3.1830  0.6548 -1.3563
12205TIP3    H236549   6.106   1.733   5.661 -2.2324 -1.9010 -0.9628
12206TIP3   OH236550   2.559   6.846   4.960 -0.2572  0.2272 -0.6129
12206TIP3    H136551   2.525   6.927   4.996  1.1733  1.2187 -1.4352
12206TIP3    H236552   2.495   6.820   4.894 -0.9685  0.4026  0.0003
12207TIP3   OH236553   1.915   2.284   1.698  0.0784 -0.1485  0.0839
12207TIP3    H136554   1.851   2.279   1.628 -0.7914  0.4907  0.8182
12207TIP3    H236555   1.992   2.325   1.658 -1.1699  2.2057  0.0286
12208TIP3   OH236556   1.681   2.842   0.924  0.5939 -0.0342  0.0724
12208TIP3    H136557   1.634   2.917   0.889  0.2489 -0.2202  0.1347
12208TIP3    H236558   1.743   2.818   0.854  1.6827  1.1654  0.6044
12209TIP3   OH236559   4.864   5.790   4.080 -0.0180  0.0595  0.0881
12209TIP3    H136560   4.956   5.804   4.100  0.4778  0.5928 -2.3953
12209TIP3    H236561   4.822   5.874   4.098  0.4170  0.5301 -1.0562
12210TIP3   OH236562   2.535   6.126   5.712 -0.1076 -0.0070 -0.5100
12210TIP3    H136563   2.614   6.118   5.765  1.4377 -0.8702 -2.8856
12210TIP3    H236564   2.558   6.187   5.642 -1.6309 -0.0239 -1.0515
12211TIP3   OH236565   1.075   0.797   0.482 -0.2306 -0.6804  0.0049
12211TIP3    H136566   0.998   0.818   0.428 -0.0508 -0.4669 -0.1686
12211TIP3    H236567   1.134   0.750   0.422  1.0222  1.6686 -0.6739
12212TIP3   OH236568   4.514   6.216   6.614 -0.2579  0.6775  0.2054
12212TIP3    H136569   4.488   6.220   6.522 -0.0007  1.8331  0.1779
12212TIP3    H236570   4.592   6.160   6.614 -0.7701 -0.0389 -0.1584
12213TIP3   OH236571   1.977   6.317   5.796  0.6124 -0.3211 -0.0383
12213TIP3    H136572   1.927   6.245   5.759 -0.6211  0.7882 -0.6157
12213TIP3    H236573   2.066   6.304   5.765 -0.1494 -0.0606 -2.4703
12214TIP3   OH236574   1.543   5.292   4.906  0.0085 -0.1931  0.2214
12214TIP3    H136575   1.564   5.323   4.994 -1.9263  0.7472  0.3641
12214TIP3    H236576   1.627   5.262   4.871  0.6519 -1.3513  2.6787
12215TIP3   OH236577   2.325   7.477   6.385 -0.1159 -0.4511  0.0537
12215TIP3    H136578   2.372   7.398   6.413 -1.1374 -0.9124  0.5084
12215TIP3    H236579   2.269   7.499   6.460 -1.2470 -0.4144 -0.7867
12216TIP3   OH236580   3.134   3.258   0.796 -0.7879 -0.0480 -0.0283
12216TIP3    H136581   3.173   3.171   0.785  1.4899  0.4105  3.5663
12216TIP3    H236582   3.151   3.303   0.713  0.7486 -1.9952 -0.8108
12217TIP3   OH236583   7.988   3.798   1.253  0.2159 -0.2226 -0.1199
12217TIP3    H136584   7.975   3.875   1.198 -0.4341 -0.2218  0.0259
12217TIP3    H236585   8.041   3.829   1.326  0.0500  0.0629 -0.1203
12218TIP3   OH236586   1.325   4.750   5.534  0.2991 -0.1872  0.1480
12218TIP3    H136587   1.420   4.756   5.544  0.2074  1.6292  0.1537
12218TIP3    H236588   1.312   4.681   5.469  1.5474 -1.5079  1.2594
12219TIP3   OH236589   6.625   2.128   0.114  0.1200  0.4486 -0.1714
12219TIP3    H136590   6.674   2.126   0.031 -0.4221 -0.4584 -0.4741
12219TIP3    H236591   6.556   2.063   0.103 -0.5872  1.0465  0.6124
12220TIP3   OH236592   4.761   6.097   6.599  0.0690 -0.3043  0.0739
12220TIP3    H136593   4.751   6.063   6.510  0.7462 -0.8426  0.1969
12220TIP3    H236594   4.808   6.180   6.587 -1.3715  0.4771 -0.2058
12221TIP3   OH236595   5.233   1.863   3.610 -0.2537 -0.0320 -0.1878
12221TIP3    H136596   5.287   1.843   3.687 -0.5168  0.2179  0.0626
12221TIP3    H236597   5.279   1.935   3.567 -1.1632  1.1728  0.8343
12222TIP3   OH236598   8.426   2.322   1.517  0.0752  0.3751 -0.2105
12222TIP3    H136599   8.414   2.336   1.423 -0.8636  1.7553  0.0970
12222TIP3    H236600   8.342   2.345   1.556  0.8628  1.1113  1.0987
12223TIP3   OH236601   2.269   1.543   0.542  0.0819 -0.2371 -0.1103
12223TIP3    H136602   2.235   1.486   0.610  1.0686 -2.3315 -1.3143
12223TIP3    H236603   2.192   1.587   0.506 -0.8646 -1.9140 -0.1611
12224TIP3   OH236604   8.279   1.507   0.364 -0.6273 -0.3801 -0.2928
12224TIP3    H136605   8.348   1.517   0.429 -1.4136 -0.9572  0.6328
12224TIP3    H236606   8.320   1.535   0.282  1.0967 -1.9071  0.0029
12225TIP3   OH236607   7.158   0.842   0.095 -0.1266  0.3035 -0.1085
12225TIP3    H136608   7.209   0.783   0.039  2.9926  2.5401  0.2290
12225TIP3    H236609   7.095   0.883   0.036 -0.5746 -1.3992 -0.8482
12226TIP3   OH236610   7.753   1.699   0.822  0.3846 -0.0587 -0.1972
12226TIP3    H136611   7.735   1.673   0.732  1.8188 -0.3219 -0.4102
12226TIP3    H236612   7.835   1.655   0.844 -0.2736 -0.4963  1.4492
12227TIP3   OH236613   0.303   0.868   0.372  0.0416 -0.1837  0.6363
12227TIP3    H136614   0.250   0.826   0.305  0.8350 -1.6162  0.8987
12227TIP3    H236615   0.339   0.796   0.423  0.5053  0.8505  1.7948
12228TIP3   OH236616   3.670   4.900   5.225  0.2435 -0.5444 -1.1098
12228TIP3    H136617   3.581   4.882   5.255  0.6997  1.7505  1.7549
12228TIP3    H236618   3.708   4.813   5.211 -1.2623 -1.6464  1.2658
12229TIP3   OH236619   2.473   4.955   5.929 -0.7147  0.2810 -0.4112
12229TIP3    H136620   2.387   4.990   5.908 -0.9603  0.5196  0.9062
12229TIP3    H236621   2.516   5.026   5.978  0.0112 -0.0444 -0.5770
12230TIP3   OH236622   3.275   6.940   5.268 -0.0987 -0.0883  1.0442
12230TIP3    H136623   3.203   6.969   5.212 -0.5108  0.2515  1.7450
12230TIP3    H236624   3.235   6.928   5.354  0.6972  0.1721  1.4556
12231TIP3   OH236625   5.943   7.249   2.777 -0.5872 -0.1368 -0.6347
12231TIP3    H136626   5.884   7.176   2.797 -0.2341 -0.1261  0.4529
12231TIP3    H236627   5.996   7.259   2.855  0.4197  0.2853 -1.3643
12232TIP3   OH236628   1.872   7.650   6.635  0.4643  0.4988 -0.5299
12232TIP3    H136629   1.805   7.607   6.688 -0.6225  0.5168 -1.8643
12232TIP3    H236630   1.873   7.740   6.666  0.5139  0.2830  0.1079
12233TIP3   OH236631   0.548   3.019   0.841  0.0341 -0.1426  0.0510
12233TIP3    H136632   0.629   3.039   0.794 -1.2203 -0.1610 -2.2029
12233TIP3    H236633   0.499   3.101   0.838 -0.9173 -0.7184 -0.4919
12234TIP3   OH236634   1.488   6.194   5.949  0.3854  0.4586 -0.9279
12234TIP3    H136635   1.574   6.155   5.965  0.0858  0.1300 -0.0820
12234TIP3    H236636   1.478   6.192   5.854  1.9603  1.8921 -1.1523
12235TIP3   OH236637   5.344   0.169   6.629 -0.3558  0.1645 -0.1637
12235TIP3    H136638   5.295   0.125   6.559  1.5654  1.1961 -2.2196
12235TIP3    H236639   5.416   0.212   6.584  1.8759 -0.4713  2.6661
12236TIP3   OH236640   0.840   0.297   2.369  0.0845  0.4081 -0.2459
12236TIP3    H136641   0.749   0.269   2.369 -0.1684  1.1510 -1.4956
12236TIP3    H236642   0.838   0.386   2.333  1.4094  0.0151 -1.3564
12237TIP3   OH236643   4.421   3.852   5.121  0.1834 -0.2915  0.2655
12237TIP3    H136644   4.349   3.827   5.179  0.2264  0.7824  0.8096
12237TIP3    H236645   4.387   3.928   5.074  1.2884  0.8371  1.2329
12238TIP3   OH236646   4.638   0.331   4.208  0.3286 -0.3881  0.1970
12238TIP3    H136647   4.652   0.236   4.205 -0.1542 -0.4692  0.5032
12238TIP3    H236648   4.576   0.349   4.137  0.1295 -0.3506  0.3820
12239TIP3   OH236649   5.752   1.120   6.494  0.8523  0.1442 -0.4116
12239TIP3    H136650   5.847   1.109   6.490  1.1445  2.3337  0.1038
12239TIP3    H236651   5.734   1.191   6.433 -0.1207  1.7003  1.6389
12240TIP3   OH236652   7.466   4.393  -0.010 -0.3107 -0.6186  0.3210
12240TIP3    H136653   7.437   4.475  -0.052 -0.0227 -1.5004 -1.6578
12240TIP3    H236654   7.515   4.422   0.067  2.8111  1.2356 -2.2508
12241TIP3   OH236655   2.306   6.401   5.460  1.1293  0.6428  0.2523
12241TIP3    H136656   2.362   6.327   5.437 -0.3811 -0.6112  0.5139
12241TIP3    H236657   2.299   6.398   5.555  0.9803  1.0619  0.2587
12242TIP3   OH236658   4.696   7.893   3.601  0.3440 -0.1335  0.2162
12242TIP3    H136659   4.623   7.853   3.553  2.1599 -2.6266 -0.5400
12242TIP3    H236660   4.717   7.972   3.551  0.0452 -0.9383 -1.2050
12243TIP3   OH236661   1.704   5.698   5.497  0.7249 -0.2211 -0.1031
12243TIP3    H136662   1.722   5.647   5.418 -0.1124 -1.9269  0.7681
12243TIP3    H236663   1.718   5.789   5.471 -0.6439 -0.6602 -2.5235
12244TIP3   OH236664   8.242   2.069   1.362 -0.3539  0.0916  0.3620
12244TIP3    H136665   8.190   2.032   1.291 -0.6697  0.3928  0.4370
12244TIP3    H236666   8.298   2.134   1.320  0.5433 -0.7928  0.1538
12245TIP3   OH236667   2.663   5.388   5.726 -0.1748  0.2454 -0.1283
12245TIP3    H136668   2.691   5.299   5.704 -0.1375  0.0554  0.6545
12245TIP3    H236669   2.716   5.412   5.803 -1.2803  0.3404  0.6194
12246TIP3   OH236670   3.551   5.115   6.450  0.1382 -0.3210 -0.2352
12246TIP3    H136671   3.636   5.143   6.484 -0.1941  0.8223 -0.3403
12246TIP3    H236672   3.555   5.133   6.356  0.3456 -1.7127 -0.5133
12247TIP3   OH236673   4.809   7.415   4.896  0.2810 -0.3703 -0.2445
12247TIP3    H136674   4.786   7.506   4.911 -1.0772 -0.8802  0.8809
12247TIP3    H236675   4.752   7.387   4.824  0.6166 -0.3561 -0.5149
12248TIP3   OH236676   2.114   5.606   4.996  0.1838 -0.6079  0.3453
12248TIP3    H136677   2.167   5.647   4.928  1.1336 -3.5130 -0.7453
12248TIP3    H236678   2.177   5.567   5.056 -0.6465 -2.8384 -0.1707
12249TIP3   OH236679   1.663   4.967   6.230 -0.2184 -0.0675 -0.0300
12249TIP3    H136680   1.587   5.022   6.211 -0.2723  0.6389  2.0886
12249TIP3    H236681   1.662   4.900   6.162 -1.5478  1.1406 -1.2308
12250TIP3   OH236682   6.095   0.809   0.093 -0.1547 -0.4209  0.6223
12250TIP3    H136683   6.160   0.870   0.058  0.3243 -1.5188 -0.4447
12250TIP3    H236684   6.146   0.749   0.148 -0.4336 -0.6176  0.6669
12251TIP3   OH236685   7.473   2.333   0.289  0.3915  0.2667 -0.2673
12251TIP3    H136686   7.504   2.362   0.375  2.3758  0.9451 -1.1517
12251TIP3    H236687   7.415   2.259   0.307 -1.0368  1.8245  1.7791
12252TIP3   OH236688   1.728   6.733   5.270  0.0076  0.2022  0.1570
12252TIP3    H136689   1.770   6.817   5.250  0.0194 -0.1138 -1.1625
12252TIP3    H236690   1.691   6.704   5.187 -1.4394 -0.3051  0.9697
12253TIP3   OH236691   2.215   7.406   5.285 -0.0170  0.0502 -0.7182
12253TIP3    H136692   2.280   7.336   5.280  0.5000  0.6041 -2.1708
12253TIP3    H236693   2.180   7.401   5.374  1.8050 -0.4530 -0.0025
12254TIP3   OH236694   7.668   0.103   0.140 -0.5090  0.0898 -0.4943
12254TIP3    H136695   7.678   0.140   0.052 -2.0021  0.7938 -0.3814
12254TIP3    H236696   7.620   0.021   0.126 -0.3251 -0.0366 -0.3871
12255TIP3   OH236697   1.942   6.114   5.577  0.4299  0.2024 -0.2299
12255TIP3    H136698   1.968   6.075   5.493  0.4135 -0.4155  0.0453
12255TIP3    H236699   1.859   6.158   5.559 -1.0422 -2.3522  0.1083
12256TIP3   OH236700   3.455   6.844   5.557 -0.0516 -0.6370  0.1558
12256TIP3    H136701   3.440   6.752   5.582  2.2503 -0.5052  2.1556
12256TIP3    H236702   3.367   6.878   5.541 -1.1949 -2.4095  2.2784
12257TIP3   OH236703   1.476   7.717   5.491 -0.0000  0.3153  0.2569
12257TIP3    H136704   1.545   7.761   5.440 -0.5903 -0.9857 -1.7162
12257TIP3    H236705   1.511   7.713   5.580  1.5348  1.6355 -0.2541
12258TIP3   OH236706   5.909   2.520   0.598 -0.5312 -0.3206 -0.0750
12258TIP3    H136707   5.851   2.594   0.617 -1.2047 -0.3232 -1.9736
12258TIP3    H236708   5.851   2.445   0.592 -0.1431 -0.6016 -0.3876
12259TIP3   OH236709   4.292   7.229   5.410 -0.1302  0.2232  0.2015
12259TIP3    H136710   4.231   7.155   5.405 -0.8462  0.8851 -1.2456
12259TIP3    H236711   4.340   7.215   5.492 -2.9056  0.1809  1.9034
12260TIP3   OH236712   4.481   0.376   4.710 -0.2771  0.9258 -0.2109
12260TIP3    H136713   4.439   0.449   4.664  1.1681  0.7944 -1.7916
12260TIP3    H236714   4.546   0.343   4.648  1.3715  0.3936  1.7449
12261TIP3   OH236715   1.476   1.890   0.499  0.1604 -0.0829 -0.5534
12261TIP3    H136716   1.532   1.829   0.546 -0.7127 -1.0080 -0.7158
12261TIP3    H236717   1.533   1.926   0.430  0.6140 -0.8421 -0.5751
12262TIP3   OH236718   2.172   7.750   5.767 -0.0108 -0.0633  0.5918
12262TIP3    H136719   2.259   7.709   5.763  0.4391  1.0206 -0.9087
12262TIP3    H236720   2.183   7.823   5.828  0.0739 -0.0702  0.5855
12263TIP3   OH236721   3.778   0.693   0.828 -0.2404  0.2816  0.4453
12263TIP3    H136722   3.852   0.632   0.839  0.9052  1.8160  1.4900
12263TIP3    H236723   3.791   0.758   0.897 -1.8244  1.3411 -0.2393
12264TIP3   OH236724   4.006   6.156   5.028 -0.4301 -0.0724  0.2523
12264TIP3    H136725   3.961   6.072   5.020 -1.3660  0.3746  0.8321
12264TIP3    H236726   4.023   6.166   5.121 -1.5619  1.0285  0.3514
12265TIP3   OH236727   2.680   3.157   0.771  1.0176  0.0081  0.1213
12265TIP3    H136728   2.606   3.210   0.800  0.0130 -0.9617 -0.6265
12265TIP3    H236729   2.641   3.088   0.717  2.6917  1.0415 -2.5599
12266TIP3   OH236730   5.810   6.079   4.352  0.0052  0.0671 -0.4274
12266TIP3    H136731   5.828   6.120   4.267 -2.9093 -0.3500 -1.2993
12266TIP3    H236732   5.754   6.005   4.331 -2.2786  1.0305  2.0179
12267TIP3   OH236733   2.866   7.844   6.096 -0.4683  0.0912 -0.6756
12267TIP3    H136734   2.837   7.931   6.071 -0.1416  0.4543  0.1844
12267TIP3    H236735   2.899   7.854   6.186  1.5783 -0.4834 -1.3431
12268TIP3   OH236736   6.995   0.388   6.801  0.1939 -0.7223 -0.5767
12268TIP3    H136737   6.929   0.434   6.749  0.5406 -0.0579 -0.4438
12268TIP3    H236738   7.078   0.412   6.760  0.5772  0.8563  1.0275
12269TIP3   OH236739   4.464   5.872   5.527  0.3762 -0.3454  0.0138
12269TIP3    H136740   4.479   5.960   5.494  2.7791 -0.4806  0.6160
12269TIP3    H236741   4.496   5.815   5.457  2.5405 -0.6607  1.2038
12270TIP3   OH236742   4.402   5.777   5.055 -0.0395  0.1717 -0.0347
12270TIP3    H136743   4.490   5.743   5.040 -0.4478 -1.1526  0.5378
12270TIP3    H236744   4.358   5.770   4.971  0.0594 -0.1864 -0.0576
12271TIP3   OH236745   4.091   5.424   5.911  0.5601 -0.5071  0.3191
12271TIP3    H136746   4.147   5.490   5.870  1.4734 -1.1517  0.5287
12271TIP3    H236747   4.003   5.446   5.879  0.8492  0.7901  0.3635
12272TIP3   OH236748   4.505   4.688   4.546 -0.0334 -0.2006 -0.4740
12272TIP3    H136749   4.577   4.749   4.528  0.5035 -0.4681  0.6533
12272TIP3    H236750   4.435   4.742   4.581  0.4621 -0.2081  0.5759
12273TIP3   OH236751   4.699   4.855   6.336  0.2825  0.2431  0.2555
12273TIP3    H136752   4.629   4.804   6.294  0.2641 -0.2752  0.9167
12273TIP3    H236753   4.726   4.918   6.269  0.3371 -0.6646 -0.5860
12274TIP3   OH236754   6.115   5.472   4.626  0.2177 -0.7789 -0.7890
12274TIP3    H136755   6.025   5.488   4.600  0.0731  0.6652  0.5157
12274TIP3    H236756   6.167   5.497   4.550 -0.3828  0.1204 -0.9085
12275TIP3   OH236757   3.857   7.310   5.816  0.0830 -0.3661  0.3097
12275TIP3    H136758   3.857   7.215   5.819 -0.2542 -0.3914 -0.5027
12275TIP3    H236759   3.858   7.332   5.723  0.4827  0.4225  0.4917
12276TIP3   OH236760   4.216   5.611   6.566  0.3999 -0.0133  0.2834
12276TIP3    H136761   4.300   5.577   6.598  2.1804  1.8848 -2.1096
12276TIP3    H236762   4.240   5.689   6.516 -2.6514 -0.3683 -1.8857
12277TIP3   OH236763   6.641   5.540   3.925  0.3365  1.2117  0.0947
12277TIP3    H136764   6.710   5.563   3.988  1.3099  3.0737 -1.6095
12277TIP3    H236765   6.646   5.608   3.858 -1.5827  0.0044 -1.3150
12278TIP3   OH236766   5.162   6.777   5.881  0.0589  0.0887  0.2586
12278TIP3    H136767   5.110   6.698   5.871  0.5130 -0.4155  1.7950
12278TIP3    H236768   5.235   6.766   5.820  0.9122 -1.3634  1.4957
12279TIP3   OH236769   3.374   6.538   6.191 -0.1091  0.1992 -0.0571
12279TIP3    H136770   3.304   6.499   6.139  0.4469 -1.5762  0.5141
12279TIP3    H236771   3.331   6.566   6.272  0.0458 -1.8733  0.7479
12280TIP3   OH236772   2.771   7.541   5.463  0.5443 -0.0979  0.3304
12280TIP3    H136773   2.858   7.543   5.503  0.7467 -1.4056 -0.0189
12280TIP3    H236774   2.764   7.625   5.417  1.2241  0.4330  1.1615
12281TIP3   OH236775   5.452   5.287   6.639  0.1657  0.6799  0.3684
12281TIP3    H136776   5.393   5.360   6.622  1.8379  1.8576 -0.5931
12281TIP3    H236777   5.444   5.232   6.561  1.5475  1.7176 -0.5425
12282TIP3   OH236778   6.108   0.745   5.943  0.3055  0.3017  0.0490
12282TIP3    H136779   6.109   0.792   5.860  0.0001 -0.5349 -0.4323
12282TIP3    H236780   6.137   0.657   5.922  0.2255  0.0824  0.8294
12283TIP3   OH236781   5.259   6.852   4.460 -0.1198 -0.3103  0.3737
12283TIP3    H136782   5.218   6.938   4.447 -1.1089 -0.5546  1.7208
12283TIP3    H236783   5.246   6.806   4.377  1.2279  1.1532 -0.6787
12284TIP3   OH236784   3.390   4.675   0.282 -0.1586  0.2320  0.2815
12284TIP3    H136785   3.298   4.666   0.304 -0.1427  3.7357  2.1660
12284TIP3    H236786   3.436   4.655   0.363  0.6088  1.0323  0.0501
12285TIP3   OH236787   3.119   5.085   5.340  0.3371 -0.0955 -0.2444
12285TIP3    H136788   3.206   5.125   5.335  0.4493 -0.0692  1.6746
12285TIP3    H236789   3.127   5.020   5.410 -1.9939  1.9893  2.0534
12286TIP3   OH236790   4.856   7.193   4.433 -0.1226 -0.4565  0.0969
12286TIP3    H136791   4.920   7.264   4.438 -0.1919 -0.2639 -1.4877
12286TIP3    H236792   4.774   7.233   4.460  0.4420 -0.7418  2.2830
12287TIP3   OH236793   6.197   0.465   4.668  0.1373  0.0283  0.7251
12287TIP3    H136794   6.280   0.419   4.669 -0.1823 -0.5554  1.3094
12287TIP3    H236795   6.172   0.470   4.576  1.4152  1.3115  0.4304
12288TIP3   OH236796   4.186   7.613   6.461 -0.3826 -0.0006 -0.0172
12288TIP3    H136797   4.189   7.658   6.546  0.5971  0.5364 -0.3374
12288TIP3    H236798   4.211   7.680   6.397 -2.3282 -0.0462 -0.8908
12289TIP3   OH236799   3.544   6.634   4.463 -0.0821  0.2457 -0.9436
12289TIP3    H136800   3.491   6.612   4.540  1.8599 -0.9993  0.0630
12289TIP3    H236801   3.552   6.729   4.467 -1.5659  0.3854 -0.6830
12290TIP3   OH236802   5.223   6.079   4.805 -0.1823  0.0838  0.4271
12290TIP3    H136803   5.138   6.087   4.849 -0.3724  0.4183  0.0152
12290TIP3    H236804   5.254   5.991   4.828 -0.0367  0.4420  1.6223
12291TIP3   OH236805   5.875   7.374   5.057  0.3681 -0.4626  0.6743
12291TIP3    H136806   5.795   7.351   5.104  1.4257 -2.0599  1.7985
12291TIP3    H236807   5.864   7.465   5.032 -2.3227 -1.0133 -0.3099
12292TIP3   OH236808   6.441   0.030   2.619  0.2544  0.1672 -0.2806
12292TIP3    H136809   6.401  -0.056   2.634  0.9793 -0.2867 -0.9008
12292TIP3    H236810   6.385   0.071   2.554 -1.5440  1.1961  1.8381
12293TIP3   OH236811   1.009   0.415   1.334  0.6632  0.0256  0.4203
12293TIP3    H136812   0.982   0.350   1.269 -0.3892  0.0504  0.8332
12293TIP3    H236813   0.984   0.376   1.418 -0.1828  1.0782  0.6532
12294TIP3   OH236814   0.975   3.878   0.227 -0.1954 -0.1717 -0.4798
12294TIP3    H136815   0.992   3.842   0.140 -0.7372 -0.3950 -0.4969
12294TIP3    H236816   1.053   3.857   0.278 -0.5961 -1.5627 -0.4317
12295TIP3   OH236817   5.397   6.807   5.713  0.3649 -0.0241  0.5471
12295TIP3    H136818   5.461   6.843   5.652 -0.4201  0.3203 -0.0878
12295TIP3    H236819   5.321   6.786   5.658 -0.0502 -0.4636  1.2819
12296TIP3   OH236820   1.875   0.968   0.553  0.0919  0.3877 -0.2275
12296TIP3    H136821   1.877   0.934   0.643  0.6937 -1.0001 -0.7395
12296TIP3    H236822   1.943   0.918   0.507  1.8580  3.1677 -0.7438
12297TIP3   OH236823   5.988   7.676   3.526  0.0307 -0.4557 -0.3625
12297TIP3    H136824   6.066   7.732   3.527  0.6319 -1.2742 -0.5453
12297TIP3    H236825   5.916   7.735   3.507  0.9040 -0.0377 -2.4517
12298TIP3   OH236826   3.702   7.824   2.417  0.1419  0.5472  0.2629
12298TIP3    H136827   3.627   7.798   2.470  0.1714  1.4197  0.7399
12298TIP3    H236828   3.675   7.906   2.376 -0.3271 -0.6624 -2.0091
12299TIP3   OH236829   2.856   3.778   0.315  0.0171  0.3950  0.3259
12299TIP3    H136830   2.793   3.836   0.272 -0.3289  0.2751  0.6761
12299TIP3    H236831   2.867   3.705   0.253  0.2559  0.7018  0.0035
12300TIP3   OH236832   2.901   7.756   4.626  0.0784  0.1582  0.7070
12300TIP3    H136833   2.877   7.777   4.536 -1.6736  0.5577  1.2560
12300TIP3    H236834   2.994   7.735   4.621 -0.0733 -0.1748 -1.2592
12301TIP3   OH236835   2.092   3.459   0.097  0.3457  0.5255  0.3527
12301TIP3    H136836   2.127   3.543   0.127  0.1206  0.8848 -0.3723
12301TIP3    H236837   2.128   3.448   0.009  0.9017 -0.4563  0.6993
12302TIP3   OH236838   5.831   4.824   5.121 -0.0369 -0.6903  0.6797
12302TIP3    H136839   5.802   4.789   5.036 -1.2337 -2.0346  1.6077
12302TIP3    H236840   5.926   4.834   5.112 -0.2211 -0.3090 -0.9980
12303TIP3   OH236841   2.402   6.260   6.276 -0.3760 -0.1669  0.2401
12303TIP3    H136842   2.349   6.184   6.254 -1.7278  1.3668 -2.0815
12303TIP3    H236843   2.339   6.326   6.306  0.4902  0.7857  0.0330
12304TIP3   OH236844   4.384   7.382   4.119 -0.7969 -0.5893 -0.2875
12304TIP3    H136845   4.459   7.332   4.085 -0.5152 -0.0108 -0.5280
12304TIP3    H236846   4.346   7.325   4.185 -0.2615 -0.9749 -0.3019
12305TIP3   OH236847   5.697   6.323   6.703  0.0472 -1.1868  0.2157
12305TIP3    H136848   5.773   6.266   6.690  1.2412  0.9150 -2.5445
12305TIP3    H236849   5.732   6.396   6.755  0.1027  0.0697 -1.5501
12306TIP3   OH236850   1.117   0.430   3.835 -0.4839  0.2015  0.2298
12306TIP3    H136851   1.177   0.384   3.776  0.1382 -0.6910  1.5324
12306TIP3    H236852   1.172   0.495   3.880 -0.7972  0.3719  0.3750
12307TIP3   OH236853   5.110   6.513   6.544  0.2513 -0.0251 -0.2983
12307TIP3    H136854   5.187   6.560   6.511  0.9419 -1.0981 -0.2352
12307TIP3    H236855   5.127   6.503   6.637 -0.0659 -0.0770 -0.2480
12308TIP3   OH236856   4.191   7.102   4.583 -0.4994 -1.0251  0.2419
12308TIP3    H136857   4.208   7.087   4.676 -0.7247  0.8427  0.5930
12308TIP3    H236858   4.278   7.102   4.542 -0.2549  0.0152  0.7448
12309TIP3   OH236859   3.930   6.450   5.822 -0.0504 -0.1543 -0.4804
12309TIP3    H136860   3.853   6.497   5.789  1.5242  1.9642 -1.3031
12309TIP3    H236861   3.934   6.370   5.770 -2.8164 -1.3006  0.9642
12310TIP3   OH236862   5.714   0.593   2.369  0.1536  0.5873 -0.2471
12310TIP3    H136863   5.797   0.597   2.416 -0.2572 -0.9426  0.6455
12310TIP3    H236864   5.731   0.535   2.295  0.4139  1.8764 -1.2136
12311TIP3   OH236865   6.101   5.595   5.515 -0.5549 -0.7170 -0.3256
12311TIP3    H136866   6.176   5.559   5.467 -1.0874 -0.0975 -1.6696
12311TIP3    H236867   6.139   5.637   5.592  0.3080 -1.9071 -0.1001
12312TIP3   OH236868   3.876   7.654   4.827 -0.2741  0.0056 -0.3192
12312TIP3    H136869   3.818   7.690   4.759 -0.0275 -0.2809 -0.6845
12312TIP3    H236870   3.825   7.659   4.907 -0.4692  0.6047 -0.4799
12313TIP3   OH236871   4.820   6.503   4.587 -0.1107 -0.0200 -0.0549
12313TIP3    H136872   4.859   6.418   4.608 -0.8387  0.0858  1.8207
12313TIP3    H236873   4.785   6.535   4.670 -0.0485  2.0250 -0.7705
12314TIP3   OH236874   5.730   5.627   2.596  0.1094 -0.0051  0.2158
12314TIP3    H136875   5.694   5.640   2.684  0.0092  1.1758  0.0079
12314TIP3    H236876   5.655   5.636   2.538  0.2540 -0.3517 -0.0282
12315TIP3   OH236877   4.204   1.277   0.795  0.2706  0.0676 -0.3226
12315TIP3    H136878   4.157   1.269   0.879  0.7089  0.7970 -0.0082
12315TIP3    H236879   4.194   1.190   0.755 -0.8344  0.0301  0.0076
12316TIP3   OH236880   3.833   5.798   6.346  0.9596  0.4512  0.1729
12316TIP3    H136881   3.743   5.777   6.369  0.1162  1.5848 -1.9301
12316TIP3    H236882   3.886   5.737   6.396 -1.0686 -1.3809  0.1348
12317TIP3   OH236883   4.330   4.460   5.770 -0.0155 -0.4559  0.5555
12317TIP3    H136884   4.345   4.392   5.705  0.0085  0.2542 -0.1845
12317TIP3    H236885   4.264   4.423   5.829 -2.5996  0.1993 -1.8352
12318TIP3   OH236886   2.352   1.894   0.939 -0.1706  0.5440 -0.0476
12318TIP3    H136887   2.321   1.814   0.982 -1.4140  1.7553  1.3838
12318TIP3    H236888   2.333   1.882   0.846 -0.2439 -0.8546  0.1483
12319TIP3   OH236889   3.894   6.405   6.937  0.8726 -0.1080 -0.1037
12319TIP3    H136890   3.850   6.463   6.997 -0.2196 -1.0262 -0.0054
12319TIP3    H236891   3.835   6.398   6.862  0.4282 -2.0052  0.3951
12320TIP3   OH236892   7.356   0.363   6.284 -0.1638  0.6260  0.3482
12320TIP3    H136893   7.386   0.272   6.286 -0.8317  0.4102  1.0291
12320TIP3    H236894   7.286   0.364   6.218  1.8741  1.3149 -1.8690
12321TIP3   OH236895   4.450   6.451   6.756  0.0980  0.0185  0.3807
12321TIP3    H136896   4.454   6.369   6.707  1.4049  1.0935 -1.3506
12321TIP3    H236897   4.364   6.488   6.735  0.3030  0.0501 -0.4067
12322TIP3   OH236898   4.368   6.720   4.712  0.2981  1.0209 -0.0894
12322TIP3    H136899   4.329   6.728   4.625  1.1196  0.2606 -0.5386
12322TIP3    H236900   4.324   6.645   4.752  0.9710  0.4415 -0.4259
12323TIP3   OH236901   3.175   4.839   6.493  0.2600 -0.0967  0.5823
12323TIP3    H136902   3.138   4.758   6.457 -0.8299  0.6125  0.0908
12323TIP3    H236903   3.214   4.813   6.576  1.4952 -1.4863 -0.3975
12324TIP3   OH236904   4.423   5.826   3.907  0.3500 -0.6386  0.5574
12324TIP3    H136905   4.517   5.818   3.895  0.2960 -0.5622  0.0837
12324TIP3    H236906   4.413   5.863   3.995  0.7606 -0.5767  0.5786
12325TIP3   OH236907   3.385   6.071   3.511  0.4297 -0.1635 -0.4956
12325TIP3    H136908   3.405   5.982   3.482  1.1868  0.0708 -0.7016
12325TIP3    H236909   3.459   6.095   3.568  0.0766  0.2198 -0.1904
12326TIP3   OH236910   4.185   5.074   5.424 -0.4843  0.2037 -0.0411
12326TIP3    H136911   4.192   5.150   5.481 -1.2009 -0.2811  0.6985
12326TIP3    H236912   4.136   5.010   5.475  0.3458 -0.8510 -0.5584
12327TIP3   OH236913   5.578   4.938   4.824 -0.3965 -0.0061  0.4907
12327TIP3    H136914   5.497   4.988   4.835 -0.5185  0.0162 -0.5059
12327TIP3    H236915   5.622   4.980   4.751  0.5811  0.0596  1.1168
12328TIP3   OH236916   2.511   7.450   5.220 -0.6833 -0.1752 -0.1544
12328TIP3    H136917   2.526   7.522   5.159 -0.1823 -0.6488 -0.5931
12328TIP3    H236918   2.504   7.372   5.165 -1.3909 -0.4447  0.3046
12329TIP3   OH236919   3.247   5.804   6.838  0.2955  0.8602  0.4800
12329TIP3    H136920   3.297   5.885   6.843  0.2456  0.9162  0.0575
12329TIP3    H236921   3.304   5.743   6.792  0.6217  0.4366  1.4418
12330TIP3   OH236922   3.369   6.080   5.797 -0.0486 -0.2740  0.2585
12330TIP3    H136923   3.396   6.102   5.708 -0.5572 -1.6589 -0.2600
12330TIP3    H236924   3.334   6.162   5.833 -1.8927 -0.2071 -1.5997
12331TIP3   OH236925   4.879   7.554   6.240 -0.6189 -0.6738  0.3100
12331TIP3    H136926   4.905   7.530   6.151 -1.6757 -2.1287  0.3663
12331TIP3    H236927   4.961   7.565   6.287 -0.0547 -0.2637 -0.7541
12332TIP3   OH236928   4.687   6.146   5.587  0.2754 -0.6737 -0.0346
12332TIP3    H136929   4.675   6.136   5.681 -0.3168 -0.8790 -0.1308
12332TIP3    H236930   4.598   6.157   5.552  0.5564  0.2032 -0.4775
12333TIP3   OH236931   4.466   7.614   5.830  0.0917  0.2971  0.1168
12333TIP3    H136932   4.454   7.690   5.773 -2.2940 -0.5771 -0.5944
12333TIP3    H236933   4.411   7.546   5.791  1.7987 -1.6449  1.0467
12334TIP3   OH236934   3.995   6.330   6.226  0.1935 -0.5042 -0.0343
12334TIP3    H136935   3.981   6.235   6.216  1.1221 -0.6064 -0.4242
12334TIP3    H236936   4.071   6.348   6.171  0.3841  0.3686  0.5176
12335TIP3   OH236937   2.252   0.393   0.197 -0.1777  0.1919  0.3778
12335TIP3    H136938   2.241   0.399   0.102 -2.7236 -0.8294  0.5931
12335TIP3    H236939   2.333   0.343   0.208  0.1046  0.2550 -1.2444
12336TIP3   OH236940   3.856   5.685   4.071 -0.1339  0.1506  0.0429
12336TIP3    H136941   3.864   5.707   4.164  1.3757 -0.6019  0.0897
12336TIP3    H236942   3.936   5.718   4.031 -0.0930 -0.8536 -0.7329
12337TIP3   OH236943   4.132   5.031   5.918  1.0972 -0.7812 -0.0572
12337TIP3    H136944   4.121   4.945   5.877  0.8821 -0.1079 -1.4686
12337TIP3    H236945   4.217   5.028   5.960  0.9620 -1.7860  0.1403
12338TIP3   OH236946   3.845   7.717   4.420  0.5172  0.6570 -0.0106
12338TIP3    H136947   3.815   7.756   4.338  0.1542 -0.0263 -0.2120
12338TIP3    H236948   3.789   7.755   4.487  0.5975  0.9739 -0.1254
12339TIP3   OH236949   7.708   0.160   4.332  0.2551  0.8308 -0.0324
12339TIP3    H136950   7.791   0.149   4.286 -1.1014  0.9336 -2.6253
12339TIP3    H236951   7.689   0.253   4.327 -0.0901  0.7875  0.4174
12340TIP3   OH236952   6.225   6.854   4.423 -0.7109 -0.3189 -0.1512
12340TIP3    H136953   6.268   6.785   4.473  0.4838 -0.0030 -0.7374
12340TIP3    H236954   6.199   6.812   4.341 -1.8708 -0.6038  0.3491
12341TIP3   OH236955   4.902   7.196   2.865  0.1022 -0.6623  0.1956
12341TIP3    H136956   4.928   7.161   2.780 -0.9864 -0.9661 -0.0225
12341TIP3    H236957   4.911   7.291   2.856  3.5616 -0.8652  0.9531
12342TIP3   OH236958   5.373   6.098   4.583 -0.0141 -0.2786 -0.0490
12342TIP3    H136959   5.419   6.016   4.568  0.7509  0.2204 -0.4736
12342TIP3    H236960   5.340   6.092   4.672  2.3452  0.0707  0.8823
12343TIP3   OH236961   2.687   4.378   5.780  0.7433 -0.5496 -0.1891
12343TIP3    H136962   2.611   4.432   5.802  2.2239  0.9126  1.5284
12343TIP3    H236963   2.682   4.368   5.685  0.1911  2.3531 -0.5266
12344TIP3   OH236964   4.351   5.883   4.505  0.0844  0.3820 -0.4064
12344TIP3    H136965   4.302   5.918   4.579 -2.0863 -0.1483 -1.5325
12344TIP3    H236966   4.369   5.792   4.528 -2.4067 -0.3963 -1.3452
12345TIP3   OH236967   3.309   5.462   4.858  0.1286  0.1467  0.3428
12345TIP3    H136968   3.339   5.408   4.784 -2.9210 -2.7301  1.1054
12345TIP3    H236969   3.290   5.547   4.819  0.1879 -0.8141 -1.8914
12346TIP3   OH236970   1.073   0.805   0.880  0.2338 -0.3697 -0.0568
12346TIP3    H136971   1.052   0.867   0.810 -0.6172 -1.0302 -0.3928
12346TIP3    H236972   0.991   0.760   0.898  0.7521 -1.1188  0.4746
12347TIP3   OH236973   5.378   7.991   4.179  0.4531 -0.2978 -0.0923
12347TIP3    H136974   5.448   7.983   4.244 -0.6744 -0.6194  1.1060
12347TIP3    H236975   5.324   7.913   4.192 -1.9463  1.5263  1.2192
12348TIP3   OH236976   4.750   4.710   5.208  0.9366  0.2325 -0.0254
12348TIP3    H136977   4.777   4.768   5.279 -0.0837  0.3308  0.3037
12348TIP3    H236978   4.831   4.687   5.162  1.4724  1.0449  0.5037
12349TIP3   OH236979   4.492   7.768   3.463 -0.2832 -0.1583  0.0542
12349TIP3    H136980   4.427   7.702   3.490  0.2645 -1.1666 -1.0574
12349TIP3    H236981   4.444   7.825   3.402 -0.0716 -1.0469 -0.9548
12350TIP3   OH236982   6.676   0.353   6.815  0.1290 -0.2236  0.0617
12350TIP3    H136983   6.771   0.353   6.807 -0.0164 -0.9065 -1.8158
12350TIP3    H236984   6.655   0.269   6.856  0.4494  0.7678  2.3416
12351TIP3   OH236985   5.084   5.574   6.089 -0.3769  0.3868 -0.2385
12351TIP3    H136986   5.067   5.479   6.086 -1.0117  0.4605  0.8714
12351TIP3    H236987   5.002   5.613   6.060 -0.1785  0.6027 -0.5040
12352TIP3   OH236988   4.172   6.760   3.955  0.3169  0.3613 -0.3587
12352TIP3    H136989   4.179   6.833   4.017 -0.3127  0.1830 -0.0705
12352TIP3    H236990   4.084   6.769   3.918  0.1330 -0.4149 -0.1184
12353TIP3   OH236991   4.760   5.868   4.530 -0.8954 -0.0528 -0.1759
12353TIP3    H136992   4.755   5.933   4.460  0.7475  0.4163  0.1283
12353TIP3    H236993   4.844   5.884   4.572 -0.4736 -2.3547 -0.0647
12354TIP3   OH236994   3.779   7.207   5.188 -0.2789  0.0371 -0.2888
12354TIP3    H136995   3.697   7.195   5.140 -1.3442  0.1823  1.4571
12354TIP3    H236996   3.806   7.296   5.168 -0.3669 -0.1193 -1.1256
12355TIP3   OH236997   3.524   7.125   5.412  0.0465 -0.1718  0.2129
12355TIP3    H136998   3.527   7.034   5.384  1.2337 -0.1458  0.2262
12355TIP3    H236999   3.522   7.176   5.331  0.9487 -0.1708  0.1860
12356TIP3   OH237000   2.636   6.245   5.998  0.4266 -0.3422 -0.2855
12356TIP3    H137001   2.573   6.173   5.996  0.1830 -0.1137 -1.0105
12356TIP3    H237002   2.718   6.207   5.968 -0.0074 -0.0337 -1.9179
12357TIP3   OH237003   6.461  -0.020   4.400  0.2532 -0.2801 -0.0505
12357TIP3    H137004   6.400   0.011   4.467  3.0280  2.2365  1.4494
12357TIP3    H237005   6.467   0.052   4.338  1.7592 -0.4651 -0.1349
12358TIP3   OH237006   4.528   7.268   5.299  0.7858  0.4781  0.1109
12358TIP3    H137007   4.437   7.241   5.313  0.9342  0.1444  0.4702
12358TIP3    H237008   4.577   7.186   5.303  0.9633  0.5168 -1.3013
12359TIP3   OH237009   5.065   5.096   2.656  0.4707  0.5580  0.1010
12359TIP3    H137010   5.112   5.026   2.609  0.7030  0.0468  1.0796
12359TIP3    H237011   5.133   5.159   2.679  0.7979 -0.4837  2.0618
12360TIP3   OH237012   4.460   4.814   5.677  0.2009 -0.2176  0.0076
12360TIP3    H137013   4.375   4.777   5.656  0.1964  0.7685 -1.7849
12360TIP3    H237014   4.517   4.738   5.690 -0.1820 -0.8826 -2.0702
12361TIP3   OH237015   3.412   6.491   6.506 -0.4359 -0.9342  0.3286
12361TIP3    H137016   3.483   6.553   6.523 -1.3922 -0.1070  1.3965
12361TIP3    H237017   3.409   6.435   6.584 -1.0269 -0.8907  0.3430
12362TIP3   OH237018   2.019   7.513   3.747  0.4388  0.2308  0.3472
12362TIP3    H137019   1.944   7.541   3.800  0.3196 -0.4946  0.5666
12362TIP3    H237020   2.008   7.418   3.737  0.9247  0.2283 -0.2518
12363TIP3   OH237021   3.840   5.944   5.001 -0.2776 -0.2078  0.0372
12363TIP3    H137022   3.783   5.951   4.924  0.6524  0.6102 -0.5965
12363TIP3    H237023   3.856   5.850   5.011  2.0819 -0.1540 -2.6548
12364TIP3   OH237024   3.794   3.725   5.939  0.2951 -0.1902  0.4705
12364TIP3    H137025   3.884   3.756   5.943  1.1245 -2.5505  0.6047
12364TIP3    H237026   3.799   3.642   5.892 -1.9747  0.1930 -0.5145
12365TIP3   OH237027   5.673   6.058   4.950 -0.4523 -0.5901  0.7728
12365TIP3    H137028   5.697   6.137   4.901  0.2537 -1.5253 -0.4140
12365TIP3    H237029   5.711   6.070   5.037 -2.0387  1.2623  1.2373
12366TIP3   OH237030   5.473   5.429   5.585  0.0909  0.1010 -0.1787
12366TIP3    H137031   5.532   5.403   5.656 -1.0539  1.2724  1.2465
12366TIP3    H237032   5.395   5.376   5.599 -0.1722  0.3965 -0.5254
12367TIP3   OH237033   4.373   5.559   6.118 -0.4472  0.1133 -0.0052
12367TIP3    H137034   4.390   5.560   6.024 -3.2008  0.5199 -0.5330
12367TIP3    H237035   4.334   5.644   6.136  0.1233  0.0635  1.5268
12368TIP3   OH237036   5.253   5.512   5.827 -0.2328  0.9173 -0.3462
12368TIP3    H137037   5.235   5.527   5.920 -1.3630  0.5914 -0.5084
12368TIP3    H237038   5.247   5.417   5.817 -0.1024  0.9522 -0.7627
12369TIP3   OH237039   3.760   7.318   6.520  0.1117 -0.1970 -0.4999
12369TIP3    H137040   3.728   7.251   6.459  0.9651  0.3038 -1.5166
12369TIP3    H237041   3.818   7.270   6.579 -1.5481 -0.8890  0.6133
12370TIP3   OH237042   5.441   4.845   3.888 -0.0697  0.0219  0.1494
12370TIP3    H137043   5.346   4.833   3.894 -0.3998  2.1759 -0.3923
12370TIP3    H237044   5.453   4.913   3.822  1.8706 -0.2856  0.1457
12371TIP3   OH237045   6.267   7.502   4.260  0.3589 -0.3272  0.1149
12371TIP3    H137046   6.301   7.560   4.328 -0.0759 -2.6766  2.3756
12371TIP3    H237047   6.345   7.464   4.219  0.5985 -2.5836  2.5659
12372TIP3   OH237048   7.154   4.923   4.209  0.1366  0.1816 -0.2466
12372TIP3    H137049   7.208   4.926   4.288 -1.1846  3.2080  0.6258
12372TIP3    H237050   7.175   5.004   4.163 -0.6442 -0.5747 -1.9766
12373TIP3   OH237051   2.597   1.930   1.161 -0.3380  0.1322 -0.1805
12373TIP3    H137052   2.556   1.997   1.217 -0.5897 -1.7549  1.9678
12373TIP3    H237053   2.529   1.863   1.151  1.3036 -1.7986  1.2508
12374TIP3   OH237054   5.856   6.394   4.397  0.1175  0.2466  0.3853
12374TIP3    H137055   5.805   6.445   4.460 -1.2956 -0.0181 -0.5192
12374TIP3    H237056   5.871   6.453   4.324  0.2175  0.0083  0.2117
12375TIP3   OH237057   3.505   6.032   4.204  0.0591 -0.4563 -0.3943
12375TIP3    H137058   3.533   5.949   4.243  0.0777  0.3776  1.4302
12375TIP3    H237059   3.577   6.057   4.146  0.7445 -0.9521  0.2323
12376TIP3   OH237060   4.828   4.685   6.150  0.6475  0.0304  0.4653
12376TIP3    H137061   4.831   4.713   6.241 -1.3689  0.4922  0.4166
12376TIP3    H237062   4.832   4.767   6.100 -0.3766 -0.0704  0.2049
12377TIP3   OH237063   0.892   2.961   0.249 -0.2395 -0.5877 -0.0349
12377TIP3    H137064   0.957   2.891   0.241 -0.6627 -0.9052 -0.6932
12377TIP3    H237065   0.819   2.921   0.295 -1.4209 -1.2346 -2.4178
12378TIP3   OH237066   0.994   1.301   1.569 -0.2234  0.1169  0.4437
12378TIP3    H137067   1.014   1.380   1.619  0.2195  0.1099  0.2821
12378TIP3    H237068   1.075   1.281   1.522 -1.0702  0.9756 -1.4544
12379TIP3   OH237069   5.700   0.514   6.366  0.3258 -0.1553  0.8428
12379TIP3    H137070   5.794   0.497   6.355  0.7934  1.0716  2.7529
12379TIP3    H237071   5.686   0.600   6.325 -0.1240 -0.6882 -0.1327
12380TIP3   OH237072   4.995   0.508   6.519  0.4751  0.3674 -0.3916
12380TIP3    H137073   4.995   0.428   6.571  0.8663 -0.4450 -1.6159
12380TIP3    H237074   4.904   0.520   6.493  0.5290 -0.0541 -0.7739
12381TIP3   OH237075   4.549   7.447   6.932  0.5465  0.2935 -0.3141
12381TIP3    H137076   4.516   7.537   6.939 -0.0598 -0.1627  3.8638
12381TIP3    H237077   4.643   7.458   6.915  0.2424  1.6624 -1.2877
12382TIP3   OH237078   4.851   5.692   5.997  0.6052 -0.2866  0.2232
12382TIP3    H137079   4.788   5.688   6.069  2.0101 -0.9218  1.4351
12382TIP3    H237080   4.801   5.728   5.923 -1.6401 -2.3963  0.6494
12383TIP3   OH237081   2.426   3.298   0.230  0.3762  0.1179  0.0912
12383TIP3    H137082   2.449   3.341   0.148  0.4932 -0.0707  0.0264
12383TIP3    H237083   2.457   3.357   0.298 -2.4826  1.8114  0.0093
12384TIP3   OH237084   2.449   6.468   6.085 -0.2797  0.2923  0.6151
12384TIP3    H137085   2.429   6.520   6.007 -1.2070 -0.0437  0.6194
12384TIP3    H237086   2.395   6.389   6.076 -0.0796  0.0615  1.3884
12385TIP3   OH237087   3.457   7.775   5.918  0.3463  0.0608  0.2763
12385TIP3    H137088   3.410   7.852   5.887  0.4304 -0.2276 -0.5809
12385TIP3    H237089   3.408   7.748   5.996 -1.0111 -0.3057 -0.6730
12386TIP3   OH237090   1.954   7.682   5.046 -0.1717 -0.0340  0.8079
12386TIP3    H137091   2.046   7.667   5.066  0.3803  1.4919 -0.5499
12386TIP3    H237092   1.953   7.760   4.991 -2.1109 -1.0777 -0.7139
12387TIP3   OH237093   5.626   5.273   5.300  0.0767  0.1929  0.0709
12387TIP3    H137094   5.674   5.226   5.232  0.1531 -1.0389  0.9639
12387TIP3    H237095   5.593   5.204   5.358  0.2740  1.2591  1.4482
12388TIP3   OH237096   2.077   6.979   5.728  0.1417  0.7017 -0.3554
12388TIP3    H137097   2.113   7.059   5.690 -1.7877  2.6392  1.6795
12388TIP3    H237098   1.985   6.980   5.702 -0.0456 -0.5471  0.2299
12389TIP3   OH237099   5.295   6.487   5.794  0.0435 -0.2349 -0.1809
12389TIP3    H137100   5.344   6.473   5.875  0.4395  0.8280 -0.2346
12389TIP3    H237101   5.215   6.531   5.823 -0.3491 -0.9070 -0.2337
12390TIP3   OH237102   1.153   3.949   0.762  1.2090  0.0972  0.3913
12390TIP3    H137103   1.208   4.002   0.704  0.2532  1.2001  0.4523
12390TIP3    H237104   1.090   4.012   0.798  0.6068 -0.9328  1.1564
12391TIP3   OH237105   6.516   0.192   4.201 -0.6728 -0.1872  0.8287
12391TIP3    H137106   6.519   0.280   4.163  0.8399 -0.3496  0.5331
12391TIP3    H237107   6.558   0.136   4.136 -1.8528 -1.1806  0.9066
12392TIP3   OH237108   5.574   4.930   5.707 -0.1698 -0.2315  0.0724
12392TIP3    H137109   5.527   4.937   5.790  2.2677  0.7910  1.4019
12392TIP3    H237110   5.572   4.836   5.686 -2.7120 -0.2295  0.1013
12393TIP3   OH237111   6.461   5.286   4.928 -0.8905  0.1958  0.4782
12393TIP3    H137112   6.462   5.358   4.865 -0.2885  0.8282  1.2089
12393TIP3    H237113   6.375   5.245   4.917 -0.1425 -0.8017 -2.0157
12394TIP3   OH237114   0.812   3.122   0.743  0.2866 -0.1443  0.2146
12394TIP3    H137115   0.831   3.201   0.795 -1.5741  0.6983 -0.3399
12394TIP3    H237116   0.804   3.154   0.653  1.9827 -1.3725 -0.4084
12395TIP3   OH237117   7.035   0.129   6.121 -0.0967 -0.2132 -0.7686
12395TIP3    H137118   7.071   0.100   6.038  1.4524  1.3741 -0.6952
12395TIP3    H237119   7.080   0.212   6.138 -2.1092  0.6460  0.4917
12396TIP3   OH237120   6.334   5.039   5.655  0.1320  0.0359  0.0776
12396TIP3    H137121   6.303   5.017   5.743 -0.8595 -1.3074 -0.6021
12396TIP3    H237122   6.388   5.117   5.668  0.6326 -0.6031  1.9948
12397TIP3   OH237123   2.511   1.573   0.222 -0.0657 -0.1937  0.3326
12397TIP3    H137124   2.519   1.510   0.150  1.3521  0.3489 -0.0092
12397TIP3    H237125   2.513   1.519   0.301  1.4472 -0.5872  0.0538
12398TIP3   OH237126   4.334   6.804   5.964  0.0921 -0.1155  0.4942
12398TIP3    H137127   4.267   6.736   5.957 -1.1851  1.2806 -1.5261
12398TIP3    H237128   4.415   6.759   5.942 -0.7461 -1.0100 -0.8445
12399TIP3   OH237129   2.462   1.663   1.225  0.1401  0.2001 -0.2655
12399TIP3    H137130   2.536   1.602   1.231  1.5553  1.9322  0.2192
12399TIP3    H237131   2.384   1.607   1.231  1.4091 -1.4743  1.1006
12400TIP3   OH237132   5.331   6.229   5.474  0.9974  0.3902  0.0736
12400TIP3    H137133   5.296   6.313   5.446  0.4420 -0.2463 -1.1512
12400TIP3    H237134   5.402   6.210   5.412 -1.3447 -1.8217 -2.0281
12401TIP3   OH237135   4.350   4.343   6.541 -0.9193  0.0139 -0.2389
12401TIP3    H137136   4.307   4.408   6.486 -1.7583  0.5097  0.9705
12401TIP3    H237137   4.289   4.269   6.543 -0.7909 -0.0900 -0.1562
12402TIP3   OH237138   5.610   5.391   5.842 -0.0824  0.7052 -0.8747
12402TIP3    H137139   5.654   5.466   5.882 -0.5123  1.6307 -2.1137
12402TIP3    H237140   5.556   5.355   5.912  0.3247  1.3963 -0.2017
12403TIP3   OH237141   1.821   0.429   0.327 -0.4035 -0.1672 -0.1201
12403TIP3    H137142   1.833   0.414   0.421 -0.6626 -0.9562 -0.2105
12403TIP3    H237143   1.771   0.510   0.322 -0.4941 -0.1868  0.4281
12404TIP3   OH237144   5.617   5.928   6.302 -0.7711 -0.2531  0.2521
12404TIP3    H137145   5.636   5.910   6.394  0.9211 -0.3215 -0.1087
12404TIP3    H237146   5.672   5.867   6.254 -0.1909  1.1280 -0.8576
12405TIP3   OH237147   0.413   7.846   0.643 -0.8595 -0.1213 -0.3332
12405TIP3    H137148   0.490   7.902   0.656 -1.1858  0.2223  0.1680
12405TIP3    H237149   0.422   7.813   0.553  0.5988 -1.2125  0.1850
12406TIP3   OH237150   2.718   6.812   6.258  0.4127 -0.4823 -0.1511
12406TIP3    H137151   2.797   6.840   6.212 -1.0322  0.0564 -2.3873
12406TIP3    H237152   2.662   6.889   6.258 -0.6901 -1.2733  0.1073
12407TIP3   OH237153   5.222   3.014   6.084  0.7922 -0.4015 -0.2264
12407TIP3    H137154   5.240   3.041   5.993 -0.4059  0.7703 -0.1332
12407TIP3    H237155   5.131   2.984   6.082 -0.1273  2.1536  1.1164
12408TIP3   OH237156   2.343   3.589   1.224 -0.5706  0.4058 -0.7356
12408TIP3    H137157   2.260   3.578   1.270  0.2714 -1.1114  0.4673
12408TIP3    H237158   2.388   3.660   1.271 -0.6741  0.4122 -0.6480
12409TIP3   OH237159   3.996   6.904   4.371 -0.3692  0.4038 -0.2161
12409TIP3    H137160   4.074   6.858   4.401 -0.0714  0.4429 -0.9123
12409TIP3    H237161   3.925   6.870   4.425  0.1506  0.4650  0.5071
12410TIP3   OH237162   3.111   5.889   6.225  0.0304  0.1479  0.5153
12410TIP3    H137163   3.165   5.909   6.149  0.0509 -0.1812  0.4419
12410TIP3    H237164   3.175   5.867   6.294  0.0423  1.1991  0.8550
12411TIP3   OH237165   4.456   1.254   6.235  0.4176  0.2842  0.2155
12411TIP3    H137166   4.368   1.291   6.224  0.6345  1.1125  1.1792
12411TIP3    H237167   4.510   1.303   6.174  0.1597 -0.4548 -0.6239
12412TIP3   OH237168   0.449   1.286   1.300 -0.2066  0.1262  0.3450
12412TIP3    H137169   0.472   1.218   1.364 -0.7872 -1.5284 -1.1476
12412TIP3    H237170   0.369   1.326   1.334  0.5735  0.5962  1.6314
12413TIP3   OH237171   3.301   7.240   5.588 -0.3889  0.4616 -0.3621
12413TIP3    H137172   3.366   7.187   5.542  0.5456  0.3237  1.0723
12413TIP3    H237173   3.305   7.209   5.679  0.1532  2.9795  0.4972
12414TIP3   OH237174   1.685   3.573   0.775  0.3811  0.4716 -0.5886
12414TIP3    H137175   1.604   3.583   0.725 -0.0710 -0.4775 -0.0585
12414TIP3    H237176   1.699   3.479   0.780  0.0317  0.5138  1.6699
12415TIP3   OH237177   4.273   7.302   5.054 -0.0319  0.1757 -0.2757
12415TIP3    H137178   4.236   7.227   5.099  0.1080 -1.3561 -2.6523
12415TIP3    H237179   4.207   7.371   5.064 -2.2799 -1.6301 -1.9272
12416TIP3   OH237180   5.473   6.561   5.062 -0.2903  0.0929  0.0954
12416TIP3    H137181   5.551   6.542   5.113  0.3669 -0.3877 -1.0761
12416TIP3    H237182   5.413   6.602   5.125  0.9075  0.5080  0.9886
12417TIP3   OH237183   1.348   0.033   1.974  0.1768  0.1781  0.0063
12417TIP3    H137184   1.353   0.122   1.940  0.3038  0.4047  0.6267
12417TIP3    H237185   1.379   0.039   2.064 -0.5096 -0.3704  0.2851
12418TIP3   OH237186   6.623   5.289   3.776  0.3420  0.0181  0.0734
12418TIP3    H137187   6.636   5.332   3.692  0.8748 -1.1619 -0.4633
12418TIP3    H237188   6.620   5.360   3.840 -3.5787  1.2116 -1.3014
12419TIP3   OH237189   2.089   1.991   1.224  0.0739  0.5475  0.4437
12419TIP3    H137190   2.128   2.049   1.159 -0.3816  1.6635  1.1395
12419TIP3    H237191   2.086   2.044   1.304 -0.0429 -0.5563  1.1831
12420TIP3   OH237192   4.609   5.255   5.855 -0.2748 -0.3220 -0.3105
12420TIP3    H137193   4.594   5.161   5.843 -0.5048 -0.1389 -1.5301
12420TIP3    H237194   4.535   5.285   5.908  0.4992 -1.0608  1.2368
12421TIP3   OH237195   4.794   6.217   5.289  0.0878 -0.7117 -0.4567
12421TIP3    H137196   4.752   6.181   5.367  1.1324  2.6410  1.7720
12421TIP3    H237197   4.879   6.172   5.285  0.1715 -0.6556  0.5519
12422TIP3   OH237198   4.072   5.894   5.971  0.3800 -0.2012 -0.0590
12422TIP3    H137199   4.096   5.954   5.900  0.6864 -0.8278 -0.4866
12422TIP3    H237200   3.978   5.882   5.960  0.0917  1.1715  0.7831
12423TIP3   OH237201   7.978   1.768   0.285 -0.0012  0.3293 -0.7255
12423TIP3    H137202   8.051   1.785   0.345 -0.0046  1.3420 -1.0031
12423TIP3    H237203   7.959   1.674   0.296  0.9005  0.2097 -0.1635
12424TIP3   OH237204   6.274   5.990   4.087  0.0606  0.0799  0.0638
12424TIP3    H137205   6.289   6.023   3.998  0.5510 -1.4054 -0.4128
12424TIP3    H237206   6.360   5.990   4.127  0.0647 -0.6742  0.0493
12425TIP3   OH237207   8.385   0.672   1.428 -0.2020  0.4852 -0.1692
12425TIP3    H137208   8.451   0.607   1.452 -1.0276  0.3295  1.7554
12425TIP3    H237209   8.301   0.627   1.440 -0.7372  1.4252 -0.3383
12426TIP3   OH237210   4.829   4.607   4.621  0.2299  0.3168  0.5197
12426TIP3    H137211   4.756   4.574   4.673 -0.6612  2.1439  0.4483
12426TIP3    H237212   4.877   4.665   4.680  0.6556  0.4572  0.0435
12427TIP3   OH237213   5.054   5.770   5.357  0.2505 -0.5479  0.4063
12427TIP3    H137214   5.053   5.799   5.266  1.6627 -0.3237  0.4513
12427TIP3    H237215   4.965   5.787   5.389  0.4283  1.6929 -0.2015
12428TIP3   OH237216   5.521   7.743   0.553 -0.4896 -0.2551  0.1616
12428TIP3    H137217   5.464   7.729   0.478 -0.0194 -0.1732 -0.2114
12428TIP3    H237218   5.608   7.753   0.516 -0.3634  0.5367  0.6685
12429TIP3   OH237219   5.012   6.742   6.372 -0.0396 -0.4644 -0.4119
12429TIP3    H137220   5.022   6.657   6.415 -1.0355 -0.0515  0.6815
12429TIP3    H237221   4.929   6.775   6.405 -0.3661  0.3001 -1.9550
12430TIP3   OH237222   4.518   4.965   4.350 -0.4484 -0.3473 -0.0791
12430TIP3    H137223   4.555   4.957   4.262 -2.2345  0.0591 -0.9002
12430TIP3    H237224   4.592   4.951   4.409  1.2366  1.5565 -1.6566
12431TIP3   OH237225   8.026   0.069   5.414 -0.5851  0.2008  0.1528
12431TIP3    H137226   7.992   0.025   5.336  1.5271 -0.4332 -0.4221
12431TIP3    H237227   8.018   0.163   5.394  0.3727  0.0400 -1.0109
12432TIP3   OH237228   2.824   6.738   4.920 -0.1185 -0.0722  0.2124
12432TIP3    H137229   2.836   6.720   4.827  0.8731  1.6114 -0.0048
12432TIP3    H237230   2.744   6.790   4.926  0.2050  0.4289  0.2204
12433TIP3   OH237231   6.002   5.130   5.483  0.4041 -0.5641 -0.2374
12433TIP3    H137232   5.925   5.105   5.432 -0.3806 -1.0780  1.1815
12433TIP3    H237233   5.970   5.197   5.544  1.0876 -0.7565  0.3370
12434TIP3   OH237234   5.740   5.098   3.934 -0.0037 -0.1620 -0.1449
12434TIP3    H137235   5.751   5.040   3.859  1.9838  0.4142 -0.3488
12434TIP3    H237236   5.646   5.100   3.951 -0.1975 -2.6379 -0.7553
12435TIP3   OH237237   3.714   5.732   5.175  0.4359  0.1020  0.0282
12435TIP3    H137238   3.655   5.692   5.112 -1.0008  0.5558  1.0580
12435TIP3    H237239   3.802   5.703   5.148  0.0576  1.8363 -3.3119
12436TIP3   OH237240   4.699   7.001   4.031  0.4316 -0.5054 -0.4082
12436TIP3    H137241   4.638   6.928   4.036  0.5702 -0.6441 -0.7629
12436TIP3    H237242   4.757   6.990   4.107  1.0391 -1.2860 -0.9815
12437TIP3   OH237243   0.185   0.730   1.620 -0.1123 -0.1047 -0.3598
12437TIP3    H137244   0.142   0.654   1.581 -0.4785 -0.0431 -0.0882
12437TIP3    H237245   0.120   0.764   1.682 -0.2875  0.9517 -1.1116
12438TIP3   OH237246   4.737   0.525   6.437 -0.3976  0.0758 -0.4385
12438TIP3    H137247   4.659   0.573   6.412  0.0651  0.3949 -1.2947
12438TIP3    H237248   4.769   0.486   6.355 -0.7016 -1.5956  0.2161
12439TIP3   OH237249   0.705   3.557   0.096  0.0061  0.0737  0.3870
12439TIP3    H137250   0.681   3.635   0.146  0.0699  0.2436  0.1544
12439TIP3    H237251   0.778   3.519   0.145 -0.8809 -0.5724  1.2205
12440TIP3   OH237252   7.438   0.526   4.438 -0.3711  0.1191  0.2113
12440TIP3    H137253   7.487   0.595   4.394 -0.4096  0.3255  0.4858
12440TIP3    H237254   7.504   0.480   4.490 -0.5598  0.7597  1.0337
12441TIP3   OH237255   6.674   5.083   5.216 -0.2425 -0.1664 -0.4933
12441TIP3    H137256   6.713   5.079   5.129  0.0813 -0.8912 -0.3126
12441TIP3    H237257   6.593   5.132   5.203 -0.1289 -0.1563 -1.1804
12442TIP3   OH237258   4.126   6.663   6.061 -0.0601 -0.4092 -0.2256
12442TIP3    H137259   4.173   6.580   6.050 -0.6045 -0.9385  1.2900
12442TIP3    H237260   4.034   6.637   6.072 -0.1613  0.3577  0.7859
12443TIP3   OH237261   4.681   7.795   5.962 -0.0771 -0.3082 -0.1833
12443TIP3    H137262   4.602   7.813   6.012 -0.8922 -1.1734 -1.1300
12443TIP3    H237263   4.753   7.811   6.023 -1.0817 -2.0358  1.4913
12444TIP3   OH237264   5.304   7.461   6.254  0.6994 -0.2229 -0.4662
12444TIP3    H137265   5.344   7.541   6.220  1.7265 -1.2179 -1.6633
12444TIP3    H237266   5.237   7.438   6.190  1.2386 -0.9742 -0.7753
12445TIP3   OH237267   0.275   3.012   0.123 -0.1971 -0.1105  0.2747
12445TIP3    H137268   0.194   3.044   0.083 -1.1713 -1.9242  0.7650
12445TIP3    H237269   0.298   2.933   0.073 -0.1976 -1.1218  1.8385
12446TIP3   OH237270   1.385   2.977   0.835 -0.3150  0.0032 -0.0202
12446TIP3    H137271   1.325   2.951   0.905 -1.8088  1.2299 -0.8043
12446TIP3    H237272   1.336   3.043   0.785  0.7960 -0.6742 -2.0730
12447TIP3   OH237273   5.619   1.346   5.440 -0.4640 -0.1325  0.3541
12447TIP3    H137274   5.623   1.413   5.371 -2.4409 -0.1322  0.1952
12447TIP3    H237275   5.571   1.274   5.400  0.8436 -1.2680  0.8356
12448TIP3   OH237276   4.880   6.715   6.697  0.0550 -0.5022 -0.2691
12448TIP3    H137277   4.825   6.735   6.621  1.1802  0.7507 -0.7718
12448TIP3    H237278   4.928   6.796   6.714  1.8999 -1.6325  0.0434
12449TIP3   OH237279   3.887   4.646   5.583 -0.3713  0.0311 -0.0619
12449TIP3    H137280   3.880   4.707   5.510 -2.3040 -0.6202 -0.4466
12449TIP3    H237281   3.915   4.700   5.657  0.8264  0.8341 -1.0752
12450TIP3   OH237282   5.822   4.760   2.717 -0.5896  0.5473 -0.2693
12450TIP3    H137283   5.816   4.714   2.634 -1.5501 -0.3705  0.3108
12450TIP3    H237284   5.733   4.788   2.736 -0.5744 -0.2630  1.0279
12451TIP3   OH237285   3.032   5.122   6.422 -0.0189  0.4338 -0.0449
12451TIP3    H137286   3.038   5.190   6.489  0.2305  0.3122  0.0564
12451TIP3    H237287   3.090   5.052   6.452  0.8460  0.7855 -0.8664
12452TIP3   OH237288   3.418   7.782   4.161 -0.3413 -0.1928 -0.1340
12452TIP3    H137289   3.374   7.824   4.235  0.3132 -1.0591  0.7566
12452TIP3    H237290   3.470   7.712   4.200  1.5599  0.5872 -1.1942
12453TIP3   OH237291   0.995   2.671   0.473 -0.3358 -0.0919 -0.1900
12453TIP3    H137292   0.925   2.735   0.462  0.1618  0.2048 -1.6456
12453TIP3    H237293   0.982   2.608   0.402  0.3607 -0.5108  0.0527
12454TIP3   OH237294   5.732   5.163   4.709  0.8209  0.8149  0.0690
12454TIP3    H137295   5.659   5.203   4.756 -0.1886 -1.8170  0.7967
12454TIP3    H237296   5.808   5.180   4.764  0.1756  0.5436  1.0528
12455TIP3   OH237297   2.957   4.798   5.967 -0.0257 -0.5361 -0.4523
12455TIP3    H137298   3.007   4.775   6.045 -1.6688  0.0171  0.7843
12455TIP3    H237299   2.941   4.715   5.923 -0.6893 -1.0698  0.7864
12456TIP3   OH237300   2.419   6.740   3.801  0.2429  0.0382 -0.0885
12456TIP3    H137301   2.346   6.769   3.746  0.5989  0.8215 -0.1487
12456TIP3    H237302   2.461   6.671   3.750  0.4585  0.6301 -0.7158
12457TIP3   OH237303   4.131   5.806   6.744  0.7234 -0.1581 -0.2785
12457TIP3    H137304   4.198   5.861   6.703  0.4743  0.3750  0.0202
12457TIP3    H237305   4.130   5.726   6.692  0.4874  0.4661 -1.2563
12458TIP3   OH237306   5.698   5.551   4.609 -0.3164 -0.3354  0.2076
12458TIP3    H137307   5.754   5.491   4.560 -2.0452 -0.3573 -1.8474
12458TIP3    H237308   5.753   5.584   4.680  2.0559 -0.8856 -1.3316
12459TIP3   OH237309   5.645   0.721   5.738  0.4550 -0.1240  0.1942
12459TIP3    H137310   5.678   0.717   5.828 -0.7585 -0.0009  0.6528
12459TIP3    H237311   5.677   0.640   5.698  0.5339 -0.4490  0.8996
12460TIP3   OH237312   3.400   6.358   5.624  0.2736  0.1964 -0.1826
12460TIP3    H137313   3.457   6.333   5.551  0.7043  1.4560 -0.2891
12460TIP3    H237314   3.398   6.453   5.621 -2.2501  0.1570 -0.4644
12461TIP3   OH237315   1.784   2.746   0.127 -0.5894 -0.7413 -0.0420
12461TIP3    H137316   1.833   2.719   0.049  3.4861 -1.7453  2.7042
12461TIP3    H237317   1.717   2.679   0.138 -0.7406 -0.9815 -2.2203
12462TIP3   OH237318   6.852   1.439   0.871 -0.1070 -0.3096 -0.0567
12462TIP3    H137319   6.918   1.408   0.933 -1.5476 -1.2792  0.9953
12462TIP3    H237320   6.820   1.521   0.908  0.9036  0.4905 -0.8827
12463TIP3   OH237321   2.318   6.665   1.950 -0.3158 -0.1265  0.3683
12463TIP3    H137322   2.282   6.577   1.959 -0.9570  0.0472 -0.4349
12463TIP3    H237323   2.267   6.705   1.880  1.3564  0.1845 -0.7024
12464TIP3   OH237324   2.426   0.156   0.930  0.2575 -0.3831 -0.5199
12464TIP3    H137325   2.401   0.219   0.863  2.0029  0.3582 -0.5157
12464TIP3    H237326   2.343   0.126   0.968 -0.6710  0.3697 -1.9110
12465TIP3   OH237327   3.983   6.226   6.509  0.1709  0.1575  0.0473
12465TIP3    H137328   3.918   6.168   6.550  0.6708  0.3744  1.1575
12465TIP3    H237329   4.035   6.168   6.454  0.1867 -0.3202  0.5628
12466TIP3   OH237330   5.893   5.389   5.243 -0.4706  1.1024  0.2720
12466TIP3    H137331   5.840   5.339   5.304  0.5055  0.3001  0.4746
12466TIP3    H237332   5.829   5.435   5.187 -1.3973 -1.6631 -1.0119
12467TIP3   OH237333   8.307   0.738   4.044 -0.0487  0.2393  0.5575
12467TIP3    H137334   8.215   0.713   4.036 -0.3313  1.0061  1.3334
12467TIP3    H237335   8.354   0.655   4.055 -0.5802 -0.1916 -0.4247
12468TIP3   OH237336   5.205   5.838   5.984 -0.1460  0.4710 -0.7848
12468TIP3    H137337   5.267   5.857   6.053 -1.1986 -0.7448  0.5173
12468TIP3    H237338   5.186   5.745   5.993 -1.8817  0.7394 -1.3718
12469TIP3   OH237339   7.488   1.685   5.212 -0.7827  1.0290 -0.3623
12469TIP3    H137340   7.393   1.679   5.209 -0.6828 -0.3174 -0.7966
12469TIP3    H237341   7.508   1.706   5.303 -1.5108  1.8352 -0.3765
12470TIP3   OH237342   4.492   7.968   4.449  0.0913 -0.0702 -0.0994
12470TIP3    H137343   4.449   7.924   4.376  0.5627 -0.0711 -0.3797
12470TIP3    H237344   4.428   7.965   4.520 -0.2161 -0.4251 -0.3880
12471TIP3   OH237345   4.085   7.246   3.859  0.3888 -0.1815  0.6017
12471TIP3    H137346   4.140   7.284   3.928  1.1821  0.2808 -0.2818
12471TIP3    H237347   4.076   7.315   3.794  0.0814 -0.8032 -0.0207
12472TIP3   OH237348   4.400   7.971   5.512 -0.1450  0.3773  0.1936
12472TIP3    H137349   4.403   7.891   5.458 -0.0567  1.5631 -1.5832
12472TIP3    H237350   4.449   7.947   5.591 -0.8954 -1.6260  0.1029
12473TIP3   OH237351   8.466   0.137   4.866 -0.1594 -0.1255  0.3023
12473TIP3    H137352   8.425   0.114   4.949  0.1613  1.5070  0.9469
12473TIP3    H237353   8.455   0.060   4.811 -2.9606 -0.1801  0.8684
12474TIP3   OH237354   7.948   6.217   4.184 -0.5074  0.3187  0.3762
12474TIP3    H137355   7.875   6.267   4.221 -0.9643  0.4741 -0.6988
12474TIP3    H237356   7.907   6.166   4.113  0.3838  0.2195 -0.0678
12475TIP3   OH237357   5.661   6.149   4.021 -0.2477 -0.2224 -0.1765
12475TIP3    H137358   5.642   6.190   4.106  0.3510  1.3031 -0.7618
12475TIP3    H237359   5.609   6.069   4.021  0.4932 -0.7408  2.0486
12476TIP3   OH237360   4.858   6.882   4.514 -0.2291 -0.3370  0.0239
12476TIP3    H137361   4.859   6.942   4.439  1.2970 -2.1158 -1.4116
12476TIP3    H237362   4.769   6.889   4.549 -0.4909  1.6692 -0.9963
12477TIP3   OH237363   5.803   5.537   5.972  0.6638 -0.1883 -0.3712
12477TIP3    H137364   5.864   5.501   6.037  2.1595  0.3441 -1.4518
12477TIP3    H237365   5.754   5.603   6.020  0.5257 -1.0248  0.6684
12478TIP3   OH237366   5.802   7.880   4.725 -0.2211 -0.4285  0.0253
12478TIP3    H137367   5.779   7.859   4.816 -4.4597 -1.6977 -1.2043
12478TIP3    H237368   5.840   7.799   4.691  1.3252  0.0324  0.6008
12479TIP3   OH237369   3.499   2.648   0.065  0.4965 -0.9334  0.2873
12479TIP3    H137370   3.469   2.623   0.153  1.9631 -1.1240  0.7444
12479TIP3    H237371   3.461   2.581   0.008  0.4597 -1.4689  0.9245
12480TIP3   OH237372   6.783   6.275   5.002  0.2864 -0.0452 -0.3554
12480TIP3    H137373   6.741   6.310   5.080 -1.9362 -1.0943 -1.0563
12480TIP3    H237374   6.804   6.184   5.024  0.3274 -0.1272 -0.7181
12481TIP3   OH237375   6.852   5.964   5.688 -0.3871  0.0015  0.6062
12481TIP3    H137376   6.810   5.924   5.765 -0.7327  1.3216  1.1100
12481TIP3    H237377   6.929   5.909   5.672  0.1691  0.2035  2.4348
12482TIP3   OH237378   6.083   7.255   3.903  0.3315  0.0080 -0.0594
12482TIP3    H137379   6.109   7.287   3.817  1.2700  0.6647  0.4561
12482TIP3    H237380   6.082   7.333   3.958  0.5177 -0.5261  0.7094
12483TIP3   OH237381   2.119   5.449   6.803  0.1720  0.1119 -0.8057
12483TIP3    H137382   2.062   5.489   6.737 -0.6560  1.9189  0.9702
12483TIP3    H237383   2.207   5.474   6.776  0.0316 -1.1794 -2.5529
12484TIP3   OH237384   0.587   0.434   6.587  0.2777 -0.0291  0.0137
12484TIP3    H137385   0.572   0.482   6.505  0.3110 -1.4460 -0.8423
12484TIP3    H237386   0.672   0.465   6.618  0.7652 -0.2644 -1.0601
12485TIP3   OH237387   3.153   2.512   0.602  0.1832 -0.2426 -0.0138
12485TIP3    H137388   3.150   2.422   0.634 -0.7986  0.3671  1.6444
12485TIP3    H237389   3.089   2.515   0.531 -1.8518 -0.1628  1.7746
12486TIP3   OH237390   5.282   4.813   6.860  0.5650  0.4043 -0.1259
12486TIP3    H137391   5.341   4.889   6.865  1.4593 -0.3287  0.6550
12486TIP3    H237392   5.202   4.848   6.820  0.7121  1.9282  0.8502
12487TIP3   OH237393   4.642   7.367   5.943 -0.1765  0.3739  0.1025
12487TIP3    H137394   4.546   7.358   5.942 -0.3435  1.9017  1.3290
12487TIP3    H237395   4.673   7.284   5.907 -1.9828  0.3245 -1.4292
12488TIP3   OH237396   5.992   5.345   6.142 -1.0733 -0.1915 -0.3135
12488TIP3    H137397   6.076   5.392   6.150 -1.0830 -0.2114 -0.0869
12488TIP3    H237398   5.978   5.308   6.229 -2.2984  1.4738  0.2184
12489TIP3   OH237399   6.440   6.599   4.508  0.1484 -0.4755 -0.8907
12489TIP3    H137400   6.533   6.614   4.521 -0.1867  0.0008  1.1925
12489TIP3    H237401   6.430   6.589   4.414  2.1713  0.3704 -1.2193
12490TIP3   OH237402   4.178   6.010   3.463 -0.1278 -0.0147  0.0989
12490TIP3    H137403   4.175   6.005   3.559 -0.5099 -2.4350 -0.0137
12490TIP3    H237404   4.270   6.024   3.443 -0.0506  0.5649  0.8201
12491TIP3   OH237405   0.714   6.698   1.504  0.2188 -0.7215 -0.1038
12491TIP3    H137406   0.672   6.756   1.441 -0.3050 -0.8141  0.1573
12491TIP3    H237407   0.696   6.609   1.472  1.6622 -0.7306 -0.9148
12492TIP3   OH237408   6.164   6.168   6.696 -0.1613  0.0271 -0.3899
12492TIP3    H137409   6.227   6.143   6.628  0.7825  1.6792 -0.1473
12492TIP3    H237410   6.178   6.104   6.766  0.2433 -0.4850 -0.9322
12493TIP3   OH237411   7.423   5.624   3.813  0.1325  0.5138  0.0834
12493TIP3    H137412   7.352   5.674   3.853  1.4443  1.6540  1.0401
12493TIP3    H237413   7.446   5.675   3.735  0.2169  0.3843  0.0236
12494TIP3   OH237414   3.826   5.300   6.161 -0.3686  0.0277  0.7530
12494TIP3    H137415   3.900   5.243   6.141  0.2989  0.3468  2.2425
12494TIP3    H237416   3.759   5.275   6.098  1.9919  1.7466 -2.6064
12495TIP3   OH237417   0.208   5.694   3.934 -0.1558  0.0660 -0.0178
12495TIP3    H137418   0.135   5.724   3.989  1.3050  0.6600  1.6622
12495TIP3    H237419   0.227   5.768   3.876  0.9884  1.0250  1.5441
12496TIP3   OH237420   5.622   6.597   3.883 -0.2377 -0.1139  0.0261
12496TIP3    H137421   5.572   6.605   3.802 -0.9956  2.6925  0.7045
12496TIP3    H237422   5.637   6.503   3.893 -2.0802 -0.6897 -2.1738
12497TIP3   OH237423   2.276   3.605   0.279  0.1431  0.6048  0.3304
12497TIP3    H137424   2.264   3.510   0.287  1.7135  0.3552 -0.1419
12497TIP3    H237425   2.247   3.639   0.364  4.1547 -0.7909  2.4001
12498TIP3   OH237426   3.949   5.683   5.066 -0.3287  0.9489  0.5418
12498TIP3    H137427   4.024   5.720   5.112 -1.5324 -0.1053  3.4795
12498TIP3    H237428   3.987   5.635   4.992  1.8908  0.3587  2.0268
12499TIP3   OH237429   5.113   7.928   4.503 -0.1762  0.6462 -0.0574
12499TIP3    H137430   5.119   7.945   4.409 -0.6743 -0.1534 -0.2363
12499TIP3    H237431   5.187   7.975   4.541  0.4290  0.4106 -0.9355
12500TIP3   OH237432   0.914   1.157   5.458 -0.2212 -0.1379 -0.2758
12500TIP3    H137433   0.969   1.223   5.501  0.4183 -1.5091  1.0527
12500TIP3    H237434   0.825   1.176   5.488 -0.1794  0.6985 -0.6591
12501TIP3   OH237435   6.877   6.865   3.739 -0.0985 -0.0797 -0.0392
12501TIP3    H137436   6.937   6.933   3.769 -0.6538  0.1226  0.6452
12501TIP3    H237437   6.868   6.880   3.645  1.0608 -0.2303 -0.1878
12502TIP3   OH237438   5.504   7.171   4.617 -0.3753  0.1196  0.5726
12502TIP3    H137439   5.481   7.179   4.710 -1.0386 -0.1637  0.4417
12502TIP3    H237440   5.523   7.260   4.589 -0.5155  0.2538  0.9025
12503TIP3   OH237441   7.821   5.466   3.022 -0.0375 -0.1524  0.0184
12503TIP3    H137442   7.895   5.442   2.966 -1.4392 -0.9583 -1.5380
12503TIP3    H237443   7.766   5.523   2.967 -1.2354 -0.6383  0.6885
12504TIP3   OH237444   6.073   6.618   4.590  0.0869 -0.4505  0.1257
12504TIP3    H137445   5.996   6.592   4.640  2.0457 -1.6118  2.6237
12504TIP3    H237446   6.125   6.538   4.583  1.2342  0.3884 -1.2529
12505TIP3   OH237447   6.229   6.425   5.264 -0.5334 -0.1140 -0.1404
12505TIP3    H137448   6.277   6.344   5.281 -1.3637 -0.5889 -0.0372
12505TIP3    H237449   6.251   6.447   5.173  1.6855  0.9238  0.6075
12506TIP3   OH237450   5.433   5.445   5.211 -0.1372  0.2299 -0.3820
12506TIP3    H137451   5.505   5.394   5.248 -0.6388  0.3132  0.7354
12506TIP3    H237452   5.376   5.381   5.169 -0.4088 -0.0645  0.4222
12507TIP3   OH237453   5.596   5.460   3.654  0.1941  0.8627  0.1510
12507TIP3    H137454   5.691   5.461   3.641  0.0532  1.7344 -0.8338
12507TIP3    H237455   5.585   5.457   3.749  1.2025 -0.3217  0.2500
12508TIP3   OH237456   7.479   0.124   4.844 -0.3772 -0.0589 -0.3529
12508TIP3    H137457   7.506   0.092   4.758 -0.2596 -1.1905  0.0960
12508TIP3    H237458   7.440   0.047   4.887  1.1528  0.0293  1.2661
12509TIP3   OH237459   4.242   6.454   3.621 -0.2490 -0.6110 -0.3975
12509TIP3    H137460   4.177   6.402   3.574 -1.0397  0.2839 -0.3178
12509TIP3    H237461   4.249   6.412   3.707 -1.1606 -0.3751 -0.2007
12510TIP3   OH237462   0.937   2.360   0.845 -0.0479 -0.2787  0.3434
12510TIP3    H137463   0.976   2.305   0.778 -0.5031 -2.2762  1.6955
12510TIP3    H237464   0.910   2.439   0.797  1.5509 -0.7410 -1.4134
12511TIP3   OH237465   1.542   2.851   0.470  0.1641  0.9592  0.7416
12511TIP3    H137466   1.448   2.844   0.452  0.2157  0.5428  0.6389
12511TIP3    H237467   1.552   2.818   0.560  0.0656  1.9896  1.1417
12512TIP3   OH237468   4.406   5.468   3.316  0.3992 -0.4380  0.1953
12512TIP3    H137469   4.459   5.395   3.284 -1.2700 -2.1966  1.3220
12512TIP3    H237470   4.316   5.444   3.291  0.0707  2.3918 -1.5326
12513TIP3   OH237471   4.331   7.437   6.744  0.1401  0.2610  0.2247
12513TIP3    H137472   4.312   7.416   6.652  0.8155 -0.9809  0.3511
12513TIP3    H237473   4.426   7.421   6.753 -0.4935 -3.1203  1.9840
12514TIP3   OH237474   0.416   0.339   4.327 -0.4056  0.8713  0.2648
12514TIP3    H137475   0.361   0.405   4.285 -1.7214  0.1025  0.7393
12514TIP3    H237476   0.354   0.275   4.363  0.6609  1.2013  2.8611
12515TIP3   OH237477   6.285   6.554   3.998  0.3405  0.1883 -0.1779
12515TIP3    H137478   6.246   6.485   3.945  0.9689 -1.9679  2.0858
12515TIP3    H237479   6.211   6.594   4.043  0.2830 -1.2302  1.0259
12516TIP3   OH237480   6.338   4.502   4.755  0.4076 -0.3772  0.4793
12516TIP3    H137481   6.423   4.517   4.796 -0.4765 -0.3886  2.3642
12516TIP3    H237482   6.327   4.407   4.757  0.0895 -0.3345  0.7968
12517TIP3   OH237483   6.080   6.308   3.315 -0.4164 -0.1724 -0.5790
12517TIP3    H137484   6.117   6.234   3.266 -1.0735  1.2285 -3.3478
12517TIP3    H237485   6.101   6.385   3.261 -2.0672  1.3362  0.8546
12518TIP3   OH237486   5.622   4.865   6.520 -0.2043  0.3060  0.1986
12518TIP3    H137487   5.540   4.823   6.495 -0.2084 -1.0047  2.2798
12518TIP3    H237488   5.686   4.793   6.521  0.5143  0.9474  0.5954
12519TIP3   OH237489   3.011   1.281   0.829 -0.3072  0.0447 -0.3921
12519TIP3    H137490   2.959   1.320   0.899  0.8443  1.0833 -0.1040
12519TIP3    H237491   3.070   1.220   0.873 -3.3799 -3.5684 -1.0039
12520TIP3   OH237492   4.375   5.077   5.001 -0.0030  0.2951  0.2768
12520TIP3    H137493   4.346   5.013   4.936  0.6407  1.5186 -1.2396
12520TIP3    H237494   4.368   5.031   5.084 -2.3953 -0.7672 -0.4755
12521TIP3   OH237495   5.034   7.317   3.326  0.3095 -0.5477  0.1464
12521TIP3    H137496   4.970   7.291   3.393 -2.0416  2.1034 -0.9661
12521TIP3    H237497   5.054   7.408   3.346 -1.8434  0.8965 -3.7039
12522TIP3   OH237498   6.420   4.984   4.266 -0.4165  0.3839 -0.1440
12522TIP3    H137499   6.372   4.901   4.264 -0.7824  0.6190 -1.7918
12522TIP3    H237500   6.434   5.001   4.359 -1.7951 -0.6931  0.2787
12523TIP3   OH237501   6.746   7.116   3.172 -0.1664  0.0832 -0.3935
12523TIP3    H137502   6.723   7.026   3.151 -0.1463 -0.9803  3.7817
12523TIP3    H237503   6.662   7.160   3.186 -0.0890 -0.1453  0.8128
12524TIP3   OH237504   1.974   0.589   0.859  0.3924 -0.0082 -0.0930
12524TIP3    H137505   1.990   0.669   0.909 -0.9636 -0.3467  0.8985
12524TIP3    H237506   1.880   0.586   0.847  0.5232 -0.9409 -1.0149
12525TIP3   OH237507   6.783   5.873   5.313 -0.4328  0.3938 -0.5740
12525TIP3    H137508   6.832   5.795   5.285 -1.1348 -0.3873  0.3530
12525TIP3    H237509   6.733   5.844   5.389 -0.1177  1.9666  0.2482
12526TIP3   OH237510   4.669   3.348   1.393  0.4318  0.1335 -0.2000
12526TIP3    H137511   4.753   3.352   1.346  1.1273  0.1403  1.0241
12526TIP3    H237512   4.679   3.275   1.454 -0.9291 -0.6807 -0.9367
12527TIP3   OH237513   6.075   6.192   4.454  0.4583  0.7992  0.9939
12527TIP3    H137514   6.102   6.253   4.523  1.3789 -0.5942  1.8964
12527TIP3    H237515   6.134   6.210   4.382 -1.7422  3.6182 -0.2462
12528TIP3   OH237516   4.237   2.410   0.314  0.2576  0.2362 -0.0818
12528TIP3    H137517   4.309   2.461   0.352  0.4887  0.9137 -1.3939
12528TIP3    H237518   4.259   2.319   0.335  1.2596  0.4776 -0.0530
12529TIP3   OH237519   6.814   3.333   4.510 -0.0855  0.0385 -0.4863
12529TIP3    H137520   6.797   3.246   4.547 -1.8129  0.1837 -0.8716
12529TIP3    H237521   6.728   3.363   4.480  0.5776  1.6765 -0.8052
12530TIP3   OH237522   6.491   5.298   5.230 -0.2014 -0.5026 -0.0015
12530TIP3    H137523   6.395   5.298   5.231 -0.2246  1.5822  0.0642
12530TIP3    H237524   6.515   5.311   5.139  0.0025  0.0533  0.1281
12531TIP3   OH237525   3.697   4.466   3.064 -0.2059  0.0701  0.0822
12531TIP3    H137526   3.752   4.475   3.142 -0.5400  1.5555  0.1632
12531TIP3    H237527   3.614   4.432   3.097  0.0025 -0.3203  0.2177
12532TIP3   OH237528   5.956   5.076   6.533  0.4099  0.0820 -0.4364
12532TIP3    H137529   5.930   5.024   6.457 -0.6601 -0.6697  0.4155
12532TIP3    H237530   6.029   5.130   6.502  1.7690 -2.1611 -1.2654
12533TIP3   OH237531   5.451   4.411   5.598 -0.0060  0.5592 -0.0903
12533TIP3    H137532   5.374   4.365   5.565  0.8053  0.8381 -2.4665
12533TIP3    H237533   5.449   4.398   5.693 -2.5077 -0.1322 -0.2284
12534TIP3   OH237534   4.865   4.895   5.415  0.3272  0.7473 -0.3280
12534TIP3    H137535   4.822   4.892   5.500 -2.0650 -0.4477 -1.5396
12534TIP3    H237536   4.835   4.977   5.376  1.3369  1.2422 -0.0775
12535TIP3   OH237537   5.775   7.580   4.896 -0.1956 -0.0282 -0.1431
12535TIP3    H137538   5.705   7.573   4.961  0.1520 -0.5410  0.1711
12535TIP3    H237539   5.774   7.496   4.850  0.6978 -0.3030  0.3461
12536TIP3   OH237540   6.288   5.862   6.500 -0.3938  0.1265 -0.5228
12536TIP3    H137541   6.252   5.907   6.424 -0.2523 -0.5530 -1.0015
12536TIP3    H237542   6.219   5.867   6.566 -0.3360  1.1354 -0.5307
12537TIP3   OH237543   1.274   2.812   0.432 -0.0698 -0.0725  0.8835
12537TIP3    H137544   1.245   2.900   0.406 -0.4638 -0.9928 -2.0095
12537TIP3    H237545   1.200   2.755   0.410  0.0922 -1.1109  2.9458
12538TIP3   OH237546   5.004   5.687   6.860 -0.3367  0.3575 -0.1714
12538TIP3    H137547   5.087   5.734   6.855 -0.3952  0.6659  1.5169
12538TIP3    H237548   4.951   5.724   6.789  0.4479  1.1991 -0.3265
12539TIP3   OH237549   6.129   6.362   3.831  0.7044  0.5345 -0.5698
12539TIP3    H137550   6.216   6.326   3.851  1.3192  2.5226  0.4519
12539TIP3    H237551   6.077   6.342   3.909  0.7334  0.8936 -0.4605
12540TIP3   OH237552   4.032   6.051   4.529 -0.0591 -0.0802 -0.2279
12540TIP3    H137553   4.094   6.056   4.602  0.9771 -0.7547 -1.0355
12540TIP3    H237554   3.981   5.972   4.545  1.8873 -1.6463 -1.5277
12541TIP3   OH237555   5.743   4.973   3.050  0.1719 -0.3775 -0.4976
12541TIP3    H137556   5.717   5.011   2.966 -0.2659 -0.6315 -0.4801
12541TIP3    H237557   5.838   4.963   3.044  0.5047  2.0946  0.0683
12542TIP3   OH237558   4.301   7.432   2.735 -0.1504 -0.1113  0.6147
12542TIP3    H137559   4.329   7.351   2.692  0.2464 -1.0528  2.5551
12542TIP3    H237560   4.380   7.466   2.777 -0.4974  0.8307  0.5213
12543TIP3   OH237561   5.018   7.672   5.085  0.6710  0.1404 -0.3421
12543TIP3    H137562   4.944   7.644   5.031 -0.2405  3.3534 -0.8157
12543TIP3    H237563   5.093   7.624   5.049 -0.2749  0.7410 -3.1780
12544TIP3   OH237564   4.875   5.442   1.598 -0.1427  0.2940 -0.0412
12544TIP3    H137565   4.946   5.418   1.539  1.7593  3.5043  0.8051
12544TIP3    H237566   4.811   5.487   1.542 -0.2899 -0.3169 -0.3618
12545TIP3   OH237567   4.401   6.208   5.813 -0.4762 -0.0228  1.0546
12545TIP3    H137568   4.491   6.183   5.794 -1.4478 -1.3778 -2.2220
12545TIP3    H237569   4.401   6.303   5.811  1.3664  0.0803  3.7955
12546TIP3   OH237570   5.293   7.288   5.578  0.6030  0.6420  0.5816
12546TIP3    H137571   5.315   7.358   5.639 -0.3149 -0.0500  1.7270
12546TIP3    H237572   5.317   7.322   5.492  2.4576  1.4051  1.3766
12547TIP3   OH237573   4.510   6.925   3.550 -0.4219 -0.1542 -0.1994
12547TIP3    H137574   4.469   7.012   3.552 -1.2451 -0.5009 -1.2488
12547TIP3    H237575   4.490   6.892   3.462  0.0054 -1.3481  0.1490
12548TIP3   OH237576   4.848   7.666   2.345  0.2565  0.5032  0.1555
12548TIP3    H137577   4.780   7.623   2.294 -0.4713  1.5553  0.2177
12548TIP3    H237578   4.825   7.759   2.342  1.2600  0.7822  0.8155
12549TIP3   OH237579   4.927   6.814   5.329  0.0298  0.1842  0.3773
12549TIP3    H137580   4.973   6.875   5.386  1.3084 -1.3311  0.9856
12549TIP3    H237581   4.919   6.733   5.381 -3.7928  0.5519  0.5266
12550TIP3   OH237582   3.845   1.188   1.093 -0.5088  0.1675  0.2045
12550TIP3    H137583   3.809   1.150   1.173 -2.0287  0.4264 -0.3428
12550TIP3    H237584   3.798   1.271   1.083  0.9730  0.9999  0.0144
12551TIP3   OH237585   5.511   6.196   5.246  0.6465  0.1014  0.3222
12551TIP3    H137586   5.598   6.236   5.253 -0.8039  3.3828  0.7601
12551TIP3    H237587   5.497   6.187   5.152  0.9321  0.7772  0.2114
12552TIP3   OH237588   7.300   6.606   3.931  0.4619 -0.3795  0.2744
12552TIP3    H137589   7.393   6.599   3.909  0.5518 -0.7614  0.7581
12552TIP3    H237590   7.254   6.561   3.860  0.5282  1.4113 -0.9284
12553TIP3   OH237591   7.643   5.859   3.765 -0.0184  0.0051 -0.2672
12553TIP3    H137592   7.687   5.776   3.781  1.8241  1.0119  0.0872
12553TIP3    H237593   7.573   5.838   3.704 -1.8342 -2.4190  2.5115
12554TIP3   OH237594   5.847   6.207   2.045 -0.5623 -0.1173  0.2395
12554TIP3    H137595   5.828   6.280   2.103 -0.7625 -0.8042  1.0610
12554TIP3    H237596   5.761   6.171   2.023 -0.5401  0.7457 -1.2841
12555TIP3   OH237597   5.657   7.274   3.761 -0.0326 -0.2768 -0.3746
12555TIP3    H137598   5.667   7.293   3.855 -0.3821  0.6329 -0.5117
12555TIP3    H237599   5.698   7.188   3.749 -0.3792 -0.5946  0.6888
12556TIP3   OH237600   5.032   7.186   4.903  1.0647 -0.5658 -0.6475
12556TIP3    H137601   5.028   7.164   4.810  1.4410 -0.5030 -0.6799
12556TIP3    H237602   5.067   7.275   4.905 -0.4583  0.0415 -0.5187
12557TIP3   OH237603   4.802   5.257   4.106 -0.4555 -0.2637  0.0662
12557TIP3    H137604   4.711   5.233   4.090 -0.9796  0.7889  1.3595
12557TIP3    H237605   4.801   5.353   4.105  0.2560 -0.2141  2.0678
12558TIP3   OH237606   4.062   6.581   4.392 -0.2816 -0.1245 -0.0179
12558TIP3    H137607   4.004   6.633   4.448 -1.6730 -1.5486 -0.0926
12558TIP3    H237608   4.071   6.497   4.437  0.4572 -0.4777 -0.7946
12559TIP3   OH237609   0.951   1.445   5.794  0.0671  0.2236 -0.2734
12559TIP3    H137610   0.951   1.410   5.705 -0.3067  0.6367 -0.4359
12559TIP3    H237611   0.929   1.537   5.784 -1.1434  0.0214  0.3508
12560TIP3   OH237612   5.358   6.395   6.318  0.2146 -0.1865 -0.2691
12560TIP3    H137613   5.395   6.463   6.374  2.3232 -0.5572 -1.1630
12560TIP3    H237614   5.348   6.319   6.375  1.1994 -0.1927 -0.0942
12561TIP3   OH237615   6.958   7.162   2.649  0.0122 -0.0483 -0.1141
12561TIP3    H137616   6.947   7.250   2.684 -0.3018  0.3726 -1.2441
12561TIP3    H237617   6.885   7.151   2.588  1.9175  0.1923 -2.5248
12562TIP3   OH237618   6.727   6.368   5.263 -0.0515  0.1654  0.1999
12562TIP3    H137619   6.732   6.321   5.346 -2.3348 -0.7126 -0.1111
12562TIP3    H237620   6.764   6.454   5.281  2.3859 -1.0573  1.2957
12563TIP3   OH237621   6.132   7.604   4.631  0.0729  0.0694  0.4682
12563TIP3    H137622   6.166   7.523   4.671  0.8214  0.1263 -0.0600
12563TIP3    H237623   6.198   7.630   4.568 -1.9773 -1.0778 -2.2382
12564TIP3   OH237624   5.452   2.752   5.405 -0.8593  0.4065  0.6800
12564TIP3    H137625   5.470   2.844   5.382 -1.4623  1.0565  2.7145
12564TIP3    H237626   5.431   2.754   5.498 -3.6681 -1.4273  0.1504
12565TIP3   OH237627   7.240   6.855   2.327  0.5149 -0.2366  0.4048
12565TIP3    H137628   7.229   6.949   2.344  1.5258 -0.0360  0.0223
12565TIP3    H237629   7.152   6.818   2.337 -0.1885  0.9999 -0.9765
12566TIP3   OH237630   3.150   2.428   1.023 -0.1427  0.6430  0.1864
12566TIP3    H137631   3.117   2.518   1.025  1.4258  1.2403 -0.2739
12566TIP3    H237632   3.232   2.434   0.976  0.9250 -0.7158  1.8243
12567TIP3   OH237633   6.610   6.857   3.843  0.6488  0.2224  0.1693
12567TIP3    H137634   6.697   6.818   3.850 -0.0156 -1.5783 -1.3456
12567TIP3    H237635   6.604   6.885   3.751 -0.5390 -0.0679  0.1541
12568TIP3   OH237636   7.072   0.441   3.156  0.3006 -0.5959  0.8505
12568TIP3    H137637   6.993   0.431   3.209 -0.1143  0.6867  0.4932
12568TIP3    H237638   7.088   0.354   3.120 -0.8358 -0.9131  1.0881
12569TIP3   OH237639   4.992   7.067   4.655  0.2604 -0.2269 -0.6466
12569TIP3    H137640   4.993   7.146   4.600  1.4920 -0.1816 -0.5858
12569TIP3    H237641   4.968   6.996   4.596 -0.5851  0.1570 -0.7622
12570TIP3   OH237642   2.851   3.627   0.077 -0.8905  0.5028 -0.3360
12570TIP3    H137643   2.825   3.535   0.087 -0.6612  0.4487 -0.2471
12570TIP3    H237644   2.895   3.630  -0.008  2.2947 -0.1943  1.2232
12571TIP3   OH237645   5.049   6.891   5.103 -0.3197 -0.0072 -0.1398
12571TIP3    H137646   4.997   6.959   5.060 -1.6125 -0.8900 -0.0064
12571TIP3    H237647   5.000   6.869   5.182 -0.1359 -1.3818 -0.3945
12572TIP3   OH237648   2.187   1.461   6.158 -0.1946 -0.0825 -0.0023
12572TIP3    H137649   2.187   1.537   6.215 -0.1735  1.3671 -1.8740
12572TIP3    H237650   2.094   1.439   6.147 -0.4613  1.8875 -2.2381
12573TIP3   OH237651   5.342   4.548   3.344 -0.1796  0.0074  0.3399
12573TIP3    H137652   5.422   4.496   3.341  0.4235  0.9023  0.7033
12573TIP3    H237653   5.309   4.536   3.433  0.1533  0.5143  0.5379
12574TIP3   OH237654   7.114   6.058   5.034  0.5052  0.2765  0.3046
12574TIP3    H137655   7.120   6.050   4.939 -2.3769  3.1177 -0.2179
12574TIP3    H237656   7.202   6.037   5.066  1.7502  0.1457 -3.0312
12575TIP3   OH237657   6.381   6.308   4.841  0.5370 -0.1138 -0.2145
12575TIP3    H137658   6.293   6.284   4.872 -0.0322 -0.0669 -1.7460
12575TIP3    H237659   6.424   6.224   4.826  0.9613 -0.1380  1.0639
12576TIP3   OH237660   5.916   4.013   5.294  0.0871  0.3434  0.5437
12576TIP3    H137661   5.889   4.004   5.202  0.1960  0.6318  0.4846
12576TIP3    H237662   6.010   4.000   5.292  0.0109 -0.2247  0.6923
12577TIP3   OH237663   5.241   5.288   4.091 -0.0079 -0.2863 -0.8417
12577TIP3    H137664   5.163   5.253   4.048 -0.7841  0.4896 -0.0925
12577TIP3    H237665   5.238   5.383   4.074  0.4495 -0.1703 -0.3000
12578TIP3   OH237666   4.078   6.310   4.803 -0.0139 -0.0121 -0.0761
12578TIP3    H137667   3.991   6.351   4.804 -0.9485 -1.8860 -0.7796
12578TIP3    H237668   4.073   6.243   4.871  1.2828  0.6570  0.6753
12579TIP3   OH237669   6.371   6.174   5.246 -0.2956  0.3177  0.1953
12579TIP3    H137670   6.309   6.139   5.182 -0.4479 -1.8373  1.4549
12579TIP3    H237671   6.457   6.152   5.210 -0.3681 -0.3288  0.4016
12580TIP3   OH237672   5.132   7.810   3.451  0.6755  0.1631 -0.2883
12580TIP3    H137673   5.092   7.845   3.531  0.2994  1.8681 -1.1964
12580TIP3    H237674   5.059   7.802   3.389  1.1664  0.0542 -0.8648
12581TIP3   OH237675   4.061   5.106   4.285  0.1195 -0.0333 -0.3107
12581TIP3    H137676   4.013   5.173   4.237  0.5524  0.0719 -0.6089
12581TIP3    H237677   4.149   5.143   4.296  0.1928 -0.3096  0.0330
12582TIP3   OH237678   7.214   7.600   2.842  0.2308 -0.4517 -0.2167
12582TIP3    H137679   7.278   7.528   2.842  0.6325 -0.0944 -0.3566
12582TIP3    H237680   7.131   7.557   2.861  0.4220 -1.0061 -0.6012
12583TIP3   OH237681   7.346   5.209   2.904 -0.4495 -0.0976 -0.3147
12583TIP3    H137682   7.270   5.156   2.881  1.0911 -2.1260 -0.9208
12583TIP3    H237683   7.417   5.175   2.848  0.6006  2.5808 -0.6637
12584TIP3   OH237684   4.170   7.991   2.740  0.2171  0.2985  0.5939
12584TIP3    H137685   4.207   7.923   2.796 -1.8500 -0.4786  1.0526
12584TIP3    H237686   4.095   7.949   2.696 -0.8426  2.1339  0.5734
12585TIP3   OH237687   6.293   4.873   3.954  0.1940 -0.3767  0.2890
12585TIP3    H137688   6.264   4.957   3.989 -1.8551 -1.3707  1.0576
12585TIP3    H237689   6.386   4.869   3.974  0.2560  1.6136  0.4374
12586TIP3   OH237690   4.153   4.095   1.093 -0.1593  0.6631 -0.1647
12586TIP3    H137691   4.219   4.158   1.063  0.6965 -0.8602 -1.6043
12586TIP3    H237692   4.199   4.043   1.159  0.1621 -0.5214 -1.3055
12587TIP3   OH237693   5.093   5.292   2.992 -0.1310 -0.0126  0.4122
12587TIP3    H137694   5.103   5.386   3.010  2.1573 -0.2128  0.2974
12587TIP3    H237695   5.181   5.263   2.968 -1.4771 -1.4786 -3.0824
12588TIP3   OH237696   6.013   5.782   1.447  0.0021  0.6944  0.0730
12588TIP3    H137697   5.972   5.702   1.415  2.1039  0.3495 -1.8873
12588TIP3    H237698   6.043   5.760   1.536  0.2127 -0.5863 -0.3049
12589TIP3   OH237699   6.212   7.706   3.055  0.0682 -0.6389  0.1035
12589TIP3    H137700   6.189   7.614   3.042  1.7145 -0.8909 -1.2219
12589TIP3    H237701   6.252   7.709   3.142  1.7979 -1.5424 -0.6513
12590TIP3   OH237702   3.562   6.749   6.590 -0.6562 -0.6499  0.1593
12590TIP3    H137703   3.534   6.761   6.681 -1.2687 -1.9684  0.1515
12590TIP3    H237704   3.546   6.834   6.549  0.7300  0.3205  1.5680
12591TIP3   OH237705   4.817   5.555   4.908  0.3140 -0.0058 -0.3798
12591TIP3    H137706   4.767   5.510   4.841 -0.8509  0.2403  0.3172
12591TIP3    H237707   4.890   5.497   4.927 -1.4599 -1.8577  0.9008
12592TIP3   OH237708   6.612   6.297   4.403 -0.3170 -0.4710 -0.5970
12592TIP3    H137709   6.639   6.386   4.379  0.6358 -0.6342 -0.1790
12592TIP3    H237710   6.674   6.272   4.472 -0.7409 -1.3638 -0.5402
12593TIP3   OH237711   3.632   5.237   5.944 -0.0901  0.5880  0.5206
12593TIP3    H137712   3.604   5.310   5.889 -1.6608 -0.5874 -0.3081
12593TIP3    H237713   3.720   5.215   5.913 -0.7115  0.3464 -1.1217
12594TIP3   OH237714   5.880   7.062   5.032 -0.1812 -0.4081 -0.2787
12594TIP3    H137715   5.898   7.000   5.103 -0.4747 -0.9051 -0.6403
12594TIP3    H237716   5.915   7.145   5.064  0.6033 -0.8531  0.0226
12595TIP3   OH237717   5.302   5.250   5.060  0.3045  0.2573  0.0247
12595TIP3    H137718   5.317   5.175   5.119  1.5010  0.1163 -0.4410
12595TIP3    H237719   5.295   5.211   4.973  0.7520  0.6619 -0.1947
12596TIP3   OH237720   7.158   5.667   3.329 -0.1494 -0.2412  0.3156
12596TIP3    H137721   7.186   5.731   3.263  0.1337 -0.5889  0.1018
12596TIP3    H237722   7.072   5.700   3.358 -0.1473  0.0683 -0.0175
12597TIP3   OH237723   8.317   0.022   5.391  0.5556  0.4870 -0.1721
12597TIP3    H137724   8.228   0.019   5.427  1.1824  2.1222  1.6037
12597TIP3    H237725   8.342   0.114   5.398  1.2538  0.6281 -3.5365
12598TIP3   OH237726   4.635   7.754   4.542 -0.6072 -0.7403 -0.5036
12598TIP3    H137727   4.700   7.751   4.472 -1.1146 -0.4237 -0.9981
12598TIP3    H237728   4.568   7.815   4.509 -0.6911 -0.3384  0.3908
12599TIP3   OH237729   5.430   4.864   4.466 -0.1115 -0.0814  0.5583
12599TIP3    H137730   5.522   4.884   4.480  0.3258 -2.1068  0.8015
12599TIP3    H237731   5.417   4.874   4.371 -0.0537  1.7884  0.7428
12600TIP3   OH237732   5.624   7.883   5.972 -0.3917 -0.4885  0.1217
12600TIP3    H137733   5.664   7.898   5.886  0.1245 -1.5105  0.1772
12600TIP3    H237734   5.672   7.940   6.032 -1.2744  0.8106 -0.4060
12601TIP3   OH237735   4.836   6.362   5.001  0.2901 -0.4385  0.4602
12601TIP3    H137736   4.862   6.273   4.978 -1.5637 -1.1211  0.9381
12601TIP3    H237737   4.827   6.361   5.096 -1.1711 -0.1346  0.3273
12602TIP3   OH237738   0.105   0.050   6.149 -0.0638 -0.2185  0.5597
12602TIP3    H137739   0.081   0.048   6.242 -0.0694 -1.5992  0.5370
12602TIP3    H237740   0.161   0.127   6.141 -1.3009  0.7960  1.3959
12603TIP3   OH237741   6.225   6.244   4.234 -0.1085  0.2158 -0.6873
12603TIP3    H137742   6.309   6.200   4.219  0.7632  2.1956 -1.8526
12603TIP3    H237743   6.228   6.320   4.176 -3.0389 -0.0925 -1.3193
12604TIP3   OH237744   8.105   0.338   6.263 -0.2850  0.1494  0.4733
12604TIP3    H137745   8.033   0.399   6.279 -0.1894  0.5935 -0.7499
12604TIP3    H237746   8.181   0.379   6.304  0.1373  1.6836 -1.6949
12605TIP3   OH237747   0.657   4.115   4.290 -0.2017  0.3291 -0.8211
12605TIP3    H137748   0.625   4.205   4.289 -0.6271  0.1967  0.2657
12605TIP3    H237749   0.585   4.063   4.324  0.8049 -0.1084  0.6988
12606TIP3   OH237750   4.615   7.378   6.295  0.9091 -0.4231 -0.0046
12606TIP3    H137751   4.692   7.434   6.296  0.4512  0.2042  1.9224
12606TIP3    H237752   4.647   7.293   6.264  1.9151  0.4620 -1.4060
12607TIP3   OH237753   3.869   5.175   5.856  0.4030 -0.5776  0.0226
12607TIP3    H137754   3.939   5.136   5.910  0.1812 -1.5292 -0.3630
12607TIP3    H237755   3.901   5.166   5.766  0.2048 -0.1501 -0.0895
12608TIP3   OH237756   3.391   4.257   0.947  0.0558  0.3783 -0.6052
12608TIP3    H137757   3.474   4.257   0.995 -0.4430  2.2498  0.3025
12608TIP3    H237758   3.372   4.164   0.932  1.0766 -0.1727  1.3349
12609TIP3   OH237759   5.782   5.138   6.057 -0.6338  0.0515  0.2480
12609TIP3    H137760   5.819   5.224   6.075  0.6297 -0.5433  0.5427
12609TIP3    H237761   5.773   5.134   5.962 -1.1782  0.6951  0.2703
12610TIP3   OH237762   6.534   5.582   5.729 -0.0653 -0.3349 -0.0298
12610TIP3    H137763   6.523   5.503   5.781  0.1962 -0.4352 -0.1274
12610TIP3    H237764   6.498   5.559   5.643  0.5288 -0.5273 -0.2236
12611TIP3   OH237765   5.422   5.695   6.899 -0.8415 -0.0385  0.1585
12611TIP3    H137766   5.390   5.645   6.973  1.6313  1.2465  2.1654
12611TIP3    H237767   5.348   5.698   6.838 -2.5795 -1.9636  2.1104
12612TIP3   OH237768   6.236   5.900   5.507  0.2429 -0.3757 -0.0447
12612TIP3    H137769   6.309   5.962   5.516  1.2992 -1.5772 -0.1597
12612TIP3    H237770   6.214   5.876   5.598 -0.8019  0.8691  0.0471
12613TIP3   OH237771   4.179   2.337   1.582  0.5321 -0.0793  0.4953
12613TIP3    H137772   4.111   2.275   1.607 -0.2415  0.4515 -0.2557
12613TIP3    H237773   4.160   2.415   1.634  0.8070 -0.0697  0.5806
12614TIP3   OH237774   5.621   6.320   4.860 -0.6131 -0.5251 -0.3615
12614TIP3    H137775   5.638   6.377   4.935  0.2757 -0.6663 -0.4548
12614TIP3    H237776   5.531   6.289   4.874 -0.3118 -0.8707  0.8434
12615TIP3   OH237777   4.489   6.869   6.813  0.2631  0.1200 -0.0505
12615TIP3    H137778   4.563   6.822   6.852  1.0276  1.7186  0.4498
12615TIP3    H237779   4.456   6.809   6.745  0.1304 -1.8453  1.7091
12616TIP3   OH237780   4.338   6.805   5.453  0.2035  0.8110 -0.0894
12616TIP3    H137781   4.403   6.858   5.501  0.3258 -0.9304  1.7377
12616TIP3    H237782   4.271   6.868   5.427  0.5321  1.9405  1.7002
12617TIP3   OH237783   5.936   1.043   5.858 -0.6747 -0.7607 -0.1981
12617TIP3    H137784   5.979   1.032   5.943  0.7051 -1.3403 -0.9609
12617TIP3    H237785   5.843   1.056   5.880 -0.3789 -1.1651  1.3723
12618TIP3   OH237786   7.394   4.113   6.240  0.1740  0.1294  0.5265
12618TIP3    H137787   7.358   4.140   6.156  0.1535  3.0652  1.4097
12618TIP3    H237788   7.482   4.081   6.220 -0.3736 -0.5393 -0.7871
12619TIP3   OH237789   5.443   7.054   5.567  0.2421 -0.5985  0.4176
12619TIP3    H137790   5.430   7.028   5.475 -0.1846 -0.2607  0.3782
12619TIP3    H237791   5.396   7.137   5.574  0.9756 -0.2069  0.7280
12620TIP3   OH237792   0.563   6.009   3.706 -0.1865 -0.0744 -0.0111
12620TIP3    H137793   0.593   5.918   3.694  1.4969  0.2653  1.4189
12620TIP3    H237794   0.622   6.060   3.650  1.1821  0.4861  1.9179
12621TIP3   OH237795   1.060   6.443   5.006  0.3090 -0.6237  0.0346
12621TIP3    H137796   1.030   6.399   4.927 -0.2175 -0.2433  0.0205
12621TIP3    H237797   0.983   6.449   5.062  0.7323 -1.1227  0.6905
12622TIP3   OH237798   2.638   4.290   0.423 -0.3114 -0.3919  0.2719
12622TIP3    H137799   2.544   4.300   0.435 -1.0402 -4.4858 -1.2678
12622TIP3    H237800   2.665   4.232   0.494  0.2064 -2.7575 -1.7942
12623TIP3   OH237801   2.971   1.658   4.406  0.6045 -0.4563  0.1031
12623TIP3    H137802   2.966   1.729   4.341 -0.2145 -0.8138 -0.2277
12623TIP3    H237803   3.034   1.690   4.471  0.6232  0.3614 -0.3080
12624TIP3   OH237804   4.789   4.941   6.054 -0.9855  0.4169  0.4244
12624TIP3    H137805   4.841   5.019   6.035  0.0289 -0.7786 -2.0027
12624TIP3    H237806   4.727   4.935   5.981 -0.6657 -1.3196  0.2627
12625TIP3   OH237807   5.755   6.606   4.597  0.1515  0.0766 -0.1518
12625TIP3    H137808   5.725   6.678   4.541 -0.3050  0.7460  0.9173
12625TIP3    H237809   5.710   6.621   4.680  1.5783 -0.3231  0.7102
12626TIP3   OH237810   5.839   7.757   4.124  0.5173 -0.1959 -0.0874
12626TIP3    H137811   5.926   7.718   4.112 -0.6230 -2.8354  0.1348
12626TIP3    H237812   5.790   7.731   4.046 -0.4178  0.4371  0.2776
12627TIP3   OH237813   3.689   7.827   6.473  0.3682  0.1471  0.4161
12627TIP3    H137814   3.639   7.811   6.393  0.6504  0.1313  0.2378
12627TIP3    H237815   3.682   7.746   6.522 -1.5587  0.8789  1.3910
12628TIP3   OH237816   4.523   7.196   4.946  0.5974  0.0345  0.5274
12628TIP3    H137817   4.566   7.217   4.863 -0.3356 -1.5041 -0.3690
12628TIP3    H237818   4.469   7.273   4.965  1.0947  0.5457 -0.1101
12629TIP3   OH237819   5.241   6.893   3.814 -0.4906  0.0639  0.3651
12629TIP3    H137820   5.200   6.818   3.855 -0.1501  1.0616  2.5843
12629TIP3    H237821   5.320   6.909   3.866 -0.1719  1.5063 -0.5271
12630TIP3   OH237822   4.404   6.602   5.272  0.2385  0.5338 -0.5327
12630TIP3    H137823   4.486   6.584   5.320 -0.0487  0.5094 -0.0433
12630TIP3    H237824   4.359   6.667   5.326  0.1875  0.9563 -1.0896
12631TIP3   OH237825   5.541   5.849   4.539 -0.4369  0.4272  0.2819
12631TIP3    H137826   5.582   5.843   4.452  0.3473 -0.3115  0.6958
12631TIP3    H237827   5.614   5.839   4.600 -1.2827 -1.2813  1.0437
12632TIP3   OH237828   5.226   6.796   4.919 -0.0430  0.1535  0.1995
12632TIP3    H137829   5.299   6.857   4.922 -0.3618  0.5934 -0.8211
12632TIP3    H237830   5.164   6.829   4.984 -0.5027  1.2980 -0.7989
12633TIP3   OH237831   5.810   6.848   4.868  0.1900 -0.2018  0.0738
12633TIP3    H137832   5.839   6.894   4.947  0.8827 -0.8400  0.1965
12633TIP3    H237833   5.875   6.871   4.802 -0.9696  1.1938 -0.6231
12634TIP3   OH237834   6.857   5.303   5.743 -0.0117 -0.9513  0.0496
12634TIP3    H137835   6.795   5.293   5.671 -1.3336 -1.3071  1.2282
12634TIP3    H237836   6.829   5.240   5.809  0.3713  0.3171  1.4495
12635TIP3   OH237837   3.251   6.871   0.603 -0.2451  0.0572  0.0905
12635TIP3    H137838   3.321   6.897   0.663  0.6658  0.7175 -1.2265
12635TIP3    H237839   3.232   6.780   0.625  0.6192  0.0621  0.8655
12636TIP3   OH237840   5.607   6.259   4.256  0.0965  0.0768 -0.1974
12636TIP3    H137841   5.676   6.233   4.318  1.4944  0.2637 -1.6395
12636TIP3    H237842   5.567   6.336   4.295 -0.3668 -0.9531  1.4220
12637TIP3   OH237843   6.101   5.999   5.258 -0.3006 -0.4330 -0.5846
12637TIP3    H137844   6.115   6.074   5.316  0.9865  0.0441 -1.4709
12637TIP3    H237845   6.110   6.036   5.170 -0.4781 -1.4721 -1.0426
12638TIP3   OH237846   6.906   5.755   3.380  0.0474 -0.4485 -0.5631
12638TIP3    H137847   6.850   5.772   3.305  0.8971  1.1044 -0.8688
12638TIP3    H237848   6.857   5.789   3.455  1.2282  2.4995 -1.0283
12639TIP3   OH237849   5.118   6.631   3.037  0.2636 -0.0615  0.0963
12639TIP3    H137850   5.043   6.642   3.097 -0.6606  0.3528 -1.1043
12639TIP3    H237851   5.159   6.718   3.036  0.1697 -0.0174 -0.0022
12640TIP3   OH237852   3.734   7.741   1.732  0.5924  0.5122 -0.6779
12640TIP3    H137853   3.682   7.746   1.652  0.2911  1.6355 -0.4187
12640TIP3    H237854   3.823   7.762   1.705  0.4505  1.1067 -0.6765
12641TIP3   OH237855   1.300   1.182   1.001  0.5094  0.5213  0.0945
12641TIP3    H137856   1.314   1.185   0.907 -0.3839  1.3219 -0.0263
12641TIP3    H237857   1.213   1.142   1.011  0.4790  0.6992  0.5623
12642TIP3   OH237858   5.447   7.725   6.138 -0.0168 -0.1853  0.5367
12642TIP3    H137859   5.500   7.727   6.058 -1.8156 -0.4871 -0.7111
12642TIP3    H237860   5.468   7.806   6.183  0.8778  0.0962 -0.3598
12643TIP3   OH237861   1.784   4.127   1.478 -0.2517 -0.4993  0.6119
12643TIP3    H137862   1.723   4.201   1.481  0.1737 -0.1366  0.2013
12643TIP3    H237863   1.824   4.132   1.391 -0.1582 -1.1597  0.6172
12644TIP3   OH237864   0.994   3.748   1.130  0.2875  0.2951  0.0545
12644TIP3    H137865   0.968   3.656   1.122  0.0499  0.3537  0.1566
12644TIP3    H237866   1.037   3.754   1.215 -0.0387  0.3611  0.2152
12645TIP3   OH237867   4.061   7.353   5.984 -0.3632  0.3646 -0.4092
12645TIP3    H137868   4.052   7.432   6.036 -1.5961 -1.2766  1.9758
12645TIP3    H237869   3.974   7.338   5.947 -0.2100 -0.0410 -0.6119
12646TIP3   OH237870   4.382   6.077   6.048 -0.2299 -0.0148 -0.5856
12646TIP3    H137871   4.348   6.129   5.975  1.8391 -0.0529 -1.6141
12646TIP3    H237872   4.476   6.091   6.045 -0.0414 -0.6536  1.6194
12647TIP3   OH237873   3.980   5.380   0.748  0.4350 -0.4808  0.5455
12647TIP3    H137874   3.969   5.297   0.794 -1.1212 -0.9682 -0.6671
12647TIP3    H237875   3.901   5.430   0.771 -0.5052 -0.8434 -1.7993
12648TIP3   OH237876   0.572   0.701   6.121  0.2169 -0.9246  0.2402
12648TIP3    H137877   0.524   0.704   6.038  1.0483 -1.2231 -0.2647
12648TIP3    H237878   0.662   0.723   6.096  0.7738 -2.4856  0.8254
12649TIP3   OH237879   1.071   0.227   5.278  0.5804 -0.1232 -0.0218
12649TIP3    H137880   1.057   0.261   5.190  2.1097  0.1975 -0.1607
12649TIP3    H237881   0.991   0.180   5.299  0.3796 -0.5907 -1.7714
12650TIP3   OH237882   4.613   6.998   5.327 -0.2417 -1.3106 -0.0351
12650TIP3    H137883   4.692   6.998   5.382  0.0864 -0.6582 -0.4973
12650TIP3    H237884   4.647   7.002   5.237 -0.7836 -2.0671 -0.2737
12651TIP3   OH237885   1.028   1.433   2.815 -0.1379  0.6414  0.2181
12651TIP3    H137886   0.974   1.483   2.876  1.4169  1.4822  0.9520
12651TIP3    H237887   0.977   1.430   2.734 -2.0023 -0.0607  1.4112
12652TIP3   OH237888   5.658   7.297   4.030  0.4242  0.2608 -0.3514
12652TIP3    H137889   5.618   7.311   4.116  0.9400 -1.2293  0.1456
12652TIP3    H237890   5.751   7.292   4.047  0.5876  0.5657 -1.0979
12653TIP3   OH237891   5.169   7.720   6.144  0.0915  0.4565 -0.1201
12653TIP3    H137892   5.163   7.776   6.067  1.8232  0.9324  0.0620
12653TIP3    H237893   5.262   7.698   6.149 -0.3532 -1.2920  0.6170
12654TIP3   OH237894   5.556   5.103   5.497 -0.0140  0.1481  0.0696
12654TIP3    H137895   5.468   5.140   5.488  0.3031  0.9807  0.3908
12654TIP3    H237896   5.547   5.038   5.566 -0.6143 -0.5231 -0.6281
12655TIP3   OH237897   5.253   6.557   4.791  0.0033 -0.4692 -0.0474
12655TIP3    H137898   5.225   6.636   4.837 -1.5522 -0.0385 -1.6490
12655TIP3    H237899   5.246   6.487   4.856  0.1362  0.4957  1.0165
12656TIP3   OH237900   5.899   7.099   6.525 -0.1252 -0.4136  0.7999
12656TIP3    H137901   5.946   7.048   6.459 -1.9563  0.1779 -1.0003
12656TIP3    H237902   5.859   7.034   6.583 -0.2453 -0.9700  0.0903
12657TIP3   OH237903   7.441   3.795   6.862  0.0717  0.6358 -0.0403
12657TIP3    H137904   7.405   3.868   6.812  2.1189  0.7635 -1.4028
12657TIP3    H237905   7.484   3.836   6.937  0.1746  0.7592 -0.1638
12658TIP3   OH237906   5.596   4.232   5.237  0.4068 -0.6797 -0.2984
12658TIP3    H137907   5.556   4.250   5.323  1.4565 -0.7808  0.2157
12658TIP3    H237908   5.564   4.144   5.214  1.1929 -1.2112  0.6134
12659TIP3   OH237909   6.607   4.783   6.246  0.2550  0.1493  0.2044
12659TIP3    H137910   6.665   4.812   6.175  0.1047 -1.6960 -0.7144
12659TIP3    H237911   6.522   4.772   6.204  0.0044 -0.2772  0.8221
12660TIP3   OH237912   6.095   5.834   3.960 -0.0797 -0.0205  0.4110
12660TIP3    H137913   6.145   5.824   3.878 -0.2937  1.3695  0.1063
12660TIP3    H237914   6.144   5.899   4.010 -1.6363  1.4172  0.0753
12661TIP3   OH237915   4.478   6.742   6.525  0.0499 -0.3594 -0.0312
12661TIP3    H137916   4.464   6.724   6.432 -2.6739 -0.4570  0.3353
12661TIP3    H237917   4.402   6.795   6.550  1.8792  1.5647  1.6417
12662TIP3   OH237918   6.121   5.844   2.772  0.4436 -0.3893 -0.4649
12662TIP3    H137919   6.208   5.837   2.813 -0.8585  1.2203  2.7249
12662TIP3    H237920   6.062   5.800   2.833 -1.3209  0.5149 -1.4821
12663TIP3   OH237921   6.908   1.244   3.447  0.5235 -0.4708  0.1307
12663TIP3    H137922   6.951   1.321   3.484  2.0858 -1.3122  0.1332
12663TIP3    H237923   6.818   1.272   3.431  0.8630  1.1109  0.8525
12664TIP3   OH237924   5.162   6.343   4.649  0.7026 -0.0610 -0.2106
12664TIP3    H137925   5.177   6.423   4.700  1.5455 -0.2793 -0.1173
12664TIP3    H237926   5.210   6.275   4.695  0.6325 -0.4689 -0.7333
12665TIP3   OH237927   6.652   5.241   4.262  0.0287  0.1365  0.4230
12665TIP3    H137928   6.630   5.241   4.355 -0.3169  1.2139  0.3488
12665TIP3    H237929   6.747   5.250   4.260  0.1531 -1.1128  0.6904
12666TIP3   OH237930   6.071   5.554   3.170 -0.4461 -0.8315 -0.3771
12666TIP3    H137931   6.137   5.603   3.219  0.1598  0.2873 -2.2611
12666TIP3    H237932   6.031   5.619   3.112 -0.7946 -2.2202 -1.7226
12667TIP3   OH237933   4.182   7.964   4.852 -0.4258  0.2879 -0.0282
12667TIP3    H137934   4.194   7.882   4.803 -0.0550  0.6949 -0.6201
12667TIP3    H237935   4.119   7.942   4.920  1.1256 -1.0073  1.0187
12668TIP3   OH237936   6.729   4.618   5.240 -0.1212  0.0608 -0.2008
12668TIP3    H137937   6.812   4.605   5.195  0.8646  0.0176  1.5938
12668TIP3    H237938   6.713   4.535   5.285 -0.0231  0.8239  1.2564
12669TIP3   OH237939   3.372   1.530   0.806 -0.1341  0.7790 -0.1122
12669TIP3    H137940   3.288   1.558   0.769 -1.3666 -2.4904  0.0533
12669TIP3    H237941   3.368   1.556   0.897 -0.6280  1.3945 -0.3067
12670TIP3   OH237942   3.642   6.397   3.723 -0.2894  0.7955 -0.2699
12670TIP3    H137943   3.670   6.316   3.680  0.7302  1.3920 -0.7613
12670TIP3    H237944   3.620   6.370   3.812 -3.9280 -0.7294 -1.5353
12671TIP3   OH237945   0.140   5.425   5.544  0.1821 -0.5463 -0.2342
12671TIP3    H137946   0.051   5.461   5.540  0.9264  1.3211 -0.4030
12671TIP3    H237947   0.132   5.339   5.504 -1.8191 -0.9350  0.9256
12672TIP3   OH237948   0.583   5.843   2.693  0.3705 -0.4013  0.0462
12672TIP3    H137949   0.594   5.937   2.708  1.7572 -0.7151  1.0800
12672TIP3    H237950   0.491   5.826   2.712  0.4141  0.5178  1.1405
12673TIP3   OH237951   2.836   0.694   4.104  0.0832 -0.0114 -0.2450
12673TIP3    H137952   2.780   0.771   4.093 -0.7582 -0.5912 -0.0592
12673TIP3    H237953   2.851   0.663   4.015  0.8499  0.6657 -0.3561
12674TIP3   OH237954   6.390   6.563   4.969 -0.2735  0.5331 -0.1705
12674TIP3    H137955   6.388   6.475   4.930 -0.6817  0.6414 -0.3877
12674TIP3    H237956   6.456   6.610   4.918 -0.9771  0.7484 -0.8900
12675TIP3   OH237957   5.067   7.492   4.834  0.7012  0.2244 -0.2584
12675TIP3    H137958   4.977   7.458   4.836  0.7031  0.2429  0.0709
12675TIP3    H237959   5.067   7.554   4.760 -0.0361  1.5266  0.8029
12676TIP3   OH237960   5.406   6.452   6.064 -0.0081 -0.3711  0.0640
12676TIP3    H137961   5.389   6.418   6.152 -2.4118  0.2165 -0.1402
12676TIP3    H237962   5.423   6.545   6.077 -1.0202 -0.1516 -0.1459
12677TIP3   OH237963   6.516   6.676   2.319  0.3010  0.0903  0.5502
12677TIP3    H137964   6.481   6.729   2.247  0.9237  1.5421  1.3016
12677TIP3    H237965   6.518   6.587   2.284 -1.8972  0.3528 -0.3355
12678TIP3   OH237966   1.876   6.028   3.060 -0.5096  0.2298 -0.2956
12678TIP3    H137967   1.880   5.944   3.106 -0.5719 -0.1671 -1.0031
12678TIP3    H237968   1.818   6.082   3.114 -0.6528 -0.2556  0.0429
12679TIP3   OH237969   0.298   6.028   4.482 -0.0330 -0.0678 -0.4463
12679TIP3    H137970   0.228   6.031   4.548  0.9427 -1.6636  0.6843
12679TIP3    H237971   0.371   6.076   4.523  0.1274  0.0854 -0.9106
12680TIP3   OH237972   7.442   7.526   4.386 -0.0588  0.3929 -0.0600
12680TIP3    H137973   7.379   7.550   4.318 -0.1786 -0.3353 -0.2037
12680TIP3    H237974   7.422   7.584   4.460 -1.5071 -0.4998  0.2476
12681TIP3   OH237975   0.246   5.212   2.704 -0.6541  0.0612 -0.2638
12681TIP3    H137976   0.292   5.276   2.651  1.9633  0.6762  2.6017
12681TIP3    H237977   0.247   5.132   2.652  2.3220  0.5056 -0.9402
12682TIP3   OH237978   5.449   5.962   1.429  0.0091 -0.0400  0.1122
12682TIP3    H137979   5.396   5.908   1.372  0.3268  1.2729 -1.4504
12682TIP3    H237980   5.539   5.934   1.413 -0.0138 -0.7060  1.0917
12683TIP3   OH237981   7.492   5.986   3.950  0.5080  0.6844  0.4979
12683TIP3    H137982   7.523   5.955   4.035 -0.3378 -0.4718  0.3978
12683TIP3    H237983   7.528   5.923   3.887  1.6400  1.8829 -0.0684
12684TIP3   OH237984   1.420   6.958   4.377 -0.1868 -0.1436  0.0515
12684TIP3    H137985   1.508   6.950   4.338 -0.5858 -1.0718 -0.6798
12684TIP3    H237986   1.361   6.942   4.304 -0.9571 -1.3281  0.9154
12685TIP3   OH237987   1.951   1.152   3.548  0.0012  0.3216  0.6285
12685TIP3    H137988   1.881   1.100   3.508  1.3898 -0.0637 -1.3515
12685TIP3    H237989   1.981   1.210   3.478  1.8654  0.2579  1.3613
12686TIP3   OH237990   7.930   6.055   3.729  0.3904  0.4017  0.0731
12686TIP3    H137991   8.018   6.048   3.693  0.7337  0.0241  0.9484
12686TIP3    H237992   7.890   6.129   3.683  1.6381  1.4517  0.6494
12687TIP3   OH237993   0.371   6.562   3.968  0.1786 -0.6543 -0.5810
12687TIP3    H137994   0.379   6.635   3.906 -2.2709  0.3817  0.2774
12687TIP3    H237995   0.378   6.484   3.913 -0.4884  0.2413 -1.9580
12688TIP3   OH237996   0.619   6.087   3.973 -0.4255 -0.6814  0.2519
12688TIP3    H137997   0.542   6.140   3.992  0.0978 -0.5160  2.0541
12688TIP3    H237998   0.607   6.059   3.882 -1.7210  0.8027 -0.0715
12689TIP3   OH237999   1.884   0.319   2.779 -0.4484 -0.4042 -0.9132
12689TIP3    H138000   1.816   0.323   2.712 -0.7795  0.3816 -0.5303
12689TIP3    H238001   1.895   0.225   2.796 -1.0910 -0.5578 -1.3237
12690TIP3   OH238002   6.046   7.270   3.621  0.0370 -0.7676  0.0313
12690TIP3    H138003   6.066   7.329   3.548  1.2706 -1.4350 -0.1856
12690TIP3    H238004   5.980   7.211   3.587 -0.3029 -0.2922 -0.1440
12691TIP3   OH238005   1.016   7.216   3.394 -0.4627  0.5136 -0.1626
12691TIP3    H138006   1.068   7.182   3.321  2.5670  1.9571  1.2238
12691TIP3    H238007   0.978   7.298   3.361 -0.4052  0.3605 -0.6094
12692TIP3   OH238008   1.010   0.213   3.344  0.0259 -0.1705  0.8362
12692TIP3    H138009   1.069   0.138   3.339  2.1788  1.4818  0.9694
12692TIP3    H238010   0.937   0.189   3.287  1.3711 -1.7415 -0.2752
12693TIP3   OH238011   1.230   7.405   2.310  0.2020 -0.3996 -0.1108
12693TIP3    H138012   1.253   7.388   2.401 -0.4768 -1.4977 -0.1312
12693TIP3    H238013   1.172   7.333   2.286  0.4642 -0.1850 -1.4511
12694TIP3   OH238014   7.075   5.994   4.734 -0.3859  0.0225  0.1279
12694TIP3    H138015   7.126   5.913   4.734 -1.8428 -0.9363  1.8581
12694TIP3    H238016   7.117   6.049   4.668  1.4391 -1.6302 -0.1332
12695TIP3   OH238017   6.819   5.027   5.582  0.1136 -0.1443 -0.3609
12695TIP3    H138018   6.760   5.103   5.580  0.6147  0.2608  0.0958
12695TIP3    H238019   6.770   4.958   5.539 -0.0200  0.6832 -1.5752
12696TIP3   OH238020   7.372   7.726   4.590  0.2075  0.5184  0.1336
12696TIP3    H138021   7.357   7.679   4.672  0.2220  0.1580 -0.0672
12696TIP3    H238022   7.427   7.800   4.614  0.5023  0.2167  0.3930
12697TIP3   OH238023   1.657   5.701   3.767  0.1494 -0.3819  0.0906
12697TIP3    H138024   1.642   5.755   3.845 -0.4799 -2.3542  1.3732
12697TIP3    H238025   1.616   5.618   3.788  1.0940 -1.3583 -1.8673
12698TIP3   OH238026   8.124   8.022   4.326  0.1171  0.4050 -0.0371
12698TIP3    H138027   8.038   8.029   4.285 -0.1094 -0.4612  0.2732
12698TIP3    H238028   8.172   7.961   4.271  0.6134  1.0489 -0.3279
12699TIP3   OH238029   6.300   6.113   2.880 -0.1356  0.3815 -0.0811
12699TIP3    H138030   6.348   6.196   2.872  0.1661  0.1176 -1.0192
12699TIP3    H238031   6.208   6.139   2.874 -0.0775  0.7481  0.5216
12700TIP3   OH238032   0.305   5.977   4.073  0.1073 -0.0719 -0.1621
12700TIP3    H138033   0.240   5.941   4.013  0.5539 -0.1758 -0.5864
12700TIP3    H238034   0.370   5.907   4.083 -0.5206 -0.4680  1.3015
12701TIP3   OH238035   8.415   5.651   3.928  0.6443 -0.4143  0.9269
12701TIP3    H138036   8.345   5.702   3.886  1.3247  2.0599  2.6670
12701TIP3    H238037   8.465   5.615   3.854 -0.6658  0.3190 -0.3567
12702TIP3   OH238038   7.004   7.029   3.278  0.0428  0.8625  0.2467
12702TIP3    H138039   6.921   7.072   3.255 -0.4665 -0.2414 -0.0095
12702TIP3    H238040   6.982   6.975   3.354 -0.2242 -1.7723 -1.6190
12703TIP3   OH238041   7.317   6.823   4.659 -0.0266 -0.4645 -0.3403
12703TIP3    H138042   7.290   6.781   4.740 -1.2862  0.7931 -0.0798
12703TIP3    H238043   7.303   6.757   4.591 -1.8137 -0.5243  0.0763
12704TIP3   OH238044   6.346   5.810   5.971  0.7321 -0.6064  0.3548
12704TIP3    H138045   6.336   5.866   5.894  0.1770 -0.1945  0.7172
12704TIP3    H238046   6.377   5.869   6.040 -0.2045 -0.6612  0.8368
12705TIP3   OH238047   1.661   0.393   4.800 -0.0218  0.0220 -0.2359
12705TIP3    H138048   1.733   0.330   4.801  0.7492  0.8471 -1.8937
12705TIP3    H238049   1.587   0.344   4.836  1.6986 -0.3387  3.0495
12706TIP3   OH238050   5.319   7.417   4.988  0.3589  0.2699 -0.3706
12706TIP3    H138051   5.229   7.389   4.969 -0.3425  1.3735  1.1719
12706TIP3    H238052   5.350   7.354   5.054  0.5242  0.2196 -0.4962
12707TIP3   OH238053   7.996   5.360   4.410  0.3917 -0.1452  0.5470
12707TIP3    H138054   7.920   5.336   4.462  1.0748  0.2267  1.7462
12707TIP3    H238055   7.972   5.443   4.368 -0.2388 -0.5551  0.0901
12708TIP3   OH238056   7.367   6.283   3.630  0.2077 -0.7041 -1.3190
12708TIP3    H138057   7.279   6.303   3.661  0.9434  0.6657 -0.0154
12708TIP3    H238058   7.406   6.369   3.611  1.7599 -1.1822 -0.4301
12709TIP3   OH238059   8.123   7.781   1.646  0.2321  0.3345  0.2285
12709TIP3    H138060   8.177   7.707   1.618 -0.8480 -0.1247 -0.6907
12709TIP3    H238061   8.167   7.815   1.723  0.4931 -1.6025  0.9701
12710TIP3   OH238062   7.329   4.568   3.689 -0.1444 -0.4615 -0.2705
12710TIP3    H138063   7.330   4.608   3.602  1.4479 -0.4284 -0.2552
12710TIP3    H238064   7.320   4.641   3.749 -5.2129 -0.7501 -0.4896
12711TIP3   OH238065   6.818   7.388   4.196  0.2692  0.2546  0.3144
12711TIP3    H138066   6.792   7.479   4.211  1.4127  0.9053 -1.4339
12711TIP3    H238067   6.910   7.385   4.224  0.4010 -0.2247 -0.1657
12712TIP3   OH238068   7.036   7.288   4.773  0.2839  0.3156  0.3697
12712TIP3    H138069   7.087   7.219   4.730  3.6700  1.5225  2.2699
12712TIP3    H238070   7.050   7.274   4.866 -1.4142  1.8039  0.8787
12713TIP3   OH238071   0.725   5.689   4.403  0.3567 -0.4848 -0.4667
12713TIP3    H138072   0.645   5.710   4.452 -1.3176 -0.8401 -2.9153
12713TIP3    H238073   0.737   5.763   4.344  1.8261 -0.4642 -0.1453
12714TIP3   OH238074   0.412   6.551   2.899  1.1084  0.2652 -0.1700
12714TIP3    H138075   0.406   6.584   2.989 -1.9329 -1.8849  0.4881
12714TIP3    H238076   0.390   6.458   2.906  0.7611  0.0717 -3.1505
12715TIP3   OH238077   6.848   4.774   3.864  0.0168  0.3253 -0.3525
12715TIP3    H138078   6.877   4.686   3.887  0.9886  1.1345  1.6348
12715TIP3    H238079   6.925   4.815   3.822  0.3278  0.9933  0.8566
12716TIP3   OH238080   4.147   5.458   3.259 -0.0959  0.0342  0.4862
12716TIP3    H138081   4.076   5.398   3.238 -0.0453 -0.5076  1.7891
12716TIP3    H238082   4.125   5.539   3.213  0.5302 -1.3865 -2.3869
12717TIP3   OH238083   6.949   5.876   4.110  0.2985 -0.3896 -0.6436
12717TIP3    H138084   7.016   5.897   4.175 -2.0715 -0.1909  1.8422
12717TIP3    H238085   6.942   5.955   4.057  0.8081  0.2434  0.2032
12718TIP3   OH238086   7.227   3.398   3.786  0.2332  0.3938 -0.4963
12718TIP3    H138087   7.303   3.401   3.727  0.1803 -0.3800 -0.6131
12718TIP3    H238088   7.251   3.455   3.859  2.4034 -2.4636  1.1601
12719TIP3   OH238089   8.074   6.532   2.918  0.3660  0.1465  0.2967
12719TIP3    H138090   8.025   6.517   2.837  2.3722 -0.2325 -0.8805
12719TIP3    H238091   8.083   6.446   2.958  1.9594 -0.1053 -0.6036
12720TIP3   OH238092   7.051   6.758   3.977 -0.2609  0.6275 -0.3483
12720TIP3    H138093   7.139   6.727   3.954 -0.5589  0.3090 -1.0690
12720TIP3    H238094   7.047   6.847   3.943 -0.6930  0.1652 -1.5172
12721TIP3   OH238095   7.976   7.579   4.160 -0.2610  0.1906  0.6056
12721TIP3    H138096   8.004   7.506   4.105 -1.6880 -1.0185  1.4412
12721TIP3    H238097   7.950   7.538   4.243 -0.4191  1.7264  1.3426
12722TIP3   OH238098   7.979   6.545   4.870 -0.1330 -0.3543  0.4132
12722TIP3    H138099   7.963   6.545   4.965 -0.5216 -0.0565  0.3437
12722TIP3    H238100   7.899   6.579   4.831 -0.5372 -1.8981 -0.1227
12723TIP3   OH238101   1.324   7.167   4.508  0.8897 -0.2466 -0.5705
12723TIP3    H138102   1.404   7.162   4.560  0.7436 -0.8972 -0.3961
12723TIP3    H238103   1.338   7.105   4.437  0.1933 -1.0221 -0.0441
12724TIP3   OH238104   7.695   5.347   6.327 -0.4271  0.2654  0.2532
12724TIP3    H138105   7.701   5.291   6.404  0.1719 -0.9597 -0.6686
12724TIP3    H238106   7.744   5.301   6.259 -0.4866  1.5807 -0.7231
12725TIP3   OH238107   6.970   6.417   4.253 -0.0363  0.1770  0.0404
12725TIP3    H138108   7.038   6.479   4.278 -0.1208  0.1763  0.2680
12725TIP3    H238109   6.889   6.453   4.289  0.0991 -0.7112  1.2894
12726TIP3   OH238110   5.669   6.363   5.603 -0.8401 -0.5697 -0.5659
12726TIP3    H138111   5.687   6.270   5.591  2.1016  0.2042 -2.9565
12726TIP3    H238112   5.731   6.391   5.671  0.0550  0.1229 -1.6512
12727TIP3   OH238113   0.370   0.371   3.911 -0.2120 -0.6078  0.1606
12727TIP3    H138114   0.278   0.347   3.899 -0.5368  1.1944 -1.1135
12727TIP3    H238115   0.418   0.298   3.871 -1.1322 -0.4602 -1.2774
12728TIP3   OH238116   7.102   5.529   4.192  0.0298 -0.1107  0.3077
12728TIP3    H138117   7.165   5.516   4.263  0.3664 -1.0006 -0.1452
12728TIP3    H238118   7.136   5.477   4.119  0.2096  1.5355 -0.8409
12729TIP3   OH238119   1.253   5.543   2.744  0.0968 -0.4443  0.3461
12729TIP3    H138120   1.219   5.629   2.718  2.0671  0.0076 -0.9239
12729TIP3    H238121   1.178   5.485   2.741 -1.2669  1.2431  1.2086
12730TIP3   OH238122   4.599   7.329   4.706 -0.5236  0.0567 -0.6460
12730TIP3    H138123   4.651   7.366   4.634 -0.1479  1.1529  0.1756
12730TIP3    H238124   4.514   7.372   4.699 -0.6422 -0.1877 -0.7166
12731TIP3   OH238125   7.455   7.835   4.023 -0.3774  0.1764  0.5427
12731TIP3    H138126   7.398   7.891   4.076 -0.2044  0.0719  0.8381
12731TIP3    H238127   7.544   7.854   4.054 -0.1927  0.8418 -0.3842
12732TIP3   OH238128   7.839   1.584   4.993 -0.1653  0.5847  0.2217
12732TIP3    H138129   7.815   1.511   5.049 -1.4917  0.4468 -0.4881
12732TIP3    H238130   7.757   1.632   4.980  0.2714  1.0504 -0.9501
12733TIP3   OH238131   7.796   4.177   4.426 -0.3231  0.2341  0.3079
12733TIP3    H138132   7.864   4.233   4.463 -0.3906 -0.0583  0.8879
12733TIP3    H238133   7.804   4.189   4.331  0.7857 -0.0858  0.3473
12734TIP3   OH238134   6.776   7.185   4.407  0.5245 -0.1119  0.2505
12734TIP3    H138135   6.683   7.162   4.404  0.2683  0.5983  1.7675
12734TIP3    H238136   6.787   7.249   4.337 -0.2606  0.1936  0.3925
12735TIP3   OH238137   3.125   6.721   4.564 -0.1473  0.7590  0.0858
12735TIP3    H138138   3.055   6.665   4.598  1.0719 -0.4256  0.7186
12735TIP3    H238139   3.139   6.785   4.634 -0.2935  0.7180  0.1536
12736TIP3   OH238140   0.928   6.092   4.293  0.3583 -0.1892 -1.0398
12736TIP3    H138141   1.002   6.098   4.353 -0.1515  1.0176 -0.5060
12736TIP3    H238142   0.908   6.183   4.271 -0.5775 -0.5324 -1.6398
12737TIP3   OH238143   7.213   6.502   2.149  0.2395 -0.0181  0.5250
12737TIP3    H138144   7.193   6.486   2.241  1.2589 -0.1937  0.7254
12737TIP3    H238145   7.154   6.574   2.124 -2.0454 -1.8489  0.5152
12738TIP3   OH238146   7.853   2.823   4.879 -0.2537 -0.3138  0.0769
12738TIP3    H138147   7.927   2.841   4.937 -1.2167 -0.2625  1.2820
12738TIP3    H238148   7.879   2.742   4.833  0.3010 -0.6135  0.9043
12739TIP3   OH238149   2.751   0.157   3.599  0.0510 -0.4552  0.2811
12739TIP3    H138150   2.709   0.136   3.515  2.3546 -0.4115 -0.9299
12739TIP3    H238151   2.767   0.073   3.640 -0.2832 -0.5184  0.2866
12740TIP3   OH238152   1.519   6.072   3.722  0.1917 -0.0705 -0.3162
12740TIP3    H138153   1.569   6.152   3.738  0.4568 -0.2452 -0.2770
12740TIP3    H238154   1.491   6.043   3.809  0.3998 -0.2174 -0.2978
12741TIP3   OH238155   0.096   0.379   3.797 -0.1581 -1.0304 -0.0292
12741TIP3    H138156   0.047   0.301   3.824  0.9021 -1.7190 -0.0553
12741TIP3    H238157   0.108   0.367   3.703 -2.5960  0.6589 -0.6021
12742TIP3   OH238158   0.467   6.093   2.605 -0.0049 -0.5819  0.1045
12742TIP3    H138159   0.509   6.093   2.518 -0.0366 -0.5581  0.0894
12742TIP3    H238160   0.378   6.061   2.588 -0.4369  0.7123 -0.0720
12743TIP3   OH238161   7.089   6.996   2.030  0.0240  0.3751  0.3267
12743TIP3    H138162   7.174   6.996   2.074 -0.1299  1.8727  0.6515
12743TIP3    H238163   7.099   7.060   1.959 -0.9058  0.7340  0.5148
12744TIP3   OH238164   7.838   4.787   4.371 -0.2716  0.0026 -0.1412
12744TIP3    H138165   7.772   4.724   4.399  0.4028 -0.4033  0.5582
12744TIP3    H238166   7.838   4.782   4.276 -0.3396 -0.9346 -0.0941
12745TIP3   OH238167   0.843   4.761   5.738  0.0801 -0.1536 -0.1130
12745TIP3    H138168   0.841   4.760   5.642  1.8721 -0.4622 -0.1723
12745TIP3    H238169   0.924   4.715   5.761 -0.1684  0.1928  1.5422
12746TIP3   OH238170   3.311   0.612   5.185 -0.3113 -0.0408  0.1170
12746TIP3    H138171   3.295   0.638   5.094 -1.9264  1.8643  0.9226
12746TIP3    H238172   3.353   0.526   5.178  0.6731  0.5944 -2.4678
12747TIP3   OH238173   8.389   7.012   2.585 -0.1988  0.4156  0.3371
12747TIP3    H138174   8.377   7.021   2.679 -1.7136  0.8709  0.1194
12747TIP3    H238175   8.364   6.921   2.567 -3.4409  1.3240 -0.0957
12748TIP3   OH238176   2.989   5.741   6.755  0.0445  0.0906  0.0796
12748TIP3    H138177   3.023   5.689   6.682 -1.2273  1.3537 -1.4565
12748TIP3    H238178   3.066   5.765   6.806  1.0044 -0.3802 -1.1312
12749TIP3   OH238179   6.407   6.625   3.734  0.0178  0.6513  0.3611
12749TIP3    H138180   6.352   6.680   3.679 -0.7398 -0.8309 -0.3885
12749TIP3    H238181   6.367   6.629   3.821 -2.2098 -1.5892 -0.4895
12750TIP3   OH238182   8.173   6.333   5.140  0.0087 -0.5837 -0.0370
12750TIP3    H138183   8.111   6.403   5.162  0.5869  0.4703 -1.6828
12750TIP3    H238184   8.119   6.255   5.132 -0.6566 -0.3468  1.7894
12751TIP3   OH238185   1.887   5.139   6.322  0.1259 -0.4796  0.3039
12751TIP3    H138186   1.817   5.077   6.303  0.8584 -1.2118 -0.0134
12751TIP3    H238187   1.967   5.096   6.292  0.5315  1.0427 -0.8990
12752TIP3   OH238188   2.239   1.358   5.351  0.3373  0.1344  0.4672
12752TIP3    H138189   2.324   1.354   5.396  0.6203  3.0716  0.2779
12752TIP3    H238190   2.179   1.391   5.417 -0.0921  0.6208 -0.1669
12753TIP3   OH238191   4.694   5.490   2.481  0.3715  0.1905  0.6148
12753TIP3    H138192   4.751   5.418   2.509 -0.6865 -0.1732  1.8640
12753TIP3    H238193   4.736   5.524   2.402  0.9882 -1.6700  0.1187
12754TIP3   OH238194   7.270   5.709   4.013  0.1161 -0.3304  0.0474
12754TIP3    H138195   7.184   5.677   4.041 -0.8763  1.4373 -0.9199
12754TIP3    H238196   7.287   5.784   4.070  1.3576 -1.1165  0.7233
12755TIP3   OH238197   3.282   0.422   4.709  0.1713  0.5828 -0.2163
12755TIP3    H138198   3.231   0.440   4.629  1.0891 -1.4879 -1.2907
12755TIP3    H238199   3.372   0.442   4.684  0.5416 -0.6772  0.1271
12756TIP3   OH238200   2.028   1.217   4.611  0.0945  0.2524  0.3479
12756TIP3    H138201   2.052   1.153   4.544 -1.8561 -0.6447  0.4716
12756TIP3    H238202   2.104   1.275   4.617  1.0716 -0.8210 -1.2358
12757TIP3   OH238203   1.222   6.615   3.777 -0.5504  0.9803  0.0104
12757TIP3    H138204   1.282   6.618   3.851 -0.6569  2.8150  0.0453
12757TIP3    H238205   1.274   6.643   3.702 -0.5954 -0.3146 -0.5264
12758TIP3   OH238206   7.977   6.627   3.333  0.4268 -0.1563  0.3684
12758TIP3    H138207   7.891   6.591   3.312  0.7560 -0.8133  0.1476
12758TIP3    H238208   7.999   6.681   3.257 -0.0451  0.4900  0.6816
12759TIP3   OH238209   0.747   1.544   5.377  0.0351  0.3882  0.7513
12759TIP3    H138210   0.668   1.546   5.431 -0.1200  2.0118  0.4757
12759TIP3    H238211   0.807   1.487   5.424 -1.0138 -0.2428  1.3513
12760TIP3   OH238212   6.242   5.271   2.545  0.1283 -0.2551 -0.4844
12760TIP3    H138213   6.244   5.256   2.639 -0.9599  0.1461 -0.3957
12760TIP3    H238214   6.305   5.342   2.531 -3.1985  2.9982  0.5656
12761TIP3   OH238215   7.035   6.235   3.715 -0.3368 -0.5970  0.6382
12761TIP3    H138216   6.955   6.287   3.707 -0.4471 -0.6442  1.4595
12761TIP3    H238217   7.032   6.175   3.640  0.2051  1.1430 -0.8056
12762TIP3   OH238218   6.023   5.097   3.497 -0.4857  0.1786  0.2271
12762TIP3    H138219   6.052   5.108   3.587  0.1340 -0.9506  0.1822
12762TIP3    H238220   5.971   5.016   3.498  0.2490 -0.3229 -0.5805
12763TIP3   OH238221   7.606   5.924   5.274  0.1288  0.6285 -0.3759
12763TIP3    H138222   7.685   5.914   5.220  0.7692  0.7156  0.5171
12763TIP3    H238223   7.640   5.952   5.359 -0.9915  2.0597 -0.3917
12764TIP3   OH238224   5.833   3.861   5.492 -0.2270 -0.1909 -0.8001
12764TIP3    H138225   5.808   3.938   5.543 -0.7216 -0.4090 -0.7124
12764TIP3    H238226   5.862   3.896   5.408  1.9356  0.2941  0.0943
12765TIP3   OH238227   5.703   6.551   5.215 -0.3016 -0.3252  0.2617
12765TIP3    H138228   5.769   6.613   5.184 -1.1498  0.0406 -0.8694
12765TIP3    H238229   5.753   6.481   5.257  0.8720 -0.6332 -1.6122
12766TIP3   OH238230   3.810   1.101   4.291  0.1150  0.1942 -0.4333
12766TIP3    H138231   3.764   1.119   4.373  3.1244  0.1976  1.3287
12766TIP3    H238232   3.781   1.170   4.231 -2.7871 -0.3133  0.2987
12767TIP3   OH238233   7.778   7.889   2.585  0.4459 -0.3431  0.4672
12767TIP3    H138234   7.802   7.853   2.671 -0.6324  0.1982  1.0056
12767TIP3    H238235   7.693   7.930   2.600  0.3685 -0.0381 -0.8146
12768TIP3   OH238236   5.448   7.461   4.675 -0.1677  0.4233  0.1678
12768TIP3    H138237   5.536   7.499   4.668  0.2969 -1.0429 -2.5888
12768TIP3    H238238   5.443   7.428   4.765  1.8908  1.0189  0.5282
12769TIP3   OH238239   0.708   7.003   4.005 -0.4668  0.2549  0.1580
12769TIP3    H138240   0.677   6.953   4.080  2.0806 -1.1599  0.2923
12769TIP3    H238241   0.723   7.091   4.040  0.3792 -0.3083  1.2069
12770TIP3   OH238242   7.892   0.192   3.773  0.0557  0.4429 -0.2247
12770TIP3    H138243   7.965   0.131   3.781 -0.0152  0.0525 -2.4429
12770TIP3    H238244   7.934   0.277   3.760  0.1126  0.2988 -0.9676
12771TIP3   OH238245   6.815   7.402   2.694 -0.1361 -0.2564 -0.2657
12771TIP3    H138246   6.767   7.478   2.726 -0.6171  0.0146 -1.5862
12771TIP3    H238247   6.747   7.337   2.673  0.1493 -0.3762 -0.8402
12772TIP3   OH238248   6.774   6.135   2.144 -0.9083 -0.0235  0.6717
12772TIP3    H138249   6.692   6.119   2.097 -0.2220  0.4165 -0.6962
12772TIP3    H238250   6.746   6.162   2.232 -2.2084 -0.7323  0.4916
12773TIP3   OH238251   5.900   6.287   5.068 -0.2300  0.7694  0.4170
12773TIP3    H138252   5.891   6.241   5.152  2.2558  0.5117  0.5724
12773TIP3    H238253   5.956   6.230   5.015 -1.7832  0.9328 -1.4434
12774TIP3   OH238254   0.197   6.312   2.392 -0.0217  0.2249  0.4417
12774TIP3    H138255   0.226   6.238   2.444 -0.1573 -0.2644 -0.1783
12774TIP3    H238256   0.106   6.326   2.419 -0.1952 -0.2349  0.1082
12775TIP3   OH238257   6.248   6.392   4.583 -0.6378 -0.1068 -0.0878
12775TIP3    H138258   6.288   6.319   4.630 -0.8558 -1.7864 -2.3872
12775TIP3    H238259   6.323   6.442   4.549 -0.4694 -1.0606 -1.1462
12776TIP3   OH238260   7.693   0.894   2.972 -0.0127 -0.6750 -0.3169
12776TIP3    H138261   7.636   0.874   2.898 -0.9928 -0.1428  0.2831
12776TIP3    H238262   7.650   0.853   3.047  0.1744  0.0969  0.2120
12777TIP3   OH238263   7.102   4.779   4.579  0.5961 -0.2516 -0.2672
12777TIP3    H138264   7.067   4.852   4.629 -0.4149 -2.3815  2.2466
12777TIP3    H238265   7.026   4.747   4.529  0.4530 -1.0067  0.4238
12778TIP3   OH238266   7.995   5.719   3.946 -0.3326 -0.1089  0.2610
12778TIP3    H138267   8.054   5.779   3.899  1.6512 -2.2220 -0.0454
12778TIP3    H238268   8.002   5.746   4.037 -0.4165  0.9109 -0.0245
12779TIP3   OH238269   1.203   0.072   3.765 -0.1709 -0.1038 -0.2597
12779TIP3    H138270   1.245  -0.003   3.723  0.3586 -1.4228  2.5034
12779TIP3    H238271   1.272   0.137   3.774 -0.2728  0.1629 -1.3205
12780TIP3   OH238272   4.872   7.854   3.358  0.3233  0.5025 -0.1070
12780TIP3    H138273   4.792   7.813   3.393  0.1643  1.4752  0.7131
12780TIP3    H238274   4.874   7.940   3.401  1.1993  0.9286 -1.0108
12781TIP3   OH238275   5.910   6.372   4.703 -0.5922  0.3426  0.4916
12781TIP3    H138276   5.845   6.437   4.676  0.4806  1.2311 -0.0314
12781TIP3    H238277   5.929   6.395   4.794 -0.3080  0.6936  0.3461
12782TIP3   OH238278   7.465   6.853   4.079 -0.5440  0.5206  0.4153
12782TIP3    H138279   7.460   6.865   3.984 -1.6095  0.0053  0.3985
12782TIP3    H238280   7.554   6.881   4.102  1.2985 -3.4310 -1.3436
12783TIP3   OH238281   8.434   7.243   3.666 -0.0452  0.3886  0.0042
12783TIP3    H138282   8.388   7.165   3.696 -1.7232  0.7596 -1.4945
12783TIP3    H238283   8.504   7.256   3.729 -0.9012 -1.2592  1.3176
12784TIP3   OH238284   1.926   6.041   4.087  0.2727  0.1195 -0.4993
12784TIP3    H138285   2.016   6.008   4.079 -0.2881 -2.0410  1.5651
12784TIP3    H238286   1.872   5.962   4.087 -1.3855  1.2136  1.5847
12785TIP3   OH238287   6.018   4.007   6.113 -0.4237 -0.3556 -0.5152
12785TIP3    H138288   5.989   3.963   6.193 -0.9641 -1.7493 -1.4581
12785TIP3    H238289   6.111   3.984   6.106  0.3479  2.1098  1.2102
12786TIP3   OH238290   6.222   6.954   4.769  0.2004  0.8248 -0.0745
12786TIP3    H138291   6.194   6.897   4.841  0.4108 -0.4309 -0.9699
12786TIP3    H238292   6.306   6.918   4.741 -0.3977  0.6255 -1.6599
12787TIP3   OH238293   7.881   6.750   2.680  0.1409 -0.5028  0.2040
12787TIP3    H138294   7.883   6.807   2.603  1.3849 -0.4382  0.2641
12787TIP3    H238295   7.934   6.674   2.654 -0.4799 -1.0558  0.5550
12788TIP3   OH238296   0.837   7.224   4.726 -0.3118 -0.3491 -0.1586
12788TIP3    H138297   0.758   7.255   4.682  0.3606 -0.3640 -1.4074
12788TIP3    H238298   0.832   7.129   4.720 -0.6136 -0.3750  0.5050
12789TIP3   OH238299   0.364   4.839   4.625  0.3547 -0.4432 -0.4015
12789TIP3    H138300   0.408   4.789   4.694  0.8658 -0.8136 -0.9864
12789TIP3    H238301   0.278   4.859   4.660  1.6223  1.8926  1.5278
12790TIP3   OH238302   7.832   5.549   4.585 -0.0247 -0.3902  0.0259
12790TIP3    H138303   7.780   5.469   4.577  0.1158 -0.3407 -1.6320
12790TIP3    H238304   7.807   5.586   4.670 -1.0548 -1.5145  0.2240
12791TIP3   OH238305   7.955   5.610   4.973 -0.1121  0.0861  0.3284
12791TIP3    H138306   8.034   5.662   4.959  0.0209 -0.1193  0.2956
12791TIP3    H238307   7.978   5.550   5.043  0.4792 -1.3843 -1.0751
12792TIP3   OH238308   8.093   7.402   0.759  0.0852 -0.3072  0.2335
12792TIP3    H138309   8.075   7.324   0.812 -0.9656 -0.4901 -0.3698
12792TIP3    H238310   8.013   7.454   0.767 -0.0744 -0.3281 -1.1631
12793TIP3   OH238311   1.228   7.871   0.922  0.0187 -0.3943 -0.0376
12793TIP3    H138312   1.143   7.876   0.877 -0.6562 -0.3369  1.1995
12793TIP3    H238313   1.262   7.785   0.899  1.1094  0.7983 -3.0797
12794TIP3   OH238314   5.089   6.938   5.505  0.2851  0.0014  0.2146
12794TIP3    H138315   5.135   6.864   5.544 -2.1448 -1.2182  0.8500
12794TIP3    H238316   5.062   6.991   5.580  1.1591  1.0276 -0.1873
12795TIP3   OH238317   5.270   7.736   4.680 -0.1273 -0.2817 -0.1925
12795TIP3    H138318   5.309   7.663   4.727  2.1236  0.8948 -0.1778
12795TIP3    H238319   5.340   7.769   4.623 -1.3923  1.2504 -0.9228
12796TIP3   OH238320   1.676   7.317   5.028 -0.0987 -0.2933  0.4517
12796TIP3    H138321   1.758   7.353   5.062  0.3996 -0.3385 -0.6766
12796TIP3    H238322   1.610   7.383   5.051  0.2141 -0.3562  1.5470
12797TIP3   OH238323   1.301   7.806   4.805 -0.4977  0.0798 -0.0397
12797TIP3    H138324   1.267   7.756   4.731  2.1057 -1.4852 -0.2524
12797TIP3    H238325   1.252   7.888   4.803 -0.4007  0.1489 -3.5865
12798TIP3   OH238326   7.501   3.882   0.112 -0.0810 -0.0846  0.1401
12798TIP3    H138327   7.557   3.919   0.181  0.3260 -0.1250 -0.1678
12798TIP3    H238328   7.510   3.787   0.123  0.9590 -0.0954 -0.7537
12799TIP3   OH238329   2.369   7.185   5.763 -0.4120  0.7355  0.9189
12799TIP3    H138330   2.341   7.124   5.831 -0.1043 -0.8957 -0.3700
12799TIP3    H238331   2.459   7.158   5.743 -1.3694 -0.4891 -1.9154
12800TIP3   OH238332   8.263   3.832   0.377 -0.2281 -0.0830  0.7086
12800TIP3    H138333   8.345   3.859   0.417  1.1610 -2.5461 -0.3474
12800TIP3    H238334   8.256   3.886   0.298  1.7671 -1.6888 -0.6141
12801TIP3   OH238335   2.007   6.048   5.999  0.6673 -0.2786  0.0639
12801TIP3    H138336   2.053   5.991   6.061  2.2689  0.6494 -0.2334
12801TIP3    H238337   2.032   6.015   5.913  1.7706  0.9478 -0.1170
12802TIP3   OH238338   2.726   1.821   3.491  0.0810  0.1445  0.2671
12802TIP3    H138339   2.680   1.823   3.575  2.4421  0.8746  1.6003
12802TIP3    H238340   2.712   1.732   3.458  0.4465 -0.6773  2.2254
12803TIP3   OH238341   1.637   6.717   6.124  0.4025 -0.3413 -0.2170
12803TIP3    H138342   1.693   6.641   6.111 -2.6257 -2.4931 -1.3881
12803TIP3    H238343   1.566   6.686   6.181 -1.1805  1.4448 -1.1287
12804TIP3   OH238344   3.324   7.027   6.126 -0.2176 -0.1755 -0.2655
12804TIP3    H138345   3.320   7.048   6.032  1.2320 -0.2419 -0.3582
12804TIP3    H238346   3.402   7.074   6.157 -0.8163  0.0209  0.9541
12805TIP3   OH238347   8.341   4.213   4.410 -0.1872 -0.5455 -0.2557
12805TIP3    H138348   8.285   4.188   4.336  0.1665 -2.6105  0.1312
12805TIP3    H238349   8.417   4.255   4.369 -0.7386 -0.2412 -0.9663
12806TIP3   OH238350   5.236   2.626   5.784 -0.2683  0.3973 -0.1375
12806TIP3    H138351   5.150   2.602   5.819 -0.5206  0.7916 -0.4891
12806TIP3    H238352   5.283   2.543   5.780  0.6373  0.6407  3.4725
12807TIP3   OH238353   6.120   0.772   5.639 -0.0345  0.5802 -0.5726
12807TIP3    H138354   6.205   0.730   5.622 -0.1290 -0.4310  1.4001
12807TIP3    H238355   6.058   0.724   5.584  0.0601 -1.0944  0.7577
12808TIP3   OH238356   5.964   0.668   4.818  0.0348  0.0619 -0.2103
12808TIP3    H138357   6.021   0.707   4.752 -0.3795  1.1464  0.0715
12808TIP3    H238358   6.024   0.632   4.884  0.3854  2.4835  0.8365
12809TIP3   OH238359   2.209   6.679   4.123  0.1577 -0.0382 -0.1114
12809TIP3    H138360   2.271   6.609   4.140 -0.0115 -0.4114 -0.9952
12809TIP3    H238361   2.143   6.671   4.192  0.6607 -0.1291  0.3625
12810TIP3   OH238362   8.373   5.035   0.737  0.2692  0.2041 -0.2975
12810TIP3    H138363   8.393   5.019   0.829 -1.2794 -0.7093 -0.1059
12810TIP3    H238364   8.342   5.125   0.734  0.4557  0.2806  0.0405
12811TIP3   OH238365   5.545   1.746   3.552  0.1645  0.3697 -0.2126
12811TIP3    H138366   5.625   1.694   3.556 -2.1489 -3.4699 -1.3248
12811TIP3    H238367   5.510   1.743   3.641 -1.0881 -1.9517 -0.7431
12812TIP3   OH238368   0.766   7.970   6.380 -0.2929  0.0737 -0.1157
12812TIP3    H138369   0.821   7.940   6.452  0.1610  0.8169 -0.1494
12812TIP3    H238370   0.825   8.018   6.323 -1.0843  1.3064  0.0937
12813TIP3   OH238371   2.410   7.043   6.779 -0.2405 -0.3945  0.0265
12813TIP3    H138372   2.460   7.080   6.852 -1.7000 -0.2547  0.9712
12813TIP3    H238373   2.455   6.961   6.758  0.8788  0.1367  0.3035
12814TIP3   OH238374   6.638   3.046   0.431 -0.5673 -0.5708 -0.1961
12814TIP3    H138375   6.709   3.096   0.471  0.7594 -1.8918 -0.8692
12814TIP3    H238376   6.600   3.106   0.367  2.1032 -0.9528 -2.1929
12815TIP3   OH238377   4.341   0.148   5.962  0.0251  0.1204  0.0611
12815TIP3    H138378   4.301   0.067   5.931  0.4289  0.0233 -0.2081
12815TIP3    H238379   4.413   0.120   6.018  1.8375  0.2528 -2.1171
12816TIP3   OH238380   6.669   5.263   1.100  0.1337  0.5530  0.1000
12816TIP3    H138381   6.598   5.326   1.113  0.7455  1.1391  0.6606
12816TIP3    H238382   6.741   5.315   1.065 -0.0162 -0.2135 -1.3968
12817TIP3   OH238383   5.932   3.388   0.516  0.7891 -0.3192 -0.1608
12817TIP3    H138384   6.003   3.326   0.537  1.9681  1.4623  1.2575
12817TIP3    H238385   5.852   3.339   0.536  1.6670 -1.6624  0.1797
12818TIP3   OH238386   6.769   4.205   0.386 -1.4184  0.1935  0.1585
12818TIP3    H138387   6.862   4.226   0.395 -1.8947  1.3394  2.8428
12818TIP3    H238388   6.764   4.151   0.307  1.5314  0.0594  0.0179
12819TIP3   OH238389   6.505   5.043   0.948 -0.5639 -0.1282 -0.3704
12819TIP3    H138390   6.581   5.017   0.895  0.4719  0.3561  0.8510
12819TIP3    H238391   6.542   5.095   1.019 -1.8613 -1.1633  1.1168
12820TIP3   OH238392   1.115   7.062   5.330 -0.3758  0.4156 -0.4835
12820TIP3    H138393   1.132   7.040   5.422 -1.4842 -0.0107 -0.3610
12820TIP3    H238394   1.188   7.117   5.304 -0.9020  1.9251  1.1687
12821TIP3   OH238395   1.171   7.600   6.768  0.1891  0.0163  0.1659
12821TIP3    H138396   1.128   7.576   6.851  0.8087 -0.8894  0.2256
12821TIP3    H238397   1.141   7.534   6.706  0.4807  0.1471 -0.1138
12822TIP3   OH238398   6.315   4.418   0.822  0.4017 -0.5756  0.3063
12822TIP3    H138399   6.329   4.381   0.909  0.0190  0.7287  0.9357
12822TIP3    H238400   6.380   4.488   0.815 -1.7111  1.5145  0.8721
12823TIP3   OH238401   0.628   5.293   0.498 -0.3220 -0.2176 -0.7671
12823TIP3    H138402   0.710   5.257   0.532  0.1683  2.4080  0.9295
12823TIP3    H238403   0.649   5.320   0.409  0.8312  0.9810 -0.1392
12824TIP3   OH238404   4.204   1.194   4.736 -0.1375 -0.4638 -0.3081
12824TIP3    H138405   4.200   1.132   4.809 -0.5067 -1.8116 -1.4709
12824TIP3    H238406   4.294   1.187   4.704  0.1444  0.4304  0.2561
12825TIP3   OH238407   3.970   1.233   6.190 -0.3371 -0.0789 -0.5146
12825TIP3    H138408   3.897   1.199   6.243 -0.3743 -0.8495 -1.0517
12825TIP3    H238409   4.029   1.158   6.181  1.0862  0.8464  0.8738
12826TIP3   OH238410   7.469   0.780   6.491  0.2035  0.1591 -0.1879
12826TIP3    H138411   7.409   0.746   6.425 -0.1422 -0.8829  0.6421
12826TIP3    H238412   7.549   0.728   6.480 -0.9273 -2.2720  2.2468
12827TIP3   OH238413   4.190   2.413   3.094  0.2948 -0.2535 -0.5014
12827TIP3    H138414   4.132   2.353   3.047  0.1633 -0.4197 -0.1259
12827TIP3    H238415   4.233   2.358   3.160 -2.7302  0.8421  2.4786
12828TIP3   OH238416   2.000   7.947   4.955 -0.2890 -0.1532 -0.1429
12828TIP3    H138417   1.908   7.937   4.932 -0.5750 -1.4584  1.4760
12828TIP3    H238418   2.040   7.986   4.877 -2.1922  0.4181 -0.8616
12829TIP3   OH238419   2.222   7.620   5.111  0.0276 -0.3383  0.5000
12829TIP3    H138420   2.314   7.646   5.109  0.3825 -1.5630  0.0524
12829TIP3    H238421   2.221   7.545   5.171 -0.3955 -1.3061 -0.6864
12830TIP3   OH238422   3.559   7.750   4.856 -0.2510 -0.0073 -0.2619
12830TIP3    H138423   3.500   7.677   4.833 -1.8446  1.1577  0.0191
12830TIP3    H238424   3.500   7.820   4.885  1.3578  0.7269  1.3494
12831TIP3   OH238425   1.720   7.740   6.429  0.1999  0.4187 -0.1966
12831TIP3    H138426   1.746   7.832   6.421 -0.8856  0.7062 -0.5243
12831TIP3    H238427   1.790   7.700   6.481  0.1687  1.6460  0.8144
12832TIP3   OH238428   2.018   7.166   4.476 -0.1084 -0.2514  0.0127
12832TIP3    H138429   2.095   7.113   4.494  0.4029  0.4165 -0.2192
12832TIP3    H238430   2.017   7.178   4.381  1.4393  2.6282  0.2990
12833TIP3   OH238431   4.855   2.117   5.799 -0.3276 -0.0613 -0.0583
12833TIP3    H138432   4.899   2.193   5.838  1.1691 -0.7392 -0.3750
12833TIP3    H238433   4.843   2.057   5.872 -1.4824  0.4491  0.1859
12834TIP3   OH238434   3.908   6.026   6.202 -0.1249 -0.4258  0.0867
12834TIP3    H138435   3.948   5.992   6.121  2.5909 -0.9977  1.6342
12834TIP3    H238436   3.887   5.947   6.252  1.7809 -0.0035  1.6018
12835TIP3   OH238437   4.031   0.531   6.510 -0.2076  0.3708 -0.1404
12835TIP3    H138438   4.087   0.493   6.578 -0.1403 -1.3314 -1.1189
12835TIP3    H238439   3.985   0.456   6.473 -2.8792  1.7100  0.3986
12836TIP3   OH238440   6.264   0.609   6.471  0.0573 -0.0807 -0.2550
12836TIP3    H138441   6.356   0.585   6.464  0.4924  0.6896  2.4440
12836TIP3    H238442   6.263   0.705   6.464 -0.3145  0.0671  1.5580
12837TIP3   OH238443   0.748   6.940   4.755  0.1540 -0.6180  0.1936
12837TIP3    H138444   0.749   6.942   4.851  0.6364 -0.9719  0.1987
12837TIP3    H238445   0.754   6.847   4.733  0.3892 -0.5151 -0.1825
12838TIP3   OH238446   4.029   0.771   3.770 -0.0441  0.3655  0.1018
12838TIP3    H138447   4.101   0.734   3.821  0.1116 -0.7775 -0.9414
12838TIP3    H238448   4.071   0.823   3.702 -0.2597  2.2395  1.3767
12839TIP3   OH238449   5.762   3.110   3.224  0.1762  0.2455 -0.3100
12839TIP3    H138450   5.782   3.036   3.281 -0.3835  0.9478  0.8083
12839TIP3    H238451   5.700   3.074   3.159 -0.9394 -0.0131  0.8731
12840TIP3   OH238452   0.771   3.681   1.428 -0.0688  0.0874  0.0102
12840TIP3    H138453   0.711   3.687   1.354  1.2637 -1.5610 -1.2469
12840TIP3    H238454   0.825   3.605   1.409 -0.4029 -1.0237  3.2442
12841TIP3   OH238455   7.380   2.561   5.007 -0.2957  0.4339  0.1216
12841TIP3    H138456   7.297   2.514   4.996  1.0238 -1.8200 -0.3754
12841TIP3    H238457   7.376   2.597   5.095 -0.6080 -2.0813  1.1447
12842TIP3   OH238458   4.631   3.430   2.780  0.4039  0.2171 -0.3646
12842TIP3    H138459   4.714   3.382   2.787  0.0096 -0.3542  0.5784
12842TIP3    H238460   4.603   3.442   2.871 -0.7191  0.0936 -0.6882
12843TIP3   OH238461   6.238   1.830   6.326 -0.1375 -0.6516  0.5344
12843TIP3    H138462   6.228   1.925   6.320  2.0809 -0.3431  1.0581
12843TIP3    H238463   6.264   1.803   6.238  0.2769 -0.6150  0.6426
12844TIP3   OH238464   6.878   5.602   0.050 -0.0769  0.5665  0.0519
12844TIP3    H138465   6.881   5.549  -0.030  0.1593  0.2318  0.2813
12844TIP3    H238466   6.930   5.679   0.030  0.0934  0.4190 -0.0735
12845TIP3   OH238467   3.123   1.671   6.533  0.1032  0.3679 -0.6619
12845TIP3    H138468   3.101   1.749   6.584  0.4949  0.2339 -0.2794
12845TIP3    H238469   3.216   1.658   6.550  0.5215  1.0202 -2.3762
12846TIP3   OH238470   3.798   1.102   6.339  0.2387  0.5094 -0.0874
12846TIP3    H138471   3.789   1.013   6.305 -0.7311  1.1845 -1.6448
12846TIP3    H238472   3.767   1.096   6.430  1.8101 -1.0866  0.3801
12847TIP3   OH238473   6.583   0.536   4.073 -0.0837 -0.2735  0.4667
12847TIP3    H138474   6.531   0.544   3.993  1.7750  0.6917 -0.6951
12847TIP3    H238475   6.659   0.484   4.047 -0.0304 -0.9343  1.9142
12848TIP3   OH238476   5.496   6.884   4.607  0.4593  0.1665  0.2185
12848TIP3    H138477   5.414   6.879   4.559 -0.9043  0.3385  2.4689
12848TIP3    H238478   5.508   6.977   4.624  1.7809  0.2718 -1.1525
12849TIP3   OH238479   3.288   2.971   0.654  0.9055 -0.2228  0.1890
12849TIP3    H138480   3.372   3.015   0.666  0.4964  0.5962  0.1356
12849TIP3    H238481   3.260   2.946   0.742  0.8909  0.1208  0.2852
12850TIP3   OH238482   2.055   7.623   6.351 -0.2311  0.1486  0.2209
12850TIP3    H138483   1.978   7.594   6.302  0.3552  1.0789 -1.2760
12850TIP3    H238484   2.114   7.547   6.350 -1.1972 -0.6292  1.5368
12851TIP3   OH238485   4.223   0.306   5.552  0.0453  0.1370 -0.3483
12851TIP3    H138486   4.194   0.386   5.508  0.8567 -0.4318 -1.9293
12851TIP3    H238487   4.143   0.255   5.565 -0.0879 -0.0512 -1.8979
12852TIP3   OH238488   7.637   5.011   2.069 -0.2535 -0.0762  0.1640
12852TIP3    H138489   7.658   4.985   1.979 -0.5345  0.4598 -0.0562
12852TIP3    H238490   7.704   4.968   2.122  0.8211  0.8235 -0.4483
12853TIP3   OH238491   3.533   7.732   6.249 -0.0084  0.2322 -0.2099
12853TIP3    H138492   3.595   7.667   6.217 -0.4088  0.3527 -1.2484
12853TIP3    H238493   3.448   7.701   6.219 -0.3354  0.6006  0.3341
12854TIP3   OH238494   2.244   7.069   3.787  0.1145  0.2206 -1.0269
12854TIP3    H138495   2.162   7.119   3.792 -1.1148 -1.8449  1.2706
12854TIP3    H238496   2.216   6.982   3.758  1.5873 -0.3174 -0.8447
12855TIP3   OH238497   0.371   4.497   0.096  0.3373  0.3940  0.0328
12855TIP3    H138498   0.292   4.544   0.070 -0.7136 -0.4810  1.5099
12855TIP3    H238499   0.439   4.529   0.037 -1.5105 -0.1692 -2.4841
12856TIP3   OH238500   2.776   7.067   5.986 -0.0521 -0.6642  0.1630
12856TIP3    H138501   2.816   7.143   6.028  2.3641 -0.9819 -1.4777
12856TIP3    H238502   2.818   6.992   6.026  0.7988 -1.0090 -1.3334
12857TIP3   OH238503   4.337   0.627   5.449 -0.0974 -0.1202 -0.0162
12857TIP3    H138504   4.362   0.714   5.419 -0.1963  0.5755  1.8537
12857TIP3    H238505   4.265   0.601   5.391  0.8862  0.4135 -1.5128
12858TIP3   OH238506   2.721   7.610   6.185 -0.1185  0.3849  0.2083
12858TIP3    H138507   2.632   7.594   6.155  0.1734  0.8472 -0.9479
12858TIP3    H238508   2.745   7.693   6.146  0.6267  0.5386  0.9718
12859TIP3   OH238509   2.105   7.000   5.306  0.7634  0.2654  0.3281
12859TIP3    H138510   2.094   7.009   5.211  1.5945  0.4424  0.2415
12859TIP3    H238511   2.020   7.026   5.343  0.8027  1.3510 -0.3087
12860TIP3   OH238512   0.839   1.490   4.302 -0.3341 -0.1286  0.1214
12860TIP3    H138513   0.873   1.482   4.392 -0.9320 -1.1107  0.2668
12860TIP3    H238514   0.845   1.584   4.283 -0.2450  0.1005  1.2053
12861TIP3   OH238515   2.171   7.042   6.680  0.3138  0.3998  0.3063
12861TIP3    H138516   2.142   6.953   6.702 -0.3935  0.6344  0.3431
12861TIP3    H238517   2.251   7.054   6.731 -0.1306  0.1425  1.0872
12862TIP3   OH238518   2.821   5.976   6.703 -0.0872  0.1873  0.6157
12862TIP3    H138519   2.786   5.946   6.620 -0.1894 -0.1807  0.7884
12862TIP3    H238520   2.902   5.926   6.714 -0.3859 -0.2028  1.0244
12863TIP3   OH238521   4.670   0.238   5.914  0.3257  0.1203  0.1449
12863TIP3    H138522   4.727   0.311   5.891  1.5225 -0.9570 -0.3582
12863TIP3    H238523   4.686   0.172   5.846 -0.0307 -0.9738  1.0998
12864TIP3   OH238524   4.476   0.096   6.226  0.2218  0.0850 -0.5391
12864TIP3    H138525   4.415   0.042   6.277  1.1121 -0.9392 -0.5407
12864TIP3    H238526   4.559   0.088   6.273  0.4321  1.2045 -0.7232
12865TIP3   OH238527   3.926   2.072   4.940 -0.1513 -0.6194 -0.2448
12865TIP3    H138528   3.877   2.130   4.882 -1.5652 -2.2023 -0.6632
12865TIP3    H238529   3.888   2.088   5.027 -1.1223 -1.5331 -0.4989
12866TIP3   OH238530   1.921   7.409   5.127  0.1121  0.3569 -0.1967
12866TIP3    H138531   1.932   7.504   5.123 -2.9257  0.7385 -0.6430
12866TIP3    H238532   1.933   7.387   5.220  1.7312  1.0221 -0.2325
12867TIP3   OH238533   5.966   0.336   5.929 -0.7939 -0.2303  0.4675
12867TIP3    H138534   5.949   0.255   5.881  1.1139 -0.3168 -0.0943
12867TIP3    H238535   5.953   0.314   6.021 -0.4131 -1.1371  0.3045
12868TIP3   OH238536   7.471   1.424   0.663 -0.0462 -0.0944 -0.0433
12868TIP3    H138537   7.412   1.349   0.654 -1.2188  0.7121  0.7113
12868TIP3    H238538   7.555   1.393   0.630 -0.5233 -1.7262  0.2366
12869TIP3   OH238539   3.853   0.345   6.416  0.3184 -0.0019 -0.0040
12869TIP3    H138540   3.802   0.294   6.479  1.0272  1.2929  1.6392
12869TIP3    H238541   3.797   0.349   6.339 -0.1698 -2.4171  0.1586
12870TIP3   OH238542   2.780   7.653   5.807 -0.3284 -0.2267 -0.4129
12870TIP3    H138543   2.832   7.703   5.870 -0.9714 -1.6506  1.2829
12870TIP3    H238544   2.842   7.592   5.769 -0.2658 -0.3994 -0.0369
12871TIP3   OH238545   2.197   6.777   5.399 -0.2932  0.7620 -0.2467
12871TIP3    H138546   2.151   6.859   5.377 -1.2763  0.3524  0.2396
12871TIP3    H238547   2.127   6.713   5.410  0.4715 -0.1325 -0.5320
12872TIP3   OH238548   4.762   0.413   6.163 -0.4433 -0.5864 -0.0102
12872TIP3    H138549   4.769   0.491   6.108  0.1617 -1.9320 -1.9116
12872TIP3    H238550   4.673   0.381   6.148 -0.7752 -0.1418  0.9580
12873TIP3   OH238551   0.145   5.667   6.212  0.0659  0.0272 -0.5170
12873TIP3    H138552   0.203   5.704   6.145 -1.3404 -0.1614 -1.8795
12873TIP3    H238553   0.172   5.576   6.220 -1.1046 -0.5214 -2.3941
12874TIP3   OH238554   4.115   6.625   5.704 -0.3543 -0.3431  0.6947
12874TIP3    H138555   4.125   6.609   5.610 -2.0189  0.3294  0.3866
12874TIP3    H238556   4.049   6.561   5.732 -2.6082  1.9121  0.6436
12875TIP3   OH238557   0.644   7.867   5.027  0.3288 -0.7210  0.1327
12875TIP3    H138558   0.694   7.788   5.044  1.2844 -0.6038 -2.0655
12875TIP3    H238559   0.559   7.835   4.997  0.7652 -0.9111 -0.8999
12876TIP3   OH238560   4.836   1.089   3.762 -0.1644  0.0503 -0.1334
12876TIP3    H138561   4.755   1.126   3.797  0.3972  1.0732  0.0947
12876TIP3    H238562   4.808   1.010   3.715 -1.1623 -0.1970  0.8563
12877TIP3   OH238563   6.208   0.774   4.695 -0.3009  0.1109  0.4350
12877TIP3    H138564   6.211   0.694   4.748  2.1235  0.5258  0.9882
12877TIP3    H238565   6.290   0.773   4.645 -0.0355  2.4445  0.7665
12878TIP3   OH238566   2.817   7.036   5.276  0.0478  0.4891  0.1175
12878TIP3    H138567   2.891   7.028   5.216 -1.7670 -1.1427 -1.9764
12878TIP3    H238568   2.822   6.957   5.330  0.8794  1.2874  1.2367
12879TIP3   OH238569   2.974   7.206   3.993  0.4520 -0.5415 -0.3549
12879TIP3    H138570   2.901   7.145   3.981 -1.1151  1.5292 -1.6274
12879TIP3    H238571   3.041   7.176   3.930  1.1338 -2.9707  1.4238
12880TIP3   OH238572   2.752   6.097   5.024 -0.2203 -0.3556  0.1355
12880TIP3    H138573   2.733   6.129   5.112 -0.1265 -0.6279  0.2537
12880TIP3    H238574   2.737   6.002   5.028 -0.1566 -0.3791 -0.1229
12881TIP3   OH238575   8.467   4.268   0.034  0.0180 -0.0082 -0.0085
12881TIP3    H138576   8.371   4.262   0.036  0.0228  0.0891  0.6841
12881TIP3    H238577   8.489   4.317   0.113  0.7245 -1.1421  0.5105
12882TIP3   OH238578   5.369   1.165   6.612 -0.2355  0.2600 -0.4016
12882TIP3    H138579   5.343   1.237   6.669  0.3921 -0.4926  0.8717
12882TIP3    H238580   5.290   1.111   6.604  0.1971 -0.7102  1.4491
12883TIP3   OH238581   3.109   8.041   5.902  0.0972 -0.1114  0.0394
12883TIP3    H138582   3.076   7.953   5.881 -2.5675  0.7609  0.3369
12883TIP3    H238583   3.199   8.042   5.869 -0.0386 -2.7435 -0.5016
12884TIP3   OH238584   7.629   4.435   0.220 -0.1059 -0.2410 -0.0958
12884TIP3    H138585   7.622   4.413   0.313  0.6356 -1.2898 -0.2810
12884TIP3    H238586   7.704   4.493   0.214 -0.7834  0.6638  0.0991
12885TIP3   OH238587   5.003   0.842   3.452  0.6535  0.4234 -1.0917
12885TIP3    H138588   4.969   0.932   3.446 -2.2215 -0.3230  2.1467
12885TIP3    H238589   4.987   0.805   3.365 -3.4608  1.3848 -0.8869
12886TIP3   OH238590   2.600   7.670   6.849 -0.0955  0.1688 -0.0187
12886TIP3    H138591   2.550   7.748   6.871  0.2332  0.4876 -0.3930
12886TIP3    H238592   2.589   7.612   6.924 -2.6183 -0.5697 -0.8884
12887TIP3   OH238593   3.307   7.563   6.204 -0.4615 -0.1803 -0.0253
12887TIP3    H138594   3.263   7.549   6.288  0.3052  1.5854  0.6964
12887TIP3    H238595   3.256   7.511   6.142 -2.7941  0.7604  1.0213
12888TIP3   OH238596   1.919   6.905   6.233 -0.1568  0.7540 -0.6286
12888TIP3    H138597   1.898   6.821   6.274  0.0648  1.8200  1.7931
12888TIP3    H238598   1.944   6.883   6.144  0.6765 -1.8436  0.1913
12889TIP3   OH238599   0.735   7.778   5.399  0.1567 -0.5173 -0.3392
12889TIP3    H138600   0.664   7.718   5.377  0.6292 -0.3552 -2.3308
12889TIP3    H238601   0.787   7.784   5.320  0.7989  1.6068  0.2199
12890TIP3   OH238602   1.705   7.981   4.875  0.5478 -0.1253  0.2192
12890TIP3    H138603   1.638   7.915   4.859 -0.7173  1.0182  0.7175
12890TIP3    H238604   1.735   8.007   4.788 -0.7512  0.4611 -0.0624
12891TIP3   OH238605   8.297   4.420   0.473 -0.4257 -0.1404 -0.2775
12891TIP3    H138606   8.392   4.423   0.463 -0.1963 -0.8539  1.4444
12891TIP3    H238607   8.271   4.512   0.480  0.3086  0.0175  0.5697
12892TIP3   OH238608   6.301   1.683   4.868  0.3609 -0.2925 -0.5082
12892TIP3    H138609   6.363   1.610   4.867  0.0963 -0.5321  0.2708
12892TIP3    H238610   6.327   1.736   4.943  0.0947  0.0226 -0.6369
12893TIP3   OH238611   2.857   7.087   6.935  0.3363 -0.3039 -0.1875
12893TIP3    H138612   2.773   7.132   6.938  0.3409 -0.3504  0.6458
12893TIP3    H238613   2.839   7.007   6.886  0.0319 -0.0290 -0.5289
12894TIP3   OH238614   3.497   5.194   6.817 -0.6818  0.3021  0.1222
12894TIP3    H138615   3.437   5.187   6.742 -0.0921 -0.7710 -0.2526
12894TIP3    H238616   3.575   5.236   6.781  0.3698 -1.9687 -0.3407
12895TIP3   OH238617   2.987   7.831   5.210  0.3256  0.3247  0.3887
12895TIP3    H138618   3.030   7.768   5.269 -0.4701 -1.2628 -0.6933
12895TIP3    H238619   3.059   7.882   5.174  1.1484 -0.9697  0.1471
12896TIP3   OH238620   5.141   0.677   6.366 -0.0916 -0.6479 -0.9751
12896TIP3    H138621   5.093   0.615   6.421 -1.0260 -0.1113 -1.1607
12896TIP3    H238622   5.215   0.705   6.419 -0.2130 -1.1844 -0.5166
12897TIP3   OH238623   1.053   4.140   0.019 -0.8416 -0.1246  0.4874
12897TIP3    H138624   1.123   4.089  -0.021 -1.8632 -0.8914 -0.3377
12897TIP3    H238625   1.045   4.104   0.108  0.3891  0.5527  0.8748
12898TIP3   OH238626   8.114   7.596   4.614 -0.6134  0.1173  0.3662
12898TIP3    H138627   8.168   7.604   4.536 -0.3810 -0.4676  0.4708
12898TIP3    H238628   8.160   7.647   4.681 -0.9507  0.8417  0.0528
12899TIP3   OH238629   1.871   0.207   4.081  0.0054 -0.0228 -0.0412
12899TIP3    H138630   1.849   0.139   4.145 -3.6605 -0.4531 -1.6593
12899TIP3    H238631   1.839   0.288   4.120 -0.7164 -0.0402 -0.6004
12900TIP3   OH238632   0.928   6.572   6.261 -0.5811 -0.5035  0.1825
12900TIP3    H138633   0.899   6.584   6.171  1.4371  2.2216 -0.1716
12900TIP3    H238634   1.006   6.517   6.254 -1.4402 -1.7765  0.4566
12901TIP3   OH238635   1.992   6.461   5.074 -0.9063 -0.1457 -0.8302
12901TIP3    H138636   2.035   6.460   5.160 -1.6891  1.5720 -0.3858
12901TIP3    H238637   1.907   6.421   5.089 -0.8110 -0.3867 -0.9350
12902TIP3   OH238638   4.349   4.943   5.248 -0.4560 -0.5334  0.3321
12902TIP3    H138639   4.289   4.966   5.319  2.0086 -0.7698  2.6153
12902TIP3    H238640   4.344   4.848   5.242 -0.1454 -0.5797  0.7272
12903TIP3   OH238641   7.058   5.804  -0.007  0.1503 -0.4311 -0.4582
12903TIP3    H138642   7.131   5.833  -0.062  0.3194 -0.4373 -0.2359
12903TIP3    H238643   7.071   5.849   0.076  0.6449 -1.4715  0.0276
12904TIP3   OH238644   2.214   6.790   5.096  0.2314 -0.5181 -0.6179
12904TIP3    H138645   2.307   6.779   5.077  0.4969 -0.0667  0.3749
12904TIP3    H238646   2.212   6.825   5.185 -0.9572 -1.9809 -0.0612
12905TIP3   OH238647   1.415   4.746   0.558  0.1378  0.7697 -0.1962
12905TIP3    H138648   1.500   4.791   0.566  0.0237  0.9729 -0.1258
12905TIP3    H238649   1.416   4.709   0.470  0.7560 -0.1531  0.1879
12906TIP3   OH238650   6.706   2.464   5.374 -0.2540  0.2076 -0.0112
12906TIP3    H138651   6.718   2.427   5.461  0.7490  0.8045  0.1130
12906TIP3    H238652   6.643   2.406   5.331 -1.3294  0.3464  1.3611
12907TIP3   OH238653   8.282   2.824   0.391  0.4620  0.1873 -0.4833
12907TIP3    H138654   8.223   2.751   0.414 -0.5580  1.0783 -0.2057
12907TIP3    H238655   8.338   2.789   0.322  0.6306 -1.1653  0.3235
12908TIP3   OH238656   6.093   0.951   6.119  0.5762 -0.0969 -0.1248
12908TIP3    H138657   6.183   0.984   6.130  0.7997 -1.0344  0.9936
12908TIP3    H238658   6.101   0.880   6.055  0.5557  0.1180 -0.3676
12909TIP3   OH238659   0.856   3.410   0.840 -0.3128  0.9402 -0.2812
12909TIP3    H138660   0.786   3.468   0.810  0.5225  1.3526 -1.4742
12909TIP3    H238661   0.893   3.454   0.917  0.1567  1.8669 -1.0321
12910TIP3   OH238662   4.084   7.425   6.277  0.5843  0.1419 -0.3362
12910TIP3    H138663   4.154   7.361   6.291  0.2533  0.0795  1.0634
12910TIP3    H238664   4.106   7.497   6.336 -0.6120  0.0606  0.2222
12911TIP3   OH238665   4.920   1.181   3.005 -0.0979  0.2937 -0.4213
12911TIP3    H138666   5.000   1.232   2.992  0.1668 -0.4205 -1.6689
12911TIP3    H238667   4.948   1.090   2.999 -1.0606  0.0420 -1.2984
12912TIP3   OH238668   5.265   1.252   5.609 -0.6259 -0.3111  0.5256
12912TIP3    H138669   5.278   1.161   5.584 -1.6370 -0.4968  0.6470
12912TIP3    H238670   5.299   1.258   5.699 -0.8601 -0.6516  0.6375
12913TIP3   OH238671   7.655   4.291   1.051 -0.3269  0.0153  0.5575
12913TIP3    H138672   7.654   4.380   1.018  0.1075  0.6439  2.2139
12913TIP3    H238673   7.582   4.286   1.113  0.5557 -0.3353  1.5862
12914TIP3   OH238674   1.416   6.549   5.233 -0.3162  0.0580  0.0844
12914TIP3    H138675   1.417   6.627   5.289  0.3570 -0.0007  0.1685
12914TIP3    H238676   1.350   6.567   5.167  0.9275  1.3826 -0.8289
12915TIP3   OH238677   0.496   2.475   2.419 -0.1558  0.9105  0.2809
12915TIP3    H138678   0.485   2.510   2.507 -0.3960 -1.5486  1.2735
12915TIP3    H238679   0.452   2.390   2.421  5.2518 -2.1477 -0.2920
12916TIP3   OH238680   4.484   7.204   6.856 -0.2474  0.0411 -0.5475
12916TIP3    H138681   4.567   7.162   6.877 -2.0469 -2.8891  1.2548
12916TIP3    H238682   4.488   7.289   6.898  1.5635 -0.3648  0.1366
12917TIP3   OH238683   7.124   0.374   5.781 -0.9545  0.2621  0.5580
12917TIP3    H138684   7.029   0.370   5.789 -1.0376  0.0530 -0.4464
12917TIP3    H238685   7.144   0.467   5.773 -1.3057  0.1899 -1.6105
12918TIP3   OH238686   0.418   3.381   0.533  0.3030  0.0999 -0.1389
12918TIP3    H138687   0.380   3.301   0.497 -1.1803  0.4933  0.5022
12918TIP3    H238688   0.431   3.361   0.626  0.6376  0.3601 -0.1272
12919TIP3   OH238689   1.835   0.932   0.821 -0.0941  0.2694 -0.3001
12919TIP3    H138690   1.743   0.921   0.844  0.0023  0.1669  0.0342
12919TIP3    H238691   1.881   0.865   0.871  0.0840 -0.1664 -1.0363
12920TIP3   OH238692   4.882   0.247   6.586 -0.2984  0.3772  0.2318
12920TIP3    H138693   4.794   0.254   6.622  0.1207  2.8476  0.9128
12920TIP3    H238694   4.934   0.209   6.657 -0.7531 -0.7893 -0.0608
12921TIP3   OH238695   7.190   3.719   0.124 -0.1993 -0.4466  0.2865
12921TIP3    H138696   7.172   3.803   0.083 -0.3752 -0.5929  0.0676
12921TIP3    H238697   7.264   3.684   0.075 -0.3283 -0.5640  0.1789
12922TIP3   OH238698   5.490   0.243   5.707 -0.0424 -0.1463 -0.1152
12922TIP3    H138699   5.561   0.277   5.761  0.6417  2.8051 -2.7235
12922TIP3    H238700   5.412   0.254   5.762  1.2866 -2.7033  2.4703
12923TIP3   OH238701   5.499   1.410   6.038  0.1022  0.0008 -0.4457
12923TIP3    H138702   5.437   1.394   6.109  1.3199  0.6888  0.7801
12923TIP3    H238703   5.509   1.505   6.035  3.2515 -0.2090  1.2639
12924TIP3   OH238704   4.249   6.883   6.597  0.2679  0.3020  0.2439
12924TIP3    H138705   4.160   6.849   6.603 -0.0605  1.1369  0.1482
12924TIP3    H238706   4.241   6.963   6.545  1.1706  0.0316 -0.3155
12925TIP3   OH238707   7.871   0.803   5.885  0.2566  0.3970 -0.7516
12925TIP3    H138708   7.807   0.850   5.831 -0.7736 -1.2803 -1.0214
12925TIP3    H238709   7.935   0.769   5.823 -0.2320 -0.4517 -0.7994
12926TIP3   OH238710   1.235   7.514   4.893  0.1661  0.0382  0.2610
12926TIP3    H138711   1.289   7.551   4.824 -0.9524 -0.3886 -0.8715
12926TIP3    H238712   1.157   7.481   4.848 -0.5538 -0.3207  1.7099
12927TIP3   OH238713   1.663   7.879   5.342  0.4927 -0.7288 -0.0276
12927TIP3    H138714   1.620   7.903   5.260 -0.0271  0.1551  0.4907
12927TIP3    H238715   1.704   7.794   5.324 -0.8315 -1.2248 -0.7644
12928TIP3   OH238716   6.232   4.370   1.483 -0.2130  0.0280 -0.1544
12928TIP3    H138717   6.203   4.454   1.519 -0.1043  0.2484 -0.5796
12928TIP3    H238718   6.328   4.373   1.489 -0.2402 -0.3625  0.4922
12929TIP3   OH238719   2.370   4.003   0.394  0.2654 -0.0460  0.5327
12929TIP3    H138720   2.383   4.098   0.401 -2.3505  0.2941  1.7079
12929TIP3    H238721   2.281   3.990   0.428 -0.4807 -2.5931 -2.2765
12930TIP3   OH238722   4.920   7.547   5.915 -0.4585 -0.1621 -0.0846
12930TIP3    H138723   4.971   7.471   5.944 -0.9706 -0.3654  0.3003
12930TIP3    H238724   4.983   7.619   5.913  0.3811 -0.9312 -1.9626
12931TIP3   OH238725   7.965   0.093   6.371 -0.4773  0.2952 -0.6645
12931TIP3    H138726   7.984   0.169   6.316 -1.4084  0.4549 -0.7813
12931TIP3    H238727   8.035   0.093   6.437  0.6238  0.1181 -1.8199
12932TIP3   OH238728   3.145   7.452   6.003  0.3600 -0.8334  0.4334
12932TIP3    H138729   3.051   7.436   6.004  0.2104 -0.1415 -1.1155
12932TIP3    H238730   3.182   7.378   5.956  0.3744 -0.1248 -0.6897
12933TIP3   OH238731   4.646   7.424   5.503 -0.2364 -0.3362  0.0519
12933TIP3    H138732   4.622   7.384   5.420 -2.7941  1.1959 -0.0067
12933TIP3    H238733   4.674   7.351   5.558  0.8904 -1.4348 -1.9333
12934TIP3   OH238734   1.245   6.630   5.045  0.2032  0.4289 -0.0156
12934TIP3    H138735   1.166   6.576   5.042 -0.0857  0.7371  1.5687
12934TIP3    H238736   1.213   6.720   5.033  0.1673  0.6726  1.8494
12935TIP3   OH238737   3.877   7.678   2.756  0.0421 -0.2075 -0.4766
12935TIP3    H138738   3.938   7.610   2.786 -0.7127 -0.4853  0.4677
12935TIP3    H238739   3.929   7.732   2.697  0.8590 -1.1796 -0.6707
12936TIP3   OH238740   1.243   4.940   6.213 -0.4506 -0.5507 -0.7859
12936TIP3    H138741   1.157   4.966   6.247  0.3524 -0.8175  1.5208
12936TIP3    H238742   1.297   5.018   6.221  0.0251 -0.9069 -0.4862
12937TIP3   OH238743   4.012   7.641   6.019  0.3110  0.2386 -0.9386
12937TIP3    H138744   3.986   7.689   5.940 -0.3550  0.9487 -0.2923
12937TIP3    H238745   4.106   7.655   6.026  0.4676 -0.2757 -1.9065
12938TIP3   OH238746   5.999   1.294   3.942 -0.0868  0.1647 -0.0568
12938TIP3    H138747   6.040   1.370   3.984  2.1828  0.2336 -2.2449
12938TIP3    H238748   6.048   1.219   3.975  0.2867  0.0289 -0.9145
12939TIP3   OH238749   5.364   0.752   4.770  1.1788 -0.2359  0.4344
12939TIP3    H138750   5.333   0.791   4.852  0.3329 -0.5459  0.2598
12939TIP3    H238751   5.394   0.664   4.796  2.5372  0.2970  0.7207
12940TIP3   OH238752   3.235   7.599   6.491  0.0219  0.5336  0.7588
12940TIP3    H138753   3.325   7.585   6.519 -0.1964  0.4940  1.4520
12940TIP3    H238754   3.183   7.538   6.543 -0.3768  0.3526  0.1590
12941TIP3   OH238755   6.025   1.208   6.240 -0.2102 -0.2392  0.7962
12941TIP3    H138756   5.985   1.157   6.169 -0.1194  0.3149  0.3464
12941TIP3    H238757   6.028   1.147   6.314 -0.7467 -0.6703  0.4673
12942TIP3   OH238758   5.420   0.463   4.864 -0.4113  0.4834  0.4245
12942TIP3    H138759   5.504   0.508   4.869 -0.4036  0.4320  0.7999
12942TIP3    H238760   5.410   0.423   4.950 -0.8416  0.5239  0.3919
12943TIP3   OH238761   0.035   3.505   0.692 -0.9092  0.3227 -0.5556
12943TIP3    H138762   0.060   3.514   0.600  0.3014  0.8829 -0.1788
12943TIP3    H238763   0.039   3.594   0.726  2.3910 -0.3236  0.9740
12944TIP3   OH238764   3.314   6.328   5.929 -0.3290  0.0354  0.3657
12944TIP3    H138765   3.243   6.389   5.951 -0.3027  0.7656 -1.4765
12944TIP3    H238766   3.388   6.385   5.907 -0.0679 -0.6781 -0.6182
12945TIP3   OH238767   2.944   0.455   5.652  0.5899  0.3422  0.5843
12945TIP3    H138768   2.944   0.359   5.657 -2.0919  0.2468 -0.5256
12945TIP3    H238769   3.011   0.476   5.587  1.4856 -0.7536  1.1478
12946TIP3   OH238770   4.263   0.669   6.741 -0.2250  0.1106  0.0168
12946TIP3    H138771   4.328   0.618   6.691  1.1803  3.5413 -1.7885
12946TIP3    H238772   4.313   0.741   6.779 -2.3521  0.7575  1.6549
12947TIP3   OH238773   0.800   7.573   5.794  0.0167 -0.0159  0.1197
12947TIP3    H138774   0.819   7.660   5.828  0.4470 -0.3952  0.8561
12947TIP3    H238775   0.801   7.516   5.871 -0.4393 -0.6445 -0.3291
12948TIP3   OH238776   8.378   4.857   0.260  0.4432  0.2681 -0.8765
12948TIP3    H138777   8.450   4.919   0.271  1.9834 -1.5679 -0.2619
12948TIP3    H238778   8.385   4.828   0.169  1.0607 -0.5577 -0.5798
12949TIP3   OH238779   6.077   1.044   4.577 -0.1853  0.0052 -0.2859
12949TIP3    H138780   6.025   1.123   4.592 -1.1158 -0.6537  0.0405
12949TIP3    H238781   6.147   1.048   4.642 -0.4028  0.4085 -0.0729
12950TIP3   OH238782   1.976   6.694   4.944  0.0603  0.1498 -0.4128
12950TIP3    H138783   2.039   6.741   4.999 -1.1678  0.8038  0.4743
12950TIP3    H238784   1.980   6.604   4.975 -0.4040  0.4570  0.5665
12951TIP3   OH238785   1.891   6.676   6.412 -0.4737 -0.2620 -0.0556
12951TIP3    H138786   1.805   6.688   6.452  0.2953 -0.8747  1.8422
12951TIP3    H238787   1.902   6.581   6.407 -1.0789 -0.2281 -2.9448
12952TIP3   OH238788   6.542   2.471   0.913 -0.1896 -0.5697  0.1614
12952TIP3    H138789   6.526   2.518   0.995  1.8877 -0.0239  0.2861
12952TIP3    H238790   6.633   2.441   0.920 -0.0667 -0.7255 -1.8437
12953TIP3   OH238791   0.862   7.267   6.820  0.1748  0.1270 -0.7252
12953TIP3    H138792   0.787   7.241   6.768 -0.3179  1.7155 -0.8331
12953TIP3    H238793   0.907   7.185   6.841 -0.3558 -0.6314 -2.5160
12954TIP3   OH238794   3.061   7.824   5.641 -0.2340  0.1081  0.1691
12954TIP3    H138795   2.987   7.878   5.613  0.0418  0.4365  0.0744
12954TIP3    H238796   3.038   7.796   5.730 -0.1184  0.8548  0.4402
12955TIP3   OH238797   6.995  -0.004   5.633 -0.6239 -0.2846 -0.2513
12955TIP3    H138798   7.082  -0.007   5.595 -0.4338 -0.2589  0.1740
12955TIP3    H238799   6.957   0.077   5.599 -0.3318 -0.0923 -0.1239
12956TIP3   OH238800   6.426   2.065   4.862 -0.3309  0.1538  0.1392
12956TIP3    H138801   6.489   2.046   4.792  0.3461  0.0531  0.7679
12956TIP3    H238802   6.429   1.988   4.918 -2.1061 -0.4907 -0.6046
12957TIP3   OH238803   5.090   7.536   6.421  0.3297 -0.2935 -0.0964
12957TIP3    H138804   5.066   7.515   6.511 -2.1629  0.9381 -0.4271
12957TIP3    H238805   5.183   7.516   6.416  1.0347  1.6530  3.3517
12958TIP3   OH238806   5.002   2.025   2.942  0.2661  0.3562 -0.3332
12958TIP3    H138807   5.007   1.929   2.942  0.3386  0.3516 -2.2096
12958TIP3    H238808   4.963   2.046   3.027  0.1080 -1.3330  0.0471
12959TIP3   OH238809   6.676   0.918   6.152 -0.2467 -0.5460 -0.1415
12959TIP3    H138810   6.766   0.887   6.153 -0.2458 -0.5406 -0.0714
12959TIP3    H238811   6.627   0.849   6.106 -0.6146 -1.6447  1.8518
12960TIP3   OH238812   6.379   2.386   4.749 -0.2315 -0.2289  0.0205
12960TIP3    H138813   6.373   2.379   4.654  0.9644 -0.7207 -0.0323
12960TIP3    H238814   6.442   2.318   4.774  1.4875  1.6129  0.8819
12961TIP3   OH238815   0.699   2.280   1.215  0.2818 -0.3140  0.0087
12961TIP3    H138816   0.734   2.225   1.145  1.7275 -0.1207  0.5729
12961TIP3    H238817   0.650   2.349   1.169  1.9432  0.3183 -0.8644
12962TIP3   OH238818   4.763   7.754   2.853 -0.1932  0.0905  0.3523
12962TIP3    H138819   4.725   7.830   2.810 -0.3315  0.4037  1.0184
12962TIP3    H238820   4.775   7.690   2.783  1.1261  1.1876 -0.4451
12963TIP3   OH238821   0.507   6.279   6.605 -0.6611  0.3194  0.1061
12963TIP3    H138822   0.494   6.190   6.572 -0.3402  0.1232  0.5077
12963TIP3    H238823   0.454   6.284   6.684 -0.7993  0.5340  0.0005
12964TIP3   OH238824   6.920   1.916   5.419 -0.6612 -0.2190 -0.5237
12964TIP3    H138825   6.826   1.904   5.407 -0.8734  1.5849 -0.7611
12964TIP3    H238826   6.942   1.991   5.365  1.0099 -0.8799 -0.8098
12965TIP3   OH238827   4.674   6.538   4.851 -0.2313 -0.0977  1.0975
12965TIP3    H138828   4.757   6.519   4.895 -1.7471 -2.1654  3.1511
12965TIP3    H238829   4.628   6.598   4.909 -1.0885 -0.6774  1.0353
12966TIP3   OH238830   5.096   7.511   6.715  0.2555 -0.3692  0.7111
12966TIP3    H138831   5.159   7.559   6.770 -0.4196 -0.4311  1.5518
12966TIP3    H238832   5.109   7.419   6.739  0.3117 -0.4454  0.3936
12967TIP3   OH238833   4.777   7.218   6.903  0.3784 -0.0439 -0.1951
12967TIP3    H138834   4.838   7.156   6.943  1.0068  0.5483 -0.2322
12967TIP3    H238835   4.812   7.304   6.926 -1.0396  0.3123  0.7015
12968TIP3   OH238836   1.169   2.728   0.787 -0.2103 -0.0094 -0.2738
12968TIP3    H138837   1.169   2.789   0.860 -1.8503  1.7709 -1.7094
12968TIP3    H238838   1.140   2.780   0.712 -0.2652 -2.2085 -1.8335
12969TIP3   OH238839   1.569   7.791   0.212  0.5453 -0.2747  0.2346
12969TIP3    H138840   1.633   7.748   0.269  2.2112  0.2520 -1.2008
12969TIP3    H238841   1.603   7.879   0.200 -0.4859  0.0240 -0.5276
12970TIP3   OH238842   6.879   0.959   5.521 -0.0980 -0.3369  0.1431
12970TIP3    H138843   6.917   0.951   5.608 -0.8112  1.9077  0.7009
12970TIP3    H238844   6.784   0.953   5.535 -0.1249 -3.5769 -0.9488
12971TIP3   OH238845   7.309   4.074   5.805  0.1581 -0.0272  0.4483
12971TIP3    H138846   7.231   4.049   5.755  0.0658  0.2093  0.4711
12971TIP3    H238847   7.379   4.076   5.740  0.2530 -0.7528  0.5247
12972TIP3   OH238848   0.878   3.724   0.554 -0.2212 -0.0527  0.5740
12972TIP3    H138849   0.883   3.819   0.557 -1.7995  0.0333  0.8545
12972TIP3    H238850   0.865   3.698   0.646 -3.3666 -0.2863  0.1256
12973TIP3   OH238851   4.251   0.645   3.871 -0.0336  1.0473  0.7176
12973TIP3    H138852   4.284   0.685   3.952 -0.0719  0.3494  1.0830
12973TIP3    H238853   4.298   0.562   3.865  0.5769  1.4652 -0.4149
12974TIP3   OH238854   4.147   7.029   5.141  0.1047  0.0211 -0.1615
12974TIP3    H138855   4.238   7.000   5.151 -0.1621 -1.7692 -2.4503
12974TIP3    H238856   4.097   6.974   5.201  0.5892  1.4124  1.5369
12975TIP3   OH238857   4.769   5.593   5.563  0.5724  0.1894 -0.0997
12975TIP3    H138858   4.769   5.670   5.620 -2.0360 -0.5763  0.9766
12975TIP3    H238859   4.720   5.622   5.485 -1.8976 -0.8600  1.0271
12976TIP3   OH238860   4.888   7.147   5.364  0.3876  0.2438 -0.3060
12976TIP3    H138861   4.903   7.205   5.289  0.8696 -0.5374 -0.8188
12976TIP3    H238862   4.965   7.090   5.366  0.4350  0.3262  0.8561
12977TIP3   OH238863   0.321   0.081   4.346  0.5506  0.1888  0.0417
12977TIP3    H138864   0.397   0.052   4.296  0.5617 -1.7420  1.1006
12977TIP3    H238865   0.358   0.116   4.427  0.3276 -0.7001  0.5338
12978TIP3   OH238866   5.371   1.029   6.134  0.4463  0.0081  0.3809
12978TIP3    H138867   5.413   0.999   6.214 -1.4949 -0.9200  1.0554
12978TIP3    H238868   5.356   1.122   6.148 -0.9039 -0.3863  1.5361
12979TIP3   OH238869   6.401   1.109   2.781  0.3962  0.0243  0.4225
12979TIP3    H138870   6.458   1.174   2.821 -1.8930  2.2200  0.2541
12979TIP3    H238871   6.364   1.153   2.705 -0.3940 -1.8503 -0.3123
12980TIP3   OH238872   0.629   0.512   5.296 -0.1932 -0.0434 -0.2237
12980TIP3    H138873   0.573   0.435   5.301 -0.6456  0.2919 -0.1763
12980TIP3    H238874   0.712   0.478   5.260  0.0408 -0.7731  0.9805
12981TIP3   OH238875   2.374   4.876   0.080  0.8541  0.0244 -0.2883
12981TIP3    H138876   2.450   4.819   0.090  1.0165  0.5650  1.5825
12981TIP3    H238877   2.410   4.965   0.084  0.3677  0.2861 -1.4221
12982TIP3   OH238878   5.298   7.660   3.810  0.4539  0.1928 -0.0506
12982TIP3    H138879   5.205   7.642   3.801  0.5173  0.4194 -1.1488
12982TIP3    H238880   5.338   7.574   3.824 -0.0507  0.2153  1.6813
12983TIP3   OH238881   5.550   0.051   6.009 -0.3962  0.0519 -0.3813
12983TIP3    H138882   5.592   0.125   5.965 -0.3323  0.3270  0.1414
12983TIP3    H238883   5.520   0.087   6.092 -0.1287 -0.5807 -0.0122
12984TIP3   OH238884   7.447   1.245   6.465 -0.5784 -0.1926 -0.5695
12984TIP3    H138885   7.473   1.198   6.544  2.7459 -0.6666 -1.8651
12984TIP3    H238886   7.432   1.176   6.400 -0.4919  0.3161 -1.1324
12985TIP3   OH238887   0.855   4.002   0.469  0.0571 -0.0137  0.3622
12985TIP3    H138888   0.897   4.087   0.487  2.0549 -0.7480 -0.6394
12985TIP3    H238889   0.860   3.993   0.374  0.0098 -1.3344  0.4845
12986TIP3   OH238890   7.486   1.151   6.752 -0.1997  0.0146  0.2174
12986TIP3    H138891   7.484   1.055   6.754  0.1125  0.0247  1.4605
12986TIP3    H238892   7.401   1.178   6.788 -0.6094  0.2183 -0.8606
12987TIP3   OH238893   4.146   6.396   5.996 -0.6473 -0.8529  0.0602
12987TIP3    H138894   4.215   6.402   5.930  1.9141 -2.2152  2.4752
12987TIP3    H238895   4.065   6.393   5.946  0.8945  2.4725 -2.8305
12988TIP3   OH238896   6.339   1.035   6.598  0.7350 -0.6269 -0.5004
12988TIP3    H138897   6.293   0.986   6.530 -1.3380  0.8189 -0.2307
12988TIP3    H238898   6.284   1.024   6.676  0.6968  1.3310 -0.2230
12989TIP3   OH238899   3.945   5.326   4.117 -0.4551 -0.1564 -0.6293
12989TIP3    H138900   3.905   5.313   4.031  0.4046  0.7951 -1.1871
12989TIP3    H238901   4.039   5.332   4.099 -0.2216 -0.4656  0.4393
12990TIP3   OH238902   2.279   7.927   3.676 -0.0701  0.1649 -0.1238
12990TIP3    H138903   2.330   7.924   3.757 -0.7516 -0.1055  0.2980
12990TIP3    H238904   2.333   7.979   3.616  0.6154  0.0415  0.3756
12991TIP3   OH238905   0.028   0.910   6.653 -0.4677 -0.0114 -0.2644
12991TIP3    H138906   0.110   0.879   6.693 -0.5947 -0.0400 -0.0235
12991TIP3    H238907   0.024   0.866   6.568 -0.0080  0.3379 -0.4691
12992TIP3   OH238908   3.281   4.477   0.114 -0.5488  0.1659  0.4603
12992TIP3    H138909   3.288   4.535   0.038 -0.3553  0.1927  0.4986
12992TIP3    H238910   3.331   4.521   0.183 -0.6513  0.1002  0.5787
12993TIP3   OH238911   6.792   0.701   4.187 -0.2258 -0.8614  0.2899
12993TIP3    H138912   6.712   0.675   4.141  0.1600 -0.6738 -0.4954
12993TIP3    H238913   6.788   0.654   4.270 -0.7482 -1.4979 -0.0882
12994TIP3   OH238914   0.294   3.241   1.903  0.3056  0.7492 -0.5449
12994TIP3    H138915   0.313   3.147   1.896  2.9557  1.3957 -2.7423
12994TIP3    H238916   0.341   3.269   1.982  0.3816  0.4476 -0.4809
12995TIP3   OH238917   7.742   0.679   6.631 -0.1860  0.0627  0.2517
12995TIP3    H138918   7.724   0.596   6.586 -1.6157  0.7624 -0.5144
12995TIP3    H238919   7.831   0.669   6.664 -0.0185 -1.4492 -0.5744
12996TIP3   OH238920   3.777   7.714   6.937  0.2006 -0.4504  0.2225
12996TIP3    H138921   3.681   7.720   6.931  0.2456  2.0126  1.2906
12996TIP3    H238922   3.808   7.785   6.880  1.3432  0.0003  1.4118
12997TIP3   OH238923   7.373   2.059   4.820 -0.5044  0.0972 -0.1532
12997TIP3    H138924   7.432   2.100   4.882 -0.5850 -0.2132  0.1339
12997TIP3    H238925   7.301   2.026   4.874 -0.8392  0.3004 -0.4759
12998TIP3   OH238926   6.128   1.421   5.151  0.0983 -0.2118 -0.0499
12998TIP3    H138927   6.106   1.369   5.073 -2.6002  1.2272 -0.3207
12998TIP3    H238928   6.130   1.511   5.120 -0.2902  0.3183  1.4194
12999TIP3   OH238929   6.118   0.555   6.715  0.6414  0.1119 -0.0802
12999TIP3    H138930   6.174   0.569   6.791  0.0133  2.7431 -0.0375
12999TIP3    H238931   6.177   0.566   6.640  1.1332 -1.8670  0.0015
13000TIP3   OH238932   2.187   7.907   5.172 -0.1667 -0.0702 -0.1291
13000TIP3    H138933   2.135   7.930   5.096  0.5515  0.8795 -0.3442
13000TIP3    H238934   2.247   7.839   5.141 -0.0992  0.0831 -0.3355
13001TIP3   OH238935   4.947   7.369   3.926 -0.0776  0.5338 -0.4702
13001TIP3    H138936   5.005   7.301   3.893  0.1750  0.4684  0.1066
13001TIP3    H238937   4.940   7.432   3.854  1.2357  0.8839 -0.3011
13002TIP3   OH238938   7.982   0.294   6.794  0.2170 -0.3041  0.1232
13002TIP3    H138939   7.916   0.225   6.799 -0.1343  0.0941  1.0041
13002TIP3    H238940   8.014   0.290   6.703 -1.6839  0.1394 -0.5798
13003TIP3   OH238941   4.354   7.510   5.565 -0.2647  0.7667 -0.7280
13003TIP3    H138942   4.278   7.495   5.622 -0.4844  0.7418 -1.0250
13003TIP3    H238943   4.410   7.434   5.579 -0.4669  0.6080 -0.7783
13004TIP3   OH238944   5.714   1.242   5.981 -0.4598  0.2752  0.2548
13004TIP3    H138945   5.647   1.311   5.982 -0.1462  0.6273 -1.3996
13004TIP3    H238946   5.667   1.164   5.953 -0.7555 -0.1431  1.8561
13005TIP3   OH238947   2.956   6.423   4.689 -0.8875 -0.5654  0.3296
13005TIP3    H138948   2.893   6.352   4.676 -1.3327  0.1495 -1.6793
13005TIP3    H238949   3.016   6.390   4.755 -2.9953 -1.5124  1.8394
13006TIP3   OH238950   3.708   7.581   6.075  0.6293 -0.0228  0.6564
13006TIP3    H138951   3.653   7.504   6.068 -0.2834  0.7952 -1.6538
13006TIP3    H238952   3.797   7.546   6.087 -0.0625 -1.3615  2.0469
13007TIP3   OH238953   0.738   5.676   0.267  0.0238  0.3777 -0.1524
13007TIP3    H138954   0.646   5.687   0.241  0.3421 -0.8059 -1.8389
13007TIP3    H238955   0.769   5.766   0.280 -1.0039  0.8630 -0.9072
13008TIP3   OH238956   6.516   0.318   6.025 -0.1298 -0.2487 -0.8986
13008TIP3    H138957   6.537   0.318   6.119  2.0433  0.4193 -1.3559
13008TIP3    H238958   6.513   0.225   6.002 -1.2626 -0.4353 -0.0629
13009TIP3   OH238959   5.240   7.723   4.250  0.2482 -0.3695 -0.7084
13009TIP3    H138960   5.232   7.677   4.167 -0.0551 -0.4380 -0.6429
13009TIP3    H238961   5.177   7.680   4.308 -1.4660  1.3731 -1.2093
13010TIP3   OH238962   5.435   7.365   3.400 -0.4527  0.5333  0.1991
13010TIP3    H138963   5.356   7.369   3.454 -0.3791  0.8817  0.2796
13010TIP3    H238964   5.438   7.450   3.356  0.2381  0.7639  0.6955
13011TIP3   OH238965   5.096   7.085   6.328  0.2066  0.0801 -0.2009
13011TIP3    H138966   5.090   6.995   6.361 -0.6814 -0.2777 -1.3321
13011TIP3    H238967   5.181   7.116   6.360 -0.1511 -0.6247  1.4948
13012TIP3   OH238968   4.611   6.794   5.933  0.4980  0.0928 -0.1226
13012TIP3    H138969   4.655   6.785   5.848  1.0179 -1.0044  0.2532
13012TIP3    H238970   4.644   6.876   5.968  0.4990  0.4118 -0.8554
13013TIP3   OH238971   3.145   6.188   6.707  0.0114  0.4403  0.5647
13013TIP3    H138972   3.115   6.190   6.798 -1.2852  0.3747  0.1514
13013TIP3    H238973   3.072   6.225   6.657  0.5926  0.1858 -0.4804
13014TIP3   OH238974   5.988   2.014   5.215 -0.3462 -0.3234 -0.1331
13014TIP3    H138975   5.925   2.087   5.211  1.2806  1.1701  0.9910
13014TIP3    H238976   6.010   2.006   5.308 -0.4260 -2.2201 -0.2522
13015TIP3   OH238977   1.708   6.413   5.308 -0.6267 -0.6715 -0.1228
13015TIP3    H138978   1.639   6.367   5.262  1.2479 -1.5706 -2.1206
13015TIP3    H238979   1.705   6.502   5.273 -2.1442 -0.1128  1.3747
13016TIP3   OH238980   2.327   6.767   6.109 -0.3004  0.3676 -0.2062
13016TIP3    H138981   2.294   6.757   6.198 -0.8966  0.9440 -0.3651
13016TIP3    H238982   2.279   6.701   6.058 -0.7491  0.7738 -0.3120
13017TIP3   OH238983   0.674   3.628   0.829 -0.1263  0.1334  0.1477
13017TIP3    H138984   0.621   3.638   0.750  1.2389 -0.2559 -0.8481
13017TIP3    H238985   0.620   3.663   0.899 -1.8301 -0.5816 -0.7753
13018TIP3   OH238986   6.639   1.078   5.533  0.0885  0.2533 -0.5518
13018TIP3    H138987   6.554   1.090   5.490  0.3176 -1.8754 -1.6516
13018TIP3    H238988   6.617   1.038   5.617 -0.0198 -0.0603 -0.7283
13019TIP3   OH238989   4.451   6.118   5.411 -0.2545 -0.0616 -0.0016
13019TIP3    H138990   4.459   6.087   5.321  0.2737 -0.5414  0.2131
13019TIP3    H238991   4.398   6.198   5.403 -1.3500 -0.8158 -0.5944
13020TIP3   OH238992   4.506   6.338   3.445  0.2831  0.1905 -0.1440
13020TIP3    H138993   4.418   6.312   3.417 -0.5883  3.3433 -0.4852
13020TIP3    H238994   4.505   6.326   3.540 -0.1792 -0.6738 -0.2479
13021TIP3   OH238995   5.869   0.844   5.056 -0.3025  0.3315 -0.1062
13021TIP3    H138996   5.931   0.791   5.106 -1.4653 -0.1590  0.8648
13021TIP3    H238997   5.845   0.789   4.981 -1.3964 -0.4967  0.8232
13022TIP3   OH238998   5.106   7.119   5.705  0.1909  0.4626 -0.2052
13022TIP3    H138999   5.144   7.079   5.783  0.3667 -0.8441 -0.9461
13022TIP3    H239000   5.180   7.167   5.665  0.1537  0.9477  0.3043
13023TIP3   OH239001   4.873   7.012   4.227 -0.3553 -0.1325 -0.2982
13023TIP3    H139002   4.864   7.089   4.284 -0.2970  0.5812 -1.2402
13023TIP3    H239003   4.965   7.014   4.199 -0.3943 -0.4617 -0.4464
13024TIP3   OH239004   5.368   7.448   5.354  0.1865 -0.0163 -0.3393
13024TIP3    H139005   5.328   7.529   5.387 -2.4465 -0.9073 -1.2131
13024TIP3    H239006   5.449   7.476   5.312  0.9367  1.7746  2.1877
13025TIP3   OH239007   3.486   8.027   6.779 -0.2275  0.6722  0.1256
13025TIP3    H139008   3.566   7.976   6.783 -0.6569 -0.2303 -1.9711
13025TIP3    H239009   3.430   7.990   6.848  1.0879  1.2598  1.5397
13026TIP3   OH239010   5.603   0.842   6.942 -0.6204  0.2536 -0.3667
13026TIP3    H139011   5.546   0.789   6.886 -2.3845  1.6668  0.0329
13026TIP3    H239012   5.625   0.918   6.888 -0.8544  0.7433  0.2250
13027TIP3   OH239013   4.445   7.610   3.223  0.0170 -0.3501 -0.5613
13027TIP3    H139014   4.503   7.663   3.278  1.0146 -1.2236 -0.7590
13027TIP3    H239015   4.502   7.544   3.185 -1.4894 -2.6888  1.0722
13028TIP3   OH239016   8.382   1.394   3.785 -0.1099  0.0111 -0.4212
13028TIP3    H139017   8.416   1.483   3.772 -1.7042  0.7315  0.2048
13028TIP3    H239018   8.294   1.407   3.821 -0.3335 -1.8281 -0.2623
13029TIP3   OH239019   2.936   0.739   3.554  0.1354 -0.4881 -0.6656
13029TIP3    H139020   2.840   0.734   3.546 -0.3977  0.3727  3.6959
13029TIP3    H239021   2.954   0.832   3.566  1.1109 -0.9688  1.9228
13030TIP3   OH239022   5.863   1.997   4.212  0.0004  0.1248  1.2910
13030TIP3    H139023   5.818   2.076   4.180  1.2324  0.4540  0.3497
13030TIP3    H239024   5.933   2.031   4.268  0.8710 -0.2715  0.4527
13031TIP3   OH239025   6.884   2.004   5.702 -0.2482  0.0983 -0.0353
13031TIP3    H139026   6.915   1.975   5.616 -0.0564  1.4428 -0.4428
13031TIP3    H239027   6.831   2.082   5.683  0.9760  1.2546  1.1850
13032TIP3   OH239028   5.348   7.458   5.931  0.1510  0.1633 -0.1992
13032TIP3    H139029   5.422   7.466   5.990  0.5782  1.7668 -0.9307
13032TIP3    H239030   5.371   7.512   5.855 -1.2907 -0.1728 -0.9052
13033TIP3   OH239031   5.228   7.650   3.240 -0.5028 -0.1280  0.2830
13033TIP3    H139032   5.196   7.696   3.318 -1.2626 -1.7101  0.9144
13033TIP3    H239033   5.323   7.662   3.244 -0.5365 -0.0961  1.3936
13034TIP3   OH239034   2.938   7.116   4.587  0.1354 -0.0355 -0.2636
13034TIP3    H139035   3.003   7.046   4.584  0.8003  0.6211 -1.9166
13034TIP3    H239036   2.887   7.105   4.507 -0.7813  0.4206  0.2412
13035TIP3   OH239037   4.526   7.687   5.422 -0.0265 -0.0102  0.6076
13035TIP3    H139038   4.436   7.657   5.434  0.1633  0.3128  2.9333
13035TIP3    H239039   4.580   7.613   5.451  0.4591  0.5925  1.2346
13036TIP3   OH239040   6.594   1.349   5.168 -0.7014 -0.1463  0.3288
13036TIP3    H139041   6.541   1.411   5.218  0.1737  0.1915  0.8434
13036TIP3    H239042   6.569   1.263   5.203 -0.8006  0.0224  0.6777
13037TIP3   OH239043   2.578   7.605   4.542 -0.2390  0.4704 -0.6926
13037TIP3    H139044   2.660   7.654   4.529 -0.6988  1.1536 -1.0145
13037TIP3    H239045   2.589   7.563   4.628  0.7012  0.0604 -0.9993
13038TIP3   OH239046   7.988   0.306   3.412 -0.0814 -0.7346  0.0499
13038TIP3    H139047   7.897   0.322   3.440  0.2831  0.1574  0.7533
13038TIP3    H239048   8.038   0.305   3.494  0.9365  1.4152 -0.5192
13039TIP3   OH239049   3.914   7.923   3.577 -0.3813  0.0360  0.0808
13039TIP3    H139050   4.009   7.923   3.569 -0.3492  1.2739  0.4076
13039TIP3    H239051   3.892   7.833   3.601  0.6437 -0.4239 -0.7007
13040TIP3   OH239052   4.073   7.898   5.081 -0.1784 -0.0776 -0.4178
13040TIP3    H139053   4.078   7.994   5.082  1.8789 -0.1635 -0.7235
13040TIP3    H239054   3.983   7.879   5.105 -0.5217  1.9348  0.0014
13041TIP3   OH239055   3.574   3.645   0.420 -0.5986  0.0443  0.0050
13041TIP3    H139056   3.656   3.596   0.421 -0.0956  0.8818  0.2196
13041TIP3    H239057   3.587   3.714   0.486 -1.4482  0.2124 -0.0037
13042TIP3   OH239058   6.168   1.912   4.275 -0.1609  0.1660 -0.8153
13042TIP3    H139059   6.193   1.959   4.195 -1.9400  2.9205  0.1795
13042TIP3    H239060   6.149   1.981   4.339  0.4485 -1.9539  1.7944
13043TIP3   OH239061   7.465   0.065   6.608 -0.5836  0.1945 -0.3132
13043TIP3    H139062   7.491   0.155   6.590  1.9757 -0.4702 -0.1877
13043TIP3    H239063   7.470   0.056   6.703  2.7074 -1.0214 -0.5333
13044TIP3   OH239064   3.764   5.815   5.428 -0.9180  0.0459 -0.2143
13044TIP3    H139065   3.728   5.790   5.343  0.7576  0.6112 -1.1164
13044TIP3    H239066   3.838   5.755   5.441 -0.2953  0.8950  0.1821
13045TIP3   OH239067   3.117   6.200   3.268  0.0306 -0.3555 -0.3749
13045TIP3    H139068   3.090   6.281   3.227  0.2373  0.1446  0.4660
13045TIP3    H239069   3.044   6.176   3.326  0.7622  0.2433  0.8151
13046TIP3   OH239070   8.207   0.775   6.218  0.5208  0.1490  0.1619
13046TIP3    H139071   8.222   0.697   6.272 -0.9013 -0.2240  0.0369
13046TIP3    H239072   8.248   0.846   6.268  0.5916 -0.4489  0.9773
13047TIP3   OH239073   1.610   6.763   3.465  0.2545  0.0469 -0.1649
13047TIP3    H139074   1.613   6.780   3.370 -0.6879  0.0952 -0.1892
13047TIP3    H239075   1.689   6.806   3.499  0.4035  0.3548 -0.8827
13048TIP3   OH239076   4.556   7.691   4.801 -0.1251 -0.4639  0.0353
13048TIP3    H139077   4.499   7.619   4.828 -0.1440 -0.3029  0.4313
13048TIP3    H239078   4.561   7.683   4.706  1.3674 -2.1264  0.2215
13049TIP3   OH239079   6.988   3.944   0.084  0.1228 -0.7618  0.1750
13049TIP3    H139080   6.940   3.959   0.002  0.8841  0.1505 -0.1057
13049TIP3    H239081   7.079   3.960   0.063  0.1784  0.8217  1.5328
13050TIP3   OH239082   8.156   1.762   5.533 -0.5891  0.4002  0.2702
13050TIP3    H139083   8.166   1.705   5.609 -0.5829  0.8710  0.6265
13050TIP3    H239084   8.243   1.800   5.520 -0.6857  0.6264  0.2782
13051TIP3   OH239085   7.679   0.963   4.122 -0.2336 -0.1788 -0.2134
13051TIP3    H139086   7.741   0.958   4.049  1.0923 -1.8552  0.9865
13051TIP3    H239087   7.666   1.057   4.136 -0.8790  0.1696 -2.8809
13052TIP3   OH239088   6.359   1.073   2.330  0.0827  0.1768 -0.6354
13052TIP3    H139089   6.315   1.051   2.247 -0.2042  1.0329 -0.7146
13052TIP3    H239090   6.344   1.166   2.341 -0.7356 -0.1284  0.9057
13053TIP3   OH239091   5.367   6.994   6.186  0.1170 -0.4387  0.0230
13053TIP3    H139092   5.329   6.928   6.245  1.1946 -1.4512 -0.4017
13053TIP3    H239093   5.437   7.035   6.237 -0.8659  0.7329  0.4558
13054TIP3   OH239094   1.847   7.894   6.004  0.0400  0.4062 -0.2898
13054TIP3    H139095   1.752   7.888   6.004  0.1523 -1.8717 -1.2340
13054TIP3    H239096   1.868   7.938   5.922 -0.1415 -0.5444 -0.8539
13055TIP3   OH239097   4.497   6.807   4.087 -0.1019  0.1694 -0.0309
13055TIP3    H139098   4.511   6.813   4.182 -1.4034  0.3334  0.1557
13055TIP3    H239099   4.451   6.725   4.075  0.2902  0.0275 -0.5563
13056TIP3   OH239100   6.592   0.580   6.324  0.4350  0.2207  0.3974
13056TIP3    H139101   6.653   0.520   6.368  2.0993  0.4511 -1.5381
13056TIP3    H239102   6.592   0.658   6.378  1.8576  0.2038  0.4471
13057TIP3   OH239103   4.700   5.333   5.565  0.2356 -0.1426  0.2404
13057TIP3    H139104   4.735   5.423   5.561  1.2776 -0.5489 -0.1608
13057TIP3    H239105   4.641   5.333   5.640  0.0315  0.9508  0.0900
13058TIP3   OH239106   4.733   7.497   4.111  0.6426 -0.1688  0.3630
13058TIP3    H139107   4.697   7.408   4.120  1.3548 -0.3299  1.6381
13058TIP3    H239108   4.783   7.494   4.029 -1.1525 -0.3061 -0.7695
13059TIP3   OH239109   0.238   1.216   4.459  0.7608  0.7293  0.5069
13059TIP3    H139110   0.264   1.301   4.425  0.2392  0.1849 -1.3086
13059TIP3    H239111   0.181   1.179   4.391  1.7983 -1.4981  0.7943
13060TIP3   OH239112   1.004   2.772   2.184 -0.0375 -0.2070 -0.0370
13060TIP3    H139113   1.012   2.853   2.134 -0.0003 -1.6640 -2.5143
13060TIP3    H239114   0.910   2.755   2.188 -0.1082  0.4510  1.3445
13061TIP3   OH239115   4.277   7.186   6.576  0.2653  0.0364  0.4241
13061TIP3    H139116   4.185   7.190   6.548  0.6431  1.9840 -0.5809
13061TIP3    H239117   4.323   7.247   6.519  1.9619  0.1709  1.8777
13062TIP3   OH239118   2.669   5.186   1.559 -0.1090  0.0218 -0.1436
13062TIP3    H139119   2.622   5.103   1.562 -1.5851  0.8087 -0.6859
13062TIP3    H239120   2.710   5.187   1.472 -1.5769  0.6222 -0.8546
13063TIP3   OH239121   2.165   5.261   1.062  0.0254  0.1048 -0.1974
13063TIP3    H139122   2.189   5.230   0.975 -1.6357 -0.1517 -0.5862
13063TIP3    H239123   2.069   5.251   1.066 -0.4588  4.1580  0.0869
13064TIP3   OH239124   5.484   0.133   6.257  1.1544  0.3558 -0.3818
13064TIP3    H139125   5.433   0.154   6.335  2.2927  0.5333  0.3293
13064TIP3    H239126   5.562   0.089   6.291  1.1760 -0.4819 -1.4997
13065TIP3   OH239127   3.653   7.285   6.011 -0.6057  0.4340 -0.8446
13065TIP3    H139128   3.693   7.335   5.940 -0.8871  1.8856  0.0051
13065TIP3    H239129   3.718   7.286   6.082 -1.7339  2.0443  0.2088
13066TIP3   OH239130   1.936   3.076   0.492 -0.1862  0.4144 -0.4936
13066TIP3    H139131   1.954   2.998   0.439  3.3151  0.3215  0.6748
13066TIP3    H239132   1.927   3.147   0.428  0.2003 -0.3442 -1.3973
13067TIP3   OH239133   3.841   7.354   6.197 -0.2813  0.1564  0.2381
13067TIP3    H139134   3.818   7.352   6.290  1.0456 -0.3274  0.5741
13067TIP3    H239135   3.936   7.365   6.197  0.0617 -2.4104 -0.9919
13068TIP3   OH239136   4.637   6.386   6.312  0.1673 -0.6608  0.0740
13068TIP3    H139137   4.680   6.362   6.394  0.3881 -0.6562 -0.0398
13068TIP3    H239138   4.661   6.477   6.297 -1.3143 -0.1094  0.9054
13069TIP3   OH239139   2.459   3.825   1.327  0.4271  0.8336  0.2295
13069TIP3    H139140   2.511   3.779   1.261 -0.9783  0.1245 -0.4002
13069TIP3    H239141   2.493   3.915   1.325  1.2684  0.5064 -0.5486
13070TIP3   OH239142   4.008   7.753   6.691  0.2039  0.1800  0.2710
13070TIP3    H139143   4.052   7.695   6.754  0.6424 -0.7132 -0.8471
13070TIP3    H239144   3.940   7.699   6.652 -0.3523  0.8644  0.2840
13071TIP3   OH239145   2.127   3.541   1.368  0.5865 -0.7565 -0.0530
13071TIP3    H139146   2.052   3.571   1.420  0.4539  0.7860 -1.0999
13071TIP3    H239147   2.093   3.467   1.317 -0.2065 -0.0950 -0.4849
13072TIP3   OH239148   3.168   7.514   4.378  0.0716 -0.5316 -0.0065
13072TIP3    H139149   3.088   7.479   4.338  0.5085  0.0536 -1.4457
13072TIP3    H239150   3.238   7.488   4.318  0.6217  1.2718 -0.1864
13073TIP3   OH239151   2.036   8.037   3.403 -0.3829  0.0909 -0.1760
13073TIP3    H139152   2.058   7.953   3.444 -0.7827  0.4869  0.8642
13073TIP3    H239153   1.941   8.033   3.389 -0.2875  0.0646 -0.8212
13074TIP3   OH239154   4.935   4.727   0.287 -0.2221  0.0605 -0.4068
13074TIP3    H139155   4.918   4.655   0.348  1.6403 -1.5013 -1.7041
13074TIP3    H239156   4.959   4.685   0.205 -0.1816  2.1667 -1.5149
13075TIP3   OH239157   6.541   0.892   2.751 -0.9234 -0.1058 -0.3468
13075TIP3    H139158   6.556   0.926   2.663 -0.2042  0.6366  0.0577
13075TIP3    H239159   6.477   0.951   2.789  1.1745  1.5265  0.7596
13076TIP3   OH239160   8.134   1.569   4.548  0.0137 -0.2324  0.5273
13076TIP3    H139161   8.066   1.551   4.613 -0.2318  0.6350  0.5129
13076TIP3    H239162   8.208   1.515   4.576 -0.4786 -0.7325  0.8756
13077TIP3   OH239163   7.814   0.052   6.796  0.3325 -0.1662 -0.7110
13077TIP3    H139164   7.834  -0.041   6.783  2.6919  0.4056 -1.3594
13077TIP3    H239165   7.787   0.083   6.710 -1.4188 -0.4577 -0.2826
13078TIP3   OH239166   3.037   7.741   5.899 -0.0754  0.3315 -0.3473
13078TIP3    H139167   2.996   7.766   5.981 -1.3680 -0.8066 -0.6310
13078TIP3    H239168   3.127   7.719   5.923 -0.2344  0.7429  0.6347
13079TIP3   OH239169   3.327   6.762   5.881  0.2141  0.7149  0.0646
13079TIP3    H139170   3.300   6.850   5.856 -0.1658  0.6697  0.3219
13079TIP3    H239171   3.273   6.740   5.957  3.0182  1.7579  2.4343
13080TIP3   OH239172   8.264   1.211   5.886  0.0732  0.3637 -0.1153
13080TIP3    H139173   8.342   1.244   5.841 -0.0980  0.4419 -0.3591
13080TIP3    H239174   8.205   1.286   5.887 -0.1142  0.2151 -0.1978
13081TIP3   OH239175   5.584   1.356   5.719 -0.2611  0.8512 -0.7176
13081TIP3    H139176   5.583   1.343   5.625  0.2451  1.4525 -0.8118
13081TIP3    H239177   5.592   1.269   5.756 -4.6856  0.1608 -1.1138
13082TIP3   OH239178   7.065   1.184   4.591  0.0739 -0.3623 -0.0815
13082TIP3    H139179   7.074   1.159   4.499  2.0774 -0.2439  0.0595
13082TIP3    H239180   6.984   1.142   4.619 -0.1654 -1.0319 -1.7034
13083TIP3   OH239181   7.325   3.432   5.554 -0.1668  1.0607 -0.0817
13083TIP3    H139182   7.318   3.442   5.649  0.5428  3.4208 -0.2476
13083TIP3    H239183   7.347   3.520   5.522  0.0538  0.2002 -2.3882
13084TIP3   OH239184   0.279   0.897   4.325  0.2628 -0.0738  0.0991
13084TIP3    H139185   0.241   0.970   4.276  0.0722  0.9262  1.7042
13084TIP3    H239186   0.220   0.824   4.309 -0.1258  0.4036 -0.6713
13085TIP3   OH239187   4.109   5.080   0.486 -0.3522 -0.5722 -0.4915
13085TIP3    H139188   4.102   5.056   0.578 -0.3578 -0.4679 -0.4650
13085TIP3    H239189   4.019   5.075   0.453 -0.6077  1.1324 -0.0608
13086TIP3   OH239190   7.078   0.526   5.213 -0.1358 -0.3458  0.1471
13086TIP3    H139191   7.118   0.613   5.203 -0.9964  0.0095 -0.2228
13086TIP3    H239192   6.994   0.543   5.254 -0.7092 -0.9201 -0.7793
13087TIP3   OH239193   7.558   1.094   5.095  0.5047  0.1968  0.2940
13087TIP3    H139194   7.492   1.142   5.045  0.6541 -0.8898 -0.9897
13087TIP3    H239195   7.596   1.034   5.031  1.9305  0.0086  1.3097
13088TIP3   OH239196   1.021   5.172   0.553 -0.0438 -0.0632 -0.2370
13088TIP3    H139197   0.969   5.128   0.620 -1.9900 -0.0113 -1.6665
13088TIP3    H239198   0.983   5.260   0.547  1.8605  0.8278  0.4674
13089TIP3   OH239199   3.977   6.661   5.099 -0.0092 -0.0649  0.5667
13089TIP3    H139200   4.047   6.712   5.056 -0.3590 -0.4263 -0.4545
13089TIP3    H239201   3.931   6.724   5.154  1.0006  0.2213  1.1053
13090TIP3   OH239202   3.329   6.616   5.642 -0.1212  0.1310 -0.2442
13090TIP3    H139203   3.246   6.602   5.597 -0.2854  1.8840 -0.5191
13090TIP3    H239204   3.308   6.675   5.715  0.7717  0.1635 -0.0015
13091TIP3   OH239205   7.478   0.259   5.142 -0.2384 -0.4447  0.1400
13091TIP3    H139206   7.476   0.210   5.224 -0.3310  0.4000  0.6467
13091TIP3    H239207   7.442   0.345   5.164  0.3207  0.0012 -0.6460
13092TIP3   OH239208   2.640   8.013   6.810 -0.2455 -0.0427  0.0277
13092TIP3    H139209   2.614   7.936   6.759  2.5057 -0.4978 -0.8004
13092TIP3    H239210   2.595   8.086   6.768  0.5242 -0.6675 -1.9491
13093TIP3   OH239211   5.641   7.311   5.186 -0.6042  0.3574  0.2954
13093TIP3    H139212   5.642   7.300   5.281  1.9570  1.0492  0.3774
13093TIP3    H239213   5.570   7.254   5.156 -0.2078 -1.3140  2.4332
13094TIP3   OH239214   5.921   5.695   2.928 -0.1057 -0.0834 -0.3924
13094TIP3    H139215   5.879   5.614   2.897 -0.1761 -0.4886  0.7043
13094TIP3    H239216   5.851   5.740   2.976  0.4556 -0.3139  0.6510
13095TIP3   OH239217   6.548   1.668   2.553  0.3105 -0.1426 -0.1981
13095TIP3    H139218   6.591   1.584   2.539 -0.1135 -0.3825 -0.0711
13095TIP3    H239219   6.498   1.657   2.634  0.0358  0.1401 -0.3232
13096TIP3   OH239220   3.032   7.112   6.387  0.4107  0.1242 -0.2043
13096TIP3    H139221   3.092   7.177   6.423 -0.2324  0.0348  1.0713
13096TIP3    H239222   3.042   7.120   6.292  1.0485  1.4104 -0.0434
13097TIP3   OH239223   4.576   6.738   5.040 -0.5870 -0.0499  0.1198
13097TIP3    H139224   4.532   6.722   5.123 -1.7792 -0.0039 -0.4845
13097TIP3    H239225   4.594   6.832   5.040 -1.5571  0.1479 -0.1184
13098TIP3   OH239226   7.456   1.605   6.852  0.2364  0.2703 -0.0252
13098TIP3    H139227   7.534   1.559   6.883 -0.1543  0.8708  1.9082
13098TIP3    H239228   7.451   1.583   6.759  2.1435 -0.5800  0.0448
13099TIP3   OH239229   3.439   4.575   0.586 -0.6792  0.6191  0.3502
13099TIP3    H139230   3.475   4.488   0.606  0.4389  1.1139  0.5598
13099TIP3    H239231   3.345   4.561   0.579 -0.6263 -0.4132  1.4771
13100TIP3   OH239232   2.640   4.257   6.036  0.8037 -0.4933  0.4525
13100TIP3    H139233   2.671   4.283   5.949  0.5089  1.2979  0.8646
13100TIP3    H239234   2.683   4.318   6.096 -1.6689  0.5200  1.2519
13101TIP3   OH239235   5.822   0.334   3.857 -0.1666 -0.1803 -0.1825
13101TIP3    H139236   5.870   0.375   3.785  1.2022 -0.0270  0.7929
13101TIP3    H239237   5.761   0.274   3.814  0.3006  0.2610 -1.4883
13102TIP3   OH239238   7.269   2.025   6.108 -0.1713 -0.2977  0.6767
13102TIP3    H139239   7.302   2.109   6.076  0.5078 -1.3770 -1.5746
13102TIP3    H239240   7.177   2.042   6.129  0.3312  1.3463  1.6424
13103TIP3   OH239241   4.385   6.257   6.370 -0.1022  0.0091  0.2109
13103TIP3    H139242   4.452   6.274   6.304 -1.3288 -0.8782 -1.2731
13103TIP3    H239243   4.342   6.342   6.384 -0.0147  0.1358 -0.3010
13104TIP3   OH239244   5.693   0.635   5.192  0.4495 -0.1747 -0.3629
13104TIP3    H139245   5.633   0.569   5.155  0.9171 -0.9241  0.1905
13104TIP3    H239246   5.778   0.613   5.156  0.2909  1.2719 -1.6321
13105TIP3   OH239247   7.392   0.062   5.958 -0.9563  0.3257 -0.5330
13105TIP3    H139248   7.340  -0.019   5.954 -0.8019  0.1070  1.7101
13105TIP3    H239249   7.365   0.104   6.039 -1.5893  2.9482 -2.0302
13106TIP3   OH239250   7.211   1.903   4.996 -0.1814  0.0277 -0.1780
13106TIP3    H139251   7.118   1.879   4.999 -0.1432 -0.2469 -1.1847
13106TIP3    H239252   7.234   1.918   5.088 -0.7933 -1.5641  0.2571
13107TIP3   OH239253   0.252   5.319  -0.010  0.1175 -0.3803  0.3980
13107TIP3    H139254   0.323   5.302   0.051  0.4977  2.1411  0.7313
13107TIP3    H239255   0.210   5.398   0.024  0.4172  1.1649 -2.6599
13108TIP3   OH239256   1.170   3.419   0.438  0.2132 -0.0453 -0.3642
13108TIP3    H139257   1.126   3.438   0.521  0.4735 -1.0386  0.0190
13108TIP3    H239258   1.259   3.394   0.464  0.0254 -1.2786 -0.8499
13109TIP3   OH239259   7.597   1.737   4.977 -0.4209 -0.1617 -0.6853
13109TIP3    H139260   7.526   1.755   5.039  1.9877  0.2230  2.0450
13109TIP3    H239261   7.558   1.678   4.912 -2.2736 -2.9111  2.7764
13110TIP3   OH239262   1.565   0.302   4.383 -0.5136 -0.1988 -0.3584
13110TIP3    H139263   1.532   0.385   4.417 -1.5656 -1.3726  1.5698
13110TIP3    H239264   1.659   0.304   4.401 -0.9533 -0.5395  2.1419
13111TIP3   OH239265   7.768   6.673   4.421  0.1073 -0.8240 -0.1730
13111TIP3    H139266   7.850   6.695   4.376  0.1438 -2.7895 -1.1242
13111TIP3    H239267   7.700   6.699   4.358 -0.0691  1.3531  0.8513
13112TIP3   OH239268   5.237   7.973   3.828 -0.4708 -0.0477  0.5203
13112TIP3    H139269   5.301   8.010   3.888 -1.7299  0.2178  1.7085
13112TIP3    H239270   5.186   7.912   3.880 -0.9541 -0.5457 -0.5074
13113TIP3   OH239271   1.266   1.178   3.870 -0.1801 -0.0191  0.0571
13113TIP3    H139272   1.194   1.137   3.918  2.2477 -1.6533  2.4414
13113TIP3    H239273   1.305   1.239   3.933  3.3127 -2.5037  0.4262
13114TIP3   OH239274   1.813  -0.016   2.861  0.4806  0.1831 -0.2856
13114TIP3    H139275   1.820  -0.013   2.766 -0.7836 -3.1175 -0.5347
13114TIP3    H239276   1.731   0.030   2.880  0.1123 -0.2169 -0.8930
13115TIP3   OH239277   7.826   1.681   5.751 -0.6493 -0.0932 -0.0550
13115TIP3    H139278   7.770   1.691   5.674 -2.0680  0.0383  0.9606
13115TIP3    H239279   7.827   1.768   5.791 -0.8821 -0.4243  0.6930
13116TIP3   OH239280   5.805   7.948   3.255  0.3051 -0.1598  0.0214
13116TIP3    H139281   5.768   7.931   3.342  0.0227  2.3068  0.4155
13116TIP3    H239282   5.897   7.921   3.262  0.8345  1.9295  1.7524
13117TIP3   OH239283   5.707   7.166   5.682 -0.7952  0.0435 -0.0001
13117TIP3    H139284   5.681   7.189   5.772  2.0273  0.3375  0.7966
13117TIP3    H239285   5.646   7.097   5.657 -0.7639 -1.0778  2.7210
13118TIP3   OH239286   7.239   0.932   4.785 -0.6760  0.0584  0.6084
13118TIP3    H139287   7.300   0.895   4.849 -1.3945  2.5332  2.8011
13118TIP3    H239288   7.293   0.953   4.710  0.9424  0.8965  1.9718
13119TIP3   OH239289   8.478   1.505   5.510 -0.3073 -0.1259 -0.5614
13119TIP3    H139290   8.548   1.449   5.478 -0.5078 -0.3995 -0.5207
13119TIP3    H239291   8.400   1.449   5.512 -0.5355  0.1831 -0.6388
13120TIP3   OH239292   8.369   1.214   5.306  0.2164 -0.2983  0.0159
13120TIP3    H139293   8.389   1.284   5.244  0.2101 -0.6350 -0.3682
13120TIP3    H239294   8.275   1.201   5.298  0.2812 -0.6274 -0.2064
13121TIP3   OH239295   6.576   7.853   4.406 -0.3506 -0.2694 -0.7920
13121TIP3    H139296   6.516   7.920   4.440  1.9918  0.7563  1.4817
13121TIP3    H239297   6.615   7.894   4.328 -0.0753  0.3863 -0.3088
13122TIP3   OH239298   0.517   0.697   4.668  0.2660 -0.0445 -0.4202
13122TIP3    H139299   0.472   0.664   4.590  2.2665 -3.3289 -0.3199
13122TIP3    H239300   0.581   0.759   4.633  3.0522 -3.5043 -1.8805
13123TIP3   OH239301   5.580   7.460   5.718  0.1027 -0.4722 -0.3376
13123TIP3    H139302   5.617   7.410   5.646 -0.4618 -1.1427 -0.1648
13123TIP3    H239303   5.610   7.414   5.797  1.1124  0.5280 -0.1206
13124TIP3   OH239304   5.327   7.411   6.932  0.1518 -0.2506  0.1623
13124TIP3    H139305   5.303   7.501   6.907  1.4288 -0.2213 -1.0420
13124TIP3    H239306   5.422   7.409   6.923  0.0766 -1.8866 -0.3668
13125TIP3   OH239307   7.639   1.511   3.926 -0.0119  0.0837  0.0249
13125TIP3    H139308   7.545   1.492   3.927  0.0410 -0.1839  0.0449
13125TIP3    H239309   7.656   1.550   4.012 -0.2658  0.9359 -0.3090
13126TIP3   OH239310   0.745   0.144   3.260 -0.3800 -0.9264  0.1944
13126TIP3    H139311   0.686   0.186   3.323  1.0124  0.9242  0.3210
13126TIP3    H239312   0.754   0.055   3.292 -2.6195 -1.0744  0.5047
13127TIP3   OH239313   0.104   0.158   5.293 -0.3209  0.0037  0.6067
13127TIP3    H139314   0.167   0.088   5.272  1.5840  1.8291  0.0965
13127TIP3    H239315   0.117   0.175   5.386 -2.7924 -2.2143  1.4312
13128TIP3   OH239316   6.852   1.051   3.010  0.2489 -0.0768  0.1430
13128TIP3    H139317   6.824   1.092   2.928 -1.4329  0.4586  0.9827
13128TIP3    H239318   6.771   1.027   3.054  1.1664 -1.5372  1.0778
13129TIP3   OH239319   0.233   1.399   4.672  0.8876 -0.3066  0.0547
13129TIP3    H139320   0.255   1.327   4.612 -2.2379 -2.0343  0.8310
13129TIP3    H239321   0.185   1.461   4.618 -0.7351 -1.2139  0.4140
13130TIP3   OH239322   0.009   0.568   4.620  0.1077 -0.0865  0.3426
13130TIP3    H139323   0.062   0.498   4.583 -2.2769 -1.4904 -0.5354
13130TIP3    H239324   0.073   0.631   4.654  2.3003 -2.4434  0.7635
13131TIP3   OH239325   8.372   0.054   5.111  0.3936  0.4642  0.0580
13131TIP3    H139326   8.280   0.029   5.123  0.0628  1.4161 -0.4439
13131TIP3    H239327   8.405   0.067   5.200  0.3701 -0.9929  0.2935
13132TIP3   OH239328   8.297   1.419   5.083  0.2650 -0.5510 -0.0518
13132TIP3    H139329   8.233   1.351   5.066  1.1834 -1.1471 -1.1429
13132TIP3    H239330   8.252   1.480   5.142 -1.5989 -0.5051 -1.4895
13133TIP3   OH239331   5.924   3.264   3.729  0.4206 -0.2575 -0.1339
13133TIP3    H139332   5.886   3.289   3.813  0.2238 -2.3956  0.4399
13133TIP3    H239333   5.857   3.211   3.686  0.7770  0.2496 -1.3571
13134TIP3   OH239334   0.090   1.989   5.965  0.5620  0.5346 -0.1052
13134TIP3    H139335   0.090   2.007   5.871  0.6825 -1.8294 -0.6032
13134TIP3    H239336   0.181   1.967   5.984  0.5767  1.2056  0.6220
13135TIP3   OH239337   1.063   1.679   3.724  0.3232 -0.3105  0.3482
13135TIP3    H139338   1.010   1.607   3.758 -2.7914  2.4614  1.5754
13135TIP3    H239339   1.032   1.691   3.634  1.6823 -1.2425 -0.2585
13136TIP3   OH239340   5.346   7.612   5.696 -0.3123 -0.4418 -0.9382
13136TIP3    H139341   5.316   7.653   5.615  0.0556  0.5342 -0.5868
13136TIP3    H239342   5.434   7.580   5.677  0.3168  1.0254 -0.5080
13137TIP3   OH239343   1.514   1.039   4.963  0.0570  0.3719 -0.3271
13137TIP3    H139344   1.457   1.006   5.033  1.1112  1.1979  0.9572
13137TIP3    H239345   1.472   1.011   4.882 -0.1486 -2.3008  0.6748
13138TIP3   OH239346   3.778   4.455   0.110  0.2948  0.0054  0.0548
13138TIP3    H139347   3.808   4.369   0.080  1.5806 -1.4656  5.1531
13138TIP3    H239348   3.859   4.503   0.128 -0.4265  0.5723  1.8029
13139TIP3   OH239349   6.594   1.417   4.583  0.3134  0.3418 -0.0247
13139TIP3    H139350   6.553   1.348   4.635 -0.2621  0.6970 -0.0026
13139TIP3    H239351   6.683   1.386   4.568  1.1579  1.1831  2.9312
13140TIP3   OH239352   3.801   7.934   2.136  0.1474  0.7422  0.7519
13140TIP3    H139353   3.726   7.896   2.090  0.0431 -0.2570  1.7419
13140TIP3    H239354   3.762   7.984   2.208  0.3632  1.5467  0.3284
13141TIP3   OH239355   5.986   6.586   2.431 -0.5491  0.2171 -0.0060
13141TIP3    H139356   6.029   6.628   2.356 -0.7171  1.3554  0.5242
13141TIP3    H239357   5.898   6.622   2.431  0.0420  1.7631  1.9084
13142TIP3   OH239358   8.105   0.788   5.744  0.0450 -0.3692  0.1062
13142TIP3    H139359   8.147   0.857   5.796 -0.3500 -0.1818  0.1804
13142TIP3    H239360   8.173   0.723   5.731  0.2658 -0.2219  0.5110
13143TIP3   OH239361   0.846   0.356   3.814  0.2984  0.3823 -0.2070
13143TIP3    H139362   0.932   0.385   3.844 -0.0891  0.5055  0.8322
13143TIP3    H239363   0.850   0.362   3.719  0.9927  1.6698 -0.1119
13144TIP3   OH239364   5.498   6.929   3.226  0.3245 -0.9433 -0.2586
13144TIP3    H139365   5.534   7.005   3.271  0.6801 -2.1437  1.5327
13144TIP3    H239366   5.542   6.854   3.266  0.9365 -2.0295 -2.8926
13145TIP3   OH239367   0.485   1.798   6.160 -0.1667  0.0940 -0.3133
13145TIP3    H139368   0.479   1.891   6.137 -1.4412 -0.2623 -1.5173
13145TIP3    H239369   0.401   1.778   6.201 -0.2417 -0.7224 -0.8431
13146TIP3   OH239370   2.434   0.627   4.304  0.1648 -0.8184  0.5587
13146TIP3    H139371   2.436   0.715   4.267  0.8788 -0.9788  0.2122
13146TIP3    H239372   2.412   0.570   4.230  2.0791 -1.1939  0.2653
13147TIP3   OH239373   1.202   1.136   5.377 -0.1594 -0.9030 -0.3175
13147TIP3    H139374   1.231   1.046   5.389  0.0962 -0.4409  2.7030
13147TIP3    H239375   1.107   1.130   5.366  0.0341 -1.6418 -1.8050
13148TIP3   OH239376   5.069   7.775   5.582 -0.0214  0.1711 -0.4118
13148TIP3    H139377   5.075   7.737   5.494  0.8195 -1.4928  0.3358
13148TIP3    H239378   5.125   7.852   5.578  1.9310 -1.2215 -0.6838
13149TIP3   OH239379   4.693   7.675   3.802  0.5469  0.0860  0.2978
13149TIP3    H139380   4.622   7.609   3.801  1.8897 -1.4421 -3.7528
13149TIP3    H239381   4.681   7.724   3.721  3.7223  0.1945 -0.1721
13150TIP3   OH239382   5.479   7.330   2.093  0.2895 -0.4210  0.4930
13150TIP3    H139383   5.558   7.376   2.123  1.4757 -2.1135  0.0779
13150TIP3    H239384   5.412   7.351   2.158  1.4741 -0.0895  1.6258
13151TIP3   OH239385   0.060   2.245   4.470  0.3329  0.0413  0.2408
13151TIP3    H139386   0.013   2.196   4.403 -0.3193  0.0789  0.6757
13151TIP3    H239387   0.149   2.209   4.468 -0.1364 -1.1385  0.5482
13152TIP3   OH239388   5.716   7.794   3.501  0.3284 -0.3940 -0.6018
13152TIP3    H139389   5.669   7.852   3.561  1.4422 -0.4579  0.3406
13152TIP3    H239390   5.731   7.714   3.551 -1.1946 -1.5283 -1.8941
13153TIP3   OH239391   1.771   0.505   2.974 -0.6711  0.2763 -0.5231
13153TIP3    H139392   1.839   0.455   2.928 -0.5132 -0.6513  0.6890
13153TIP3    H239393   1.814   0.537   3.053 -0.9954  1.6943 -0.9145
13154TIP3   OH239394   2.512   0.242   5.092  0.1299  0.0496 -0.1558
13154TIP3    H139395   2.479   0.164   5.136  0.0984  0.1566  0.0123
13154TIP3    H239396   2.478   0.315   5.144  1.5719  0.1374  0.7116
13155TIP3   OH239397   5.005   7.844   3.694  0.5927 -0.3897  0.1061
13155TIP3    H139398   4.925   7.896   3.705  0.8968  0.2045 -0.4617
13155TIP3    H239399   5.067   7.883   3.756 -0.0053 -1.8022  1.6413
13156TIP3   OH239400   4.706   6.157   6.116  0.4781 -0.0574 -0.2876
13156TIP3    H139401   4.717   6.099   6.192 -0.6164  1.4963  1.0809
13156TIP3    H239402   4.666   6.236   6.151 -1.4304  0.1368 -2.7233
13157TIP3   OH239403   1.823   0.595   4.944 -0.3040 -0.0321 -0.0762
13157TIP3    H139404   1.897   0.553   4.987 -0.1193  0.7042  0.3238
13157TIP3    H239405   1.783   0.525   4.892  1.3674 -0.1576 -1.2333
13158TIP3   OH239406   1.691   3.236   0.235 -0.2020  0.2135 -0.3565
13158TIP3    H139407   1.631   3.308   0.213  0.7142  1.2778  0.5840
13158TIP3    H239408   1.640   3.157   0.218 -1.1620  1.0649 -1.6200
13159TIP3   OH239409   2.013   1.492   5.505  0.0151 -0.0178  0.1285
13159TIP3    H139410   1.938   1.503   5.563  0.9216  0.2410  1.2731
13159TIP3    H239411   2.064   1.572   5.516  0.5023 -0.2256 -0.5755
13160TIP3   OH239412   7.213   0.469   3.998 -0.1426  0.2608  0.1010
13160TIP3    H139413   7.166   0.509   3.924 -2.1544 -0.6069  0.8673
13160TIP3    H239414   7.200   0.530   4.070  1.8763  1.1373 -0.2456
13161TIP3   OH239415   4.747   6.676   2.416 -0.9003 -0.3068  0.1485
13161TIP3    H139416   4.735   6.616   2.490 -1.4891 -0.7666 -0.3199
13161TIP3    H239417   4.804   6.629   2.356 -1.8046 -0.6232 -0.4700
13162TIP3   OH239418   5.347   6.560   4.508 -0.7620 -0.9273  0.1356
13162TIP3    H139419   5.300   6.642   4.491  1.0403  0.3266  1.0327
13162TIP3    H239420   5.334   6.544   4.602 -0.2687 -1.1295  0.1689
13163TIP3   OH239421   8.170   0.954   5.094  0.2928  0.4341 -0.2667
13163TIP3    H139422   8.177   1.035   5.144  0.0940 -0.6314  1.5541
13163TIP3    H239423   8.236   0.896   5.132  0.0919 -0.4317 -1.2015
13164TIP3   OH239424   3.122   1.362   6.152 -0.3781  0.3018  0.2554
13164TIP3    H139425   3.164   1.303   6.214  0.1421  0.2061 -0.1903
13164TIP3    H239426   3.164   1.446   6.166 -2.2310  0.9679  2.0185
13165TIP3   OH239427   8.352   0.402   4.769  0.3167 -0.2273  0.3079
13165TIP3    H139428   8.402   0.338   4.819 -0.0348 -1.7328 -1.2386
13165TIP3    H239429   8.418   0.459   4.731  0.8487 -1.8028 -1.1784
13166TIP3   OH239430   5.487   7.789   4.510 -0.2100 -0.3574  0.5696
13166TIP3    H139431   5.443   7.854   4.456  1.2312  0.3051  0.1685
13166TIP3    H239432   5.561   7.759   4.456  0.9517 -0.0538  1.9566
13167TIP3   OH239433   3.181   3.793   0.504  0.5959  0.1078 -0.3188
13167TIP3    H139434   3.198   3.846   0.426  3.1524  2.0583  1.5150
13167TIP3    H239435   3.202   3.703   0.477 -0.7628  0.4145 -2.5152
13168TIP3   OH239436   5.023   1.579   1.025  0.3010 -0.7271  0.2399
13168TIP3    H139437   5.090   1.622   0.973 -0.4981 -0.0614 -0.2560
13168TIP3    H239438   5.065   1.500   1.058  0.5867 -1.5892 -2.0744
13169TIP3   OH239439   6.066   7.287   4.348 -0.5433  0.1631 -0.4810
13169TIP3    H139440   6.131   7.229   4.386 -1.4385  1.5713  3.4583
13169TIP3    H239441   6.117   7.358   4.309  0.3975 -0.3498 -0.1855
13170TIP3   OH239442   1.697   1.616   6.635  0.0392  0.7130  1.0482
13170TIP3    H139443   1.701   1.697   6.585  0.6319  0.2639  0.3696
13170TIP3    H239444   1.622   1.569   6.598  1.3630 -0.2769 -0.4270
13171TIP3   OH239445   5.244   7.383   1.278  0.8076  0.0161 -0.3161
13171TIP3    H139446   5.248   7.466   1.325  1.2620  0.1982 -0.6783
13171TIP3    H239447   5.203   7.404   1.194 -0.3885 -0.3833  0.1536
13172TIP3   OH239448   0.153   1.915   2.835  0.0410  0.1022 -0.3902
13172TIP3    H139449   0.232   1.949   2.877  0.0961  1.5028 -1.5693
13172TIP3    H239450   0.169   1.822   2.823  0.4087 -0.1338  1.8121
13173TIP3   OH239451   0.110   0.039   4.519  0.3885  0.1180  0.5562
13173TIP3    H139452   0.176   0.013   4.454 -0.3662 -1.8959  0.5644
13173TIP3    H239453   0.120  -0.025   4.589 -1.1557  0.1651  0.8375
13174TIP3   OH239454   4.460   7.351   2.504  0.1762  0.3449 -0.8969
13174TIP3    H139455   4.524   7.291   2.544  1.2271  1.2651 -1.1931
13174TIP3    H239456   4.432   7.306   2.424 -0.0996 -0.3915 -0.3922
13175TIP3   OH239457   8.051   0.359   5.446  0.2080  0.0045  0.1533
13175TIP3    H139458   8.112   0.380   5.517  0.2016  1.1861 -0.1762
13175TIP3    H239459   8.104   0.366   5.366 -0.3325  0.9614 -0.1292
13176TIP3   OH239460   4.879   7.396   3.079 -0.3348  0.3531  0.2868
13176TIP3    H139461   4.937   7.355   3.143 -0.7738  0.2229  0.6133
13176TIP3    H239462   4.928   7.470   3.045  0.3908 -0.3307 -0.1604
13177TIP3   OH239463   6.590   7.937   4.139 -0.3259 -0.2210  0.3142
13177TIP3    H139464   6.655   7.978   4.082  0.7969 -0.7920  1.1590
13177TIP3    H239465   6.594   7.844   4.116 -0.1913 -0.3866  1.0111
13178TIP3   OH239466   0.057   1.673   6.554  0.2072  0.2033  0.0947
13178TIP3    H139467   0.095   1.600   6.603  0.8271  0.4172 -0.0707
13178TIP3    H239468   0.060   1.747   6.614 -0.3870  0.1099  0.2478
13179TIP3   OH239469   0.779   1.156   3.540  0.2993 -0.5860 -0.1381
13179TIP3    H139470   0.868   1.130   3.564  0.1983 -1.9986 -1.1999
13179TIP3    H239471   0.780   1.251   3.542  2.2077 -0.5520 -1.4654
13180TIP3   OH239472   0.101   1.078   5.266 -0.1366  0.1699  0.5558
13180TIP3    H139473   0.028   1.133   5.296  0.1164  1.8335 -1.7034
13180TIP3    H239474   0.126   1.116   5.182  2.4823 -1.1943  0.6668
13181TIP3   OH239475   6.329   7.611   2.276 -0.3475  0.0044  0.4485
13181TIP3    H139476   6.261   7.678   2.279  0.0982  0.5108 -0.4512
13181TIP3    H239477   6.362   7.615   2.186 -0.0732 -1.1789  0.4808
13182TIP3   OH239478   7.409   0.251   4.235 -0.6955 -0.3158 -0.3330
13182TIP3    H139479   7.387   0.266   4.327 -0.0916 -0.1877 -0.2058
13182TIP3    H239480   7.452   0.331   4.207  0.5052 -0.9408 -0.2904
13183TIP3   OH239481   7.467   1.690   3.364 -0.2132 -0.2406 -0.2191
13183TIP3    H139482   7.553   1.665   3.397 -1.0583 -2.3630  0.4574
13183TIP3    H239483   7.483   1.767   3.308  1.7954  0.7409  1.6598
13184TIP3   OH239484   8.248   0.405   5.680 -0.5203 -0.6351 -0.5603
13184TIP3    H139485   8.195   0.469   5.727 -0.5270 -0.1699 -1.1942
13184TIP3    H239486   8.298   0.361   5.748 -2.0978 -1.4384  0.0940
13185TIP3   OH239487   4.197   7.387   4.439 -0.1971  0.6322 -0.1360
13185TIP3    H139488   4.195   7.324   4.511 -0.9413  0.7135 -0.0795
13185TIP3    H239489   4.289   7.409   4.429  0.2944 -1.8679 -1.3742
13186TIP3   OH239490   0.205   1.336   5.461 -0.0382  0.5043 -0.4815
13186TIP3    H139491   0.250   1.369   5.383  0.7452 -1.2918 -0.8008
13186TIP3    H239492   0.262   1.266   5.494 -0.3508  1.2500  1.7213
13187TIP3   OH239493   6.960   1.788   5.053  0.1983 -0.0579  0.4717
13187TIP3    H139494   6.888   1.834   5.009 -0.1296 -0.6393  0.3886
13187TIP3    H239495   6.918   1.711   5.093  1.2461 -2.0155 -2.0791
13188TIP3   OH239496   7.744   0.826   4.527  0.6876 -0.1989 -0.0561
13188TIP3    H139497   7.770   0.908   4.485  0.0551  0.2692  0.4503
13188TIP3    H239498   7.692   0.780   4.461  1.5289 -0.4575 -0.5436
13189TIP3   OH239499   7.090   7.753   3.783  0.1644  0.4973 -0.0534
13189TIP3    H139500   7.114   7.721   3.871  1.2436  0.3097 -0.4154
13189TIP3    H239501   7.148   7.706   3.724 -2.9791 -2.1301 -1.2134
13190TIP3   OH239502   0.802   1.346   6.017  0.3586 -0.6967 -0.0933
13190TIP3    H139503   0.863   1.339   5.944  1.2013 -0.4540  0.5656
13190TIP3    H239504   0.780   1.439   6.022  0.6755 -0.6331  0.2375
13191TIP3   OH239505   7.609   1.887   5.686  0.3156 -0.5417 -0.1746
13191TIP3    H139506   7.529   1.934   5.709  0.1363 -1.0537  0.2741
13191TIP3    H239507   7.661   1.886   5.767  1.5003  1.1977 -0.8964
13192TIP3   OH239508   0.210   0.154   3.581 -0.1244  0.4105 -0.3512
13192TIP3    H139509   0.224   0.249   3.583 -2.3828  0.8083 -1.4839
13192TIP3    H239510   0.174   0.137   3.494  0.0594 -1.4634 -0.0766
13193TIP3   OH239511   2.101   0.510   5.414  0.1936  0.2211 -0.1989
13193TIP3    H139512   2.022   0.535   5.461 -0.2782  0.6878 -1.2189
13193TIP3    H239513   2.122   0.423   5.447 -1.4746 -0.4349 -0.8241
13194TIP3   OH239514   2.805   4.604   1.797 -0.5933 -0.3525  0.1709
13194TIP3    H139515   2.841   4.692   1.798 -1.5363  0.0352  0.6323
13194TIP3    H239516   2.768   4.592   1.884  3.0567 -2.6884  1.4901
13195TIP3   OH239517   5.959   6.358   2.623  0.1601 -0.1031 -0.3951
13195TIP3    H139518   6.006   6.327   2.546 -0.3780 -0.2065 -0.6853
13195TIP3    H239519   5.985   6.450   2.631 -0.6434  0.2273 -1.3697
13196TIP3   OH239520   0.918   0.881   3.869 -0.0671  0.2275 -0.1160
13196TIP3    H139521   1.003   0.925   3.874  0.0802 -0.1505  0.7542
13196TIP3    H239522   0.903   0.847   3.957 -1.4397  0.8728 -0.0871
13197TIP3   OH239523   6.494   0.583   5.066 -0.2477  0.3494 -0.3006
13197TIP3    H139524   6.427   0.643   5.098  1.3471  1.4681  1.0056
13197TIP3    H239525   6.532   0.626   4.990 -0.2755  0.2009 -0.3998
13198TIP3   OH239526   0.524   0.647   3.275 -0.0628  0.0751 -0.2395
13198TIP3    H139527   0.429   0.657   3.274  0.0014  0.6642 -0.5065
13198TIP3    H239528   0.556   0.722   3.325  0.3189  0.4270 -0.9940
13199TIP3   OH239529   0.414   0.116   4.598 -0.2404  0.2860  0.0964
13199TIP3    H139530   0.328   0.146   4.628 -0.7007  0.0949 -1.0463
13199TIP3    H239531   0.476   0.174   4.643 -0.8431 -0.8819  2.5131
13200TIP3   OH239532   5.833   7.147   3.484  0.1159  0.0364  0.1023
13200TIP3    H139533   5.745   7.121   3.456  0.9045 -0.8182 -1.6639
13200TIP3    H239534   5.846   7.234   3.447  0.5186 -0.4078 -0.8348
13201TIP3   OH239535   1.559   1.023   2.802 -0.1353 -0.3949 -0.3061
13201TIP3    H139536   1.485   1.035   2.743  1.1509  0.7896 -1.7423
13201TIP3    H239537   1.620   0.968   2.753 -0.3676 -1.9540  1.1414
13202TIP3   OH239538   6.541   0.439   4.428 -0.1386 -0.4372 -0.0950
13202TIP3    H139539   6.581   0.356   4.400 -0.3050 -0.8414  0.8118
13202TIP3    H239540   6.483   0.413   4.500 -0.1909  0.4744  0.1885
13203TIP3   OH239541   6.374   7.858   4.929 -0.1750  0.3729  0.1753
13203TIP3    H139542   6.278   7.867   4.923 -0.3534  0.3946  2.5525
13203TIP3    H239543   6.387   7.766   4.953  0.4250  0.3553 -0.2137
13204TIP3   OH239544   7.755   2.023   5.283  0.1752 -0.3432 -0.1089
13204TIP3    H139545   7.803   1.976   5.352  0.0924 -1.6278 -0.9061
13204TIP3    H239546   7.681   1.966   5.263 -0.3282  0.4809 -0.6022
13205TIP3   OH239547   5.565   6.551   4.311  0.5733  0.2668 -0.0545
13205TIP3    H139548   5.613   6.627   4.344 -0.4886  0.7150  0.5114
13205TIP3    H239549   5.487   6.546   4.367 -0.3687 -0.0384 -1.3664
13206TIP3   OH239550   4.594   7.877   6.458 -0.1307 -0.2767 -0.1821
13206TIP3    H139551   4.668   7.819   6.475 -0.5700 -0.8682 -0.2840
13206TIP3    H239552   4.605   7.949   6.519  0.1264 -0.7342  0.3124
13207TIP3   OH239553   0.297   0.285   6.206 -0.0423 -0.6856 -0.1525
13207TIP3    H139554   0.338   0.299   6.292 -2.0523 -0.5653  0.8247
13207TIP3    H239555   0.291   0.372   6.168  0.2591 -0.6582 -0.1419
13208TIP3   OH239556   5.087   7.757   5.877  0.3634 -0.1291  0.3356
13208TIP3    H139557   5.061   7.748   5.785 -0.6541 -1.1724  0.7072
13208TIP3    H239558   5.148   7.831   5.877 -0.5344  0.6620 -0.9976
13209TIP3   OH239559   4.770   7.624   5.648 -0.0875 -0.1034  0.2780
13209TIP3    H139560   4.851   7.664   5.618  0.5177 -2.0745 -0.7926
13209TIP3    H239561   4.757   7.549   5.590 -2.1049 -0.4494  1.1238
13210TIP3   OH239562   0.291   0.682   4.928 -0.0780 -0.4786  0.4064
13210TIP3    H139563   0.322   0.687   5.019 -1.3483 -0.9442  0.8790
13210TIP3    H239564   0.370   0.677   4.876  0.6944  0.4638  1.4483
13211TIP3   OH239565   6.102   5.465   3.622 -0.7296  0.3671  0.2687
13211TIP3    H139566   6.165   5.533   3.599 -2.0247  1.4857 -0.0848
13211TIP3    H239567   6.034   5.511   3.671 -2.6906 -0.2374 -1.8049
13212TIP3   OH239568   6.695   5.461   0.193  0.2728  0.3631  0.1665
13212TIP3    H139569   6.757   5.503   0.133  1.1588  1.7826  2.0188
13212TIP3    H239570   6.750   5.416   0.257 -0.6288  0.3835  0.9658
13213TIP3   OH239571   1.275   0.177   4.173 -0.5480  0.4866  0.1151
13213TIP3    H139572   1.284   0.193   4.267  1.1653 -1.2181  0.2584
13213TIP3    H239573   1.313   0.255   4.132  1.3723 -0.0495  0.8353
13214TIP3   OH239574   8.027   0.651   4.969 -0.0047  0.1303  0.5586
13214TIP3    H139575   8.078   0.682   4.894  2.5745 -4.0081  0.4011
13214TIP3    H239576   7.939   0.637   4.934  0.6063  0.4291 -1.1350
13215TIP3   OH239577   2.917   1.046   6.442  0.3177 -0.4911 -0.2082
13215TIP3    H139578   2.915   0.987   6.367  0.2223  1.1710 -1.5476
13215TIP3    H239579   2.920   1.133   6.404 -1.0078  0.4436  1.7257
13216TIP3   OH239580   5.402   6.532   5.516 -0.4795 -0.2783  0.6640
13216TIP3    H139581   5.451   6.454   5.488  0.3940  0.7065 -0.5897
13216TIP3    H239582   5.358   6.504   5.596 -0.1315 -2.0548  0.2711
13217TIP3   OH239583   5.944   7.777   4.500  0.1385  0.0105 -0.2487
13217TIP3    H139584   6.003   7.849   4.477 -1.3481  1.4307  0.2761
13217TIP3    H239585   5.995   7.697   4.482  1.0101  1.1255 -3.0174
13218TIP3   OH239586   5.408   0.564   4.155  0.0527 -0.5244  0.1026
13218TIP3    H139587   5.478   0.557   4.090  0.2062 -0.9744  0.3174
13218TIP3    H239588   5.364   0.479   4.152  0.7849 -0.9717  1.4121
13219TIP3   OH239589   7.230   7.413   3.465 -0.2743  0.1917  0.3340
13219TIP3    H139590   7.202   7.322   3.476 -0.1705  0.1575  0.3131
13219TIP3    H239591   7.150   7.459   3.439 -0.2811  0.0680  0.1290
13220TIP3   OH239592   2.781   1.536   6.369  0.1076  0.2755  0.1047
13220TIP3    H139593   2.805   1.542   6.462 -1.2964  2.1765  0.3857
13220TIP3    H239594   2.842   1.595   6.325  0.2928 -0.0612 -0.0960
13221TIP3   OH239595   2.194   3.220   0.474  0.0470  0.3462  0.1298
13221TIP3    H139596   2.220   3.139   0.431  0.4324  0.1693  0.6916
13221TIP3    H239597   2.121   3.253   0.421 -1.7269 -1.5980  1.2841
13222TIP3   OH239598   7.285   7.188   4.359 -0.1319 -0.2244  0.4698
13222TIP3    H139599   7.302   7.097   4.334  0.6089 -0.1275  0.6281
13222TIP3    H239600   7.365   7.235   4.334  0.1216  0.0967  1.8881
13223TIP3   OH239601   5.538   6.876   5.018 -0.1742  0.1192 -0.0498
13223TIP3    H139602   5.574   6.816   4.952 -0.3111 -0.1807  0.1436
13223TIP3    H239603   5.615   6.901   5.070  0.0573  0.9625 -0.7941
13224TIP3   OH239604   4.102   0.547   4.190 -1.0791  0.2757 -0.4735
13224TIP3    H139605   4.064   0.588   4.268 -0.5581  0.6594 -0.4146
13224TIP3    H239606   4.052   0.583   4.117 -0.7862  0.8439 -0.4022
13225TIP3   OH239607   4.234   6.975   4.835 -0.8200  0.0171  0.3198
13225TIP3    H139608   4.208   6.982   4.927  2.6463 -1.1682  1.4496
13225TIP3    H239609   4.240   6.880   4.820  0.9893  0.2238 -0.3839
13226TIP3   OH239610   6.626   0.398   5.659  0.2128 -0.4417  0.4863
13226TIP3    H139611   6.567   0.431   5.727  2.1356  1.5220  1.2593
13226TIP3    H239612   6.629   0.467   5.593 -0.3687 -1.6477 -0.8350
13227TIP3   OH239613   4.858   6.916   4.870 -0.0704  0.3984  0.1695
13227TIP3    H139614   4.820   6.858   4.804 -0.3290  0.7161  0.0425
13227TIP3    H239615   4.921   6.969   4.821 -0.0091  0.3924  0.2429
13228TIP3   OH239616   6.876   7.411   4.590 -0.1383  0.1927 -0.1294
13228TIP3    H139617   6.930   7.401   4.668 -0.4263 -1.2882 -0.0968
13228TIP3    H239618   6.867   7.322   4.556 -0.2971  0.7820 -1.6636
13229TIP3   OH239619   5.290   5.779   4.612  0.4525 -0.3333  0.4055
13229TIP3    H139620   5.378   5.797   4.580  0.2185 -1.8481 -1.1864
13229TIP3    H239621   5.257   5.710   4.554 -0.9689 -1.3182  2.3458
13230TIP3   OH239622   6.811   6.979   3.485  0.7620 -0.3407 -0.2165
13230TIP3    H139623   6.769   6.897   3.456  0.9960 -0.6127  0.2113
13230TIP3    H239624   6.738   7.040   3.496  0.5372 -0.6302 -0.0837
13231TIP3   OH239625   4.141   7.459   5.728  0.1507 -0.0139  0.3498
13231TIP3    H139626   4.077   7.530   5.725 -0.8104 -0.9109 -0.8027
13231TIP3    H239627   4.113   7.405   5.803 -1.1455 -1.0179 -0.8142
13232TIP3   OH239628   4.326   7.376   4.784  0.3656  0.3265 -0.6034
13232TIP3    H139629   4.292   7.313   4.847 -0.9379  0.4775 -1.1519
13232TIP3    H239630   4.254   7.437   4.768  2.0870  2.9400  1.1289
13233TIP3   OH239631   8.234   1.296   4.102 -0.1328  0.2091 -0.2516
13233TIP3    H139632   8.145   1.311   4.135 -0.8167 -1.4981 -1.2471
13233TIP3    H239633   8.285   1.370   4.135 -1.2070 -0.4188  3.0319
13234TIP3   OH239634   4.672   7.482   4.454 -0.1821 -0.5977  0.5943
13234TIP3    H139635   4.635   7.564   4.488 -1.3672 -0.5971 -0.6519
13234TIP3    H239636   4.693   7.502   4.363  0.6130 -1.3465  0.6174
13235TIP3   OH239637   4.725   6.708   1.935 -0.7072  0.4518 -0.2634
13235TIP3    H139638   4.676   6.782   1.900 -0.6253  0.5182 -0.2388
13235TIP3    H239639   4.663   6.635   1.934 -1.7839  1.2689  2.6823
13236TIP3   OH239640   7.463   7.336   3.790 -0.1824  0.3561  0.0058
13236TIP3    H139641   7.420   7.279   3.855 -1.8255  1.0908 -0.4021
13236TIP3    H239642   7.466   7.422   3.832  1.0370  0.2834  0.0785
13237TIP3   OH239643   7.666   0.224   3.066  0.2609 -0.3439  0.6256
13237TIP3    H139644   7.599   0.257   3.127 -0.4276 -0.7870  0.1212
13237TIP3    H239645   7.627   0.144   3.030  1.0359 -0.5532  0.2631
13238TIP3   OH239646   5.747   7.366   5.481  0.4050 -0.9055  0.3486
13238TIP3    H139647   5.758   7.296   5.545  0.7391 -1.9726 -0.8515
13238TIP3    H239648   5.836   7.392   5.458  0.3081 -1.3202 -0.5253
13239TIP3   OH239649   7.616   5.954   4.891  0.0381 -0.2167  0.3105
13239TIP3    H139650   7.604   6.047   4.871  1.4157  0.0961  0.9090
13239TIP3    H239651   7.674   5.953   4.967 -1.0145 -1.5391  1.1089
13240TIP3   OH239652   4.549   8.003   3.924  0.4689 -0.0491 -0.1595
13240TIP3    H139653   4.624   8.034   3.874  1.5631  0.2044  1.5829
13240TIP3    H239654   4.579   8.005   4.015 -1.8529  0.6475  0.6169
13241TIP3   OH239655   1.494   1.158   5.440 -0.1033  0.5437 -0.3098
13241TIP3    H139656   1.518   1.160   5.533 -1.0454 -2.0492  0.0362
13241TIP3    H239657   1.401   1.183   5.439 -1.0546 -2.7275 -0.1197
13242TIP3   OH239658   0.822   1.020   5.241  0.6097  0.2797 -0.0575
13242TIP3    H139659   0.734   1.056   5.228  1.0814  0.7590 -2.1722
13242TIP3    H239660   0.864   1.082   5.300  0.0504  0.9394 -0.3355
13243TIP3   OH239661   0.612   0.133   4.996  0.0191  0.6578 -0.3239
13243TIP3    H139662   0.578   0.049   4.964 -0.8014  0.4584  1.0094
13243TIP3    H239663   0.591   0.196   4.926 -0.9055  0.0705 -0.5903
13244TIP3   OH239664   0.894   0.501   5.192 -0.6958  0.0701 -0.0974
13244TIP3    H139665   0.922   0.517   5.102 -0.4416  3.5958  0.5551
13244TIP3    H239666   0.876   0.588   5.228 -2.1241 -1.3632  2.8530
13245TIP3   OH239667   7.333   1.041   0.479  0.4667 -0.5210 -0.0473
13245TIP3    H139668   7.344   0.961   0.428  0.0605 -1.2817  1.0476
13245TIP3    H239669   7.238   1.052   0.485  0.5196  0.5057 -0.8923
13246TIP3   OH239670   0.151   0.299   4.507 -0.4251  0.3302 -0.2237
13246TIP3    H139671   0.103   0.339   4.435 -0.5375  1.2197  0.3316
13246TIP3    H239672   0.139   0.205   4.496 -0.7176  0.4816 -1.1680
13247TIP3   OH239673   1.159   0.769   4.637  0.3217  0.5124 -0.0408
13247TIP3    H139674   1.079   0.774   4.586  0.2226  1.3902  0.1915
13247TIP3    H239675   1.148   0.692   4.692  0.3091 -0.2657 -1.1323
13248TIP3   OH239676   3.016   1.593   4.917 -0.3128 -0.2734 -0.1155
13248TIP3    H139677   2.925   1.609   4.894 -0.1293 -1.4072 -1.7214
13248TIP3    H239678   3.067   1.640   4.851  0.3256  1.7584  1.7430
13249TIP3   OH239679   0.539   0.192   3.452  0.0569  0.0151 -0.1541
13249TIP3    H139680   0.522   0.281   3.484  0.7290  0.4603 -1.0311
13249TIP3    H239681   0.477   0.180   3.380  1.5327  0.6154 -1.5317
13250TIP3   OH239682   2.145   0.632   4.740  0.1437  0.1486  0.3536
13250TIP3    H139683   2.218   0.681   4.701 -0.1175  0.4318  0.2169
13250TIP3    H239684   2.139   0.553   4.687 -1.1974  1.2359 -1.1812
13251TIP3   OH239685   2.608   0.254   3.101 -0.0479 -0.0407  0.0418
13251TIP3    H139686   2.512   0.262   3.108  0.0511  2.5381 -0.9705
13251TIP3    H239687   2.623   0.220   3.013 -0.0736 -2.0327  0.7881
13252TIP3   OH239688   1.661   5.955   4.290  0.7381 -0.0307 -0.2454
13252TIP3    H139689   1.572   5.947   4.256  0.4819  1.1151  0.1363
13252TIP3    H239690   1.689   5.864   4.305 -0.5809 -0.3769  0.2102
13253TIP3   OH239691   7.079   7.381   4.278 -0.1057  0.0283  0.9671
13253TIP3    H139692   7.158   7.329   4.293 -0.2933  0.0253  1.9649
13253TIP3    H239693   7.081   7.449   4.345  0.1995  1.4064 -0.4199
13254TIP3   OH239694   0.141   7.908   3.218  0.6531 -0.3008 -0.1215
13254TIP3    H139695   0.203   7.965   3.173  0.7212  0.7909  1.3321
13254TIP3    H239696   0.147   7.933   3.310 -1.1847 -0.9016  0.1831
13255TIP3   OH239697   6.498   5.611   3.179 -0.6778  0.0769 -0.6756
13255TIP3    H139698   6.588   5.621   3.147  0.1854 -1.6117  1.1738
13255TIP3    H239699   6.448   5.585   3.101  0.3661  1.1933 -1.7558
13256TIP3   OH239700   1.130   0.003   4.003 -0.0735  1.1371  0.1588
13256TIP3    H139701   1.182   0.053   4.066  0.1474 -1.2047  1.8954
13256TIP3    H239702   1.174   0.017   3.919  1.7036  1.4544  1.1263
13257TIP3   OH239703   8.061   7.918   2.526  0.3176 -0.0906 -0.7955
13257TIP3    H139704   7.978   7.965   2.532 -0.5111 -1.1672 -3.2861
13257TIP3    H239705   8.053   7.846   2.589 -0.5048 -0.0089 -0.8003
13258TIP3   OH239706   4.569   6.530   4.579 -0.3728  0.3981 -0.7558
13258TIP3    H139707   4.658   6.499   4.562 -0.2628 -0.3705  1.1002
13258TIP3    H239708   4.569   6.552   4.673 -0.8409  4.6970 -1.6424
13259TIP3   OH239709   0.516   2.073   4.051 -0.4923 -0.3623  0.3046
13259TIP3    H139710   0.460   2.134   4.003  0.4037 -0.8813 -1.4593
13259TIP3    H239711   0.462   1.994   4.061 -1.0013  0.0674  0.9494
13260TIP3   OH239712   1.513  -0.031   3.028  0.1995  0.2038 -0.5070
13260TIP3    H139713   1.481   0.010   2.947 -2.5591  0.8356  0.8372
13260TIP3    H239714   1.555   0.041   3.076  1.5716 -0.1067 -1.2200
13261TIP3   OH239715   0.064   2.642   6.294 -0.4915 -0.7018  0.3163
13261TIP3    H139716   0.116   2.686   6.227 -1.2490  0.0288  0.2013
13261TIP3    H239717   0.006   2.583   6.245  0.8603 -2.2038  0.4982
13262TIP3   OH239718   3.519   1.507   5.524 -0.0626 -0.0475 -0.5276
13262TIP3    H139719   3.493   1.487   5.434  0.7214  0.4673 -0.8763
13262TIP3    H239720   3.446   1.477   5.578 -1.0428  0.6809 -1.4314
13263TIP3   OH239721   0.240   1.396   3.176 -0.5830  0.1900  0.6647
13263TIP3    H139722   0.217   1.334   3.246  0.6257 -1.6092 -0.4841
13263TIP3    H239723   0.287   1.467   3.220 -0.6784 -0.4510  1.8103
13264TIP3   OH239724   1.119   0.399   3.492 -0.3211 -0.0981  0.6767
13264TIP3    H139725   1.075   0.367   3.413  1.0316 -0.5750  0.1135
13264TIP3    H239726   1.198   0.346   3.498  0.4142  1.0837  1.4317
13265TIP3   OH239727   0.167   7.377   3.145 -0.0717 -0.0169 -0.2320
13265TIP3    H139728   0.175   7.466   3.110  0.7415  0.0413  0.0813
13265TIP3    H239729   0.138   7.389   3.235 -0.8140 -0.1045 -0.4625
13266TIP3   OH239730   1.601   0.444   1.627  0.0977 -0.0452  0.9584
13266TIP3    H139731   1.580   0.412   1.714 -1.3869 -0.6046  0.4067
13266TIP3    H239732   1.677   0.394   1.600 -0.6992 -1.3550  1.1084
13267TIP3   OH239733   7.040   4.396   0.155  0.4787 -0.1164 -0.2350
13267TIP3    H139734   6.967   4.439   0.111  0.1786 -1.8591 -1.4907
13267TIP3    H239735   7.000   4.347   0.226  0.4335 -0.8742 -0.7726
13268TIP3   OH239736   6.372   2.914   6.528  0.1993  0.1154 -0.2683
13268TIP3    H139737   6.308   2.979   6.556  0.3058  0.5112 -0.9413
13268TIP3    H239738   6.343   2.887   6.441  0.5409 -0.2374 -0.2766
13269TIP3   OH239739   6.661   5.611   2.129 -0.4372  0.3077  0.0050
13269TIP3    H139740   6.700   5.600   2.042  0.6017 -0.4809  0.5618
13269TIP3    H239741   6.578   5.564   2.124  0.3810 -1.1580 -0.0601
13270TIP3   OH239742   6.587   6.251   0.804 -0.7118  0.2319  0.2628
13270TIP3    H139743   6.679   6.276   0.812 -1.3748  2.5787  0.9470
13270TIP3    H239744   6.585   6.159   0.829  1.6085 -0.1540 -0.8247
13271TIP3   OH239745   6.807   7.781   3.854 -0.1760 -0.2326  0.0035
13271TIP3    H139746   6.900   7.774   3.831 -0.5253  1.6364 -2.1334
13271TIP3    H239747   6.794   7.873   3.874 -0.9600 -0.9970  3.2557
13272TIP3   OH239748   7.445   3.648   0.392  0.1997  0.4328  0.0751
13272TIP3    H139749   7.351   3.639   0.377  0.3463 -0.8834 -0.1269
13272TIP3    H239750   7.485   3.597   0.321  1.0709  0.8623  0.2470
13273TIP3   OH239751   5.382   2.487   5.347 -0.2478 -0.0718 -0.2625
13273TIP3    H139752   5.396   2.582   5.344 -0.2313 -0.0531  0.2195
13273TIP3    H239753   5.288   2.477   5.361 -0.2818 -0.1292 -0.5446
13274TIP3   OH239754   7.252   4.353   1.648  0.2786  0.4349 -0.0375
13274TIP3    H139755   7.165   4.385   1.622 -0.3241 -0.4125  0.8829
13274TIP3    H239756   7.249   4.260   1.627  0.7360  0.2776  0.6055
13275TIP3   OH239757   7.444   5.519   1.085 -0.2140 -0.1360 -0.2069
13275TIP3    H139758   7.359   5.535   1.044  0.4846  4.3674 -0.0700
13275TIP3    H239759   7.497   5.480   1.016 -1.1402  0.9134 -1.5283
13276TIP3   OH239760   5.972   6.883   0.536  0.4386 -0.2699  0.0248
13276TIP3    H139761   5.933   6.917   0.616 -0.9625 -2.5220  0.3559
13276TIP3    H239762   6.008   6.798   0.562  0.7760 -0.6114 -1.5195
13277TIP3   OH239763   0.366   7.349   0.185  0.3993  0.2273 -0.1500
13277TIP3    H139764   0.272   7.347   0.165  0.7486 -0.4448 -1.7272
13277TIP3    H239765   0.401   7.419   0.130  1.1614 -0.8329 -1.0151
13278TIP3   OH239766   3.606   5.584   1.746  0.1445  0.1860 -0.4448
13278TIP3    H139767   3.605   5.489   1.761 -0.9519  0.5079  1.7021
13278TIP3    H239768   3.518   5.613   1.771  1.0264  2.0246  0.5853
13279TIP3   OH239769   0.140   6.433   0.055 -0.0687 -0.3891 -0.6874
13279TIP3    H139770   0.230   6.410   0.034 -0.6863 -3.0306 -0.6850
13279TIP3    H239771   0.129   6.407   0.147 -0.9179 -0.3679 -0.7760
13280TIP3   OH239772   1.476   4.974   1.811  0.4742 -0.1460 -0.3271
13280TIP3    H139773   1.423   5.054   1.815  0.7353  0.0947 -1.4069
13280TIP3    H239774   1.475   4.951   1.718  1.4619 -0.6867 -0.1988
13281TIP3   OH239775   5.205   1.995   6.724 -0.2977 -0.0083  0.4267
13281TIP3    H139776   5.116   2.013   6.756 -0.4400  0.0645  0.0017
13281TIP3    H239777   5.220   2.064   6.659  0.5881  0.7943  1.4642
13282TIP3   OH239778   0.062   4.452   1.852 -0.3817 -0.3520 -0.7063
13282TIP3    H139779   0.046   4.376   1.908 -0.2290  0.5433  0.5885
13282TIP3    H239780   0.151   4.480   1.875  0.1468 -0.6839 -2.2771
13283TIP3   OH239781   0.504   5.757   1.833 -0.1976  0.2505  0.3237
13283TIP3    H139782   0.519   5.663   1.835 -0.2074  0.2302 -0.4976
13283TIP3    H239783   0.571   5.793   1.891 -0.4854 -0.2947  1.0063
13284TIP3   OH239784   5.706   3.038   6.127 -0.2398  0.2171  0.4448
13284TIP3    H139785   5.689   2.949   6.160  1.8047  0.2097  1.6057
13284TIP3    H239786   5.649   3.094   6.180  1.0652 -0.0766  2.2331
13285TIP3   OH239787   7.668   5.974   0.990 -0.3550  0.0892  0.2713
13285TIP3    H139788   7.695   6.022   1.069 -1.1361 -0.6883  1.0223
13285TIP3    H239789   7.693   5.884   1.007 -0.2703 -0.0311 -0.4991
13286TIP3   OH239790   7.528   3.263   0.934  0.1995 -0.4331 -0.3356
13286TIP3    H139791   7.623   3.276   0.929  0.1088  0.5384  0.3089
13286TIP3    H239792   7.505   3.225   0.849  0.8572  1.3761 -1.3512
13287TIP3   OH239793   8.047   4.842   0.017 -0.0662 -0.3613 -0.1407
13287TIP3    H139794   8.109   4.779  -0.020  1.7082  1.5057 -0.4060
13287TIP3    H239795   8.096   4.924   0.023 -2.1032  0.8241  0.9189
13288TIP3   OH239796   0.200   5.205   2.274 -0.4500 -0.4318 -0.2571
13288TIP3    H139797   0.202   5.242   2.186 -0.0700 -3.0452 -1.3911
13288TIP3    H239798   0.214   5.111   2.262  0.6737 -0.7171  2.6746
13289TIP3   OH239799   7.941   0.739   6.145 -0.3139  0.7091 -0.1603
13289TIP3    H139800   8.028   0.768   6.171 -0.5798  0.9069  0.5186
13289TIP3    H239801   7.926   0.782   6.060 -1.0045  3.2169  1.1684
13290TIP3   OH239802   0.003   4.133   2.583 -0.4884  0.2354  0.2992
13290TIP3    H139803  -0.051   4.133   2.662 -1.6386 -1.4907 -0.4515
13290TIP3    H239804   0.089   4.105   2.614 -0.3405  1.7385  1.2979
13291TIP3   OH239805   8.088   5.734   0.793  0.2477 -0.0129  0.1137
13291TIP3    H139806   8.102   5.785   0.873 -1.6226  0.7447 -0.0158
13291TIP3    H239807   8.130   5.785   0.724 -0.3210  0.6066  0.2214
13292TIP3   OH239808   8.307   5.550   1.109  0.0020  0.1801  0.3798
13292TIP3    H139809   8.266   5.593   1.185 -2.6627 -1.9383  0.2097
13292TIP3    H239810   8.234   5.528   1.052  1.4787 -2.7420 -0.4622
13293TIP3   OH239811   0.617   5.339   2.301  0.1801 -0.6673  0.0983
13293TIP3    H139812   0.557   5.361   2.372  1.0210 -1.5779  1.0983
13293TIP3    H239813   0.560   5.301   2.233 -0.8832  1.8466 -0.5058
13294TIP3   OH239814   6.103   3.028   5.704  0.2798  0.6882  0.4478
13294TIP3    H139815   6.026   3.082   5.722  0.9331  1.5041  0.7878
13294TIP3    H239816   6.092   3.001   5.613 -1.0424 -0.2415  0.8512
13295TIP3   OH239817   1.493   4.996   0.966  0.3150  0.3173  0.2312
13295TIP3    H139818   1.439   5.075   0.970  1.2553  0.9943 -0.3911
13295TIP3    H239819   1.547   5.007   0.888  0.9489 -0.6221  0.5228
13296TIP3   OH239820   7.800   1.628   6.518  0.1801 -0.5200  0.0124
13296TIP3    H139821   7.800   1.577   6.437 -1.3275 -0.0888 -0.2795
13296TIP3    H239822   7.754   1.572   6.581  3.9768 -2.1541  1.4634
13297TIP3   OH239823   1.115   4.241   1.337  0.2910  0.1795 -0.0714
13297TIP3    H139824   1.118   4.336   1.347  0.9204  0.0240  1.5114
13297TIP3    H239825   1.192   4.210   1.386  0.3452 -1.1094 -0.9503
13298TIP3   OH239826   0.233   4.139   1.388 -0.1286  0.2078  0.4944
13298TIP3    H139827   0.204   4.107   1.473  0.4876 -0.2574  0.5361
13298TIP3    H239828   0.327   4.157   1.401 -0.0741  0.3035 -0.0371
13299TIP3   OH239829   8.244   5.756   1.719 -0.5784 -0.5433 -0.2390
13299TIP3    H139830   8.252   5.694   1.647 -1.1289  0.9151 -1.5960
13299TIP3    H239831   8.154   5.747   1.749 -1.2558  0.9212 -1.7211
13300TIP3   OH239832   6.182   4.004   2.005  0.1941 -0.3081 -0.0390
13300TIP3    H139833   6.109   4.002   2.066  1.2684  0.4392  1.2946
13300TIP3    H239834   6.143   4.029   1.921 -1.1360 -0.3554  0.5535
13301TIP3   OH239835   7.286   7.630   3.632  0.3207  0.6192  0.0550
13301TIP3    H139836   7.301   7.554   3.575 -1.5022  1.4605 -1.6005
13301TIP3    H239837   7.363   7.685   3.619  1.4700 -0.7415  0.9605
13302TIP3   OH239838   7.169   0.518   6.600  0.2649 -0.0693 -0.2073
13302TIP3    H139839   7.148   0.591   6.659  1.5785 -0.0328  0.2358
13302TIP3    H239840   7.114   0.533   6.523 -1.9636 -0.4764  1.2606
13303TIP3   OH239841   1.350   5.210   1.805 -0.3700  0.2247 -0.2777
13303TIP3    H139842   1.311   5.228   1.891 -0.2879  1.0359 -0.4027
13303TIP3    H239843   1.381   5.295   1.775  2.1364 -0.5028  0.1148
13304TIP3   OH239844   7.628   5.955   2.049  0.1021  0.1116 -0.0265
13304TIP3    H139845   7.567   6.020   2.012 -0.0195  1.2561  2.1187
13304TIP3    H239846   7.610   5.875   1.999 -0.9142  1.2763 -1.5916
13305TIP3   OH239847   0.300   6.073   0.307  0.3025  0.2029  0.1810
13305TIP3    H139848   0.248   6.120   0.241  0.2430 -0.6190 -0.3627
13305TIP3    H239849   0.291   6.126   0.386  0.0639  1.0003 -0.3652
13306TIP3   OH239850   7.345   6.027   0.094  0.5614  0.5714 -0.1542
13306TIP3    H139851   7.341   5.985   0.008 -2.2506  0.6311 -0.1112
13306TIP3    H239852   7.255   6.054   0.112  1.1221  0.7390  2.7356
13307TIP3   OH239853   7.237   4.863   0.921  0.0425 -0.2736 -0.1096
13307TIP3    H139854   7.181   4.908   0.859 -1.3937 -2.3022 -0.3261
13307TIP3    H239855   7.300   4.929   0.949 -0.0566  0.9871 -2.7699
13308TIP3   OH239856   0.987   5.450   1.524 -0.4338  0.2707 -0.1504
13308TIP3    H139857   0.942   5.411   1.450 -3.5657  0.5543  1.5301
13308TIP3    H239858   1.046   5.382   1.556 -2.5537 -1.5456 -0.0114
13309TIP3   OH239859   2.853   7.972   5.558  0.0107  0.4972  0.4176
13309TIP3    H139860   2.767   7.982   5.598 -0.1642  1.2882 -0.1531
13309TIP3    H239861   2.881   8.061   5.538  1.0662  0.2660  0.8084
13310TIP3   OH239862   6.965   2.505   5.458 -0.4813  0.3776  0.2474
13310TIP3    H139863   7.024   2.580   5.449  1.4041 -0.9777  0.8707
13310TIP3    H239864   6.899   2.518   5.389 -0.8210  3.1197  1.0175
13311TIP3   OH239865   7.544   5.212   1.552 -0.1521 -0.3884  0.0766
13311TIP3    H139866   7.512   5.129   1.519  2.2049 -1.6094  0.7572
13311TIP3    H239867   7.553   5.200   1.646  1.3128  0.2361  0.0329
13312TIP3   OH239868   0.471   5.286   2.088  0.1077 -0.0667 -0.1496
13312TIP3    H139869   0.381   5.280   2.057  0.4188 -0.0990 -1.0671
13312TIP3    H239870   0.495   5.377   2.074  1.8949 -1.1161 -4.7514
13313TIP3   OH239871   4.278   5.831   6.139  0.1631  0.2783  0.1416
13313TIP3    H139872   4.316   5.910   6.102  1.8860 -1.1054 -1.1433
13313TIP3    H239873   4.204   5.810   6.082 -0.8716  1.4356  1.0233
13314TIP3   OH239874   0.558   3.362   1.633 -0.3117  0.2242  0.7695
13314TIP3    H139875   0.553   3.271   1.663  0.7617  0.4443  1.6104
13314TIP3    H239876   0.466   3.390   1.630 -0.8515 -1.6077 -1.7840
13315TIP3   OH239877   0.958   6.275   2.541 -0.0629 -0.1160 -0.3925
13315TIP3    H139878   0.926   6.361   2.515 -1.1974 -0.3777  0.1269
13315TIP3    H239879   1.026   6.254   2.476  2.5160  2.5658  1.3379
13316TIP3   OH239880   0.925   5.584   0.472 -0.3711 -0.0780  0.0812
13316TIP3    H139881   0.835   5.600   0.443 -0.4989 -2.2135 -0.8144
13316TIP3    H239882   0.970   5.668   0.458 -1.9610  0.7068 -0.4562
13317TIP3   OH239883   8.435   5.076   1.364  0.1482 -0.2662 -0.0713
13317TIP3    H139884   8.480   5.062   1.281  1.7920 -2.5008  1.1825
13317TIP3    H239885   8.503   5.105   1.425 -1.1279  1.8364  0.4205
13318TIP3   OH239886   0.849   5.405   0.640  0.1390 -0.0437 -0.5538
13318TIP3    H139887   0.771   5.446   0.679  1.0640  0.0982  1.1849
13318TIP3    H239888   0.883   5.472   0.581 -0.4711  0.2790 -0.5500
13319TIP3   OH239889   4.986   0.349   6.912  0.4136 -0.1538  0.3157
13319TIP3    H139890   4.898   0.320   6.935  0.0191  1.3601  0.7711
13319TIP3    H239891   5.025   0.274   6.867 -0.8588 -1.0805  0.7317
13320TIP3   OH239892   0.022   3.334   1.281 -0.3898  0.3984  0.0859
13320TIP3    H139893   0.050   3.334   1.373 -0.5222  0.8956  0.1317
13320TIP3    H239894   0.017   3.427   1.258 -2.4202  0.3351  0.2004
13321TIP3   OH239895   0.744   6.226   0.658 -0.3276  0.8993  0.0803
13321TIP3    H139896   0.750   6.143   0.705 -0.8863  0.9327  0.2104
13321TIP3    H239897   0.747   6.201   0.565  0.4742  0.8102  0.1308
13322TIP3   OH239898   5.733   0.016   6.915 -0.4278  0.4453  0.5965
13322TIP3    H139899   5.728   0.110   6.933 -2.2912  0.4589  0.1183
13322TIP3    H239900   5.649  -0.005   6.873  0.8759 -1.0065 -1.3762
13323TIP3   OH239901   2.808   7.695   6.695 -0.0352  0.0963  0.0780
13323TIP3    H139902   2.743   7.688   6.765  0.0835  0.9511  0.2692
13323TIP3    H239903   2.785   7.624   6.635 -0.7115 -0.0538  0.5070
13324TIP3   OH239904   6.862   2.147   6.813  0.0299  0.1743 -0.3162
13324TIP3    H139905   6.845   2.205   6.888  2.7509  0.9477 -0.2477
13324TIP3    H239906   6.947   2.108   6.831 -0.4826 -1.6878 -1.7551
13325TIP3   OH239907   5.606   1.496   6.605 -0.5507  0.1938 -0.2243
13325TIP3    H139908   5.604   1.431   6.675 -0.1566  0.5254  0.1011
13325TIP3    H239909   5.555   1.570   6.639  0.4500  0.7384  0.1039
13326TIP3   OH239910   8.400   1.586   6.782 -0.6176 -0.6488 -0.9042
13326TIP3    H139911   8.379   1.546   6.867 -0.1170  2.5004  0.7517
13326TIP3    H239912   8.481   1.542   6.755  1.1943  0.8074  1.9910
13327TIP3   OH239913   4.587   2.538   6.914  0.3789  0.5411  0.2081
13327TIP3    H139914   4.662   2.537   6.854 -0.2771  1.2391 -0.6372
13327TIP3    H239915   4.511   2.521   6.858 -0.1563  0.4038  0.9704
13328TIP3   OH239916   7.142   1.169   6.603  0.6587 -0.1418  0.1013
13328TIP3    H139917   7.047   1.176   6.590  0.4685 -1.5888  0.6368
13328TIP3    H239918   7.175   1.138   6.519  0.7153  0.8016 -0.2281
13329TIP3   OH239919   3.709   6.820   5.476  0.4544 -0.1256  0.2269
13329TIP3    H139920   3.619   6.840   5.502  0.7651  0.3882  0.9221
13329TIP3    H239921   3.726   6.733   5.514  0.8666  0.5719  1.6620
13330TIP3   OH239922   3.421   2.383   6.167  0.4104  0.0852  0.3583
13330TIP3    H139923   3.447   2.413   6.080  1.5449  1.2543  1.0947
13330TIP3    H239924   3.426   2.461   6.222 -0.3744 -0.6328  1.4730
13331TIP3   OH239925   8.062   6.262   0.822 -0.3927  0.0954  0.5219
13331TIP3    H139926   8.119   6.271   0.746 -0.8903 -0.7848  0.0376
13331TIP3    H239927   8.081   6.174   0.855 -0.6398  0.2349  1.0472
13332TIP3   OH239928   7.683   5.336   2.562 -0.3302 -0.0469  0.3812
13332TIP3    H139929   7.753   5.300   2.507 -1.5687  1.4767 -2.2957
13332TIP3    H239930   7.669   5.270   2.630  2.2383 -1.3325 -0.2705
13333TIP3   OH239931   0.258   4.656   6.321  0.3580  0.0893  0.4508
13333TIP3    H139932   0.334   4.621   6.275  0.0501 -0.8533  0.6496
13333TIP3    H239933   0.292   4.734   6.367  0.8831  0.4687 -0.5587
13334TIP3   OH239934   8.432   4.749   0.506  0.4567 -0.0351 -0.4203
13334TIP3    H139935   8.340   4.736   0.529  0.6440 -0.1905  0.2292
13334TIP3    H239936   8.431   4.765   0.411 -0.2894  0.5095 -0.3222
13335TIP3   OH239937   0.829   6.480   0.610  0.2076  0.4401  0.5684
13335TIP3    H139938   0.794   6.391   0.613  0.8535  0.1500 -0.2463
13335TIP3    H239939   0.879   6.483   0.528 -1.7820  2.2748 -0.6332
13336TIP3   OH239940   6.784   0.016   6.670 -0.3047  0.2102 -0.2263
13336TIP3    H139941   6.855   0.079   6.671  0.1162 -0.2290 -1.3551
13336TIP3    H239942   6.826  -0.068   6.688 -0.2590 -0.2891 -2.4731
13337TIP3   OH239943   0.755   4.427   2.080  0.3657 -0.0696  0.1834
13337TIP3    H139944   0.810   4.376   2.140  2.6065  0.5840 -1.2625
13337TIP3    H239945   0.753   4.375   2.000 -0.2375  0.4472 -0.1391
13338TIP3   OH239946   6.363   1.689   6.535 -0.8880  0.3891 -0.5960
13338TIP3    H139947   6.270   1.664   6.540 -1.3356  1.7385 -1.7388
13338TIP3    H239948   6.365   1.756   6.467  0.6540  1.7015  0.7309
13339TIP3   OH239949   1.211   3.453   1.267  0.1944 -0.4012 -0.4665
13339TIP3    H139950   1.228   3.487   1.179 -1.1158 -1.7175 -1.2526
13339TIP3    H239951   1.127   3.494   1.291  0.5746 -0.0104  0.1909
13340TIP3   OH239952   0.121   6.875   1.013 -0.9580  0.2121  0.6845
13340TIP3    H139953   0.057   6.875   0.942  0.1628 -1.3632 -0.3373
13340TIP3    H239954   0.142   6.783   1.027  1.1308  0.7176  0.9889
13341TIP3   OH239955   1.096   4.279   1.911 -0.2834 -0.2170 -0.4614
13341TIP3    H139956   1.170   4.252   1.965 -0.7595  0.5166  0.5906
13341TIP3    H239957   1.084   4.207   1.849  1.0192 -0.5424 -0.3564
13342TIP3   OH239958   7.277   6.582   0.394 -0.1059  0.2341  0.0913
13342TIP3    H139959   7.242   6.493   0.397 -0.1437  0.3033  2.0336
13342TIP3    H239960   7.363   6.573   0.353 -0.2621 -0.6344 -0.0495
13343TIP3   OH239961   2.932   0.242   0.494  0.1215 -0.2961  0.0292
13343TIP3    H139962   2.947   0.148   0.501  2.6258  0.2319  2.4763
13343TIP3    H239963   2.850   0.256   0.541 -0.1912 -1.2133 -0.2219
13344TIP3   OH239964   6.063   2.089   6.886 -0.0862  0.0305  0.1639
13344TIP3    H139965   5.976   2.062   6.856 -0.2845  2.7496 -1.7997
13344TIP3    H239966   6.045   2.150   6.958  0.1441  1.5349 -1.0405
13345TIP3   OH239967   2.021   5.001   0.491 -0.4123  0.0034 -0.0096
13345TIP3    H139968   1.930   5.025   0.471 -1.3300 -2.4683  1.0426
13345TIP3    H239969   2.040   5.046   0.573 -1.6872 -1.6801  1.2656
13346TIP3   OH239970   2.574   6.079   0.862  0.1114  0.5075  0.8349
13346TIP3    H139971   2.628   6.106   0.788  0.5402 -1.7785  0.2795
13346TIP3    H239972   2.629   6.018   0.911 -1.0437  0.1281  1.6887
13347TIP3   OH239973   0.361   5.980   1.336  0.2104  0.4774 -0.4439
13347TIP3    H139974   0.363   5.949   1.427  2.1657 -0.2612 -0.7165
13347TIP3    H239975   0.293   5.927   1.294 -0.0876  0.2070  0.3740
13348TIP3   OH239976   2.517   6.388   0.197 -0.2249 -0.0388 -0.0356
13348TIP3    H139977   2.600   6.389   0.149  0.2007  0.6565  0.6986
13348TIP3    H239978   2.463   6.454   0.153 -0.2112 -0.1324 -0.1944
13349TIP3   OH239979   0.820   3.513   0.405  0.3408 -0.1526  0.2675
13349TIP3    H139980   0.846   3.516   0.313 -1.1266  0.2055 -0.1407
13349TIP3    H239981   0.865   3.587   0.446  1.6500 -0.8000  0.0224
13350TIP3   OH239982   7.044   1.886   6.846  0.0921  0.6336  0.1571
13350TIP3    H139983   6.999   1.862   6.765 -1.8149  1.4215  0.9693
13350TIP3    H239984   7.134   1.856   6.833 -0.4105 -0.0374 -1.8964
13351TIP3   OH239985   2.340   6.737   1.240 -0.0472  0.1477 -0.1465
13351TIP3    H139986   2.288   6.689   1.175 -0.1516 -2.8596  2.0754
13351TIP3    H239987   2.431   6.720   1.215 -0.0891  1.3736 -1.1671
13352TIP3   OH239988   4.064   3.407   1.172 -0.5536  0.0386  0.2797
13352TIP3    H139989   4.145   3.361   1.195  0.1399 -0.0615 -2.2540
13352TIP3    H239990   4.002   3.338   1.149 -1.3784  0.1208  2.1010
13353TIP3   OH239991   7.087   3.022   6.815 -0.6318 -0.0728 -0.0962
13353TIP3    H139992   7.090   2.936   6.773  1.0024  0.5647 -1.3067
13353TIP3    H239993   7.000   3.056   6.793 -0.5792 -0.6226 -1.1847
13354TIP3   OH239994   3.900   6.252   1.759  0.4957 -0.1091  0.5307
13354TIP3    H139995   3.966   6.299   1.708  1.2245 -1.0292  0.6040
13354TIP3    H239996   3.836   6.222   1.694  1.4475 -1.3205  0.1284
13355TIP3   OH239997   2.073   7.658   0.583 -0.3588 -0.1319  0.1919
13355TIP3    H139998   2.099   7.705   0.504  0.3589  0.0438  0.5361
13355TIP3    H239999   2.154   7.643   0.630 -0.7502 -0.5258  0.7416
13356TIP3   OH240000   7.623   1.795   6.408  0.2228 -0.6227  0.2476
13356TIP3    H140001   7.652   1.886   6.406  3.0533 -1.4878 -1.9630
13356TIP3    H240002   7.669   1.756   6.483  0.5959 -0.6957 -0.0164
13357TIP3   OH240003   0.461   4.736   1.033 -0.4127 -0.8017 -0.2239
13357TIP3    H140004   0.373   4.704   1.056 -1.1053  0.7745 -0.6195
13357TIP3    H240005   0.447   4.791   0.956  0.7997  0.1519  0.2220
13358TIP3   OH240006   7.733   4.518   1.314  0.4483  0.1020 -0.1030
13358TIP3    H140007   7.640   4.502   1.297  0.1864  0.5757  0.8526
13358TIP3    H240008   7.749   4.606   1.279  0.5844 -0.0513 -0.4311
13359TIP3   OH240009   7.820   3.750   6.583 -0.8124 -0.0997 -0.3307
13359TIP3    H140010   7.834   3.658   6.604 -1.7168 -0.3392 -0.7347
13359TIP3    H240011   7.883   3.769   6.513  0.4976  0.0369  0.8663
13360TIP3   OH240012   8.192   2.758   6.016  0.6841 -0.3712  0.2784
13360TIP3    H140013   8.123   2.730   6.077  0.5898  0.6312  0.6419
13360TIP3    H240014   8.183   2.853   6.012 -0.3668 -0.5456 -2.5569
13361TIP3   OH240015   1.480   5.566   2.573  0.3091  0.0152 -0.6890
13361TIP3    H140016   1.473   5.504   2.501 -0.6045  0.5609 -1.0783
13361TIP3    H240017   1.414   5.538   2.636 -0.8339  1.1901 -1.3351
13362TIP3   OH240018   0.014   3.248   5.968 -0.2544 -0.3200  0.2475
13362TIP3    H140019  -0.010   3.206   6.050 -0.8227  1.0217  0.7890
13362TIP3    H240020   0.096   3.206   5.942  0.9511  0.5849  2.5064
13363TIP3   OH240021   1.779   7.712   0.374  0.2056 -0.7208 -0.2598
13363TIP3    H140022   1.874   7.725   0.368  0.0956 -0.2040 -0.9918
13363TIP3    H240023   1.749   7.784   0.429 -0.0803  0.7071 -2.2078
13364TIP3   OH240024   1.986   6.464   1.150 -0.2887  0.7245 -0.1471
13364TIP3    H140025   1.899   6.461   1.111 -0.9499 -0.7856  1.4125
13364TIP3    H240026   1.971   6.461   1.244  1.4754  0.0327  0.1348
13365TIP3   OH240027   7.432   2.068   6.862 -0.6372  0.1257 -0.6394
13365TIP3    H140028   7.493   2.090   6.933 -0.9457 -0.6487 -0.1336
13365TIP3    H240029   7.431   2.146   6.807 -0.4925  0.7845  0.2804
13366TIP3   OH240030   1.102   6.148   0.504  0.4079 -0.1821  0.4040
13366TIP3    H140031   1.129   6.210   0.437 -0.5716  1.1721  1.2201
13366TIP3    H240032   1.096   6.201   0.584  0.4493 -1.5258  1.3135
13367TIP3   OH240033   2.480   6.612   1.620 -0.9306 -0.0815  0.3357
13367TIP3    H140034   2.494   6.573   1.534 -0.6746  0.4956  0.1106
13367TIP3    H240035   2.466   6.537   1.678 -0.6943 -0.4949 -0.1333
13368TIP3   OH240036   1.058   1.726   6.407  0.4409  0.1317 -0.1124
13368TIP3    H140037   0.999   1.802   6.401 -2.3555 -2.0602 -1.6808
13368TIP3    H240038   1.089   1.727   6.497 -1.5952  1.6924  0.6031
13369TIP3   OH240039   1.748   6.728   0.611  0.1022  0.3334 -0.8124
13369TIP3    H140040   1.831   6.716   0.657  0.7885  0.1523 -2.0838
13369TIP3    H240041   1.723   6.818   0.630  1.9365  1.2525 -2.5738
13370TIP3   OH240042   5.728   5.150   0.530  0.1071 -0.1023  0.3179
13370TIP3    H140043   5.805   5.146   0.587 -0.1527 -0.7157  0.6350
13370TIP3    H240044   5.702   5.059   0.519  0.0034  0.0355 -0.5850
13371TIP3   OH240045   5.220   7.274   3.108  0.1531  0.5426  0.6765
13371TIP3    H140046   5.300   7.292   3.158 -0.4539  0.7555  1.5993
13371TIP3    H240047   5.149   7.281   3.173 -0.4979 -1.0044  0.1800
13372TIP3   OH240048   4.814   5.393   1.220  0.0195  0.0523  0.6142
13372TIP3    H140049   4.750   5.340   1.172 -0.7506  1.0219  0.5381
13372TIP3    H240050   4.764   5.429   1.294  0.6090  0.4317  0.8327
13373TIP3   OH240051   5.079   6.942   2.241 -0.4605 -0.3582 -0.3770
13373TIP3    H140052   5.096   7.026   2.198  0.7276 -1.2876 -1.7476
13373TIP3    H240053   5.018   6.897   2.182  0.5481 -1.3119 -0.7037
13374TIP3   OH240054   6.175   6.980   2.671 -0.0790 -0.1028  0.5051
13374TIP3    H140055   6.227   6.980   2.591  1.3459 -0.2036  1.4003
13374TIP3    H240056   6.225   7.034   2.732 -1.9304  1.2925  0.8488
13375TIP3   OH240057   7.007   7.993   2.251  0.1421 -0.4314  0.3162
13375TIP3    H140058   7.076   7.928   2.241 -0.3643 -0.9880  0.4246
13375TIP3    H240059   6.989   7.996   2.345  0.1862 -0.1114  0.3159
13376TIP3   OH240060   5.522   6.484   0.205 -0.5973  0.3994  0.4363
13376TIP3    H140061   5.543   6.399   0.242  1.2833  0.1324 -1.2089
13376TIP3    H240062   5.602   6.513   0.161 -1.5259  2.5351  0.0593
13377TIP3   OH240063   6.418   5.646   1.590  0.0247 -0.4763  0.3235
13377TIP3    H140064   6.359   5.711   1.628 -0.5174 -0.4879 -0.4862
13377TIP3    H240065   6.505   5.686   1.595 -0.1686 -0.1094  0.7460
13378TIP3   OH240066   3.489   7.007   2.573 -0.5329  0.3454  0.5435
13378TIP3    H140067   3.396   7.030   2.583 -1.0172 -2.3322  3.0032
13378TIP3    H240068   3.498   6.983   2.481 -2.9095 -1.7877  0.8139
13379TIP3   OH240069   1.645   0.495   0.099 -0.4902 -0.1309  0.8506
13379TIP3    H140070   1.718   0.437   0.120 -0.7966 -0.5200  0.8540
13379TIP3    H240071   1.670   0.538   0.018  0.7012  1.3550  1.9726
13380TIP3   OH240072   6.228   6.374   2.840 -0.0169 -0.2784 -0.0431
13380TIP3    H140073   6.167   6.409   2.904  1.2080 -1.5053  1.8621
13380TIP3    H240074   6.261   6.451   2.793 -0.6020  0.6945  1.1194
13381TIP3   OH240075   5.313   6.032   2.068 -0.4190  0.8353  0.6179
13381TIP3    H140076   5.340   5.971   2.137 -1.3445  0.4316  0.6353
13381TIP3    H240077   5.276   6.106   2.115  0.1325  1.1375  0.5801
13382TIP3   OH240078   0.813   1.134   0.485  0.0385 -0.2116  0.0168
13382TIP3    H140079   0.731   1.171   0.519  0.0541 -0.3400  0.1932
13382TIP3    H240080   0.869   1.211   0.470 -0.8230  0.0480 -2.0028
13383TIP3   OH240081   5.352   7.000   1.471 -0.0663  0.4287  0.4947
13383TIP3    H140082   5.314   7.039   1.550 -1.3998  0.3472 -0.0987
13383TIP3    H240083   5.433   7.048   1.457  0.4726  0.0616  2.2464
13384TIP3   OH240084   1.901   0.121   1.219 -0.0624 -0.0812  0.2934
13384TIP3    H140085   1.930   0.208   1.192 -3.4688  1.3417  0.9216
13384TIP3    H240086   1.949   0.104   1.300  1.5468  0.6588 -0.4789
13385TIP3   OH240087   0.537   2.348   2.687  0.2301  0.4349 -0.1258
13385TIP3    H140088   0.605   2.309   2.632  0.7962 -1.4611  1.8368
13385TIP3    H240089   0.456   2.337   2.637  0.5933 -2.1335 -0.2222
13386TIP3   OH240090   8.389   7.144   0.548  0.8377  0.7552 -0.0043
13386TIP3    H140091   8.478   7.120   0.521  0.8271  0.1656  0.4789
13386TIP3    H240092   8.339   7.144   0.467  0.5555 -2.1217  0.1167
13387TIP3   OH240093   1.959   4.320   6.896 -0.4087 -0.2357 -0.1985
13387TIP3    H140094   1.933   4.365   6.816  1.6500 -1.3327 -1.5292
13387TIP3    H240095   1.965   4.389   6.962  0.5967  1.1136 -1.6661
13388TIP3   OH240096   7.077   6.440   1.435 -0.3203  0.2423 -0.2201
13388TIP3    H140097   7.143   6.456   1.502  0.0309  0.5251 -0.6295
13388TIP3    H240098   7.071   6.522   1.386 -3.0319  1.1431  1.5675
13389TIP3   OH240099   0.752   0.455   1.147  0.1875  0.0793  0.6656
13389TIP3    H140100   0.666   0.456   1.105  1.1943 -0.5457 -1.4935
13389TIP3    H240101   0.734   0.433   1.238 -1.7929 -1.8118 -0.1384
13390TIP3   OH240102   5.998   6.605   1.879 -0.8736  0.0175 -0.2939
13390TIP3    H140103   5.995   6.642   1.791 -0.3451 -1.4000 -0.9407
13390TIP3    H240104   6.024   6.678   1.936  0.3004  0.5944 -1.5377
13391TIP3   OH240105   0.397   6.558   1.395  0.0793 -0.2742 -0.1334
13391TIP3    H140106   0.408   6.592   1.307  0.0530 -0.7449 -0.3230
13391TIP3    H240107   0.308   6.583   1.420 -0.5688 -1.7203 -0.9506
13392TIP3   OH240108   4.194   3.734   6.727 -0.4070 -0.6690 -0.2471
13392TIP3    H140109   4.131   3.736   6.655 -0.5516 -0.1512 -0.1111
13392TIP3    H240110   4.242   3.652   6.715 -1.3464 -1.2420 -0.1385
13393TIP3   OH240111   5.657   7.610   0.999 -0.3131  0.6378 -0.2284
13393TIP3    H140112   5.749   7.637   1.001 -0.4349  1.1844 -1.3147
13393TIP3    H240113   5.645   7.558   1.078  0.9865  0.4031 -0.1755
13394TIP3   OH240114   7.431   6.862   1.808 -0.0531  0.0783  0.1109
13394TIP3    H140115   7.391   6.907   1.883 -1.4895 -0.3626 -0.3853
13394TIP3    H240116   7.489   6.927   1.769  0.1320  0.5528  1.1595
13395TIP3   OH240117   6.548   5.304   1.526  0.0871 -0.0011 -0.4254
13395TIP3    H140118   6.608   5.378   1.520  0.7882 -0.3656  1.8450
13395TIP3    H240119   6.604   5.228   1.545 -1.0991 -0.2677  2.1645
13396TIP3   OH240120   6.103   7.219   1.388  0.0184  0.1233 -0.1951
13396TIP3    H140121   6.086   7.188   1.299 -0.1383  2.5498 -1.0440
13396TIP3    H240122   6.195   7.195   1.403 -0.3689 -1.6111 -0.4240
13397TIP3   OH240123   0.069   5.521   1.161 -0.4233  0.5980  0.5115
13397TIP3    H140124  -0.013   5.545   1.119 -0.1890 -0.7132 -0.7312
13397TIP3    H240125   0.043   5.469   1.238 -0.7624  0.2439  0.1598
13398TIP3   OH240126   0.662   0.936   4.831 -0.1250 -0.0051  0.3435
13398TIP3    H140127   0.671   0.921   4.737 -0.0316  1.7479  0.0637
13398TIP3    H240128   0.568   0.950   4.844 -0.1440 -0.2900  0.5380
13399TIP3   OH240129   5.922   7.142   1.842  0.2940  0.5417  0.0618
13399TIP3    H140130   5.876   7.064   1.875  1.4331 -0.6792 -1.1647
13399TIP3    H240131   6.008   7.138   1.884  0.5796  0.7951 -0.5014
13400TIP3   OH240132   7.891   6.279   0.333  0.1853  0.5182  0.8673
13400TIP3    H140133   7.824   6.335   0.372 -1.0663 -1.1593  1.1927
13400TIP3    H240134   7.846   6.233   0.262  2.2368  2.9230 -2.0914
13401TIP3   OH240135   5.953   7.325   2.507  0.1773 -0.2667 -0.1642
13401TIP3    H140136   5.896   7.282   2.571  0.0547  1.1468  0.6783
13401TIP3    H240137   6.028   7.356   2.558  0.2911  0.4901 -0.7835
13402TIP3   OH240138   6.874   6.794   0.902 -0.6893 -0.2148 -0.2010
13402TIP3    H140139   6.812   6.835   0.962 -1.7811 -2.0256 -0.0474
13402TIP3    H240140   6.852   6.832   0.816  0.0642  1.4561  0.3304
13403TIP3   OH240141   1.971   3.845   6.496  0.0702  0.1299  0.6684
13403TIP3    H140142   2.029   3.907   6.452  0.5553 -0.4417  0.4943
13403TIP3    H240143   1.890   3.894   6.510 -0.1638  0.2614 -1.0352
13404TIP3   OH240144   5.581   6.861   2.228 -0.0441  0.2353 -0.0073
13404TIP3    H140145   5.522   6.830   2.160  1.3734 -2.8583  0.0542
13404TIP3    H240146   5.526   6.910   2.289 -2.0474 -0.4073 -1.2828
13405TIP3   OH240147   6.466   5.341   2.262 -0.8090 -0.6436  0.5384
13405TIP3    H140148   6.421   5.371   2.183 -0.7044  0.0996  0.7586
13405TIP3    H240149   6.497   5.253   2.240 -0.6430 -0.3768 -0.2996
13406TIP3   OH240150   4.568   7.017   0.967  0.6734  0.6468 -0.3223
13406TIP3    H140151   4.506   6.973   1.026 -0.0250  1.0304 -0.7535
13406TIP3    H240152   4.649   6.968   0.976  0.0522 -0.4197 -0.4227
13407TIP3   OH240153   7.314   6.394   1.621 -0.2299 -0.5958  0.2503
13407TIP3    H140154   7.276   6.401   1.709  0.1146  1.2031  0.2825
13407TIP3    H240155   7.408   6.398   1.635 -0.2116  1.4551 -0.3147
13408TIP3   OH240156   7.187  -0.016   1.327  0.0460  0.6479  0.2148
13408TIP3    H140157   7.229   0.029   1.400  0.5784  0.4120  0.0516
13408TIP3    H240158   7.191   0.047   1.255  1.1618  0.1806 -0.1311
13409TIP3   OH240159   0.195   0.811   1.040  0.6251  0.7290 -0.1614
13409TIP3    H140160   0.248   0.798   0.962  0.5607 -1.2704  0.1166
13409TIP3    H240161   0.132   0.879   1.015  1.6345  1.2574 -1.3145
13410TIP3   OH240162   5.474   4.344   6.801 -0.1868 -0.8435 -0.5863
13410TIP3    H140163   5.549   4.364   6.746 -1.8802  1.0235 -2.3013
13410TIP3    H240164   5.443   4.429   6.832  0.0405 -1.7649  2.4075
13411TIP3   OH240165   2.281   1.031   1.382  0.1850  0.7425  0.8797
13411TIP3    H140166   2.251   0.991   1.463 -1.8903 -1.4794 -0.9112
13411TIP3    H240167   2.226   0.992   1.314  1.7159  2.7088 -1.5795
13412TIP3   OH240168   4.702   7.858   0.172 -0.5602  0.4427 -0.0232
13412TIP3    H140169   4.752   7.873   0.252 -0.8275 -3.3361  0.9379
13412TIP3    H240170   4.755   7.795   0.123 -2.1229  0.0271 -1.1808
13413TIP3   OH240171   3.260   3.107   5.576  0.2538  0.6505 -0.0323
13413TIP3    H140172   3.251   3.021   5.617  0.1875  0.3848 -0.5879
13413TIP3    H240173   3.329   3.151   5.626  1.3173 -0.2824 -0.6266
13414TIP3   OH240174   5.061   7.021   0.302  0.1503  0.0428  0.4792
13414TIP3    H140175   5.145   6.976   0.311 -0.5230 -1.6147 -1.2828
13414TIP3    H240176   5.022   7.017   0.390  0.5991 -1.8499  0.6122
13415TIP3   OH240177   7.067   6.191   1.296  0.3470 -0.5744 -0.3683
13415TIP3    H140178   7.131   6.139   1.346 -0.3782 -0.5447  0.6054
13415TIP3    H240179   7.054   6.269   1.349 -0.2435 -0.4247 -0.7351
13416TIP3   OH240180   4.832   6.610   1.015 -0.3917  0.0615 -0.4796
13416TIP3    H140181   4.880   6.597   1.097 -3.4894 -1.4113  1.1813
13416TIP3    H240182   4.839   6.525   0.970 -0.0621  0.3616 -0.9936
13417TIP3   OH240183   4.298   3.476   6.753 -0.0756 -0.2393  0.8631
13417TIP3    H140184   4.271   3.410   6.817  0.8415 -0.7597  0.7269
13417TIP3    H240185   4.384   3.446   6.723 -1.0061 -0.6853 -1.5125
13418TIP3   OH240186   5.287   6.594   2.322 -0.1211 -0.3345 -0.4538
13418TIP3    H140187   5.272   6.686   2.345 -0.9724 -0.8672  1.1941
13418TIP3    H240188   5.353   6.564   2.384 -0.5691 -1.1048 -0.3517
13419TIP3   OH240189   1.310   0.675   4.927  0.0615  0.0312  0.2671
13419TIP3    H140190   1.297   0.597   4.872 -1.7026  1.1446 -0.9444
13419TIP3    H240191   1.225   0.690   4.968  0.4684  1.1370  0.7136
13420TIP3   OH240192   7.281   7.374   1.178  0.2567 -0.0660 -0.6064
13420TIP3    H140193   7.231   7.299   1.207  0.4205  0.7218  1.7707
13420TIP3    H240194   7.230   7.410   1.105 -1.3338 -0.7598  0.1384
13421TIP3   OH240195   6.112   7.645   2.644  0.2584  0.1933  0.6174
13421TIP3    H140196   6.118   7.700   2.565 -1.7687  2.0203  1.6683
13421TIP3    H240197   6.148   7.561   2.617  1.1268  1.2769 -1.7979
13422TIP3   OH240198   6.566   7.244   1.875 -0.6409 -0.6265  0.2613
13422TIP3    H140199   6.651   7.200   1.873 -0.5578 -0.4300 -0.9592
13422TIP3    H240200   6.527   7.225   1.789  0.1846  3.1386 -1.0381
13423TIP3   OH240201   0.534   5.830   3.387  1.1408  0.5080  0.5143
13423TIP3    H140202   0.628   5.818   3.400  1.2765  0.2531 -0.5876
13423TIP3    H240203   0.528   5.889   3.311  0.4203  1.0066  0.9527
13424TIP3   OH240204   5.784   0.813   6.603  0.1476 -0.0043  0.2654
13424TIP3    H140205   5.708   0.853   6.645  0.0685 -1.0991  1.1938
13424TIP3    H240206   5.763   0.720   6.599  1.1167 -0.2134 -0.1702
13425TIP3   OH240207   6.405   5.615   0.653  0.9792  0.0991 -0.0718
13425TIP3    H140208   6.457   5.645   0.728  1.2054  1.8036 -0.8923
13425TIP3    H240209   6.469   5.596   0.585  0.6560  0.2069 -0.4034
13426TIP3   OH240210   0.968   0.887   1.579  0.3190  0.4418 -0.2371
13426TIP3    H140211   0.974   0.973   1.623 -0.2919 -0.8686  2.5209
13426TIP3    H240212   1.056   0.872   1.545  0.5589  1.9507 -0.3271
13427TIP3   OH240213   0.056   7.383   1.647 -0.4159 -0.0993  0.9896
13427TIP3    H140214  -0.032   7.355   1.623 -0.2724  0.9582 -0.9031
13427TIP3    H240215   0.107   7.302   1.650 -1.0222 -0.5198  0.1201
13428TIP3   OH240216   7.845   7.525   0.759 -0.2497  0.1509  0.1821
13428TIP3    H140217   7.776   7.592   0.759 -1.1877 -0.7841 -0.9347
13428TIP3    H240218   7.819   7.464   0.689  1.3513 -0.5901  0.2079
13429TIP3   OH240219   1.889   3.765   2.703  0.4104  0.4675  0.1358
13429TIP3    H140220   1.870   3.671   2.705 -0.0202  0.5317 -0.7008
13429TIP3    H240221   1.974   3.771   2.659 -0.7853  0.6383 -2.2244
13430TIP3   OH240222   8.136   1.562   1.895  0.1350  0.1397  0.2723
13430TIP3    H140223   8.218   1.514   1.901 -0.2146 -0.3709  0.9820
13430TIP3    H240224   8.135   1.596   1.805  1.3216  0.5163  0.3922
13431TIP3   OH240225   0.301   5.592   1.349 -0.1833  0.4083  0.0908
13431TIP3    H140226   0.266   5.681   1.342  0.8003  0.7327 -0.7996
13431TIP3    H240227   0.224   5.538   1.368 -0.9166  1.3218 -0.2066
13432TIP3   OH240228   8.333   0.302   0.818 -0.5861 -0.4819  0.0121
13432TIP3    H140229   8.312   0.392   0.845  1.8525 -0.0216  0.4992
13432TIP3    H240230   8.342   0.254   0.900  1.6227 -0.3256 -0.1225
13433TIP3   OH240231   8.208   0.756   0.814  0.2526  0.6142  0.6541
13433TIP3    H140232   8.153   0.752   0.736 -0.7884  0.0162  1.4068
13433TIP3    H240233   8.230   0.665   0.833  1.3546  0.8264  0.4823
13434TIP3   OH240234   6.098   7.781   2.250 -0.2309  0.4629  0.4272
13434TIP3    H140235   6.019   7.726   2.247  0.9071 -1.2963  1.6219
13434TIP3    H240236   6.082   7.843   2.321 -0.3399 -0.2530  1.0390
13435TIP3   OH240237   7.963   0.168   0.269 -0.1253  0.7626 -0.4337
13435TIP3    H140238   7.937   0.179   0.361 -1.5836  0.3611 -0.7870
13435TIP3    H240239   7.962   0.257   0.233 -0.0671  0.8608 -0.1939
13436TIP3   OH240240   0.177   6.681   1.771 -0.1118  0.5195 -0.6272
13436TIP3    H140241   0.191   6.663   1.864 -0.1530  0.6592 -0.5942
13436TIP3    H240242   0.186   6.596   1.729  2.5214  0.8313 -0.8028
13437TIP3   OH240243   7.967   6.765   2.085  0.5193  0.0027  0.3704
13437TIP3    H140244   7.887   6.807   2.051  0.9558  0.7306  0.2298
13437TIP3    H240245   7.935   6.692   2.137 -0.3375  1.2678  1.6856
13438TIP3   OH240246   0.824   1.009   1.369 -0.5835 -0.6627 -0.8659
13438TIP3    H140247   0.834   0.957   1.289 -1.0071 -1.4899 -0.3912
13438TIP3    H240248   0.881   0.967   1.433  0.5128  0.5892 -1.0031
13439TIP3   OH240249   0.727   6.749   0.644  0.4991 -0.3505 -0.6937
13439TIP3    H140250   0.721   6.803   0.565  0.8986  0.2705 -0.3031
13439TIP3    H240251   0.698   6.663   0.616  0.3531 -0.0618 -1.4519
13440TIP3   OH240252   6.865   7.935   1.665  0.0934  0.5070  0.3805
13440TIP3    H140253   6.806   7.859   1.665 -0.3320  0.8360  0.7048
13440TIP3    H240254   6.936   7.910   1.607  0.0561 -0.2247  0.6502
13441TIP3   OH240255   6.385   7.202   1.644 -0.2701 -0.5135 -0.4981
13441TIP3    H140256   6.344   7.139   1.703  0.5933  0.6706  1.4101
13441TIP3    H240257   6.444   7.149   1.590  1.2922 -1.2111  1.8438
13442TIP3   OH240258   0.811   0.466   3.544  0.1895 -0.3444  0.6569
13442TIP3    H140259   0.829   0.446   3.452  0.5151  0.1957  0.6036
13442TIP3    H240260   0.845   0.554   3.557  1.8121 -1.1166  1.7860
13443TIP3   OH240261   6.604   7.983   1.768 -0.4153 -0.5197  0.9291
13443TIP3    H140262   6.562   7.976   1.853 -1.9936 -0.8148  0.1430
13443TIP3    H240263   6.626   7.893   1.744  1.1880 -0.3214  1.5739
13444TIP3   OH240264   1.803   2.091   1.216 -0.0775  0.1223  0.1000
13444TIP3    H140265   1.763   2.007   1.193 -1.3804  1.0066 -0.9181
13444TIP3    H240266   1.886   2.092   1.168  0.6356 -1.1907  1.2548
13445TIP3   OH240267   4.553   4.005   0.830 -0.0758  0.1728 -0.6087
13445TIP3    H140268   4.462   4.016   0.802 -0.5426  0.0839  0.7909
13445TIP3    H240269   4.551   3.928   0.888  0.8513  0.2815 -0.4176
13446TIP3   OH240270   0.530   7.406   4.018  1.1017 -0.5251  0.0835
13446TIP3    H140271   0.532   7.500   4.037  1.0377 -0.3474 -0.7479
13446TIP3    H240272   0.574   7.398   3.934 -1.6664 -0.8342 -1.4146
13447TIP3   OH240273   7.093   5.400   2.954  0.4600 -0.0941  0.0898
13447TIP3    H140274   7.130   5.320   2.992 -0.0904 -0.1232  0.5573
13447TIP3    H240275   7.061   5.451   3.028 -0.7322 -0.2113 -0.3257
13448TIP3   OH240276   2.168   6.652   1.062  0.1555 -0.8092 -0.4720
13448TIP3    H140277   2.105   6.590   1.098  2.1634 -1.7875  1.5383
13448TIP3    H240278   2.203   6.610   0.984 -1.3258 -0.4611 -1.3301
13449TIP3   OH240279   7.326   5.224   2.573 -0.6482 -0.0284  0.5523
13449TIP3    H140280   7.333   5.304   2.626 -0.8244  0.9560 -0.8765
13449TIP3    H240281   7.317   5.154   2.637  1.8577  0.8306  1.9209
13450TIP3   OH240282   6.639   7.105   2.882 -1.1005  0.1126  0.3463
13450TIP3    H140283   6.648   7.017   2.919 -0.5874  0.1509  0.3212
13450TIP3    H240284   6.578   7.150   2.940 -1.5108 -0.3245  0.2477
13451TIP3   OH240285   8.185   7.496   0.289 -0.2012  0.1775  0.0044
13451TIP3    H140286   8.238   7.480   0.367  0.5110  1.4719 -0.2078
13451TIP3    H240287   8.140   7.413   0.273 -2.3999  0.6272  3.3579
13452TIP3   OH240288   5.581   5.050   6.216  0.2408 -0.6078 -0.6942
13452TIP3    H140289   5.561   4.958   6.203  3.0414 -1.8085  2.7500
13452TIP3    H240290   5.666   5.062   6.172  0.8052 -0.1591  0.5073
13453TIP3   OH240291   3.156   0.347   2.405  0.1311 -0.9044 -0.2521
13453TIP3    H140292   3.230   0.405   2.385 -0.2707 -0.2647  0.0645
13453TIP3    H240293   3.187   0.292   2.477  0.0328 -0.0668  0.4468
13454TIP3   OH240294   2.636   0.697   0.450  0.4231  0.3622  0.5033
13454TIP3    H140295   2.627   0.786   0.415 -3.3944 -0.3824 -0.6532
13454TIP3    H240296   2.688   0.708   0.530 -1.3095  3.8559  1.2423
13455TIP3   OH240297   3.286   2.208   6.732 -0.0842  0.4793  0.4012
13455TIP3    H140298   3.305   2.142   6.799  0.4776  0.2792  0.0530
13455TIP3    H240299   3.363   2.206   6.675 -1.1739 -0.3441 -1.0605
13456TIP3   OH240300   0.953   7.844   0.890  0.2554 -0.1925 -0.1159
13456TIP3    H140301   0.966   7.909   0.959  2.5604 -2.0559  1.2784
13456TIP3    H240302   0.867   7.807   0.908  0.7555 -0.5210  1.6416
13457TIP3   OH240303   2.671   0.236   0.527 -0.2282  0.1593 -0.0824
13457TIP3    H140304   2.611   0.292   0.576 -0.3149 -0.1107  0.1158
13457TIP3    H240305   2.631   0.150   0.529 -0.2498  0.1581 -0.6647
13458TIP3   OH240306   7.232   7.123   2.289 -0.2705  0.3977  0.5431
13458TIP3    H140307   7.156   7.181   2.280 -0.6228  0.1239  1.6732
13458TIP3    H240308   7.294   7.172   2.342  1.0418  1.2774 -1.7282
13459TIP3   OH240309   5.633   3.079   5.661  0.0902  0.0891  0.8376
13459TIP3    H140310   5.569   3.051   5.727  0.3267  0.6490  1.3034
13459TIP3    H240311   5.718   3.071   5.705  0.5075 -2.1968 -0.2874
13460TIP3   OH240312   8.231   4.345   0.153 -0.3326 -0.4051 -0.0498
13460TIP3    H140313   8.285   4.399   0.210 -0.2092 -0.9922  0.4021
13460TIP3    H240314   8.169   4.302   0.212 -1.5270  0.5319 -0.6113
13461TIP3   OH240315   6.090   5.776   6.719  0.3799  0.0038  0.3540
13461TIP3    H140316   6.066   5.734   6.802  1.4073 -2.0254 -0.3421
13461TIP3    H240317   6.009   5.780   6.670  0.0739 -0.2751  0.8313
13462TIP3   OH240318   1.882   7.747   0.737 -0.5115  0.3821  0.2589
13462TIP3    H140319   1.969   7.733   0.701 -0.9276 -0.1979 -0.5380
13462TIP3    H240320   1.835   7.796   0.668 -0.7923  0.7587  0.7108
13463TIP3   OH240321   3.623   0.337   1.568  0.5142 -0.0275 -0.0672
13463TIP3    H140322   3.546   0.336   1.512 -0.8936  2.2548  1.7401
13463TIP3    H240323   3.688   0.387   1.519 -0.5825  1.6400  0.1516
13464TIP3   OH240324   2.356   0.780   0.179 -0.2741 -0.5471  0.3365
13464TIP3    H140325   2.400   0.792   0.095  0.3902 -0.1528  0.7299
13464TIP3    H240326   2.385   0.856   0.231 -1.2669 -0.3917  0.6640
13465TIP3   OH240327   8.158   7.749   0.368 -0.5587  0.0876 -0.5423
13465TIP3    H140328   8.136   7.680   0.306  0.3989  0.3543 -1.1989
13465TIP3    H240329   8.148   7.709   0.454 -0.0781 -0.8433 -0.9215
13466TIP3   OH240330   0.050   7.218   2.983  0.2112 -0.0745 -0.3134
13466TIP3    H140331  -0.007   7.150   3.017  0.6992 -1.3560 -1.9763
13466TIP3    H240332   0.084   7.262   3.060 -1.1938 -0.8143  0.7491
13467TIP3   OH240333   3.717   4.004   6.624 -0.4292  0.3910  0.2961
13467TIP3    H140334   3.734   3.954   6.704  0.0067  0.9904  0.5919
13467TIP3    H240335   3.623   4.023   6.627 -0.1397  1.7185  1.4615
13468TIP3   OH240336   0.644   6.739   3.474 -0.6092 -0.4140 -0.2604
13468TIP3    H140337   0.653   6.773   3.563  0.4853 -1.5978  0.0962
13468TIP3    H240338   0.623   6.816   3.421  1.6672  0.8086  0.5575
13469TIP3   OH240339   1.418   0.065   2.572  0.1407 -0.2478  0.5013
13469TIP3    H140340   1.330   0.078   2.609  0.5183 -0.6518  1.5631
13469TIP3    H240341   1.437  -0.028   2.588  1.1060  0.0382  1.0188
13470TIP3   OH240342   0.468   7.579   2.625  0.7773  0.1965 -0.2854
13470TIP3    H140343   0.508   7.615   2.546 -0.0660 -1.7111 -1.6221
13470TIP3    H240344   0.495   7.638   2.695 -0.6280  3.4267 -2.3831
13471TIP3   OH240345   4.660   1.444   5.776 -0.0834  0.2311  0.3036
13471TIP3    H140346   4.681   1.375   5.839  0.5492  2.1421  2.2305
13471TIP3    H240347   4.589   1.408   5.724  1.3032 -2.5202  0.1881
13472TIP3   OH240348   3.123   1.041   1.408  0.1758  0.4703  0.1378
13472TIP3    H140349   3.211   1.078   1.421  0.4219  0.3375 -1.0770
13472TIP3    H240350   3.107   0.989   1.486  2.2638 -1.5973 -0.7435
13473TIP3   OH240351   7.662   7.612   1.167  0.6886 -0.3188 -0.3126
13473TIP3    H140352   7.625   7.528   1.141 -0.8377  0.7132 -1.5444
13473TIP3    H240353   7.630   7.626   1.256  0.2233 -0.6344 -0.4281
13474TIP3   OH240354   8.484   7.878   2.376  0.3650 -0.4668  0.1369
13474TIP3    H140355   8.430   7.802   2.399  0.2461 -0.1351  0.9394
13474TIP3    H240356   8.423   7.951   2.373  0.2958 -0.5627 -1.6513
13475TIP3   OH240357   1.471   4.479   1.620 -0.8594  0.1852  0.0790
13475TIP3    H140358   1.523   4.537   1.674 -2.0249  1.2709  0.0666
13475TIP3    H240359   1.414   4.538   1.569 -0.0192 -0.8092 -2.0801
13476TIP3   OH240360   0.392   6.204   2.199 -0.0346 -0.6113  0.0635
13476TIP3    H140361   0.329   6.247   2.256  0.8869  1.5024 -0.4802
13476TIP3    H240362   0.346   6.190   2.117 -0.3847 -0.8040  0.2938
13477TIP3   OH240363   1.288  -0.011   0.699 -0.1078 -0.5129 -0.1759
13477TIP3    H140364   1.287   0.072   0.745 -0.1001 -1.8550  2.3002
13477TIP3    H240365   1.376  -0.046   0.713 -0.2674 -1.1795 -0.7781
13478TIP3   OH240366   5.987   2.757   6.882 -0.3046  0.8110 -0.0464
13478TIP3    H140367   5.899   2.718   6.877 -0.0150 -0.2614  2.2527
13478TIP3    H240368   5.982   2.818   6.955  0.8431  0.8012  0.0511
13479TIP3   OH240369   6.996   7.529   3.291  0.2984 -0.3456  0.3084
13479TIP3    H140370   6.982   7.620   3.267  1.2236  0.1843  1.6963
13479TIP3    H240371   6.922   7.508   3.348 -0.0027 -0.5119 -0.1440
13480TIP3   OH240372   0.663   6.179   2.124  0.3219 -0.4215  0.0295
13480TIP3    H140373   0.577   6.165   2.163 -0.2591 -0.6735 -1.3079
13480TIP3    H240374   0.645   6.194   2.031  1.6833  0.0092 -0.1763
13481TIP3   OH240375   3.072   0.050   2.356 -0.0218  0.0705  0.2840
13481TIP3    H140376   3.149   0.086   2.401 -0.8345  0.8932  1.0417
13481TIP3    H240377   3.005   0.044   2.424 -0.9446  0.3307 -0.5815
13482TIP3   OH240378   2.169   0.424   0.934 -0.0626 -0.0205 -0.1229
13482TIP3    H140379   2.098   0.481   0.905  1.4566  1.2396 -1.5079
13482TIP3    H240380   2.183   0.365   0.860 -1.4713 -2.0638  1.2155
13483TIP3   OH240381   6.361   7.244   2.069  0.0773  0.5220 -0.1921
13483TIP3    H140382   6.435   7.238   2.009  0.6591  0.7521  0.4946
13483TIP3    H240383   6.400   7.266   2.154 -0.7838  0.7331  0.1589
13484TIP3   OH240384   4.389   5.379   6.614  0.4463 -0.1258  0.8134
13484TIP3    H140385   4.453   5.391   6.543  0.6588  0.4332  1.0986
13484TIP3    H240386   4.392   5.285   6.632 -1.2055 -0.6481 -1.4002
13485TIP3   OH240387   6.713   7.512   1.473  0.4585  0.1443  0.0729
13485TIP3    H140388   6.729   7.441   1.535  0.2058 -0.8295 -0.9524
13485TIP3    H240389   6.790   7.512   1.416  1.4928  2.1657  1.4316
13486TIP3   OH240390   2.645   0.092   2.339  0.7088  0.2992  0.0751
13486TIP3    H140391   2.566   0.047   2.307 -1.2915  2.9213  1.1337
13486TIP3    H240392   2.673   0.146   2.265  1.2181 -0.2603 -0.1388
13487TIP3   OH240393   8.112   5.866   1.362  0.1021 -0.0179  0.0133
13487TIP3    H140394   8.082   5.889   1.450  2.2395 -0.0839  0.7671
13487TIP3    H240395   8.155   5.782   1.372  2.5674  1.1346 -0.6207
13488TIP3   OH240396   2.753   0.423   1.346 -0.6120 -0.0569 -0.1483
13488TIP3    H140397   2.662   0.406   1.370 -1.4996  0.8407 -2.7037
13488TIP3    H240398   2.759   0.518   1.341  0.1851 -0.1409 -0.9476
13489TIP3   OH240399   8.316   7.187   0.257  0.2023 -0.2910  0.2537
13489TIP3    H140400   8.407   7.167   0.235 -0.0121 -0.4036 -0.5263
13489TIP3    H240401   8.276   7.211   0.174 -0.4271 -0.0128  0.6343
13490TIP3   OH240402   6.637   7.493   1.838  0.3672 -0.2989 -0.4966
13490TIP3    H140403   6.720   7.455   1.809  0.5920 -0.3841  0.2483
13490TIP3    H240404   6.582   7.418   1.861  1.2942 -0.1814  2.3046
13491TIP3   OH240405   4.776   4.634   5.549 -0.5890 -0.5274  0.3011
13491TIP3    H140406   4.801   4.584   5.626  0.5334  0.6628  0.7340
13491TIP3    H240407   4.859   4.648   5.502 -0.6297  2.1595  0.9464
13492TIP3   OH240408   0.046   2.154   6.577 -0.6585 -0.6405  0.2944
13492TIP3    H140409   0.042   2.241   6.538  0.3206 -0.0659  1.4269
13492TIP3    H240410   0.112   2.108   6.526  0.6358  0.1139  1.2723
13493TIP3   OH240411   8.364   6.134   1.317 -0.2096 -0.6074 -0.4391
13493TIP3    H140412   8.335   6.156   1.406 -0.4703 -1.8124 -0.2276
13493TIP3    H240413   8.292   6.163   1.261  0.2935  0.8843 -0.3433
13494TIP3   OH240414   5.763   2.371   6.716 -0.6125 -0.0479 -0.2534
13494TIP3    H140415   5.849   2.401   6.686  0.0162 -2.4315 -0.9128
13494TIP3    H240416   5.763   2.388   6.810  0.2409  0.7266 -0.3812
13495TIP3   OH240417   6.875   6.199   2.472 -0.6589 -0.4867 -0.9110
13495TIP3    H140418   6.964   6.205   2.506 -1.4763 -0.3841  1.3491
13495TIP3    H240419   6.842   6.116   2.506 -1.8350  0.0612 -0.6783
13496TIP3   OH240420   7.134   0.880   5.661  0.1262 -0.7513  0.1769
13496TIP3    H140421   7.130   0.900   5.568  0.0261 -1.0998  0.1040
13496TIP3    H240422   7.213   0.924   5.692 -0.2353 -0.0245  0.0802
13497TIP3   OH240423   3.707   0.395   2.486  0.2806  0.2045 -0.0481
13497TIP3    H140424   3.643   0.334   2.523 -1.0120  1.7807  0.3295
13497TIP3    H240425   3.748   0.345   2.415  1.1083 -2.0184  1.9015
13498TIP3   OH240426   7.709   7.186   0.920  0.0504  0.2624 -0.1152
13498TIP3    H140427   7.660   7.146   0.847  0.1476 -0.1756  0.0590
13498TIP3    H240428   7.649   7.250   0.956  0.2688  1.0022 -1.0491
13499TIP3   OH240429   1.073   0.437   0.577 -0.0532  0.2454 -0.7552
13499TIP3    H140430   1.092   0.463   0.486 -0.5780  1.8194 -0.4288
13499TIP3    H240431   1.153   0.394   0.606  0.7914  1.3569 -1.3847
13500TIP3   OH240432   3.547   4.832   4.601 -0.2718 -0.2731 -0.3512
13500TIP3    H140433   3.530   4.774   4.527 -0.3680  0.3729 -0.8394
13500TIP3    H240434   3.537   4.920   4.565  0.2911  0.0532  0.2851
13501TIP3   OH240435   7.854   6.368   0.976 -0.2185 -0.1136  0.9349
13501TIP3    H140436   7.783   6.306   0.957  0.0930 -0.0884 -0.3353
13501TIP3    H240437   7.933   6.325   0.942  0.2317  0.2798  1.4845
13502TIP3   OH240438   8.130   7.132   1.406 -0.1920 -0.0656 -0.2571
13502TIP3    H140439   8.134   7.072   1.331  0.8650  0.0781 -0.3266
13502TIP3    H240440   8.042   7.169   1.403 -0.0962  0.0660 -1.5364
13503TIP3   OH240441   3.647   0.471   0.715  0.1178  0.7972 -0.4824
13503TIP3    H140442   3.553   0.479   0.727  0.4029 -0.4317  3.1418
13503TIP3    H240443   3.682   0.558   0.737 -0.0001  0.6568  0.2639
13504TIP3   OH240444   2.218   0.256   2.709  0.3184 -0.7155 -0.1814
13504TIP3    H140445   2.260   0.189   2.763 -0.8178 -1.5828 -0.3384
13504TIP3    H240446   2.132   0.268   2.750  0.6055  0.8130 -0.0293
13505TIP3   OH240447   0.740   6.981   2.805 -0.4915  0.0885 -0.2397
13505TIP3    H140448   0.767   6.896   2.770 -0.0556 -0.2883  0.9632
13505TIP3    H240449   0.710   6.961   2.894 -0.8372  1.1252 -0.1221
13506TIP3   OH240450   5.473   3.650   4.866  0.1291  0.0289  0.4375
13506TIP3    H140451   5.522   3.643   4.947 -0.9848  1.1035  1.2232
13506TIP3    H240452   5.426   3.733   4.873 -0.3909 -0.1160 -1.0692
13507TIP3   OH240453   7.327   5.944   0.599  0.2987 -0.3002 -0.1812
13507TIP3    H140454   7.379   5.934   0.679  1.0910  0.5057 -0.5836
13507TIP3    H240455   7.387   5.985   0.537 -0.0876 -1.5688 -1.4280
13508TIP3   OH240456   0.431   7.778   0.361  0.9967  0.0008  0.1246
13508TIP3    H140457   0.467   7.835   0.293  1.7865 -1.5243 -0.7432
13508TIP3    H240458   0.352   7.741   0.322  1.0520 -0.3067  0.3027
13509TIP3   OH240459   5.798   1.900   6.187  0.1827 -0.1190 -0.4654
13509TIP3    H140460   5.861   1.862   6.249 -0.9080 -0.0882  0.6836
13509TIP3    H240461   5.835   1.985   6.164  0.3386  0.0904  0.5489
13510TIP3   OH240462   3.650   0.610   2.778  0.9546 -0.4435  0.6695
13510TIP3    H140463   3.695   0.684   2.739 -0.1560  0.6418  1.4247
13510TIP3    H240464   3.559   0.620   2.753  0.5313 -0.7171  2.0233
13511TIP3   OH240465   1.091   5.449   0.798  0.1533  0.1389  0.0066
13511TIP3    H140466   1.065   5.491   0.880  1.9061 -0.5434  0.9380
13511TIP3    H240467   1.011   5.448   0.745 -0.2704  3.4478  0.4694
13512TIP3   OH240468   2.718   0.523   3.164  0.0338  0.4948 -0.4510
13512TIP3    H140469   2.776   0.486   3.230 -0.4931  2.3111  1.0491
13512TIP3    H240470   2.671   0.447   3.128 -0.0954 -0.4417  1.6512
13513TIP3   OH240471   8.170   0.350   1.242 -0.0154  0.5390 -0.3483
13513TIP3    H140472   8.195   0.357   1.334  0.5376  1.2012 -0.5402
13513TIP3    H240473   8.234   0.288   1.205 -0.3821  0.0952 -0.2311
13514TIP3   OH240474   6.004   7.979   1.012  0.5322 -0.4390  0.3177
13514TIP3    H140475   5.974   8.069   1.003 -3.0458 -1.6255 -0.4829
13514TIP3    H240476   6.075   7.970   0.948 -2.4229  0.4638 -3.2178
13515TIP3   OH240477   3.097   0.160   2.076  0.2638 -0.5162 -0.0097
13515TIP3    H140478   3.102   0.121   2.163  0.6384  2.5979  1.4425
13515TIP3    H240479   3.187   0.155   2.042  0.3610 -0.6720  0.2713
13516TIP3   OH240480   7.815   5.915   0.652 -0.3110 -0.2064 -0.2596
13516TIP3    H140481   7.854   5.987   0.602  1.1535  0.1188  1.3311
13516TIP3    H240482   7.865   5.838   0.625 -0.3365 -0.2444 -0.1986
13517TIP3   OH240483   6.590   5.540   4.312  0.1458  0.6216 -0.3698
13517TIP3    H140484   6.614   5.460   4.265 -1.7972  0.8942 -1.8952
13517TIP3    H240485   6.649   5.606   4.278 -0.3595  0.5162 -1.4666
13518TIP3   OH240486   0.741   7.670   1.668 -0.0866 -0.1878 -0.1200
13518TIP3    H140487   0.831   7.647   1.645  0.2529  1.0049 -0.0199
13518TIP3    H240488   0.712   7.598   1.725  0.6397 -0.8129 -0.5312
13519TIP3   OH240489   2.220   0.703   1.403 -0.5239  0.2173 -0.7623
13519TIP3    H140490   2.144   0.752   1.435 -1.6546 -1.6952 -0.4628
13519TIP3    H240491   2.212   0.617   1.444  1.0522 -0.4485 -1.8204
13520TIP3   OH240492   7.227   5.864   3.084  0.2095 -0.0566  0.0608
13520TIP3    H140493   7.217   5.804   3.010  0.0521 -0.4639  0.4141
13520TIP3    H240494   7.277   5.938   3.048 -0.7353  0.2175 -0.7106
13521TIP3   OH240495   7.624   5.416   0.891 -0.5370  0.5464 -0.6422
13521TIP3    H140496   7.672   5.450   0.815  1.2820  1.5221  0.9086
13521TIP3    H240497   7.677   5.343   0.922 -0.7310  0.7861  0.2791
13522TIP3   OH240498   5.094   4.421   6.863  0.4831 -0.3077  0.0897
13522TIP3    H140499   5.155   4.494   6.867  0.4922 -0.3206  0.1930
13522TIP3    H240500   5.119   4.373   6.784  0.0103  0.2109 -0.3797
13523TIP3   OH240501   4.475   3.388   6.350  0.5830  0.0364 -0.0797
13523TIP3    H140502   4.493   3.388   6.444 -0.9247  0.5532  0.2357
13523TIP3    H240503   4.385   3.422   6.344  0.0499 -1.6003 -1.5861
13524TIP3   OH240504   7.674   7.361   1.486  0.4373  0.2084 -0.4242
13524TIP3    H140505   7.762   7.329   1.463  0.5360  0.5720 -0.5599
13524TIP3    H240506   7.678   7.455   1.467 -0.0557  0.1827 -0.6440
13525TIP3   OH240507   3.262   7.277   0.519  0.2042 -0.1628  0.2308
13525TIP3    H140508   3.290   7.359   0.478 -2.9327  2.2237  2.6034
13525TIP3    H240509   3.230   7.224   0.446  0.9467  1.2823 -1.1856
13526TIP3   OH240510   0.211   7.636   3.231 -0.5684 -0.3780 -0.1453
13526TIP3    H140511   0.173   7.632   3.319 -0.6291 -0.4454 -0.1753
13526TIP3    H240512   0.192   7.726   3.202 -0.5856 -0.3690 -0.1065
13527TIP3   OH240513   6.680   4.436   5.453 -0.1693  0.0229 -0.2928
13527TIP3    H140514   6.608   4.471   5.506 -0.8400  0.3795 -1.4264
13527TIP3    H240515   6.638   4.376   5.391  0.5752 -0.2095 -0.5790
13528TIP3   OH240516   8.417   7.664   1.333 -0.1391 -0.0379 -0.4326
13528TIP3    H140517   8.356   7.738   1.335 -0.6068 -0.2544 -3.7083
13528TIP3    H240518   8.501   7.701   1.359 -0.6649  1.3358 -0.6434
13529TIP3   OH240519   5.018   7.515   1.541 -0.4853 -0.1692 -0.7145
13529TIP3    H140520   4.992   7.447   1.479  0.3476  0.4862 -1.8092
13529TIP3    H240521   5.085   7.473   1.595 -1.7828 -0.9878  0.2748
13530TIP3   OH240522   7.519   6.528   0.253  0.3958  0.0556 -0.0162
13530TIP3    H140523   7.568   6.586   0.194 -0.0387  0.3109 -0.1303
13530TIP3    H240524   7.490   6.455   0.197  1.4336 -0.5655  0.2524
13531TIP3   OH240525   7.404   7.301   1.444  0.5479  0.3069 -0.1310
13531TIP3    H140526   7.499   7.311   1.454  0.3751  0.2719  1.6099
13531TIP3    H240527   7.393   7.273   1.353  2.3413 -1.4370  0.1610
13532TIP3   OH240528   3.966   0.079   1.253  0.1695  0.0399  0.3102
13532TIP3    H140529   4.042   0.097   1.309  0.7583 -0.4831 -0.3168
13532TIP3    H240530   3.895   0.061   1.315  0.5496  0.5412  0.8994
13533TIP3   OH240531   7.446   6.706   2.455 -0.2057 -0.0972 -0.1918
13533TIP3    H140532   7.515   6.704   2.388 -0.5837 -0.3628 -0.5763
13533TIP3    H240533   7.389   6.778   2.428 -0.0861  0.1213  0.1266
13534TIP3   OH240534   1.270   5.975   1.573 -0.3512 -0.3056 -0.3459
13534TIP3    H140535   1.295   6.034   1.502 -0.2466  0.0837  0.0166
13534TIP3    H240536   1.180   6.000   1.594  0.4629  1.2722  1.3707
13535TIP3   OH240537   7.071   5.997   0.177  0.1619 -0.2041 -0.0142
13535TIP3    H140538   7.106   5.980   0.265  1.0903 -0.3894 -0.4164
13535TIP3    H240539   6.999   6.059   0.192 -0.2719 -0.9379  0.9693
13536TIP3   OH240540   0.619   6.029   0.837  0.4804 -0.1747 -0.0427
13536TIP3    H140541   0.632   5.973   0.913  0.2413  1.6763  1.3807
13536TIP3    H240542   0.524   6.033   0.825  0.3883  1.5851  1.1383
13537TIP3   OH240543   6.818   4.884   0.340  0.0655  0.5599  1.0503
13537TIP3    H140544   6.804   4.943   0.414 -0.2952  1.2474  0.4430
13537TIP3    H240545   6.899   4.914   0.300 -0.1088  0.6390  0.7524
13538TIP3   OH240546   1.546   6.939   1.144 -0.4624  0.2837  0.5248
13538TIP3    H140547   1.558   7.029   1.174 -0.4818  0.0663  1.1735
13538TIP3    H240548   1.622   6.892   1.178 -0.4268  0.0626  0.1427
13539TIP3   OH240549   2.002   1.945   2.575 -0.0896 -0.2843 -0.4706
13539TIP3    H140550   1.967   2.007   2.639 -0.7107 -0.2383 -0.8585
13539TIP3    H240551   1.954   1.864   2.592  1.6154 -1.0621  0.9053
13540TIP3   OH240552   5.525   5.591   2.124 -0.2459 -0.5503 -0.0837
13540TIP3    H140553   5.552   5.669   2.076 -1.5913  0.4722  0.7634
13540TIP3    H240554   5.430   5.602   2.135 -0.4367 -2.2888  0.0791
13541TIP3   OH240555   4.905   2.949   6.698  0.0019  0.2893 -0.0565
13541TIP3    H140556   4.904   3.044   6.695 -1.1434  0.3206  0.9913
13541TIP3    H240557   4.813   2.924   6.704  0.3590 -0.8436  0.8241
13542TIP3   OH240558   5.446   2.705   6.476 -0.2164 -0.4847  0.1389
13542TIP3    H140559   5.522   2.751   6.443  0.6656 -1.9853  0.0277
13542TIP3    H240560   5.431   2.742   6.563  0.4009  0.0824  0.0042
13543TIP3   OH240561   3.462   2.789   5.503  0.8215 -0.0691  0.2361
13543TIP3    H140562   3.493   2.878   5.488  1.4929 -0.6445 -2.0753
13543TIP3    H240563   3.469   2.776   5.597 -3.7515  3.9480  1.3797
13544TIP3   OH240564   1.159   5.797   2.699 -0.3394 -0.0502 -0.2354
13544TIP3    H140565   1.185   5.869   2.757 -1.2195  0.0415  0.0585
13544TIP3    H240566   1.114   5.840   2.627 -0.2425 -0.2564 -0.4188
13545TIP3   OH240567   8.341   7.427   0.510  0.3315 -0.1676 -0.0081
13545TIP3    H140568   8.341   7.339   0.546  0.5419 -0.2462 -0.1964
13545TIP3    H240569   8.374   7.482   0.581  1.5359 -0.4400 -0.3415
13546TIP3   OH240570   6.845   6.770   0.377  0.4201 -0.2198  0.1666
13546TIP3    H140571   6.861   6.686   0.419  1.5548 -0.8635 -1.4772
13546TIP3    H240572   6.799   6.748   0.295 -1.7301  0.9875  0.9850
13547TIP3   OH240573   3.518  -0.027   0.649  0.1573 -0.5457 -0.4308
13547TIP3    H140574   3.499   0.063   0.623  0.7465  0.2328  1.7802
13547TIP3    H240575   3.613  -0.035   0.640  0.1470 -0.8537 -0.2657
13548TIP3   OH240576   2.420   0.466   4.092  0.6870 -0.0810 -0.5376
13548TIP3    H140577   2.411   0.375   4.063 -1.3499  0.2549 -1.0809
13548TIP3    H240578   2.369   0.516   4.028  0.4867  1.2604  0.6451
13549TIP3   OH240579   0.663   7.687   0.479 -0.1856  0.1316  0.3026
13549TIP3    H140580   0.600   7.727   0.419  0.7219  0.4534 -0.4465
13549TIP3    H240581   0.689   7.758   0.538  0.7393  0.4320 -0.4543
13550TIP3   OH240582   0.204   5.814   1.210 -0.2700 -0.5141 -0.0735
13550TIP3    H140583   0.114   5.788   1.231 -0.2704  0.1197  0.7612
13550TIP3    H240584   0.202   5.834   1.117 -1.0026 -0.5001 -0.0600
13551TIP3   OH240585   4.591   3.001   5.945  0.0473  0.0899 -0.3345
13551TIP3    H140586   4.618   3.013   5.854  0.2824  1.0815 -0.1448
13551TIP3    H240587   4.499   2.977   5.940 -0.2878  1.4393 -0.7809
13552TIP3   OH240588   8.164   7.879   1.120  0.4707 -0.6676  0.3132
13552TIP3    H140589   8.089   7.928   1.084 -0.3287 -1.4701  0.8594
13552TIP3    H240590   8.238   7.938   1.109 -0.8025  1.4417  2.6320
13553TIP3   OH240591   6.237   7.039   2.260  0.1351 -0.2116 -0.2348
13553TIP3    H140592   6.315   6.996   2.227 -0.5566 -1.1361 -0.7047
13553TIP3    H240593   6.265   7.128   2.282  0.8505  0.1139 -2.3507
13554TIP3   OH240594   6.291   4.617   6.772 -0.4878  0.4546 -0.4325
13554TIP3    H140595   6.198   4.636   6.788 -0.6301 -0.0563 -0.6513
13554TIP3    H240596   6.314   4.673   6.697 -1.1725 -0.9470 -1.7225
13555TIP3   OH240597   0.183   7.307   2.258  0.4386  0.0153 -0.0669
13555TIP3    H140598   0.234   7.388   2.257  0.5777 -0.0602  0.5047
13555TIP3    H240599   0.112   7.324   2.320 -0.4759  0.2613 -1.1795
13556TIP3   OH240600   7.479   7.811   0.446 -0.5799 -0.4521 -0.3479
13556TIP3    H140601   7.423   7.733   0.438 -0.8028 -0.3838  0.5233
13556TIP3    H240602   7.506   7.830   0.356  0.5195 -2.2930 -0.4177
13557TIP3   OH240603   8.404   6.754   1.604 -0.0606 -0.3481  0.0756
13557TIP3    H140604   8.314   6.777   1.582  0.6711  0.8468 -1.7757
13557TIP3    H240605   8.404   6.658   1.608 -1.4876 -0.3442  0.5324
13558TIP3   OH240606   5.087   5.949   1.481 -0.1993  0.9130 -0.4915
13558TIP3    H140607   5.074   5.967   1.574 -0.9241  0.6518 -0.5396
13558TIP3    H240608   5.153   5.880   1.479  0.3376  1.4150 -0.1987
13559TIP3   OH240609   6.301   2.595   5.956 -0.0438 -0.1835 -0.6640
13559TIP3    H140610   6.236   2.556   6.015 -0.9879 -0.7358 -2.0396
13559TIP3    H240611   6.275   2.565   5.869  1.5209  0.3596 -1.3292
13560TIP3   OH240612   5.995   7.554   1.641 -0.2805 -0.0561 -0.3631
13560TIP3    H140613   6.089   7.559   1.661 -0.5048  0.4474  0.5986
13560TIP3    H240614   5.957   7.510   1.717 -0.8223 -0.2686 -0.7586
13561TIP3   OH240615   8.466   0.002   2.277 -0.2081 -0.2613 -0.4056
13561TIP3    H140616   8.446  -0.074   2.332  0.2848 -0.0046  0.1384
13561TIP3    H240617   8.478   0.074   2.339 -1.5921  0.4804 -0.9702
13562TIP3   OH240618   4.443   2.677   6.301  0.5587  0.4402  0.3568
13562TIP3    H140619   4.392   2.668   6.221  1.2041  2.0570 -0.2667
13562TIP3    H240620   4.532   2.653   6.275  0.7075  0.6498  0.6723
13563TIP3   OH240621   0.709   6.945   1.273 -0.1351  0.0837 -0.5366
13563TIP3    H140622   0.792   6.984   1.246 -0.4469 -0.6106 -2.5694
13563TIP3    H240623   0.703   6.865   1.221 -1.2564 -0.7702  0.8790
13564TIP3   OH240624   6.620   2.806   6.927 -0.5285  0.3595 -0.0938
13564TIP3    H140625   6.690   2.743   6.909 -0.5135  0.3573 -0.0246
13564TIP3    H240626   6.558   2.760   6.983 -1.7677 -0.4305 -2.0423
13565TIP3   OH240627   0.702   7.349   0.692  0.5803  0.2242 -0.3404
13565TIP3    H140628   0.792   7.343   0.661  1.1089  2.8712  0.5465
13565TIP3    H240629   0.658   7.405   0.627  0.6295  2.2730  1.3466
13566TIP3   OH240630   3.615   0.130   1.983  0.3861 -0.2913  0.3108
13566TIP3    H140631   3.576   0.085   2.058  0.7974  1.4894  1.6507
13566TIP3    H240632   3.616   0.065   1.913 -1.4657 -1.5098  1.3871
13567TIP3   OH240633   2.331   1.380   1.219 -0.4750  0.7017  0.0793
13567TIP3    H140634   2.268   1.309   1.227 -1.6732  1.6965 -0.2889
13567TIP3    H240635   2.410   1.339   1.184 -1.5854 -0.2067 -1.4263
13568TIP3   OH240636   7.883   6.142   1.975  0.2240 -0.3663  0.2296
13568TIP3    H140637   7.845   6.100   1.898 -3.5097  0.8912  1.2987
13568TIP3    H240638   7.839   6.101   2.049  0.3226  1.7661  1.5072
13569TIP3   OH240639   0.171   6.594   0.959  0.0420  0.5102  0.1685
13569TIP3    H140640   0.236   6.546   1.010  1.3725  2.7033  0.6051
13569TIP3    H240641   0.217   6.619   0.879 -2.0698 -3.0067 -2.2683
13570TIP3   OH240642   1.224   6.174   1.839 -0.5505  0.0126  0.3228
13570TIP3    H140643   1.276   6.255   1.835 -0.6549  0.1035  0.7850
13570TIP3    H240644   1.141   6.197   1.797  0.0871 -0.3741 -1.1934
13571TIP3   OH240645   6.746   6.484   3.291 -0.0900  0.0747 -0.4938
13571TIP3    H140646   6.724   6.394   3.316  0.0998  0.3413  0.6694
13571TIP3    H240647   6.661   6.526   3.275 -0.1839 -0.2765 -0.9221
13572TIP3   OH240648   6.899   7.599   1.283 -0.2198  0.7247 -0.0928
13572TIP3    H140649   6.938   7.673   1.330  0.2489 -0.3317  1.2261
13572TIP3    H240650   6.903   7.624   1.191  3.7439  0.6300 -0.0474
13573TIP3   OH240651   0.410   5.156   1.375 -0.1885 -0.8769  0.0154
13573TIP3    H140652   0.383   5.196   1.293  0.1663 -0.2554  0.1908
13573TIP3    H240653   0.434   5.067   1.353  1.8822 -0.1111 -0.9336
13574TIP3   OH240654   0.917   6.935   0.261 -0.1587 -0.6705 -0.3209
13574TIP3    H140655   0.901   7.028   0.245 -0.1948 -0.7993 -1.0774
13574TIP3    H240656   0.939   6.900   0.175 -1.5391 -1.6461 -0.3031
13575TIP3   OH240657   4.218   0.146   0.321  0.9039 -0.3013 -0.1373
13575TIP3    H140658   4.215   0.200   0.400  1.5940 -1.0530  0.4110
13575TIP3    H240659   4.148   0.180   0.266 -0.1925 -0.3639  1.1914
13576TIP3   OH240660   6.382   7.257   0.460  0.6155 -0.2513  0.0381
13576TIP3    H140661   6.376   7.165   0.488  0.3050 -0.1512  0.3054
13576TIP3    H240662   6.291   7.286   0.455  0.7359  0.2419  0.6381
13577TIP3   OH240663   1.755   0.234   1.908 -0.0565  0.1160 -0.1834
13577TIP3    H140664   1.823   0.219   1.841  0.6353  0.6589  0.3871
13577TIP3    H240665   1.732   0.146   1.939 -0.5179 -0.1528 -1.2637
13578TIP3   OH240666   8.158   7.156   0.937  0.4265  0.8691  0.1987
13578TIP3    H140667   8.113   7.088   0.886 -0.1775  0.3159  1.4507
13578TIP3    H240668   8.248   7.154   0.904  0.2086  0.0460 -0.3740
13579TIP3   OH240669   6.904   2.263   6.409 -0.3301 -0.5937  0.7275
13579TIP3    H140670   6.990   2.223   6.396  1.5414  3.1377  0.6994
13579TIP3    H240671   6.883   2.247   6.501  1.2284 -0.1059  1.1780
13580TIP3   OH240672   7.756   6.189   1.528 -0.5335 -0.4776  0.1136
13580TIP3    H140673   7.795   6.276   1.526  1.1581 -1.1817  1.1481
13580TIP3    H240674   7.780   6.150   1.444  0.7948 -0.7997  0.6245
13581TIP3   OH240675   2.361   0.645   2.132 -0.6110  0.4747 -0.2703
13581TIP3    H140676   2.449   0.681   2.143  0.0207 -0.5065 -1.8830
13581TIP3    H240677   2.362   0.564   2.183  0.4264 -1.0733 -2.6445
13582TIP3   OH240678   7.975   7.430   0.495 -0.3903 -0.0861 -0.2090
13582TIP3    H140679   8.040   7.418   0.564 -2.7154  2.0277  2.4929
13582TIP3    H240680   8.000   7.511   0.452  0.9742 -1.3290 -1.8436
13583TIP3   OH240681   1.650   0.829   1.777 -0.1998 -0.3999  0.3748
13583TIP3    H140682   1.699   0.817   1.696 -1.5401 -0.5689 -0.4287
13583TIP3    H240683   1.616   0.919   1.772 -0.4082 -0.4596  0.6795
13584TIP3   OH240684   7.667   6.568   0.901  0.4649  0.0522  0.3337
13584TIP3    H140685   7.718   6.492   0.928  0.9482 -0.6111 -2.3485
13584TIP3    H240686   7.723   6.643   0.922  1.8945 -0.5838 -1.1002
13585TIP3   OH240687   7.828   1.458   3.199 -0.5345 -0.3742  0.6375
13585TIP3    H140688   7.878   1.539   3.183 -0.7347  0.1536  2.5166
13585TIP3    H240689   7.765   1.454   3.127  0.0462  0.6993  0.0546
13586TIP3   OH240690   7.439   7.768   1.120  0.0264  0.0349 -0.4083
13586TIP3    H140691   7.524   7.725   1.123  0.3407  0.3011 -3.6345
13586TIP3    H240692   7.459   7.860   1.102 -0.8770  0.5796  1.2384
13587TIP3   OH240693   0.784   0.400   3.089  0.1113  0.2615 -0.6078
13587TIP3    H140694   0.831   0.457   3.150 -0.4782 -0.0211  0.1185
13587TIP3    H240695   0.768   0.320   3.138  0.5341 -0.3598 -1.4806
13588TIP3   OH240696   2.988   1.116   2.461 -0.4225  0.3972 -0.1843
13588TIP3    H140697   2.932   1.187   2.493  0.0574  1.0519 -0.7774
13588TIP3    H240698   2.930   1.065   2.404 -0.2350  1.5116 -1.4029
13589TIP3   OH240699   2.680   0.112   1.560 -0.5537  0.0355 -0.2891
13589TIP3    H140700   2.722   0.059   1.628  0.0957  0.2175 -0.5494
13589TIP3    H240701   2.653   0.048   1.494 -2.7867 -0.3578  0.9470
13590TIP3   OH240702   4.125   0.314   0.057 -0.6078 -0.0263 -0.1919
13590TIP3    H140703   4.064   0.374   0.100  1.5604  0.9803  1.5755
13590TIP3    H240704   4.081   0.290  -0.025 -3.5201  0.3533  1.1916
13591TIP3   OH240705   1.815   0.473   1.316 -0.1122  0.4317  0.0698
13591TIP3    H140706   1.874   0.418   1.264 -1.4349 -1.8300  0.9157
13591TIP3    H240707   1.784   0.416   1.386  0.6064  3.0665  2.6071
13592TIP3   OH240708   6.344   7.013   0.528  0.8562 -0.9762  0.3597
13592TIP3    H140709   6.289   6.973   0.595  1.0446  1.0815  1.7901
13592TIP3    H240710   6.325   6.964   0.449 -1.5118 -1.6066  1.2884
13593TIP3   OH240711   0.422   7.145   2.533 -0.0041  0.5354  0.0764
13593TIP3    H140712   0.421   7.233   2.496 -0.4204 -0.3103 -1.9376
13593TIP3    H240713   0.330   7.121   2.542  0.1044  0.3957  0.8744
13594TIP3   OH240714   0.260   6.960   0.792 -0.2810  0.2274 -0.1644
13594TIP3    H140715   0.238   6.978   0.884  1.2246 -0.7414  0.4092
13594TIP3    H240716   0.332   7.021   0.773 -0.5965  0.4297 -0.7020
13595TIP3   OH240717   0.752   5.586   1.393 -0.0324  0.0211 -0.0677
13595TIP3    H140718   0.752   5.680   1.412  1.2700 -0.1381  0.8276
13595TIP3    H240719   0.837   5.555   1.424 -0.9428 -1.6855  0.8305
13596TIP3   OH240720   5.961   5.485   2.712 -0.3347 -0.7008  0.3357
13596TIP3    H140721   5.916   5.534   2.644  0.2026  0.9734  1.1521
13596TIP3    H240722   5.942   5.393   2.693 -0.8423 -0.2079 -1.5807
13597TIP3   OH240723   3.361   3.266   6.709  0.0066  0.0376 -0.3772
13597TIP3    H140724   3.266   3.276   6.709  0.1228  1.1766 -0.5910
13597TIP3    H240725   3.377   3.188   6.656 -0.6683  1.1947 -2.2911
13598TIP3   OH240726   5.380   2.383   5.760  0.0931  0.2751 -0.2503
13598TIP3    H140727   5.397   2.360   5.669 -1.8805  2.2548 -1.1688
13598TIP3    H240728   5.432   2.321   5.811  3.2203  0.7691 -2.7299
13599TIP3   OH240729   3.808   1.711   6.793  0.1357 -0.3311 -0.5658
13599TIP3    H140730   3.786   1.625   6.828 -2.0440  0.6420  0.6115
13599TIP3    H240731   3.842   1.759   6.869  1.2689 -0.1281 -1.2006
13600TIP3   OH240732   3.953   1.298   6.631 -0.2159 -0.2312 -0.3589
13600TIP3    H140733   3.869   1.253   6.636 -1.3769  1.8986 -0.0385
13600TIP3    H240734   3.961   1.323   6.539  1.1222 -2.2893 -0.8524
13601TIP3   OH240735   2.682   0.472   2.247 -0.9456  0.1330 -0.5253
13601TIP3    H140736   2.771   0.475   2.283  0.0275 -1.9151 -2.6291
13601TIP3    H240737   2.660   0.564   2.232  0.1591  0.7700  1.5018
13602TIP3   OH240738   0.168   7.785   1.338 -0.1351 -0.1986 -0.6349
13602TIP3    H140739   0.187   7.697   1.372  0.8761  0.2377 -0.0678
13602TIP3    H240740   0.232   7.842   1.379 -0.1686  0.6691 -1.7414
13603TIP3   OH240741   0.774   5.902   0.649 -0.5382  0.3315  0.1658
13603TIP3    H140742   0.863   5.918   0.679 -0.1813 -1.0370 -0.1440
13603TIP3    H240743   0.719   5.944   0.715  0.2926 -0.6041  1.4633
13604TIP3   OH240744   6.304   6.617   0.568 -0.6757 -0.1683 -0.1767
13604TIP3    H140745   6.234   6.602   0.505 -1.2416 -1.2290  0.6937
13604TIP3    H240746   6.286   6.555   0.639  0.9507 -0.2311  0.1999
13605TIP3   OH240747   8.467   7.808   0.860  0.1762  0.2069  0.0068
13605TIP3    H140748   8.536   7.813   0.926  0.5420 -1.3429 -0.2275
13605TIP3    H240749   8.396   7.761   0.902  0.6976 -1.4589 -0.8965
13606TIP3   OH240750   3.659   4.393   5.561 -0.1813  0.0862  0.1154
13606TIP3    H140751   3.748   4.359   5.557 -0.5200 -0.8802  0.5788
13606TIP3    H240752   3.639   4.420   5.471  0.2992 -0.4020 -0.1375
13607TIP3   OH240753   1.346   0.322   0.360  0.0660 -0.7578 -0.2892
13607TIP3    H140754   1.366   0.380   0.287  0.1573 -0.8560 -0.3425
13607TIP3    H240755   1.277   0.265   0.327 -0.6825 -0.0584  0.0775
13608TIP3   OH240756   6.123   2.850   5.914 -0.1208 -0.1639  0.1800
13608TIP3    H140757   6.191   2.785   5.900 -0.3003 -0.4306  0.5644
13608TIP3    H240758   6.120   2.899   5.831 -0.7117 -1.3094 -0.4810
13609TIP3   OH240759   0.749   6.356   0.073 -0.2881 -0.2551  0.3740
13609TIP3    H140760   0.756   6.416  -0.001  0.2586  0.4519  0.9978
13609TIP3    H240761   0.788   6.274   0.041 -2.2950 -0.7396 -0.9474
13610TIP3   OH240762   7.330   6.879   1.266  0.1292  0.1531 -0.6161
13610TIP3    H140763   7.385   6.801   1.259 -0.1208  0.1753 -3.2550
13610TIP3    H240764   7.257   6.861   1.207 -0.7696  1.7097  0.0111
13611TIP3   OH240765   2.180   5.711   2.177  0.3255 -0.1313  0.1793
13611TIP3    H140766   2.130   5.716   2.259  1.7370  0.3799  1.0410
13611TIP3    H240767   2.218   5.623   2.178  0.4004 -0.0993  0.1203
13612TIP3   OH240768   6.146   3.431   6.666 -0.3709 -0.3522 -0.2607
13612TIP3    H140769   6.127   3.362   6.603 -0.0024 -1.7777  1.1645
13612TIP3    H240770   6.239   3.450   6.653 -0.3730 -0.4102 -0.3645
13613TIP3   OH240771   1.861   5.639   2.179 -0.7979  0.3300 -0.7414
13613TIP3    H140772   1.863   5.560   2.125  0.5356  0.0297 -0.2549
13613TIP3    H240773   1.833   5.608   2.265  0.4007  0.2869 -0.3725
13614TIP3   OH240774   5.404   5.150   6.408 -0.2886  0.0446  0.1181
13614TIP3    H140775   5.317   5.130   6.376 -1.0006  1.6624  0.9801
13614TIP3    H240776   5.463   5.124   6.337 -1.4447 -1.2359 -0.3876
13615TIP3   OH240777   6.799   1.087   1.672  0.3642 -0.0844  0.0463
13615TIP3    H140778   6.858   1.012   1.669 -0.1001 -0.4052 -1.8479
13615TIP3    H240779   6.849   1.156   1.715  0.9649 -1.3215  1.3737
13616TIP3   OH240780   0.071   6.866   0.524 -0.7041  0.2878  0.0525
13616TIP3    H140781   0.137   6.936   0.530  0.5690 -0.9325  0.5773
13616TIP3    H240782   0.025   6.870   0.608  0.2909 -0.3853  0.6420
13617TIP3   OH240783   1.726   5.778   1.537  0.1620  0.0128 -0.1350
13617TIP3    H140784   1.769   5.846   1.589 -1.4267  2.2450 -1.6249
13617TIP3    H240785   1.650   5.754   1.589 -1.0009  1.6868 -1.0076
13618TIP3   OH240786   1.989   7.851   1.415  0.4300  0.5806  0.1379
13618TIP3    H140787   1.934   7.812   1.483  1.5988 -1.6796 -0.1524
13618TIP3    H240788   1.928   7.882   1.349 -0.6202  0.7348  1.1688
13619TIP3   OH240789   1.079   6.346   0.726 -0.3532  0.6133  0.0934
13619TIP3    H140790   1.020   6.421   0.741  1.2417  1.5542  1.9786
13619TIP3    H240791   1.166   6.386   0.716  0.3448 -0.9206 -0.0289
13620TIP3   OH240792   5.978   3.215   5.517  0.2657  0.3783 -0.3964
13620TIP3    H140793   5.936   3.178   5.439 -2.1500 -0.6082  1.3036
13620TIP3    H240794   6.069   3.226   5.492 -0.5317  0.4623 -3.4988
13621TIP3   OH240795   4.116   0.568   0.600  0.5000  0.0751 -0.1855
13621TIP3    H140796   4.186   0.597   0.542  1.5979 -1.3068  0.4274
13621TIP3    H240797   4.041   0.623   0.577  1.3088  0.4456 -1.9616
13622TIP3   OH240798   1.518   7.371   0.076  1.0535  0.4197  0.1303
13622TIP3    H140799   1.463   7.348   0.001  0.3593 -0.9607  1.0251
13622TIP3    H240800   1.532   7.465   0.068 -0.3435  0.5574 -0.8552
13623TIP3   OH240801   3.350   6.277   2.080 -0.0676  0.0769  0.3906
13623TIP3    H140802   3.286   6.271   2.151 -0.7332 -2.1247 -0.3700
13623TIP3    H240803   3.377   6.187   2.064  0.1576  0.5473 -2.0686
13624TIP3   OH240804   5.078   3.381   6.415  0.2641 -0.3916  0.1136
13624TIP3    H140805   5.104   3.297   6.377  0.2393 -0.4436  0.2094
13624TIP3    H240806   5.150   3.404   6.473  1.0696  0.5188 -1.2402
13625TIP3   OH240807   3.639   0.963   0.545 -0.0252 -0.1808  0.1767
13625TIP3    H140808   3.655   0.907   0.469  1.7205 -0.2549  0.5728
13625TIP3    H240809   3.643   1.052   0.510 -0.6641 -0.2450 -0.0680
13626TIP3   OH240810   5.152   3.787   6.019  0.2451 -0.1461 -0.7733
13626TIP3    H140811   5.102   3.869   6.028 -0.9262 -0.8348 -0.9404
13626TIP3    H240812   5.154   3.751   6.108  0.4378 -0.1324 -0.7713
13627TIP3   OH240813   4.987   0.428   0.252 -0.0268  0.2605  0.3742
13627TIP3    H140814   4.896   0.447   0.229 -0.3805 -1.3032  0.4364
13627TIP3    H240815   5.019   0.373   0.180  0.6128  0.1073  0.7752
13628TIP3   OH240816   0.177   5.963   0.755 -0.2828 -0.0834 -0.0728
13628TIP3    H140817   0.117   5.963   0.681  1.2132  1.4238 -1.3311
13628TIP3    H240818   0.136   6.020   0.819 -0.9686 -0.3564 -0.2644
13629TIP3   OH240819   0.882   7.427   2.699  0.0885 -0.3771 -0.4664
13629TIP3    H140820   0.900   7.382   2.617  1.8839  0.2748 -0.4586
13629TIP3    H240821   0.856   7.516   2.673  1.0592 -0.0484 -0.3199
13630TIP3   OH240822   2.621   6.770   1.107 -0.0347 -0.4906 -0.1270
13630TIP3    H140823   2.643   6.862   1.122  1.1411 -0.3557 -2.3959
13630TIP3    H240824   2.682   6.722   1.163  0.5777  0.0788 -0.2939
13631TIP3   OH240825   7.349   2.846   6.628 -0.0264 -0.7458  0.1733
13631TIP3    H140826   7.285   2.808   6.568  0.7559 -1.7984  0.0019
13631TIP3    H240827   7.363   2.779   6.694 -0.1808  0.0519  1.0361
13632TIP3   OH240828   4.393   7.502   1.654 -0.2599 -0.4225 -0.1743
13632TIP3    H140829   4.448   7.505   1.575 -1.0326 -0.3835 -0.7126
13632TIP3    H240830   4.377   7.594   1.674 -1.0054 -0.4542 -0.6297
13633TIP3   OH240831   4.079   0.126   2.552  0.1568 -0.5112  0.7230
13633TIP3    H140832   4.071   0.032   2.568 -1.2608 -0.6368 -0.5806
13633TIP3    H240833   4.005   0.147   2.494  1.0774  1.2032  0.1312
13634TIP3   OH240834   7.636   3.041   4.541  0.8186 -0.1563 -0.1990
13634TIP3    H140835   7.653   3.064   4.632 -0.9913 -0.7623  0.3099
13634TIP3    H240836   7.707   2.982   4.517 -0.0900 -2.0198  1.6172
13635TIP3   OH240837   1.225   7.844   1.711 -0.1567 -0.5363 -0.1110
13635TIP3    H140838   1.152   7.797   1.750 -0.5312  0.5758  0.5312
13635TIP3    H240839   1.202   7.936   1.719  0.3432 -0.2513 -1.8320
13636TIP3   OH240840   6.649   3.302   6.101  0.2750  0.2117 -0.1351
13636TIP3    H140841   6.587   3.230   6.114  0.4866  0.2143  0.8990
13636TIP3    H240842   6.733   3.265   6.127  0.5192  0.5852 -0.3963
13637TIP3   OH240843   1.661   6.433   1.321  0.3554  0.1197 -0.7444
13637TIP3    H140844   1.691   6.399   1.237  0.1789  0.6219 -1.0168
13637TIP3    H240845   1.705   6.379   1.387 -2.2733 -2.6446 -1.1528
13638TIP3   OH240846   0.102   5.287   6.480 -0.0060 -0.4500 -0.0820
13638TIP3    H140847   0.146   5.327   6.405 -0.2882 -0.3268 -0.1844
13638TIP3    H240848   0.020   5.336   6.488  0.2254 -0.1689  0.5892
13639TIP3   OH240849   0.192   7.793   1.067 -0.3365  0.1289  0.0465
13639TIP3    H140850   0.164   7.842   1.145 -0.6791  0.2719 -0.1627
13639TIP3    H240851   0.188   7.702   1.094 -1.2614  0.1324 -0.0548
13640TIP3   OH240852   1.617   5.877   1.168  0.7034 -0.4392 -0.4241
13640TIP3    H140853   1.529   5.839   1.164  1.4204 -2.1011 -0.7708
13640TIP3    H240854   1.635   5.907   1.079  1.0596 -1.4225 -0.6838
13641TIP3   OH240855   4.199   0.374   2.548 -0.5625  0.1498 -0.4821
13641TIP3    H140856   4.145   0.297   2.568 -0.6262  0.4938  0.7443
13641TIP3    H240857   4.193   0.384   2.453 -1.2522 -0.8488 -0.5493
13642TIP3   OH240858   7.807   4.752   6.134  0.0184 -0.3402 -0.3743
13642TIP3    H140859   7.878   4.708   6.086 -0.1520 -1.2590  0.2020
13642TIP3    H240860   7.741   4.683   6.147 -1.5308  0.7940 -1.9879
13643TIP3   OH240861   7.530   2.856   6.119 -0.6838  0.4976 -0.2796
13643TIP3    H140862   7.576   2.783   6.077 -0.6895 -0.0363  0.6193
13643TIP3    H240863   7.437   2.836   6.107 -0.6852  0.4247 -0.1437
13644TIP3   OH240864   7.717   4.347   6.597  0.0168 -0.3600  0.1406
13644TIP3    H140865   7.686   4.260   6.571 -1.0812 -0.2468  1.0736
13644TIP3    H240866   7.640   4.403   6.591  0.2409  0.1039  1.6217
13645TIP3   OH240867   6.387   7.002   0.090  0.2591 -0.0270  0.0618
13645TIP3    H140868   6.324   6.964   0.151  1.5134 -2.1561  0.0721
13645TIP3    H240869   6.384   7.096   0.107 -1.9441 -0.2468  0.9684
13646TIP3   OH240870   7.421   7.349   0.291  0.2966 -0.3318 -0.6117
13646TIP3    H140871   7.374   7.384   0.215  0.1249  0.1837 -0.2662
13646TIP3    H240872   7.430   7.255   0.272 -1.6785 -0.6075 -0.2372
13647TIP3   OH240873   1.488   6.535   0.919 -0.3491  0.4622 -0.0216
13647TIP3    H140874   1.488   6.592   0.841  0.0064 -0.1722 -0.4912
13647TIP3    H240875   1.442   6.586   0.986  1.7831  2.1734  0.2019
13648TIP3   OH240876   2.315   0.030   0.094 -0.2130  0.5671 -0.4832
13648TIP3    H140877   2.357   0.080   0.164  0.2511  1.5672 -1.4496
13648TIP3    H240878   2.369   0.047   0.017 -0.8856 -0.2752 -1.1521
13649TIP3   OH240879   2.213   6.841   0.550 -0.1053 -0.3932  0.4088
13649TIP3    H140880   2.240   6.776   0.615  0.5733  0.4831  1.0117
13649TIP3    H240881   2.263   6.818   0.472  0.1844 -0.5653  0.6392
13650TIP3   OH240882   7.408   5.187   3.778  0.6640  0.3352 -0.0561
13650TIP3    H140883   7.358   5.267   3.794  0.6445  0.1066  1.0645
13650TIP3    H240884   7.454   5.203   3.696  2.0656  2.2171  1.0594
13651TIP3   OH240885   4.453   0.597   0.241  0.1621 -0.5016  0.0313
13651TIP3    H140886   4.498   0.675   0.209  0.8028 -2.1408 -3.2229
13651TIP3    H240887   4.379   0.631   0.293  0.7357  2.2319 -0.8880
13652TIP3   OH240888   1.802   0.214   1.506  0.3851 -0.1301 -0.2510
13652TIP3    H140889   1.836   0.126   1.490  1.1270 -0.0375  0.7549
13652TIP3    H240890   1.865   0.253   1.566 -0.2669  0.8807 -0.2153
13653TIP3   OH240891   1.088   4.969   0.825 -0.0539 -0.4123  0.1363
13653TIP3    H140892   1.182   4.958   0.842  0.1086  0.7558 -0.0068
13653TIP3    H240893   1.074   5.063   0.827 -1.1617 -0.5671 -0.2176
13654TIP3   OH240894   1.175   6.442   1.539 -0.3091  0.1968  0.6853
13654TIP3    H140895   1.197   6.464   1.449 -0.4818  0.4929  0.7160
13654TIP3    H240896   1.084   6.471   1.550 -0.6132 -0.7181  0.6617
13655TIP3   OH240897   6.520   3.849   6.033 -0.1933 -0.1809  0.3774
13655TIP3    H140898   6.550   3.759   6.045 -1.5717 -0.7263 -0.1762
13655TIP3    H240899   6.548   3.873   5.945  1.6114  0.5248  1.1122
13656TIP3   OH240900   0.772   6.155   1.356  0.0077 -0.1011  0.1053
13656TIP3    H140901   0.828   6.078   1.362 -1.0199 -0.8479  0.2830
13656TIP3    H240902   0.832   6.227   1.339  0.9265 -1.0119 -0.5499
13657TIP3   OH240903   7.680   3.896   6.171 -0.1353 -0.1054 -0.2130
13657TIP3    H140904   7.608   3.837   6.192 -1.0872  0.1766 -2.5691
13657TIP3    H240905   7.738   3.843   6.115 -0.1780  0.6654 -1.0013
13658TIP3   OH240906   8.323   6.140   0.851 -0.4460 -0.2064 -0.2728
13658TIP3    H140907   8.413   6.135   0.882 -0.8541  0.4213  1.0569
13658TIP3    H240908   8.322   6.088   0.771  1.2585  0.3814 -0.6906
13659TIP3   OH240909   7.331   5.281   6.730 -0.0942  0.6832  0.1669
13659TIP3    H140910   7.347   5.304   6.821 -0.3485  0.1756  0.3404
13659TIP3    H240911   7.379   5.348   6.680  0.6875  0.5134  0.6699
13660TIP3   OH240912   3.226   1.067   2.025 -0.1480 -0.1885 -0.1797
13660TIP3    H140913   3.163   1.139   2.024  0.7026  0.5784  0.4954
13660TIP3    H240914   3.227   1.034   1.936  1.0036  2.0096 -1.0176
13661TIP3   OH240915   0.605   3.641   5.876 -0.0939 -0.9390  0.0686
13661TIP3    H140916   0.548   3.700   5.925  0.2303 -2.8521  2.8424
13661TIP3    H240917   0.596   3.669   5.785 -2.2669  1.4177  0.9653
13662TIP3   OH240918   6.486   1.427   6.438  0.7511 -0.1286  0.2627
13662TIP3    H140919   6.467   1.430   6.344 -0.8490  1.0864  0.5974
13662TIP3    H240920   6.465   1.515   6.469  0.2052 -0.8428  1.9510
13663TIP3   OH240921   6.138   2.743   6.667  0.0271  0.1636  0.2693
13663TIP3    H140922   6.061   2.746   6.724 -0.3277 -0.2887 -0.1760
13663TIP3    H240923   6.116   2.800   6.593 -0.6492 -1.4338 -0.7854
13664TIP3   OH240924   0.040   7.443   0.276 -0.4080 -0.4875  0.7080
13664TIP3    H140925  -0.004   7.440   0.361 -1.0329  1.6994  0.5063
13664TIP3    H240926   0.033   7.354   0.242 -0.1083 -1.3986  2.9533
13665TIP3   OH240927   7.959   6.064   0.128  0.1033  0.1498  0.3007
13665TIP3    H140928   8.023   6.135   0.118 -0.7620  0.9904  0.5761
13665TIP3    H240929   7.901   6.075   0.053  0.3746 -0.7064 -0.0338
13666TIP3   OH240930   8.103   6.593   1.210 -0.6401  0.3188  0.5882
13666TIP3    H140931   8.193   6.567   1.191 -1.3064 -2.5339  1.1075
13666TIP3    H240932   8.088   6.670   1.156  1.5271 -0.2360 -0.8652
13667TIP3   OH240933   2.411   5.993   0.532  0.2354  1.2853  0.6651
13667TIP3    H140934   2.350   6.055   0.491 -1.4557 -1.3673 -1.0155
13667TIP3    H240935   2.358   5.944   0.594  1.2221  0.5765  0.9672
13668TIP3   OH240936   0.945   5.589   0.971  0.0922  0.5490 -0.1614
13668TIP3    H140937   0.850   5.579   0.965  0.0847 -0.4142  1.2486
13668TIP3    H240938   0.967   5.560   1.059  1.8908 -0.8734 -1.0330
13669TIP3   OH240939   4.219   0.697   0.381  0.1161  0.2828  0.0870
13669TIP3    H140940   4.145   0.682   0.322 -0.4050 -1.0205  1.0396
13669TIP3    H240941   4.226   0.792   0.388 -1.7404  0.4230  0.3087
13670TIP3   OH240942   0.993   5.303   2.406 -0.2152  0.5805  0.5799
13670TIP3    H140943   0.925   5.348   2.457 -0.9813 -0.5540  0.5545
13670TIP3    H240944   0.981   5.334   2.317 -1.8750 -0.9898  0.2334
13671TIP3   OH240945   1.305   7.795   0.149  0.1400  0.1024 -0.4032
13671TIP3    H140946   1.387   7.770   0.192 -0.7559 -0.7262  0.8834
13671TIP3    H240947   1.300   7.890   0.160 -0.2046 -0.1177  1.6374
13672TIP3   OH240948   1.994   6.413   0.593 -0.5313  0.3518 -0.0431
13672TIP3    H140949   1.903   6.387   0.603 -0.1709 -1.1937 -0.6314
13672TIP3    H240950   1.990   6.502   0.558 -1.7982  0.4098  0.2228
13673TIP3   OH240951   0.425   7.851   0.931 -0.0570 -0.2946  0.2715
13673TIP3    H140952   0.342   7.870   0.974 -1.4576 -0.6765 -2.1808
13673TIP3    H240953   0.404   7.850   0.837  2.8047  0.1130 -0.4259
13674TIP3   OH240954   8.077   4.854   6.310  0.0906  0.2311  0.7825
13674TIP3    H140955   7.982   4.856   6.323  0.1886  0.1961  1.5845
13674TIP3    H240956   8.098   4.942   6.278 -0.7654 -1.1608 -3.8325
13675TIP3   OH240957   0.958   6.254   1.742  0.0785 -0.0380  0.0269
13675TIP3    H140958   0.888   6.284   1.684 -0.2547  0.6116  0.7505
13675TIP3    H240959   0.917   6.250   1.829  0.6168 -0.8194  0.2512
13676TIP3   OH240960   0.271   4.844   0.474  0.8786  0.0115  0.2603
13676TIP3    H140961   0.348   4.796   0.443  0.4950 -1.4148  1.4427
13676TIP3    H240962   0.221   4.779   0.523 -0.8905  1.0246 -0.1618
13677TIP3   OH240963   1.283   4.841   0.990  0.4043 -0.2177  0.4034
13677TIP3    H140964   1.215   4.859   1.055 -0.0372  1.9155 -0.6153
13677TIP3    H240965   1.358   4.893   1.018  0.7515 -0.5557  0.1008
13678TIP3   OH240966   0.070   2.988   6.267 -0.3024 -0.2911  0.1687
13678TIP3    H140967  -0.003   3.049   6.259 -0.2844 -0.3522 -0.4687
13678TIP3    H240968   0.045   2.913   6.215  1.0250  0.4768 -1.6167
13679TIP3   OH240969   5.623   3.514   5.801  0.2671 -0.5133  0.6169
13679TIP3    H140970   5.613   3.430   5.845  3.5212  0.3177  3.1758
13679TIP3    H240971   5.716   3.518   5.778  0.5776  3.1328  2.2285
13680TIP3   OH240972   4.283   0.049   0.841  0.7706 -0.2976 -0.0955
13680TIP3    H140973   4.248   0.056   0.753 -0.4856  2.4152  0.5743
13680TIP3    H240974   4.288  -0.045   0.858  0.1852 -0.8138 -2.7014
13681TIP3   OH240975   5.636   0.981   0.179 -0.1672  0.2683  0.2931
13681TIP3    H140976   5.596   1.059   0.218 -1.2785  1.1928 -2.5874
13681TIP3    H240977   5.599   0.908   0.230 -1.3364  1.4515  1.1916
13682TIP3   OH240978   4.203   2.739   0.570  0.4085  0.1302  0.4651
13682TIP3    H140979   4.125   2.695   0.537 -0.3727  0.1133  2.2886
13682TIP3    H240980   4.214   2.705   0.659  0.3819  2.8641  1.5550
13683TIP3   OH240981   5.921   5.759   4.923 -0.2906 -0.2014 -0.1115
13683TIP3    H140982   5.917   5.667   4.896 -0.3378  0.3834 -2.1351
13683TIP3    H240983   6.001   5.792   4.883 -0.3848  0.7048  0.4437
13684TIP3   OH240984   8.242   4.518   5.455 -0.6766  0.2847 -0.3848
13684TIP3    H140985   8.216   4.439   5.407 -1.6743  0.4184 -0.0763
13684TIP3    H240986   8.185   4.587   5.420 -0.7109  0.5874  0.2652
13685TIP3   OH240987   1.830   1.317   1.192 -0.1361 -0.2860  0.0696
13685TIP3    H140988   1.770   1.242   1.194  0.1481 -0.5066  2.8020
13685TIP3    H240989   1.782   1.388   1.235  0.6765  0.2230  0.1510
13686TIP3   OH240990   7.903   4.526   5.996  0.3073 -0.4958 -0.0453
13686TIP3    H140991   7.845   4.469   5.945 -0.1452 -0.4737  0.4450
13686TIP3    H240992   7.988   4.482   5.993  0.7839  0.4734 -2.4465
13687TIP3   OH240993   7.828   2.541   1.210 -0.2230  0.0733  0.9274
13687TIP3    H140994   7.888   2.552   1.284  0.0561 -2.3959  1.1229
13687TIP3    H240995   7.874   2.578   1.135  0.1416  1.2222  1.7139
13688TIP3   OH240996   4.377   0.414   0.033 -0.0424  0.1659  0.1792
13688TIP3    H140997   4.376   0.461   0.116  0.6233  0.0988  0.2249
13688TIP3    H240998   4.294   0.366   0.032  0.3177 -0.4986  1.1861
13689TIP3   OH240999   7.631   4.168   5.139  0.5046 -0.5519  0.2378
13689TIP3    H141000   7.635   4.082   5.181  0.8556 -0.6668 -0.0256
13689TIP3    H241001   7.721   4.184   5.109  1.2259  1.3765  3.2139
13690TIP3   OH241002   5.917   1.137   0.038 -0.2877 -0.3221  0.3551
13690TIP3    H141003   5.916   1.042   0.028  0.3179 -0.2118 -0.7686
13690TIP3    H241004   6.002   1.164   0.005 -1.0647  0.7674 -0.7961
13691TIP3   OH241005   6.279   4.259   6.217 -0.0743 -0.3323  0.3508
13691TIP3    H141006   6.285   4.240   6.123 -0.6295 -0.1222  0.2706
13691TIP3    H241007   6.197   4.308   6.226  0.5523  0.6423  0.7821
13692TIP3   OH241008   6.976   3.649   6.838  0.6254  0.4678  0.2015
13692TIP3    H141009   7.053   3.595   6.856 -0.9900 -1.9956 -0.0778
13692TIP3    H241010   6.972   3.709   6.912  0.0669 -2.6239  2.8016
13693TIP3   OH241011   5.723   2.672   6.885  0.5700 -0.2177  0.0463
13693TIP3    H141012   5.663   2.728   6.934  0.1719  0.1612 -0.8547
13693TIP3    H241013   5.727   2.591   6.936  0.8352  0.4791  1.1437
13694TIP3   OH241014   8.066   5.821   0.114  0.3675  0.3489 -0.7553
13694TIP3    H141015   8.047   5.914   0.131  0.8527  0.2602  0.3002
13694TIP3    H241016   8.067   5.814   0.019 -1.2530  1.1041 -0.8336
13695TIP3   OH241017   1.880   6.261   0.336 -0.1770  0.1332  0.1557
13695TIP3    H141018   1.845   6.267   0.425 -0.2360 -0.0630  0.1467
13695TIP3    H241019   1.965   6.304   0.340 -0.4739  0.7162  0.1500
13696TIP3   OH241020   7.106   4.016   5.630  0.2689 -0.1312  0.2981
13696TIP3    H141021   7.035   4.068   5.666 -0.4705 -1.5562  0.9319
13696TIP3    H241022   7.136   4.065   5.554 -0.8839  0.8610  0.4773
13697TIP3   OH241023   4.131   0.286   0.543  0.0456 -0.0891  0.6209
13697TIP3    H141024   4.116   0.381   0.544 -0.2501 -0.1372  0.7119
13697TIP3    H241025   4.049   0.248   0.574 -0.1386 -0.4095 -0.2211
13698TIP3   OH241026   3.064   4.492   2.907 -0.2138  0.0483  0.1746
13698TIP3    H141027   3.080   4.582   2.937  1.3993  0.1482 -0.8929
13698TIP3    H241028   3.053   4.500   2.812  1.0244 -1.0036 -0.0694
13699TIP3   OH241029   5.603   3.058   6.840 -0.3214 -0.3097  0.3935
13699TIP3    H141030   5.658   3.079   6.765  0.9491 -3.5178  0.3619
13699TIP3    H241031   5.567   3.143   6.868  0.7073  1.1704 -2.6028
13700TIP3   OH241032   7.642   2.218   5.531 -1.0505 -0.2837  0.1739
13700TIP3    H141033   7.553   2.201   5.500 -0.6693 -0.5228 -0.8046
13700TIP3    H241034   7.697   2.209   5.453 -0.1801 -0.0306  0.7490
13701TIP3   OH241035   3.180   6.701   2.990 -0.1125 -0.0933 -0.9481
13701TIP3    H141036   3.107   6.761   3.004 -0.9640 -1.2064 -0.4788
13701TIP3    H241037   3.250   6.735   3.045 -0.2448  1.0629 -1.5031
13702TIP3   OH241038   2.122   7.360   2.391 -0.4543  0.0061  0.1370
13702TIP3    H141039   2.172   7.407   2.458  0.3609  0.1627 -0.5685
13702TIP3    H241040   2.032   7.393   2.400 -0.4987 -0.4640  1.5879
13703TIP3   OH241041   2.407   5.894   0.038 -0.1213 -0.2572  0.2908
13703TIP3    H141042   2.501   5.883   0.052  0.0679  0.6824 -0.1765
13703TIP3    H241043   2.394   5.989   0.041 -1.0947 -0.4031  0.5994
13704TIP3   OH241044   7.377   1.556   1.227 -0.0774 -0.0032  0.0241
13704TIP3    H141045   7.470   1.569   1.210 -0.5438  0.4374 -2.3174
13704TIP3    H241046   7.341   1.525   1.144 -1.4991 -3.1098  1.7195
13705TIP3   OH241047   1.488   5.471   1.228  0.4164 -0.3907 -0.0987
13705TIP3    H141048   1.422   5.512   1.172 -0.0925 -1.8393 -0.5895
13705TIP3    H241049   1.439   5.437   1.303  0.5965 -1.3651 -0.4061
13706TIP3   OH241050   1.338   7.693   1.138  0.0051  1.1470  0.6240
13706TIP3    H141051   1.250   7.722   1.113  0.6709  3.3835  0.7844
13706TIP3    H241052   1.338   7.694   1.234  0.0198  0.5223  0.6347
13707TIP3   OH241053   1.516   7.054   0.854  0.4875 -0.0919  0.2307
13707TIP3    H141054   1.556   6.983   0.904  0.1062  1.1068  2.3221
13707TIP3    H241055   1.430   7.021   0.829  1.1045 -1.1010 -0.5925
13708TIP3   OH241056   7.212   5.513   4.519  0.2817  0.0564 -0.1819
13708TIP3    H141057   7.174   5.432   4.485 -1.0185 -0.4617  2.4196
13708TIP3    H241058   7.298   5.487   4.553  0.5220  0.1048 -0.7308
13709TIP3   OH241059   2.807   0.945   1.679  0.2311 -0.4593  0.1123
13709TIP3    H141060   2.756   0.937   1.598  1.5834 -1.8638 -0.6220
13709TIP3    H241061   2.852   0.861   1.687  2.0337  0.5776  1.0036
13710TIP3   OH241062   6.253   3.871   6.092  0.0277  0.5620  0.1784
13710TIP3    H141063   6.241   3.819   6.012 -0.1402 -0.0709  0.6150
13710TIP3    H241064   6.346   3.897   6.090 -0.1506  1.1735 -0.5937
13711TIP3   OH241065   2.602   7.267   0.395  0.3349  0.6686 -0.2422
13711TIP3    H141066   2.575   7.321   0.469  1.5864  0.3774  0.4649
13711TIP3    H241067   2.652   7.326   0.339  0.6070  0.5615 -0.1172
13712TIP3   OH241068   1.768   7.940   1.255  0.5413 -0.1439  0.3472
13712TIP3    H141069   1.731   8.028   1.253 -0.2451 -0.4772 -0.0863
13712TIP3    H241070   1.777   7.916   1.163 -2.4984 -1.8461  0.4237
13713TIP3   OH241071   3.638   0.456   1.016  0.3824 -0.7594 -0.0413
13713TIP3    H141072   3.579   0.511   0.964  3.0483  0.2057 -2.1263
13713TIP3    H241073   3.682   0.517   1.075  0.9170 -1.1696 -0.0183
13714TIP3   OH241074   6.661   2.292   6.667  0.2968  0.0207 -0.2012
13714TIP3    H141075   6.724   2.287   6.739  1.8298  0.6238 -1.4768
13714TIP3    H241076   6.646   2.201   6.642  2.4879 -0.0348 -1.4291
13715TIP3   OH241077   1.903   5.595   0.397 -0.5327 -0.3528 -0.3457
13715TIP3    H141078   1.943   5.623   0.315 -0.7542 -1.1294 -0.7209
13715TIP3    H241079   1.814   5.570   0.374 -0.0521 -2.2781 -0.2042
13716TIP3   OH241080   2.573   7.763   1.769  0.8026  0.3004  0.9358
13716TIP3    H141081   2.535   7.694   1.715  1.8887  0.2707  0.2139
13716TIP3    H241082   2.618   7.716   1.840 -0.5218  0.3373  1.8275
13717TIP3   OH241083   7.159   3.347   5.855 -0.3886  0.5650 -0.3606
13717TIP3    H141084   7.162   3.368   5.949 -0.1915  2.2537 -0.7370
13717TIP3    H241085   7.112   3.263   5.852 -2.4008  1.5674  1.1035
13718TIP3   OH241086   5.738   4.416   5.581 -0.2867  0.0361  0.4344
13718TIP3    H141087   5.763   4.492   5.529 -1.4333 -0.3234 -0.6611
13718TIP3    H241088   5.644   4.409   5.569 -0.2480 -1.3064  0.8855
13719TIP3   OH241089   0.369   6.273   1.493  0.1917 -0.4143 -0.3518
13719TIP3    H141090   0.350   6.338   1.424 -0.1890 -0.4669 -0.2983
13719TIP3    H241091   0.408   6.200   1.446  3.8416  1.1955 -0.0033
13720TIP3   OH241092   4.528   0.415   5.576  0.2595  0.3708 -0.1055
13720TIP3    H141093   4.484   0.416   5.661 -0.7438 -1.1712 -0.6060
13720TIP3    H241094   4.510   0.502   5.540 -2.2052 -0.1375 -0.2003
13721TIP3   OH241095   8.294   5.910   4.777 -0.6087 -0.3347  0.4180
13721TIP3    H141096   8.321   5.845   4.712  0.2701 -0.1154  0.5602
13721TIP3    H241097   8.290   5.992   4.728 -0.5653 -0.2832  0.5015
13722TIP3   OH241098   3.601   7.804  -0.009  0.1648  0.1954  0.6506
13722TIP3    H141099   3.597   7.721   0.039 -0.3238  1.0038  2.0375
13722TIP3    H241100   3.564   7.868   0.052  3.4302  1.9931  0.8337
13723TIP3   OH241101   1.010   7.066   1.214 -0.0106  0.5870  0.2866
13723TIP3    H141102   1.058   7.055   1.295  1.4899 -0.9694 -0.7887
13723TIP3    H241103   1.016   7.160   1.195  0.1395  0.8538  1.6463
13724TIP3   OH241104   0.450   6.700   2.263 -0.4038  0.0381  0.0537
13724TIP3    H141105   0.413   6.628   2.314 -1.3574 -1.0570 -2.1255
13724TIP3    H241106   0.375   6.758   2.247  0.1702  1.0738  0.9962
13725TIP3   OH241107   5.482   0.689   0.693 -0.1810 -0.0687  0.0139
13725TIP3    H141108   5.554   0.675   0.754 -0.3104  0.6964  0.3572
13725TIP3    H241109   5.519   0.742   0.622 -0.4649  0.6015  0.3506
13726TIP3   OH241110   6.554   2.984   4.445  0.3071 -0.6081 -0.3227
13726TIP3    H141111   6.498   2.994   4.522  0.9928  0.3441  0.0584
13726TIP3    H241112   6.626   2.929   4.475  0.8466  0.1992 -0.1411
13727TIP3   OH241113   8.204   5.962   0.981 -0.0281 -0.1034 -0.1684
13727TIP3    H141114   8.243   6.039   0.940 -2.3585  0.8939 -0.5672
13727TIP3    H241115   8.261   5.890   0.953  2.4749  1.5017  0.6320
13728TIP3   OH241116   0.477   7.626   1.530  0.5352  0.3809  0.6263
13728TIP3    H141117   0.572   7.637   1.541  0.7116 -0.8035  0.3390
13728TIP3    H241118   0.441   7.712   1.551  1.6413  0.7322  1.1510
13729TIP3   OH241119   0.061   5.103   6.087 -0.1783 -0.2494  0.0824
13729TIP3    H141120   0.137   5.097   6.030  0.6878  2.6172  0.8482
13729TIP3    H241121   0.071   5.029   6.148  0.7083 -1.2953 -1.3066
13730TIP3   OH241122   2.286   7.045   0.753  0.1166 -0.5045 -0.4563
13730TIP3    H141123   2.297   7.021   0.661  0.7312  2.2555 -1.1589
13730TIP3    H241124   2.374   7.039   0.790  0.0555 -0.5801 -0.3237
13731TIP3   OH241125   1.913   6.387   1.991  0.2033 -0.4330  0.0314
13731TIP3    H141126   1.926   6.376   2.085  2.0838 -0.2927 -0.1978
13731TIP3    H241127   1.840   6.328   1.970  0.8200 -1.6761  1.2939
13732TIP3   OH241128   1.074   7.244   2.537 -0.5648  0.1675 -0.0501
13732TIP3    H141129   1.080   7.168   2.479 -0.8563  0.3161 -0.2715
13732TIP3    H241130   1.011   7.302   2.495  0.9671  1.3306 -0.7857
13733TIP3   OH241131   6.770   3.981   6.194 -0.3542  0.2759  0.5045
13733TIP3    H141132   6.771   4.076   6.192  0.0749  0.2974  1.3428
13733TIP3    H241133   6.682   3.957   6.164 -1.0310  0.9887  1.8722
13734TIP3   OH241134   2.201   4.163   1.316 -0.0270 -0.6585  0.5566
13734TIP3    H141135   2.239   4.128   1.236 -0.3578  0.8048 -0.2533
13734TIP3    H241136   2.273   4.211   1.357 -0.8173  1.6616 -0.7084
13735TIP3   OH241137   6.510   2.858   5.574  0.0105  0.2176 -0.2132
13735TIP3    H141138   6.496   2.945   5.611  0.9909  0.4803 -0.4346
13735TIP3    H241139   6.507   2.799   5.649 -0.0514  0.5093  0.0164
13736TIP3   OH241140   4.398   5.667   6.796  0.1551 -0.0442 -0.1825
13736TIP3    H141141   4.333   5.710   6.851 -0.2172  0.6963 -1.1786
13736TIP3    H241142   4.468   5.642   6.856 -0.4157  0.4097  0.6794
13737TIP3   OH241143   3.574   2.048   2.411 -0.2614 -0.3796  0.4292
13737TIP3    H141144   3.491   2.064   2.455 -0.5382  0.8737 -0.5030
13737TIP3    H241145   3.574   2.109   2.337  1.6620 -0.0530  0.6584
13738TIP3   OH241146   2.932   6.537   2.935 -0.3046  0.5625 -0.4975
13738TIP3    H141147   2.896   6.468   2.991 -0.7176  1.5194  0.4199
13738TIP3    H241148   2.863   6.603   2.931  0.7550  1.7272  0.0506
13739TIP3   OH241149   0.285   6.845   0.258 -0.3537  0.7204 -0.3982
13739TIP3    H141150   0.191   6.832   0.250 -0.0441 -1.7243 -0.6176
13739TIP3    H241151   0.301   6.857   0.352 -0.7031 -0.6666 -0.1521
13740TIP3   OH241152   4.934   3.049   1.753  0.6662 -0.1101 -0.1947
13740TIP3    H141153   4.976   2.975   1.709 -0.2174 -1.8683  1.8745
13740TIP3    H241154   4.975   3.126   1.713  2.3139 -1.7065 -1.6881
13741TIP3   OH241155   6.169   5.322   6.765  0.4356 -0.5936  0.1122
13741TIP3    H141156   6.181   5.351   6.856  2.1886 -0.2681 -0.2081
13741TIP3    H241157   6.074   5.314   6.755  0.1720  0.3885  1.6524
13742TIP3   OH241158   7.439   3.064   6.443  0.9628 -0.4119 -0.1263
13742TIP3    H141159   7.413   2.974   6.425  0.9091 -0.4810  0.2920
13742TIP3    H241160   7.452   3.067   6.538 -0.2811  0.3331  0.0458
13743TIP3   OH241161   2.305   7.816   2.409  0.4660 -0.4143  0.2951
13743TIP3    H141162   2.221   7.860   2.410  0.5491 -0.2730  0.8231
13743TIP3    H241163   2.326   7.800   2.501  0.4893 -1.4509  0.1176
13744TIP3   OH241164   2.800   0.145   0.809  0.2438 -0.0014  0.3220
13744TIP3    H141165   2.725   0.116   0.861  1.6396 -1.7326  1.4068
13744TIP3    H241166   2.795   0.093   0.728 -0.3573  0.6913 -0.0870
13745TIP3   OH241167   2.656   7.350   2.157 -0.1283 -0.5393  0.3119
13745TIP3    H141168   2.726   7.409   2.185  0.0698 -1.0981  1.0034
13745TIP3    H241169   2.690   7.263   2.173 -0.5849 -0.8409 -0.3262
13746TIP3   OH241170   1.704   6.215   1.908  0.5280  0.1589 -0.0372
13746TIP3    H141171   1.697   6.126   1.874  0.4545  0.1391  0.0282
13746TIP3    H241172   1.682   6.271   1.834 -2.6828  0.0461  0.7277
13747TIP3   OH241173   3.005   5.470   1.810  0.9560 -0.2628  0.1478
13747TIP3    H141174   3.086   5.427   1.782  1.3632  0.8617 -0.4150
13747TIP3    H241175   3.009   5.557   1.771 -0.8602 -0.4385 -0.4920
13748TIP3   OH241176   5.395   1.665   6.022 -0.2402 -0.5232 -0.7574
13748TIP3    H141177   5.465   1.720   6.059 -1.6925  1.0668 -0.3084
13748TIP3    H241178   5.384   1.699   5.933 -2.5178  1.3094  0.1765
13749TIP3   OH241179   4.602   5.057   0.669  0.2792  0.1030 -0.1740
13749TIP3    H141180   4.666   5.111   0.623 -0.3031  0.3973 -0.6379
13749TIP3    H241181   4.646   5.032   0.751  2.1306 -2.2128 -1.8112
13750TIP3   OH241182   8.027   3.021   4.259  0.2240  0.1889 -0.3296
13750TIP3    H141183   7.976   3.095   4.225 -1.1051 -0.7499 -0.4226
13750TIP3    H241184   8.096   3.062   4.311 -0.7354  1.4837 -0.0357
13751TIP3   OH241185   7.017   4.641   1.776 -0.1287 -0.2381 -0.3652
13751TIP3    H141186   7.068   4.702   1.829 -0.8385  1.2215 -1.3416
13751TIP3    H241187   7.077   4.568   1.760  1.4761  1.1623 -0.9741
13752TIP3   OH241188   8.394   3.653   6.808  0.1443  0.0358 -0.3276
13752TIP3    H141189   8.316   3.707   6.816 -1.1361 -1.8954  0.8574
13752TIP3    H241190   8.430   3.673   6.722 -1.6342  0.9971 -0.8585
13753TIP3   OH241191   6.213   3.040   4.491 -0.6478 -0.3602 -0.0720
13753TIP3    H141192   6.157   3.108   4.528 -1.4191  0.3529 -2.4580
13753TIP3    H241193   6.296   3.049   4.538 -0.8601  2.0055 -0.0878
13754TIP3   OH241194   7.276   5.712   6.108 -0.5175  0.1289  0.2391
13754TIP3    H141195   7.249   5.623   6.085 -1.6723  0.5958 -0.2172
13754TIP3    H241196   7.217   5.769   6.060  0.3693  1.1592  0.3444
13755TIP3   OH241197   7.459   5.423   5.648  0.1477 -0.4739 -0.2077
13755TIP3    H141198   7.399   5.481   5.694  0.0902 -0.5800 -0.1474
13755TIP3    H241199   7.425   5.335   5.664  0.3732 -0.5420 -0.0952
13756TIP3   OH241200   5.911   3.243   6.685 -0.8854  0.1145  0.3236
13756TIP3    H141201   5.843   3.232   6.618 -0.8918 -0.3029  0.3960
13756TIP3    H241202   5.886   3.322   6.732 -2.9585 -1.6098  2.2541
13757TIP3   OH241203   0.339   4.260   5.705 -0.3909  0.6599 -0.6076
13757TIP3    H141204   0.331   4.355   5.699 -1.9405  0.6573  1.0755
13757TIP3    H241205   0.406   4.246   5.772 -1.7396  0.5816  0.7552
13758TIP3   OH241206   7.602   5.174   5.988 -0.1168  0.2744 -0.1048
13758TIP3    H141207   7.527   5.233   5.977  1.3635  1.5464 -4.0114
13758TIP3    H241208   7.564   5.086   5.980 -1.0559  0.9233 -3.4354
13759TIP3   OH241209   2.321   2.644   5.278  0.2532 -0.2740  0.1084
13759TIP3    H141210   2.338   2.661   5.371 -0.0678 -1.1631  0.3320
13759TIP3    H241211   2.286   2.726   5.245  2.3137  0.7035  0.2975
13760TIP3   OH241212   3.681   7.182   2.260 -0.1989  0.2100 -0.1073
13760TIP3    H141213   3.758   7.175   2.316 -0.6981  0.2915  0.5993
13760TIP3    H241214   3.612   7.213   2.319 -0.7591  0.1690 -0.7416
13761TIP3   OH241215   1.325   5.896   5.807  0.6261  0.4963 -0.2488
13761TIP3    H141216   1.328   5.849   5.723  1.9706  1.4065 -0.7280
13761TIP3    H241217   1.358   5.833   5.871 -0.8251 -0.3525 -0.3166
13762TIP3   OH241218   6.721   5.675   6.566  0.0293 -0.1966  0.0901
13762TIP3    H141219   6.683   5.754   6.527 -2.8338 -0.7936  1.5182
13762TIP3    H241220   6.717   5.691   6.661 -0.8803 -2.1673  0.4081
13763TIP3   OH241221   4.622   1.134   0.126  0.0620  0.2489  0.3543
13763TIP3    H141222   4.595   1.225   0.132  0.3167  0.3545 -0.1535
13763TIP3    H241223   4.714   1.137   0.100  0.0198 -0.1558  0.1553
13764TIP3   OH241224   2.942   7.565   1.123  0.2353 -0.6743 -0.3885
13764TIP3    H141225   2.987   7.638   1.167  0.7089 -1.5319  0.5882
13764TIP3    H241226   2.935   7.593   1.032  1.2839  0.1885 -0.2229
13765TIP3   OH241227   3.367   7.620   0.679 -0.1221  0.0074 -0.1090
13765TIP3    H141228   3.321   7.571   0.748 -1.4609  1.4512  0.0432
13765TIP3    H241229   3.361   7.563   0.602 -3.1729  0.6351 -0.3985
13766TIP3   OH241230   3.164   6.977   1.602  0.4051 -0.8862  0.2618
13766TIP3    H141231   3.181   6.952   1.511  0.0909  1.8407 -0.5903
13766TIP3    H241232   3.080   6.936   1.623 -0.0248 -0.6908 -1.0340
13767TIP3   OH241233   8.321   2.663   4.992 -0.4537 -0.5577  0.0353
13767TIP3    H141234   8.280   2.722   5.056 -0.6109 -3.0335  2.3150
13767TIP3    H241235   8.262   2.665   4.916 -0.8585  1.5949  0.3828
13768TIP3   OH241236   4.980   0.983   1.685  0.1300  0.3265 -0.5310
13768TIP3    H141237   5.000   1.022   1.600  1.0969  1.3615  0.1536
13768TIP3    H241238   5.061   0.938   1.710 -0.3318 -0.4524 -0.4004
13769TIP3   OH241239   3.580   5.284   1.377  0.1896 -0.2186  0.6576
13769TIP3    H141240   3.557   5.376   1.394 -1.2830 -0.6352  0.9408
13769TIP3    H241241   3.661   5.271   1.428 -0.7177  0.3469  2.2997
13770TIP3   OH241242   6.987   4.829   6.204 -0.3964 -0.1054  0.4961
13770TIP3    H141243   6.965   4.914   6.243  0.0329  0.2283  0.0240
13770TIP3    H241244   7.030   4.852   6.121  0.4637 -0.7639  0.7547
13771TIP3   OH241245   5.472   1.986   0.042  0.1044  0.0295  0.2539
13771TIP3    H141246   5.469   1.927  -0.033 -1.1075 -0.5792  0.7683
13771TIP3    H241247   5.561   1.979   0.075 -0.1845 -1.9473  0.6556
13772TIP3   OH241248   8.167   5.739   6.100  0.1139 -0.7691 -0.5328
13772TIP3    H141249   8.113   5.782   6.166  1.7249  0.5609 -0.0308
13772TIP3    H241250   8.143   5.647   6.105 -1.6885 -0.2872  0.0508
13773TIP3   OH241251   6.666   5.665   6.843  0.2584 -0.6630  0.2626
13773TIP3    H141252   6.616   5.585   6.858 -2.7736  0.8472 -1.3640
13773TIP3    H241253   6.705   5.684   6.928 -1.0760 -2.4673  1.3303
13774TIP3   OH241254   1.044   5.360   1.126 -0.1111  0.6184  0.9293
13774TIP3    H141255   0.975   5.375   1.191  0.4829  2.7253  1.0915
13774TIP3    H241256   1.124   5.394   1.166  0.5015  0.7822 -0.4042
13775TIP3   OH241257   2.084   7.305   1.458 -0.2663 -0.0358  0.1174
13775TIP3    H141258   2.010   7.334   1.405 -0.5817 -2.5052 -0.8787
13775TIP3    H241259   2.158   7.358   1.427 -0.8251 -0.2104 -1.5750
13776TIP3   OH241260   6.584   0.542   3.410 -0.3840  0.2419 -0.1038
13776TIP3    H141261   6.642   0.590   3.468 -0.2143 -0.7282  0.5427
13776TIP3    H241262   6.626   0.457   3.398 -1.0691 -0.0416 -0.6004
13777TIP3   OH241263   3.239   5.911   0.210  0.0018  0.3367 -0.1549
13777TIP3    H141264   3.217   5.935   0.300  0.2039 -0.9683  0.2455
13777TIP3    H241265   3.303   5.841   0.219 -0.6858 -0.4522 -1.3155
13778TIP3   OH241266   2.802   6.764   0.777  0.1010 -0.2649 -0.0253
13778TIP3    H141267   2.851   6.844   0.761 -1.2216  0.3569 -1.0087
13778TIP3    H241268   2.716   6.780   0.739 -0.4318 -1.8572  0.4682
13779TIP3   OH241269   0.171   5.331   3.947  0.1013 -0.4851  0.3756
13779TIP3    H141270   0.211   5.405   3.901 -0.2416 -0.5431 -0.0109
13779TIP3    H241271   0.128   5.370   4.023  0.3649 -0.3509  0.4571
13780TIP3   OH241272   5.498   0.262   0.825 -0.0081 -0.2987  0.2018
13780TIP3    H141273   5.447   0.327   0.874 -0.2417 -1.2446  1.2458
13780TIP3    H241274   5.588   0.291   0.833  0.1188 -1.2424  2.4925
13781TIP3   OH241275   2.830   6.522   1.646 -0.3173 -0.3716  0.5038
13781TIP3    H141276   2.773   6.445   1.652  0.0359 -0.6873 -0.1095
13781TIP3    H241277   2.892   6.500   1.576 -0.3277  0.5452  0.2037
13782TIP3   OH241278   6.625   5.818   5.831 -0.2658 -0.5422 -0.1616
13782TIP3    H141279   6.633   5.807   5.925 -0.6186  0.9984  0.0652
13782TIP3    H241280   6.587   5.736   5.800 -0.2861 -1.0002  1.0469
13783TIP3   OH241281   7.544   4.064   6.755 -0.4165  0.4702 -0.2240
13783TIP3    H141282   7.564   4.123   6.828  0.3608 -0.2369  0.1351
13783TIP3    H241283   7.451   4.043   6.766  0.2415 -1.4798  1.9248
13784TIP3   OH241284   0.258   5.108   5.683 -0.2353 -0.3939  0.9719
13784TIP3    H141285   0.181   5.087   5.629  1.0072  0.5555 -1.2318
13784TIP3    H241286   0.253   5.203   5.694  1.0190 -0.2258  0.1554
13785TIP3   OH241287   1.596   7.323   4.491 -0.2304  0.0719 -0.3167
13785TIP3    H141288   1.560   7.345   4.405 -2.1328  2.8944  1.1264
13785TIP3    H241289   1.684   7.362   4.491 -1.1009  2.1064 -0.1810
13786TIP3   OH241290   4.046   1.496   1.538 -0.4114  0.0648 -0.1124
13786TIP3    H141291   4.045   1.422   1.477  1.8138  0.5424 -0.7775
13786TIP3    H241292   4.119   1.477   1.597 -2.3572 -0.2361  2.2461
13787TIP3   OH241293   8.399   5.093   4.739 -0.1114  0.0307  0.4951
13787TIP3    H141294   8.469   5.070   4.678 -0.9085  0.9173 -0.7777
13787TIP3    H241295   8.328   5.124   4.683 -1.4807 -0.7224  1.7735
13788TIP3   OH241296   6.129   1.244   0.482 -0.8750  0.8033  0.5624
13788TIP3    H141297   6.112   1.233   0.576 -1.2471  0.6037  0.4750
13788TIP3    H241298   6.044   1.227   0.440 -0.2912 -0.9817  0.0610
13789TIP3   OH241299   6.156   3.766   5.483 -0.4617  0.0606  0.2012
13789TIP3    H141300   6.245   3.738   5.501  1.0901  1.6434 -4.4186
13789TIP3    H241301   6.158   3.861   5.494 -1.5162  0.1376 -0.1746
13790TIP3   OH241302   7.407   0.477   1.237 -0.0400  0.1155  0.1590
13790TIP3    H141303   7.481   0.419   1.257  0.3298  0.6368  0.3165
13790TIP3    H241304   7.423   0.506   1.147  0.3873  0.8752  0.4748
13791TIP3   OH241305   0.507   3.456   5.257 -0.0081 -0.6403  0.1340
13791TIP3    H141306   0.526   3.483   5.167  0.1312  0.9910  0.6250
13791TIP3    H241307   0.442   3.520   5.287 -0.4465 -1.4937  1.0116
13792TIP3   OH241308   8.428   5.617   5.589 -0.0502  0.0515  0.9635
13792TIP3    H141309   8.346   5.606   5.639 -0.6412  1.5003  0.3408
13792TIP3    H241310   8.484   5.669   5.646 -0.3277  0.7936  0.5649
13793TIP3   OH241311   7.556   2.839   1.439  0.5000 -0.0888 -0.2364
13793TIP3    H141312   7.465   2.861   1.460  1.0055  0.2665  1.6823
13793TIP3    H241313   7.564   2.746   1.462  0.9298  0.1756  0.6857
13794TIP3   OH241314   2.881   8.024   1.252  0.1693 -0.0245  0.0306
13794TIP3    H141315   2.853   8.001   1.341  0.4879 -0.5345  0.0025
13794TIP3    H241316   2.834   7.962   1.196  0.1207  0.1680 -0.1408
13795TIP3   OH241317   1.996   5.205   6.806 -0.3144 -0.1786  0.6235
13795TIP3    H141318   2.043   5.287   6.823 -0.6282  0.0100  0.5891
13795TIP3    H241319   1.906   5.233   6.787 -0.1546 -0.4377 -0.5667
13796TIP3   OH241320   7.881   2.689   0.287  0.8150  0.0121 -0.0484
13796TIP3    H141321   7.942   2.664   0.357  0.1315  1.7101  1.2088
13796TIP3    H241322   7.795   2.661   0.320  0.3899  1.5111  0.1806
13797TIP3   OH241323   7.147   4.639   0.069 -0.0930 -0.0756 -0.0013
13797TIP3    H141324   7.085   4.669   0.002 -0.1537 -0.8686 -0.2983
13797TIP3    H241325   7.107   4.560   0.105  0.2089  0.0377  0.5869
13798TIP3   OH241326   4.161   7.592   0.622  0.7492  0.1112  0.0474
13798TIP3    H141327   4.188   7.612   0.712  0.7650 -0.5609  0.1929
13798TIP3    H241328   4.229   7.534   0.589 -0.9547 -2.3254  0.7151
13799TIP3   OH241329   6.441   7.897   2.297 -0.1562  0.6893  0.2163
13799TIP3    H141330   6.429   7.909   2.203  0.9225  0.8250  0.0917
13799TIP3    H241331   6.534   7.879   2.307 -0.1524  1.3172  1.3280
13800TIP3   OH241332   6.922   0.345   0.235 -0.2539 -0.1882 -0.4652
13800TIP3    H141333   6.943   0.286   0.163  0.5223 -0.4261 -0.0517
13800TIP3    H241334   6.967   0.427   0.213 -1.1233  0.1711 -0.9149
13801TIP3   OH241335   8.129   0.728   2.666 -0.0340 -0.0893  0.3525
13801TIP3    H141336   8.171   0.691   2.744 -1.4183  0.3503  1.3245
13801TIP3    H241337   8.115   0.652   2.609 -0.5102 -0.6795  1.2358
13802TIP3   OH241338   4.158   6.936   0.009  0.2295 -0.4763 -0.4590
13802TIP3    H141339   4.220   7.003  -0.021  2.1058 -2.3830 -0.9872
13802TIP3    H241340   4.199   6.900   0.087 -1.4733 -0.0441  0.6564
13803TIP3   OH241341   7.709   1.133   0.373 -0.3421  0.0406 -0.5169
13803TIP3    H141342   7.750   1.209   0.414 -1.9072  0.8465 -0.4064
13803TIP3    H241343   7.718   1.063   0.437 -1.3547  0.8726  0.5451
13804TIP3   OH241344   2.439   7.874   1.345 -0.0479  0.1649 -0.5850
13804TIP3    H141345   2.369   7.939   1.338 -0.7850 -0.7796 -2.0622
13804TIP3    H241346   2.508   7.919   1.394 -1.5593  1.2071  0.6342
13805TIP3   OH241347   0.179   3.578   2.642  0.0966 -0.5101  0.2793
13805TIP3    H141348   0.088   3.565   2.614 -0.4712  2.9710  0.1902
13805TIP3    H241349   0.227   3.505   2.604 -2.4419 -1.6610 -0.8452
13806TIP3   OH241350   3.126   6.243   0.690 -0.3376  0.3901  0.1980
13806TIP3    H141351   3.202   6.186   0.691 -0.6133 -0.0280 -1.5498
13806TIP3    H241352   3.162   6.331   0.698  0.1969  0.0919  1.1952
13807TIP3   OH241353   6.834   0.542   2.714 -0.1218 -0.4590 -0.2843
13807TIP3    H141354   6.878   0.483   2.652 -1.1269 -1.6966  0.1507
13807TIP3    H241355   6.755   0.495   2.739 -0.1267  0.3802  1.3188
13808TIP3   OH241356   7.088   0.558   0.145  0.4447 -0.1556  0.2685
13808TIP3    H141357   7.158   0.571   0.081 -0.2165  2.3809  0.0023
13808TIP3    H241358   7.017   0.615   0.115 -1.0879 -1.4039  1.4770
13809TIP3   OH241359   8.078   1.301   0.431 -0.3754 -0.2116  0.1049
13809TIP3    H141360   8.069   1.292   0.525  0.0816 -1.7298  0.0151
13809TIP3    H241361   8.151   1.363   0.420 -2.2125  2.1395  0.7281
13810TIP3   OH241362   0.760   5.983   0.290 -0.5286 -0.3759 -0.0041
13810TIP3    H141363   0.682   5.946   0.250 -0.8012 -0.3507  0.4939
13810TIP3    H241364   0.731   6.067   0.325 -0.6104 -0.9519  1.3475
13811TIP3   OH241365   7.433   2.581   0.799  0.1391 -0.2736  0.2341
13811TIP3    H141366   7.466   2.665   0.829  3.5309 -0.5456 -2.4167
13811TIP3    H241367   7.380   2.602   0.722 -0.5644 -0.3818  0.6937
13812TIP3   OH241368   4.713   7.319   1.396 -0.1833  0.2185  0.5143
13812TIP3    H141369   4.682   7.406   1.372  0.2357  0.4174  0.6780
13812TIP3    H241370   4.634   7.270   1.416 -0.3967  0.7040  0.8918
13813TIP3   OH241371   3.906   7.467   1.841  0.5080  0.3826  0.0054
13813TIP3    H141372   3.923   7.526   1.915  1.9645 -0.0278  0.0177
13813TIP3    H241373   3.984   7.474   1.787 -0.4530  0.4879 -1.3800
13814TIP3   OH241374   4.532   0.946   0.299  0.2585 -0.2494 -0.1595
13814TIP3    H141375   4.620   0.915   0.316  0.6007  2.2360  2.9610
13814TIP3    H241376   4.543   1.014   0.233  0.9898  1.5023  1.7168
13815TIP3   OH241377   4.003   7.049   2.368 -0.3257 -0.1322  0.7271
13815TIP3    H141378   4.094   7.077   2.362 -0.2238 -0.7556 -0.8506
13815TIP3    H241379   3.972   7.047   2.277 -1.9258  0.1287  1.2451
13816TIP3   OH241380   4.927   7.100   1.238  0.1935  0.1382  0.1501
13816TIP3    H141381   4.923   7.195   1.229  0.3425  0.1062 -0.2743
13816TIP3    H241382   4.941   7.068   1.149 -0.8848 -0.3425  0.1480
13817TIP3   OH241383   8.444   0.309   2.471 -0.5167 -0.2494 -0.0365
13817TIP3    H141384   8.444   0.398   2.436  2.2200  0.0033  0.4412
13817TIP3    H241385   8.358   0.299   2.513 -1.2114  1.8285 -0.9114
13818TIP3   OH241386   7.294   0.087   0.634 -0.1183  0.1489  0.2155
13818TIP3    H141387   7.291  -0.005   0.607  1.2440  0.0360  0.4530
13818TIP3    H241388   7.206   0.120   0.613  0.0096 -0.6714 -1.7582
13819TIP3   OH241389   1.925   2.099   2.146 -0.3204 -0.4641  0.2929
13819TIP3    H141390   1.885   2.013   2.132  1.8389 -1.4939  0.2331
13819TIP3    H241391   1.952   2.128   2.059 -0.3738 -0.0610  0.4082
13820TIP3   OH241392   0.740   1.720   0.511  0.4629  0.2757 -0.2289
13820TIP3    H141393   0.827   1.692   0.484 -0.1506 -1.2801 -0.6700
13820TIP3    H241394   0.690   1.726   0.430 -0.1723 -0.0603  0.1262
13821TIP3   OH241395   2.871   7.445   1.430  0.6987  0.0199 -0.8085
13821TIP3    H141396   2.820   7.526   1.430  0.7529  0.0554 -1.3681
13821TIP3    H241397   2.814   7.381   1.472  0.7002  0.3772 -0.2611
13822TIP3   OH241398   7.637   0.981   1.888 -0.2749  0.4743 -0.4005
13822TIP3    H141399   7.599   1.038   1.955 -2.6527 -0.2889 -1.0200
13822TIP3    H241400   7.684   1.040   1.830 -0.2000  1.4399  0.6224
13823TIP3   OH241401   7.200   0.804   2.179  0.0761  0.6672  0.5649
13823TIP3    H141402   7.130   0.852   2.136  0.2358  0.4192  0.0168
13823TIP3    H241403   7.160   0.721   2.204  0.4594  0.0668 -0.7585
13824TIP3   OH241404   7.930   0.866   0.372 -0.4095 -0.0945  0.6451
13824TIP3    H141405   7.957   0.815   0.449  0.3650 -2.6031 -1.2401
13824TIP3    H241406   7.840   0.894   0.393 -1.1491 -2.8726  1.4409
13825TIP3   OH241407   0.262   1.139   2.076  0.0216  0.0178 -0.0705
13825TIP3    H141408   0.317   1.215   2.093 -0.1794  0.1158  0.1405
13825TIP3    H241409   0.187   1.149   2.135  0.3901 -0.7571  0.5419
13826TIP3   OH241410   4.981   7.706   0.316  0.1801 -0.1946 -0.3423
13826TIP3    H141411   5.012   7.762   0.246 -1.2452 -0.0366 -0.8703
13826TIP3    H241412   5.033   7.626   0.308  1.4645  0.6292 -0.2609
13827TIP3   OH241413   8.475   0.364   2.947  0.1408 -0.0336  0.2995
13827TIP3    H141414   8.419   0.432   2.911  2.1001  1.4043 -0.0969
13827TIP3    H241415   8.415   0.294   2.972 -1.8636  1.6752  0.3500
13828TIP3   OH241416   2.853   5.074   6.724 -0.6752  0.0937 -0.0428
13828TIP3    H141417   2.890   5.150   6.680  0.7313 -0.5071  0.0771
13828TIP3    H241418   2.811   5.110   6.802  0.6684  0.6599  0.4314
13829TIP3   OH241419   1.647   2.514   0.083 -0.6389  0.2273  0.0116
13829TIP3    H141420   1.666   2.421   0.098  1.0642  0.7752  1.4139
13829TIP3    H241421   1.632   2.520  -0.011  1.3806 -1.1270 -0.4350
13830TIP3   OH241422   8.108   0.707   1.591  0.1242  0.6210  0.2025
13830TIP3    H141423   8.082   0.620   1.559 -0.4139  0.9144 -0.1789
13830TIP3    H241424   8.040   0.730   1.655  1.0538  0.1500  1.3699
13831TIP3   OH241425   0.656   1.766   0.226  0.0232  0.0999  0.3690
13831TIP3    H141426   0.670   1.747   0.133  0.5313 -1.3094  0.7073
13831TIP3    H241427   0.609   1.849   0.227 -1.8739 -0.9171 -1.2228
13832TIP3   OH241428   2.240   1.253   2.044  0.2605  0.2665 -0.1026
13832TIP3    H141429   2.322   1.295   2.069  0.3523 -0.3349  0.6507
13832TIP3    H241430   2.185   1.260   2.123  0.1560 -0.7083 -0.0846
13833TIP3   OH241431   7.110   6.988   0.041 -0.4458  0.6376  0.0863
13833TIP3    H141432   7.150   7.053  -0.017  1.5329  0.1160  0.8433
13833TIP3    H241433   7.113   7.028   0.128 -0.4028  0.0570  0.3515
13834TIP3   OH241434   1.278   0.869   3.272  0.1413  0.2591  0.5450
13834TIP3    H141435   1.204   0.930   3.271  0.3470  0.5286 -1.3374
13834TIP3    H241436   1.338   0.904   3.206 -0.6609 -3.0465 -2.1395
13835TIP3   OH241437   8.180   0.239   2.596 -0.1381  0.0932 -0.4742
13835TIP3    H141438   8.106   0.180   2.613 -0.2334 -0.1037 -1.5153
13835TIP3    H241439   8.232   0.236   2.676 -0.5758 -0.7733 -0.2133
13836TIP3   OH241440   2.452   3.157   6.860 -0.1397 -0.2730  0.8407
13836TIP3    H141441   2.458   3.147   6.766 -0.4725  1.5116  0.6136
13836TIP3    H241442   2.395   3.085   6.888  0.8989 -1.5137 -0.1458
13837TIP3   OH241443   3.516   7.934   2.028  0.4255  0.1930 -0.4945
13837TIP3    H141444   3.499   7.951   1.936  0.3950  2.0627 -0.1532
13837TIP3    H241445   3.445   7.977   2.075  0.6700 -0.3885  0.4267
13838TIP3   OH241446   5.774   6.880   1.164 -0.4718 -0.2213 -0.4834
13838TIP3    H141447   5.785   6.975   1.163  2.5735 -0.5233  0.1639
13838TIP3    H241448   5.753   6.860   1.255  0.6485 -0.3208 -0.2382
13839TIP3   OH241449   1.758   0.076   0.476 -0.1341 -0.1867 -0.2880
13839TIP3    H141450   1.797  -0.008   0.502  0.2502  0.0221 -0.1814
13839TIP3    H241451   1.664   0.059   0.473  0.0530 -1.0904 -1.9600
13840TIP3   OH241452   2.325   2.133   6.371  0.0130  0.2125  0.2510
13840TIP3    H141453   2.254   2.195   6.352  0.0049  0.9073  2.4862
13840TIP3    H241454   2.364   2.164   6.452  2.0979 -0.8884 -0.2876
13841TIP3   OH241455   7.488   1.549   0.162  0.4980 -0.0693  0.0931
13841TIP3    H141456   7.495   1.536   0.257 -0.5096  0.5995  0.2732
13841TIP3    H241457   7.395   1.535   0.143  1.0290 -2.1781 -1.1257
13842TIP3   OH241458   8.337   2.398   0.410  0.1513 -0.4306  0.0235
13842TIP3    H141459   8.255   2.423   0.453  0.9211 -2.4494  2.7632
13842TIP3    H241460   8.312   2.382   0.319 -2.4119 -0.5393  0.7065
13843TIP3   OH241461   2.085   1.526   3.059  0.3254 -0.7732  0.3850
13843TIP3    H141462   2.113   1.435   3.070  0.9871 -0.4719  1.2172
13843TIP3    H241463   2.156   1.578   3.095 -1.6000 -0.0160  3.2829
13844TIP3   OH241464   0.838   0.924   0.287  0.4215 -0.8940  0.2648
13844TIP3    H141465   0.805   0.931   0.197 -2.5867 -2.0133  1.2146
13844TIP3    H241466   0.807   1.003   0.330 -2.0313 -2.4142  1.4261
13845TIP3   OH241467   4.010   4.880   6.821  0.0029  0.5006  0.6827
13845TIP3    H141468   3.928   4.907   6.780 -0.5270 -0.8082  0.8352
13845TIP3    H241469   3.992   4.886   6.915  0.0204  0.0562  0.7158
13846TIP3   OH241470   0.572   3.529   1.866  0.1022  0.0999  0.9301
13846TIP3    H141471   0.557   3.442   1.828 -0.0982  0.2475  0.6736
13846TIP3    H241472   0.628   3.573   1.802  1.0677 -0.2069  1.5566
13847TIP3   OH241473   1.299   1.063   2.393 -0.0415 -0.2831  0.4100
13847TIP3    H141474   1.267   1.110   2.316  0.6406  0.6563  0.6915
13847TIP3    H241475   1.389   1.094   2.405 -0.1290 -0.4451  1.5594
13848TIP3   OH241476   8.227   0.014   0.265  0.1205 -0.3906 -0.0286
13848TIP3    H141477   8.228   0.022   0.360 -1.2646 -0.0978 -0.0181
13848TIP3    H241478   8.145   0.056   0.239  0.7597  0.0208 -1.3985
13849TIP3   OH241479   5.480   5.666   5.763  0.0449  0.1264 -0.6308
13849TIP3    H141480   5.476   5.694   5.854  0.2206 -0.7472 -0.3486
13849TIP3    H241481   5.402   5.611   5.751 -0.7246  1.3549 -1.3982
13850TIP3   OH241482  -0.006   2.282   2.142  0.1145  0.1740 -0.2513
13850TIP3    H141483  -0.035   2.229   2.067 -1.5905  0.1424  0.3857
13850TIP3    H241484   0.042   2.355   2.103  0.8130 -0.8081 -1.2668
13851TIP3   OH241485   2.480   0.358   2.105  0.2718 -0.1407  0.0252
13851TIP3    H141486   2.520   0.370   2.019  0.5897 -1.1813  0.0188
13851TIP3    H241487   2.549   0.380   2.167  0.3123 -0.2328  0.0131
13852TIP3   OH241488   0.223   0.691   1.301 -0.0019  0.1301 -0.0647
13852TIP3    H141489   0.198   0.720   1.213 -0.8540 -0.3530  0.0143
13852TIP3    H241490   0.254   0.771   1.344 -0.3693  0.5299 -0.5282
13853TIP3   OH241491   0.735   1.387   2.125  0.3499 -0.4320 -0.8141
13853TIP3    H141492   0.736   1.480   2.146 -1.1232 -0.6590  0.3818
13853TIP3    H241493   0.821   1.355   2.150  1.6666  1.0213 -3.3115
13854TIP3   OH241494   7.277   7.974   3.469  0.0622  0.1730  0.1563
13854TIP3    H141495   7.319   8.018   3.396 -1.0242  1.9054  0.5457
13854TIP3    H241496   7.349   7.944   3.525  0.8148  3.8041  1.2387
13855TIP3   OH241497   0.993   0.145   2.195 -0.0279  0.7946 -0.2684
13855TIP3    H141498   1.011   0.081   2.264 -0.1897  1.6965  0.6404
13855TIP3    H241499   0.939   0.211   2.239 -1.1824  0.7466 -1.5991
13856TIP3   OH241500   3.724   3.826   6.834 -0.2796 -0.0523 -0.4465
13856TIP3    H141501   3.735   3.774   6.914 -0.6626  0.9142  0.2501
13856TIP3    H241502   3.671   3.771   6.777  0.0410 -0.7783 -0.0609
13857TIP3   OH241503   2.523   1.724   2.978  0.1084  0.4212 -0.1867
13857TIP3    H141504   2.598   1.696   2.925 -1.7565  0.3101 -2.8645
13857TIP3    H241505   2.456   1.657   2.962 -0.5241  0.4287  2.3028
13858TIP3   OH241506   2.711   2.781   5.139  0.1807 -0.0691  0.3112
13858TIP3    H141507   2.742   2.774   5.230 -1.4307  0.7951  0.9509
13858TIP3    H241508   2.647   2.711   5.130 -0.6851  0.7231  0.2789
13859TIP3   OH241509   8.290   0.155   2.107 -0.2264 -0.0782  0.7713
13859TIP3    H141510   8.354   0.094   2.142  1.4262  0.8230 -0.6297
13859TIP3    H241511   8.254   0.199   2.184  0.7221 -0.6967  1.5726
13860TIP3   OH241512   3.591   4.930   5.907 -0.0900  0.6631 -0.1527
13860TIP3    H141513   3.672   4.881   5.890 -0.6066 -0.7932  1.4781
13860TIP3    H241514   3.621   5.018   5.929  1.0385  0.2311  0.0891
13861TIP3   OH241515   0.886   0.171   2.851  0.1425  0.2187 -0.3017
13861TIP3    H141516   0.910   0.194   2.762 -1.0549  3.5305  0.1757
13861TIP3    H241517   0.952   0.214   2.906 -0.2660 -0.1608  0.4966
13862TIP3   OH241518   0.557   0.731   1.073  0.0371  0.4431  0.4844
13862TIP3    H141519   0.550   0.647   1.119  0.6159 -0.8589 -1.7230
13862TIP3    H241520   0.512   0.794   1.130  1.2571 -0.9832  3.0703
13863TIP3   OH241521   0.186   0.477   1.970  0.2775 -0.6198  0.5294
13863TIP3    H141522   0.267   0.477   1.920 -0.0470  0.5843 -0.0094
13863TIP3    H241523   0.144   0.394   1.947 -0.0777  0.1139 -1.5481
13864TIP3   OH241524   1.516   2.959   1.927 -0.6423  0.5274  0.1315
13864TIP3    H141525   1.549   2.887   1.873 -0.2093  0.7281  0.1236
13864TIP3    H241526   1.422   2.944   1.932 -0.6693  0.4471 -0.5872
13865TIP3   OH241527   2.936   3.281   1.855 -0.7328  0.2539  0.2825
13865TIP3    H141528   2.936   3.187   1.874 -1.1482  0.5732  1.9526
13865TIP3    H241529   2.860   3.294   1.799 -0.5168 -0.4435 -0.1879
13866TIP3   OH241530   2.456   4.523   6.353  0.0811  0.2464 -0.3775
13866TIP3    H141531   2.413   4.553   6.273  1.4818 -0.7113 -1.4988
13866TIP3    H241532   2.511   4.596   6.380 -2.8206  1.8193  1.5430
13867TIP3   OH241533   8.303   1.371   1.972  1.1158  0.3750 -0.0050
13867TIP3    H141534   8.327   1.279   1.967 -0.7124 -0.1325  0.0239
13867TIP3    H241535   8.318   1.395   2.063 -1.6518 -0.8884  0.8546
13868TIP3   OH241536   0.752   1.181   1.961 -0.2354 -0.2733 -0.4630
13868TIP3    H141537   0.721   1.265   1.995 -1.1628 -0.7146 -0.1852
13868TIP3    H241538   0.698   1.165   1.884  1.0829  0.1741 -1.4886
13869TIP3   OH241539   7.466   3.172   0.684 -0.4158  0.1462  0.1187
13869TIP3    H141540   7.521   3.130   0.618 -0.8288 -0.6070  0.2498
13869TIP3    H241541   7.467   3.265   0.661  0.5940  0.0819 -0.1059
13870TIP3   OH241542   7.435   1.819   2.282  0.1947 -0.9419 -0.1958
13870TIP3    H141543   7.376   1.814   2.207  0.7342 -0.5084 -0.6466
13870TIP3    H241544   7.449   1.912   2.297  0.6240 -1.0358  0.0191
13871TIP3   OH241545   1.955   2.900   6.513  0.1384  0.3801  0.4672
13871TIP3    H141546   1.940   2.984   6.556  0.3672  0.3821  0.5425
13871TIP3    H241547   1.868   2.860   6.509 -0.1812  1.1520 -0.6845
13872TIP3   OH241548   2.880   4.330   6.914  0.2124 -0.2886 -0.2686
13872TIP3    H141549   2.812   4.386   6.875 -0.1322 -0.1639  0.5098
13872TIP3    H241550   2.856   4.324   7.006  1.0787 -0.5211 -0.0582
13873TIP3   OH241551   6.164   7.777   0.501  0.0374 -0.6242 -0.4877
13873TIP3    H141552   6.257   7.786   0.522 -0.0131  0.9950 -0.9548
13873TIP3    H241553   6.143   7.687   0.528  1.5807 -0.8057  0.1861
13874TIP3   OH241554   1.359   1.648   0.381 -0.4778  0.3643  0.0967
13874TIP3    H141555   1.359   1.567   0.431  3.4904  0.5554  0.6188
13874TIP3    H241556   1.410   1.709   0.435 -1.2125  2.4224 -1.4660
13875TIP3   OH241557   4.116   7.478   1.670 -0.2425  0.1419  0.2322
13875TIP3    H141558   4.211   7.489   1.668 -0.3965  1.5423 -1.4855
13875TIP3    H241559   4.095   7.439   1.585 -1.4508  2.4760 -0.5849
13876TIP3   OH241560   7.623   1.741   1.335  0.2273 -0.2050 -0.2861
13876TIP3    H141561   7.664   1.665   1.294  0.6134 -0.5755  0.7794
13876TIP3    H241562   7.628   1.724   1.429  0.9058  1.4340 -0.0108
13877TIP3   OH241563   7.876   2.244   3.117 -0.0835 -0.3857 -0.1188
13877TIP3    H141564   7.968   2.216   3.110 -0.3557 -1.2430 -0.3260
13877TIP3    H241565   7.867   2.270   3.209  0.4990  0.1760 -0.2158
13878TIP3   OH241566   8.287   0.120   1.105  1.0505 -0.3537 -0.4275
13878TIP3    H141567   8.217   0.083   1.052 -0.6850  0.0722  1.4636
13878TIP3    H241568   8.318   0.046   1.158  0.8216 -0.1768 -0.0386
13879TIP3   OH241569   0.922   1.137   2.165  0.1843  0.5251  0.6232
13879TIP3    H141570   0.865   1.127   2.089  0.4567 -0.6056  0.5675
13879TIP3    H241571   0.861   1.137   2.240  0.0860 -0.3963  0.5448
13880TIP3   OH241572   5.088   7.952   0.765 -0.1241  0.2602 -0.4588
13880TIP3    H141573   5.104   7.882   0.702 -1.1588 -0.6916  0.3010
13880TIP3    H241574   5.025   8.010   0.721  1.6820  1.4146 -1.5752
13881TIP3   OH241575   6.244   7.760   1.514  1.1640  0.1118  0.1232
13881TIP3    H141576   6.231   7.751   1.608 -2.6163  0.6511 -0.2658
13881TIP3    H241577   6.240   7.670   1.480 -2.4148  0.2833 -0.0224
13882TIP3   OH241578   0.048   0.270   3.226 -0.6683 -0.0728  0.3761
13882TIP3    H141579   0.137   0.248   3.252 -0.9112 -1.7907 -0.1790
13882TIP3    H241580   0.023   0.201   3.165 -0.7842  2.7760 -3.0036
13883TIP3   OH241581   2.052   0.358   1.177  0.0161 -0.1593  0.0546
13883TIP3    H141582   2.127   0.355   1.236  1.1205  0.0679 -1.3157
13883TIP3    H241583   2.088   0.337   1.091 -1.0888  1.9490 -0.9819
13884TIP3   OH241584   5.814   5.165   1.602  0.0335  0.8633 -0.5300
13884TIP3    H141585   5.759   5.201   1.671 -0.9305 -1.8012  0.1535
13884TIP3    H241586   5.793   5.072   1.601  3.0951  0.1298 -1.5922
13885TIP3   OH241587   5.406   7.455   2.838  0.0332 -0.0676  0.3052
13885TIP3    H141588   5.477   7.422   2.893 -0.3794  0.7941  1.3919
13885TIP3    H241589   5.445   7.528   2.789 -0.1066  0.4571  0.9611
13886TIP3   OH241590   8.452   1.002   2.710  0.3467 -0.4022  0.0316
13886TIP3    H141591   8.380   0.969   2.656 -0.2145 -0.7240  0.9605
13886TIP3    H241592   8.418   1.085   2.746  0.7811 -0.1034 -0.2385
13887TIP3   OH241593   0.631   0.713   0.372  0.0576  0.4090 -0.2214
13887TIP3    H141594   0.670   0.650   0.433  0.7229  0.4164 -0.6313
13887TIP3    H241595   0.706   0.757   0.332 -0.3885  0.8976 -0.5251
13888TIP3   OH241596   0.861   0.304   0.673 -0.1368  0.0996 -0.1100
13888TIP3    H141597   0.936   0.358   0.647  0.0126 -0.0185  0.0737
13888TIP3    H241598   0.785   0.353   0.643  0.0802 -0.8213 -2.2549
13889TIP3   OH241599   8.083   1.896   0.912 -0.3298 -0.0677  0.2282
13889TIP3    H141600   8.054   1.807   0.933  0.4766 -0.6749 -1.1751
13889TIP3    H241601   8.170   1.885   0.874  0.1149  1.4017  0.7626
13890TIP3   OH241602   7.904   0.254   1.361 -0.7040 -0.5362  0.3667
13890TIP3    H141603   7.958   0.175   1.369  0.8071  0.2173 -1.9440
13890TIP3    H241604   7.927   0.307   1.438  0.5958 -0.9509  0.2655
13891TIP3   OH241605   4.446   5.124   6.574 -0.4361  0.1407 -0.2427
13891TIP3    H141606   4.514   5.115   6.508  0.8616  2.7244  0.6535
13891TIP3    H241607   4.366   5.144   6.525  0.1870  0.4641 -1.1297
13892TIP3   OH241608   8.116   1.278   2.289 -0.6721 -0.1767 -0.2510
13892TIP3    H141609   8.193   1.221   2.301  0.2053  1.4861  2.4024
13892TIP3    H241610   8.150   1.352   2.238 -0.9501 -0.3033 -0.6180
13893TIP3   OH241611   2.537   1.172   1.464  0.1585  0.2527  0.7279
13893TIP3    H141612   2.589   1.092   1.469 -0.6239 -0.2941  0.0975
13893TIP3    H241613   2.529   1.190   1.371 -0.4836  0.5371  0.8357
13894TIP3   OH241614   8.430   1.611   1.646  0.3946 -0.0349  0.0683
13894TIP3    H141615   8.384   1.682   1.601 -1.2385 -1.7832 -1.1082
13894TIP3    H241616   8.448   1.645   1.733 -1.0583  1.5413 -0.2277
13895TIP3   OH241617   3.550   5.829   6.402  0.0464 -0.3942 -0.0394
13895TIP3    H141618   3.548   5.857   6.311 -1.6529  1.7050  0.5968
13895TIP3    H241619   3.535   5.909   6.452  1.4848 -1.4278  2.1141
13896TIP3   OH241620   1.350   3.485   1.951  0.8840 -0.1833  0.0016
13896TIP3    H141621   1.263   3.445   1.942  1.1355 -1.5868  3.0972
13896TIP3    H241622   1.408   3.411   1.968  2.5625  0.8399 -1.1467
13897TIP3   OH241623   1.401   0.557   3.048  0.1827  0.1362 -0.4097
13897TIP3    H141624   1.445   0.640   3.028  0.3626  0.2816  0.5681
13897TIP3    H241625   1.428   0.498   2.978 -0.2695  1.0219 -1.3416
13898TIP3   OH241626   0.520   1.718   1.302  0.4172  0.0254 -0.2518
13898TIP3    H141627   0.569   1.700   1.383  0.2509 -0.3839 -0.2404
13898TIP3    H241628   0.529   1.637   1.251  0.0725  0.0911 -0.4132
13899TIP3   OH241629   5.456   5.828   0.837  0.2080  0.2054 -0.2645
13899TIP3    H141630   5.520   5.761   0.814  0.5536  0.3292  0.3445
13899TIP3    H241631   5.375   5.780   0.856  0.7528 -0.1312  1.2683
13900TIP3   OH241632   1.960   2.207   3.048 -0.5137 -0.3611 -0.0951
13900TIP3    H141633   2.031   2.217   3.112 -1.4684  1.8219  0.6861
13900TIP3    H241634   1.973   2.280   2.987 -0.4369 -1.6200 -1.6325
13901TIP3   OH241635   3.180   6.620   6.643 -0.2516 -0.2963 -0.0809
13901TIP3    H141636   3.097   6.594   6.603 -0.1178 -0.7477 -0.0729
13901TIP3    H241637   3.224   6.537   6.663  0.9311 -0.0612 -1.6225
13902TIP3   OH241638   2.266   3.488   6.681 -0.0064 -0.1298 -0.0575
13902TIP3    H141639   2.192   3.523   6.632 -0.2332 -1.6215 -0.8104
13902TIP3    H241640   2.326   3.562   6.689 -0.5995  0.5170 -1.3372
13903TIP3   OH241641   7.243   7.876   1.669 -0.3308  0.3476 -0.4989
13903TIP3    H141642   7.272   7.966   1.654 -1.9424  0.9052 -0.4305
13903TIP3    H241643   7.200   7.851   1.587 -1.3356  0.2431  0.0518
13904TIP3   OH241644   1.674   1.106   0.455 -0.0945  0.2181  0.3719
13904TIP3    H141645   1.632   1.130   0.537  1.5338  0.8626  1.0289
13904TIP3    H241646   1.745   1.047   0.481  0.0992  0.0050 -0.6177
13905TIP3   OH241647   0.206   1.221   1.650  0.5832 -0.3216 -0.0874
13905TIP3    H141648   0.140   1.192   1.588  0.8448  0.7720 -0.8863
13905TIP3    H241649   0.227   1.142   1.701 -2.4644 -0.3438  1.2465
13906TIP3   OH241650   8.502   0.251   1.236 -0.3225 -0.1729 -0.1416
13906TIP3    H141651   8.515   0.180   1.299 -1.1649 -0.6347 -0.4673
13906TIP3    H241652   8.438   0.215   1.174 -0.1396  0.5846 -0.7669
13907TIP3   OH241653   1.158   2.309   0.640 -0.6306  0.1184 -0.1415
13907TIP3    H141654   1.217   2.235   0.630 -0.0254  0.4710  0.7056
13907TIP3    H241655   1.212   2.376   0.682 -1.1351  1.0858 -1.0215
13908TIP3   OH241656   1.209   0.828   1.442  0.2132  0.6917  0.2537
13908TIP3    H141657   1.267   0.897   1.412  1.1728 -0.3075 -0.2139
13908TIP3    H241658   1.264   0.773   1.498 -0.3055 -0.1877 -0.0940
13909TIP3   OH241659   6.698   5.722   2.750 -0.5783 -0.1681 -0.1299
13909TIP3    H141660   6.635   5.792   2.763  0.0386  0.5784 -1.1405
13909TIP3    H241661   6.781   5.758   2.783 -0.5714 -0.9845  0.7851
13910TIP3   OH241662   7.398   7.386   2.032 -0.9209 -0.1537 -0.1146
13910TIP3    H141663   7.460   7.327   1.989 -0.8892  0.4795 -0.9377
13910TIP3    H241664   7.448   7.464   2.054 -1.3871  0.2997 -0.6495
13911TIP3   OH241665   5.576   6.832   0.542  0.4913 -0.0077 -0.2423
13911TIP3    H141666   5.596   6.739   0.549 -1.8059 -0.5100 -0.1513
13911TIP3    H241667   5.595   6.867   0.630  3.6211  0.1190 -0.8957
13912TIP3   OH241668   5.987   7.966   1.326  0.1249  0.3532  0.1687
13912TIP3    H141669   5.997   7.979   1.232 -0.5288 -0.0417  0.0400
13912TIP3    H241670   5.986   7.871   1.338 -2.8927  0.3187  0.1849
13913TIP3   OH241671   1.786   1.870   2.144  1.1490 -0.6948 -0.0862
13913TIP3    H141672   1.742   1.841   2.224  1.2038  1.4175  0.7374
13913TIP3    H241673   1.795   1.791   2.091  0.4810 -1.9854  1.7036
13914TIP3   OH241674   5.525   7.849   2.011 -0.1482  0.0195  0.0295
13914TIP3    H141675   5.528   7.767   1.961 -4.0232  0.5841 -1.3071
13914TIP3    H241676   5.480   7.826   2.092  0.5233  0.4475  0.5299
13915TIP3   OH241677   0.927   3.463   1.098 -0.3052 -0.3463 -0.3489
13915TIP3    H141678   0.982   3.396   1.138 -0.6736 -1.5356 -1.7737
13915TIP3    H241679   0.838   3.442   1.129 -0.0918  1.0959  1.3172
13916TIP3   OH241680   7.187   1.137   1.792 -0.1471  0.3231  0.0042
13916TIP3    H141681   7.142   1.221   1.805 -0.8076  0.2027 -1.4297
13916TIP3    H241682   7.171   1.115   1.701 -0.5670 -1.7115  0.5433
13917TIP3   OH241683   6.781   7.663   1.011 -0.6093  0.1164 -1.1468
13917TIP3    H141684   6.822   7.746   0.989  0.2558 -0.2218 -0.8214
13917TIP3    H241685   6.728   7.641   0.934  1.7273 -0.6462 -2.5872
13918TIP3   OH241686   1.537   1.894   0.045  0.1157 -0.6886  0.7251
13918TIP3    H141687   1.467   1.957   0.060 -0.3812 -1.0656  0.0094
13918TIP3    H241688   1.593   1.935  -0.022  1.2732  0.1508  2.1615
13919TIP3   OH241689   0.564   5.989   6.881  0.3800 -0.0470  0.4332
13919TIP3    H141690   0.509   6.064   6.860  0.6239 -0.2044 -0.8084
13919TIP3    H241691   0.513   5.913   6.851  0.3174 -0.3404  1.2888
13920TIP3   OH241692   6.425   1.267   0.115 -0.1127  0.4740 -0.3261
13920TIP3    H141693   6.427   1.179   0.152  1.2268  0.7518  0.2878
13920TIP3    H241694   6.359   1.314   0.167  0.4210  0.3286  0.4826
13921TIP3   OH241695   0.854   2.080   1.615  0.2568 -0.6216  0.0637
13921TIP3    H141696   0.859   1.993   1.656  2.5493  0.2950  1.8452
13921TIP3    H241697   0.766   2.110   1.635  0.8606 -0.7641  3.2872
13922TIP3   OH241698   8.263   1.865   2.066 -0.0789 -0.4516  0.1072
13922TIP3    H141699   8.235   1.917   2.141  1.2585  0.4798 -0.0178
13922TIP3    H241700   8.254   1.924   1.991 -1.0231 -1.2461 -0.4136
13923TIP3   OH241701   8.328   0.736   1.130 -0.0615  0.3043 -0.0010
13923TIP3    H141702   8.349   0.712   1.220 -2.3085  0.3377  0.5674
13923TIP3    H241703   8.281   0.819   1.138  0.0464  0.4972 -1.2428
13924TIP3   OH241704   0.835   1.191   0.956 -0.0522 -0.0644 -0.4338
13924TIP3    H141705   0.856   1.103   0.925  1.2851 -0.0771  0.4615
13924TIP3    H241706   0.878   1.197   1.041 -1.6151  0.8348  0.3094
13925TIP3   OH241707   3.439   5.635   6.701 -0.4053 -0.1939  1.0158
13925TIP3    H141708   3.427   5.544   6.730 -0.5345 -0.9444 -1.2562
13925TIP3    H241709   3.512   5.630   6.639 -2.2588  0.7115 -1.3393
13926TIP3   OH241710   7.674   0.804   2.261 -0.2725 -0.7072 -0.1024
13926TIP3    H141711   7.622   0.881   2.236  0.6845  0.4741  1.5139
13926TIP3    H241712   7.609   0.733   2.266 -1.4873  0.4212  0.4167
13927TIP3   OH241713   7.728   1.025   0.118  0.5118 -0.8469 -0.1032
13927TIP3    H141714   7.685   1.082   0.054  2.4470  0.5618 -0.1964
13927TIP3    H241715   7.734   1.079   0.197 -0.1141 -1.9043  0.6827
13928TIP3   OH241716   8.232   1.676   2.836  0.1398 -0.1662  0.0201
13928TIP3    H141717   8.303   1.740   2.827 -1.4611  1.9648  2.0668
13928TIP3    H241718   8.277   1.591   2.841  2.5774  1.1479  1.4115
13929TIP3   OH241719   2.180   0.471   1.598  0.0373  0.1330  0.0543
13929TIP3    H141720   2.185   0.394   1.655 -0.2413  0.8063  1.0146
13929TIP3    H241721   2.231   0.538   1.644  1.9218 -0.0414 -1.7195
13930TIP3   OH241722   1.773   1.036   1.483  0.2024  0.2742 -0.4563
13930TIP3    H141723   1.746   0.945   1.495  3.9712 -0.8554  0.2127
13930TIP3    H241724   1.783   1.047   1.389  1.2252 -0.5123 -0.4492
13931TIP3   OH241725   7.017   2.022   0.924 -0.6143 -0.0083 -0.5080
13931TIP3    H141726   7.052   2.093   0.978 -1.0883  0.6258 -1.0391
13931TIP3    H241727   7.049   2.041   0.836 -1.4332  0.0010 -0.8030
13932TIP3   OH241728   8.031   3.069   3.297 -0.2345  0.5203  0.0993
13932TIP3    H141729   7.952   3.016   3.307  0.0464  0.4872  2.3309
13932TIP3    H241730   8.095   3.029   3.355  0.6934  1.9398  0.0821
13933TIP3   OH241731   2.170   0.013   1.821  0.0622 -0.2974 -0.1750
13933TIP3    H141732   2.206   0.040   1.905 -2.2590  0.6186  0.5806
13933TIP3    H241733   2.242   0.022   1.759  1.4248  0.2967  1.4837
13934TIP3   OH241734   7.109   0.618   1.076 -0.4542 -0.2457 -0.4856
13934TIP3    H141735   7.044   0.566   1.122 -1.6963  0.8221 -1.0104
13934TIP3    H241736   7.170   0.554   1.039 -1.5186 -1.2793 -0.4665
13935TIP3   OH241737   3.271   0.583   0.161 -0.1687 -0.2636 -0.4043
13935TIP3    H141738   3.282   0.489   0.171  0.0052 -0.2195 -0.1420
13935TIP3    H241739   3.358   0.619   0.180 -0.6129  0.0621  1.1332
13936TIP3   OH241740   7.906   0.330   0.523  0.4625  0.4662 -0.3831
13936TIP3    H141741   7.856   0.332   0.605 -0.7981  1.4779 -1.1463
13936TIP3    H241742   7.997   0.322   0.550  0.2569  3.1313  1.2134
13937TIP3   OH241743   1.009   4.477   0.639 -0.0322  0.5297  0.3079
13937TIP3    H141744   1.018   4.572   0.632  0.0082  0.7254  2.7478
13937TIP3    H241745   1.097   4.446   0.659 -0.1105 -0.0005 -0.1579
13938TIP3   OH241746   7.853   1.475   1.505  0.8202  0.5917  0.2932
13938TIP3    H141747   7.854   1.504   1.596 -0.1118  1.7356 -0.0580
13938TIP3    H241748   7.934   1.510   1.468  1.5771 -0.5103  0.8623
13939TIP3   OH241749   3.881   3.864   6.281  0.1765  1.0896 -0.3504
13939TIP3    H141750   3.937   3.871   6.204 -0.7806 -0.9351 -1.2675
13939TIP3    H241751   3.868   3.770   6.294 -3.3544  1.4623 -0.4859
13940TIP3   OH241752   6.036   6.849   2.030  0.3718  0.2699  0.1245
13940TIP3    H141753   5.948   6.884   2.045  0.2692  0.2888 -0.4933
13940TIP3    H241754   6.086   6.924   1.997  0.1775 -0.1283 -1.1141
13941TIP3   OH241755   7.498   1.959   1.165 -0.4764  0.3678  0.2246
13941TIP3    H141756   7.500   2.018   1.241 -1.2552  3.1438 -1.8038
13941TIP3    H241757   7.528   1.875   1.199 -0.4598  1.6140  3.5196
13942TIP3   OH241758   3.911   4.259   6.842  0.7281  0.5879 -0.0452
13942TIP3    H141759   3.860   4.318   6.786  1.1945  1.2948  0.2660
13942TIP3    H241760   3.989   4.309   6.865  0.7029  0.1860  0.9697
13943TIP3   OH241761   6.559   7.233   1.064 -0.1439 -0.2480 -0.3928
13943TIP3    H141762   6.503   7.158   1.045 -0.5691 -0.4354  1.4625
13943TIP3    H241763   6.542   7.252   1.157  1.9425  0.4550 -0.1376
13944TIP3   OH241764   0.059   0.200   2.706  0.1664  0.3302  0.6026
13944TIP3    H141765   0.044   0.248   2.625 -1.3018 -3.1173 -1.2400
13944TIP3    H241766   0.016   0.253   2.774 -2.0618  1.2247 -1.4613
13945TIP3   OH241767   7.232   7.637   1.308 -0.4684 -0.8238 -0.0265
13945TIP3    H141768   7.301   7.687   1.263  0.3280 -1.3294  0.6229
13945TIP3    H241769   7.201   7.574   1.243 -2.9639  1.8617 -1.5814
13946TIP3   OH241770   6.649   3.014   1.962 -0.2244 -0.3150  0.6050
13946TIP3    H141771   6.745   3.016   1.961 -0.2436  1.5538  0.3419
13946TIP3    H241772   6.625   3.080   2.026 -1.3420 -2.0657  2.0261
13947TIP3   OH241773   7.739   1.453   4.310 -0.1806 -0.2348  0.9672
13947TIP3    H141774   7.732   1.538   4.265 -1.0536 -1.4248 -1.2128
13947TIP3    H241775   7.676   1.459   4.382 -1.3103  0.4294 -0.0611
13948TIP3   OH241776   8.178   2.095   2.754 -0.0445  0.0419 -0.0415
13948TIP3    H141777   8.206   2.150   2.827 -0.2923 -0.1645  0.2094
13948TIP3    H241778   8.159   2.010   2.793 -1.0953  0.1948 -0.1805
13949TIP3   OH241779   8.329   3.862   2.091  0.1491  0.6000 -0.6924
13949TIP3    H141780   8.337   3.957   2.083 -0.1849  0.8195  1.3363
13949TIP3    H241781   8.235   3.845   2.080 -0.0348  0.6994  0.6360
13950TIP3   OH241782   0.271   1.230   1.030 -0.4040  0.0294 -0.7595
13950TIP3    H141783   0.356   1.186   1.028  0.8677  2.1967  1.9994
13950TIP3    H241784   0.292   1.323   1.022 -2.5826  0.5399 -0.8911
13951TIP3   OH241785   0.689   3.482   2.869  0.8859 -0.1438 -0.4890
13951TIP3    H141786   0.655   3.519   2.951  0.9817  0.1273 -0.5711
13951TIP3    H241787   0.743   3.408   2.897  1.2057  0.1636 -0.2793
13952TIP3   OH241788   0.313   2.067   1.097  0.4557  0.4314 -0.1098
13952TIP3    H141789   0.375   2.103   1.034  0.5957 -0.0513 -0.2512
13952TIP3    H241790   0.366   2.015   1.157 -0.0932 -2.3174 -1.8889
13953TIP3   OH241791   1.506   1.785   3.076  0.0920 -0.1884  0.0469
13953TIP3    H141792   1.524   1.806   3.167 -3.0923  0.4518  0.5965
13953TIP3    H241793   1.448   1.856   3.047 -0.4226 -1.3832 -1.9174
13954TIP3   OH241794   0.118   1.479   0.842 -0.0229  0.1801 -0.1120
13954TIP3    H141795   0.157   1.539   0.906 -0.8285  1.6856 -1.0250
13954TIP3    H241796   0.152   1.508   0.758 -0.3190 -0.7311 -0.5488
13955TIP3   OH241797   1.119   0.178   0.233  0.4327  0.0379  0.1131
13955TIP3    H141798   1.129   0.108   0.297 -3.1955 -0.1657  0.5399
13955TIP3    H241799   1.105   0.133   0.150  1.7879  0.2924 -0.2634
13956TIP3   OH241800   5.590   6.860   1.583 -0.0278  0.2173  0.2838
13956TIP3    H141801   5.515   6.862   1.643 -2.2400 -0.2188 -2.3945
13956TIP3    H241802   5.588   6.945   1.539  0.4017 -0.1903 -0.5393
13957TIP3   OH241803   7.119   7.883   4.513  0.4058 -0.0551  0.0287
13957TIP3    H141804   7.045   7.842   4.556 -1.7407  0.6229 -2.8274
13957TIP3    H241805   7.172   7.810   4.481 -1.0650 -0.6182 -1.1849
13958TIP3   OH241806   6.878   0.687   0.022 -0.1123  0.1864 -0.1908
13958TIP3    H141807   6.867   0.740  -0.057  0.6123  1.3351  0.4691
13958TIP3    H241808   6.800   0.707   0.074 -0.7104 -0.7560 -0.7088
13959TIP3   OH241809   4.403   7.689   1.356 -0.6456  0.3754  0.2247
13959TIP3    H141810   4.398   7.784   1.343  0.6607  0.2706 -1.3015
13959TIP3    H241811   4.315   7.663   1.381 -1.3491  1.8272 -0.6667
13960TIP3   OH241812   6.102   1.919   2.256 -0.1654  0.3630 -0.3723
13960TIP3    H141813   6.057   1.954   2.333 -1.1885 -1.6690 -0.0342
13960TIP3    H241814   6.042   1.854   2.219  1.4706 -0.6651 -1.3081
13961TIP3   OH241815   6.345   7.145   1.303 -0.0045 -0.5120  0.3466
13961TIP3    H141816   6.363   7.070   1.246 -2.1318 -2.7520  2.5015
13961TIP3    H241817   6.420   7.147   1.363  0.5586 -0.2673 -0.3569
13962TIP3   OH241818   0.057   1.723   0.674  0.1874  0.2898 -0.0297
13962TIP3    H141819   0.140   1.676   0.662 -0.1283 -0.2692 -0.0000
13962TIP3    H241820   0.080   1.815   0.660  0.8129  0.1344 -0.0348
13963TIP3   OH241821   5.065   7.470   0.578 -0.0813 -0.8539 -0.3119
13963TIP3    H141822   5.104   7.464   0.491 -0.2510  0.1206 -0.4659
13963TIP3    H241823   5.109   7.402   0.629  1.5182 -0.0732 -0.6025
13964TIP3   OH241824   3.193   7.239   0.784  0.4510  0.2857 -0.7993
13964TIP3    H141825   3.166   7.277   0.700  0.9705  0.2405 -0.9889
13964TIP3    H241826   3.288   7.239   0.781  0.4659 -1.3735 -0.9542
13965TIP3   OH241827   2.939   6.547   6.508  0.1230  0.1927  0.3235
13965TIP3    H141828   2.920   6.473   6.567  0.8075  0.4930  0.9381
13965TIP3    H241829   2.886   6.619   6.542  0.4540  0.3425  0.5322
13966TIP3   OH241830   0.459   1.964   2.679 -0.2199  0.2823  0.2949
13966TIP3    H141831   0.493   1.911   2.752 -0.4885  1.1015  1.0177
13966TIP3    H241832   0.522   1.950   2.608 -0.4907 -1.3106  0.3509
13967TIP3   OH241833  -0.010   2.480   0.783  0.3009 -0.3637  0.3392
13967TIP3    H141834   0.018   2.554   0.729 -0.6193 -0.8613 -0.8509
13967TIP3    H241835   0.066   2.460   0.837  0.7982  1.0002  0.1814
13968TIP3   OH241836   0.755   2.308   3.011 -0.3267  0.1822  0.1940
13968TIP3    H141837   0.709   2.228   2.985 -1.2766  0.8489 -0.1848
13968TIP3    H241838   0.831   2.277   3.061 -0.8889 -0.9420  0.3542
13969TIP3   OH241839   2.465   0.422   0.613  0.2551  0.1022  0.3055
13969TIP3    H141840   2.413   0.482   0.559 -0.4616 -0.4060  0.4341
13969TIP3    H241841   2.534   0.478   0.649 -0.8860  1.0492  1.0936
13970TIP3   OH241842   6.809   6.600   1.072 -0.3535 -0.3429 -0.6765
13970TIP3    H141843   6.854   6.663   1.016  1.9282  0.9247  2.5015
13970TIP3    H241844   6.859   6.519   1.062  0.5098  0.0896  0.0986
13971TIP3   OH241845   4.120   0.101   2.094  0.4468 -0.1254  0.0143
13971TIP3    H141846   4.098   0.011   2.071  0.3115  0.3148 -1.6876
13971TIP3    H241847   4.064   0.123   2.168  1.7547 -2.0176  1.6194
13972TIP3   OH241848   0.589   6.783   0.891  0.8511  0.7529  0.2933
13972TIP3    H141849   0.633   6.794   0.807 -0.0188 -0.0480 -0.2730
13972TIP3    H241850   0.660   6.776   0.954  1.5413 -0.7083 -0.6307
13973TIP3   OH241851   0.434   1.656   0.375 -0.2781 -0.0389 -0.5509
13973TIP3    H141852   0.509   1.679   0.320  0.2077 -0.2555  0.0254
13973TIP3    H241853   0.431   1.561   0.373 -2.1162  0.0025 -2.6987
13974TIP3   OH241854   3.616   3.772   6.486 -0.0821 -0.0015 -0.0673
13974TIP3    H141855   3.682   3.823   6.534 -0.2665 -0.7175  0.9692
13974TIP3    H241856   3.598   3.824   6.408  0.9504  0.7133  0.1512
13975TIP3   OH241857   1.426  -0.027   0.093 -0.0412 -0.0093 -0.0543
13975TIP3    H141858   1.419   0.016   0.178 -0.0528  0.1287 -0.1251
13975TIP3    H241859   1.477   0.033   0.039 -0.1552 -0.0302 -0.1874
13976TIP3   OH241860   3.071   0.089   0.835  0.3687  0.1646 -0.5107
13976TIP3    H141861   3.095   0.152   0.767 -0.5372  1.9391  0.7958
13976TIP3    H241862   2.976   0.093   0.841  0.3217 -1.0526 -0.1372
13977TIP3   OH241863   2.693   3.116   0.231  0.0495  0.2411 -0.5342
13977TIP3    H141864   2.598   3.110   0.247  0.2669  0.7603  1.0322
13977TIP3    H241865   2.730   3.044   0.282  0.6297  0.9492  0.0425
13978TIP3   OH241866   7.316   7.407   2.599  0.6645  0.3387  0.2980
13978TIP3    H141867   7.290   7.323   2.637 -0.5533  0.5320 -0.1154
13978TIP3    H241868   7.379   7.443   2.662 -0.1204 -0.0870  1.3248
13979TIP3   OH241869   2.587   0.147   2.626 -0.1654 -0.3766 -0.2468
13979TIP3    H141870   2.683   0.147   2.624 -0.1646  1.7518 -2.4535
13979TIP3    H241871   2.561   0.098   2.547 -0.9171 -0.7738  0.2327
13980TIP3   OH241872   2.478   1.761   1.721 -0.0393 -0.1948  0.6690
13980TIP3    H141873   2.546   1.736   1.658 -0.4682 -1.0750  0.5356
13980TIP3    H241874   2.396   1.734   1.680 -0.6904  2.8249 -0.1309
13981TIP3   OH241875   1.361   6.664   1.563 -0.3175  0.2209  0.0341
13981TIP3    H141876   1.392   6.661   1.473 -0.7313  0.8493 -0.1309
13981TIP3    H241877   1.326   6.576   1.579  0.2956 -0.0690 -0.2202
13982TIP3   OH241878   6.504   6.919   0.800 -0.1868 -0.8057 -0.1108
13982TIP3    H141879   6.589   6.908   0.757  0.2073  3.7242 -0.7702
13982TIP3    H241880   6.441   6.923   0.728 -0.4105 -0.1324  0.1189
13983TIP3   OH241881   4.540   5.769   6.592 -0.4788  0.3110  0.0013
13983TIP3    H141882   4.467   5.800   6.539  0.4882 -0.1045 -1.6226
13983TIP3    H241883   4.501   5.711   6.657 -1.4013 -1.3647 -2.0030
13984TIP3   OH241884   3.660   1.581   2.102 -0.1468  0.3022 -0.2130
13984TIP3    H141885   3.576   1.625   2.110 -0.0958  0.3153  0.2571
13984TIP3    H241886   3.725   1.648   2.124  0.1762  1.1695 -3.5489
13985TIP3   OH241887   3.501   0.949   2.529 -0.2268 -0.3141  0.4645
13985TIP3    H141888   3.415   0.987   2.546 -1.4640 -2.6598 -0.3783
13985TIP3    H241889   3.539   1.006   2.462 -3.8995 -2.8826 -4.1449
13986TIP3   OH241890   3.746   2.520   0.035  0.5195 -0.1735  0.2335
13986TIP3    H141891   3.799   2.589  -0.004  1.1201 -1.0605 -0.5378
13986TIP3    H241892   3.668   2.565   0.066  1.7088  1.1455  1.3772
13987TIP3   OH241893   7.247   7.409   1.822 -0.5676  0.4962  0.1513
13987TIP3    H141894   7.312   7.365   1.767 -1.4571 -0.2493 -0.3141
13987TIP3    H241895   7.291   7.419   1.907  0.5428  0.9758 -0.4682
13988TIP3   OH241896   2.291   0.100   2.049  0.2814  0.0886 -0.5155
13988TIP3    H141897   2.307   0.064   2.136  1.5577 -0.2380 -0.8745
13988TIP3    H241898   2.221   0.164   2.062 -1.3331 -1.8040  0.3021
13989TIP3   OH241899   3.931   0.672   3.074  0.8309 -0.4127 -0.4306
13989TIP3    H141900   3.928   0.635   2.986  0.7991  0.1828 -0.6799
13989TIP3    H241901   4.013   0.639   3.111  2.3498  1.7751 -1.7698
13990TIP3   OH241902   1.615   0.924   2.327 -0.3428 -0.5419 -0.6376
13990TIP3    H141903   1.645   1.003   2.284  1.3753 -1.3487 -0.9488
13990TIP3    H241904   1.601   0.861   2.256 -2.5302 -0.2798 -0.4766
13991TIP3   OH241905   4.672   5.478   6.399 -0.3707 -0.2732 -0.6153
13991TIP3    H141906   4.758   5.457   6.363  0.2697  2.6801 -0.9342
13991TIP3    H241907   4.685   5.474   6.494 -0.4005 -1.7272 -0.6617
13992TIP3   OH241908   1.653   1.094   2.116 -0.6070 -0.4009 -0.2752
13992TIP3    H141909   1.723   1.141   2.070 -0.0528 -1.3408 -0.4007
13992TIP3    H241910   1.575   1.147   2.101  0.1579  0.9179  0.2498
13993TIP3   OH241911   0.694   4.849   2.971 -0.2380 -0.5675 -0.2432
13993TIP3    H141912   0.774   4.895   2.946  0.8064 -1.5121  1.3312
13993TIP3    H241913   0.650   4.908   3.032 -1.1155  0.2569 -1.6386
13994TIP3   OH241914   6.643   7.359   2.246  0.1357  0.1502  0.5319
13994TIP3    H141915   6.642   7.280   2.193 -0.4043 -0.1827  1.0243
13994TIP3    H241916   6.724   7.353   2.297 -0.2440 -0.4410  1.0799
13995TIP3   OH241917   0.534   0.339   1.035  0.1713 -0.1754 -0.5064
13995TIP3    H141918   0.446   0.303   1.045  0.4741 -0.8734 -0.3137
13995TIP3    H241919   0.593   0.266   1.056  0.7966  0.0967 -1.2819
13996TIP3   OH241920   3.495   1.472   1.731 -0.3623  0.2544 -0.5065
13996TIP3    H141921   3.575   1.524   1.736 -0.6353  0.6342 -0.0689
13996TIP3    H241922   3.427   1.529   1.766 -0.9782  0.2382 -1.6486
13997TIP3   OH241923   3.277   1.907   3.210  0.0995  0.5235 -0.0164
13997TIP3    H141924   3.279   2.003   3.205  1.3681  0.6908  2.6911
13997TIP3    H241925   3.217   1.889   3.283  0.0345 -0.7435 -0.3845
13998TIP3   OH241926   4.437   4.761   6.517 -0.6401 -0.4247 -0.0576
13998TIP3    H141927   4.362   4.743   6.574 -0.8190  0.7289  0.0872
13998TIP3    H241928   4.485   4.830   6.562 -0.2549 -0.1768 -0.8435
13999TIP3   OH241929   0.594   7.626   0.047 -0.1108 -0.2135 -0.1408
13999TIP3    H141930   0.505   7.613   0.014  0.2842 -1.1970 -0.8606
13999TIP3    H241931   0.636   7.680  -0.020 -0.7587  2.0077  1.2073
14000TIP3   OH241932   0.846   5.322   1.315  0.6003  0.2992  0.0747
14000TIP3    H141933   0.753   5.338   1.301  0.9107  1.6792 -0.5591
14000TIP3    H241934   0.854   5.227   1.319 -0.7290  0.1413 -0.6478
14001TIP3   OH241935   1.725   1.379   2.224 -0.0209 -0.6205  0.0200
14001TIP3    H141936   1.798   1.438   2.244 -0.4140 -0.5606  1.3267
14001TIP3    H241937   1.743   1.348   2.135  0.5677  0.9113 -0.4076
14002TIP3   OH241938   1.839   1.218   0.909 -0.6800 -0.2768 -0.2187
14002TIP3    H141939   1.871   1.191   0.995  1.6926  0.2746 -0.8767
14002TIP3    H241940   1.819   1.136   0.864 -1.5793 -0.5776  0.7086
14003TIP3   OH241941   4.256   4.773   6.724  0.3331 -0.0645  0.0035
14003TIP3    H141942   4.204   4.692   6.723  0.1588  0.0535 -1.2040
14003TIP3    H241943   4.197   4.838   6.763  0.8615 -0.7628  2.0055
14004TIP3   OH241944   2.063   1.290   2.288 -0.3263  0.3110 -0.2214
14004TIP3    H141945   2.059   1.324   2.377  1.6532 -1.1525  0.4522
14004TIP3    H241946   2.056   1.368   2.233 -0.6800  1.3174  1.2116
14005TIP3   OH241947   8.125   7.222   4.065  0.5262 -0.3330  0.3486
14005TIP3    H141948   8.190   7.228   3.995 -0.8101  1.3725 -0.7882
14005TIP3    H241949   8.045   7.194   4.021 -0.3310  0.7362  1.1784
14006TIP3   OH241950   1.402   1.692   2.792 -0.0455 -0.3404 -0.2585
14006TIP3    H141951   1.322   1.658   2.753 -0.2060 -1.0111  0.6298
14006TIP3    H241952   1.382   1.784   2.810 -1.5667 -1.1183  2.3247
14007TIP3   OH241953   2.769   1.369   1.788  0.6734  0.2370  0.0655
14007TIP3    H141954   2.743   1.383   1.697 -0.0829  0.1250  0.2578
14007TIP3    H241955   2.731   1.443   1.835  0.5688 -0.0144  0.3777
14008TIP3   OH241956   7.119   7.844   1.437 -0.2540 -0.0962  0.5681
14008TIP3    H141957   7.169   7.766   1.411 -0.1759 -0.1025  0.7388
14008TIP3    H241958   7.093   7.884   1.354  0.6662  0.3141  0.4789
14009TIP3   OH241959   0.858   0.824   1.862  0.1884 -0.0801  0.4832
14009TIP3    H141960   0.778   0.840   1.911  0.0207 -0.6460  0.3965
14009TIP3    H241961   0.853   0.883   1.787  0.3413  0.6282  1.0177
14010TIP3   OH241962   6.197   4.390   6.534  0.0257 -0.5713 -0.3984
14010TIP3    H141963   6.213   4.391   6.628  0.2507 -0.5902 -0.4362
14010TIP3    H241964   6.251   4.460   6.499  2.4663 -2.6506 -0.9116
14011TIP3   OH241965   7.162   1.835   1.774  0.0079 -0.2269  1.0587
14011TIP3    H141966   7.235   1.774   1.768 -0.1472 -0.2890 -0.3102
14011TIP3    H241967   7.160   1.861   1.867  0.5088 -1.7387  1.5020
14012TIP3   OH241968   5.422   5.930   5.642  0.5174  0.2092  0.3461
14012TIP3    H141969   5.463   5.858   5.690 -0.7380  1.1793  2.9905
14012TIP3    H241970   5.441   6.008   5.695  2.4106  1.9663 -2.7897
14013TIP3   OH241971   1.980   0.813   1.013 -0.3460 -0.0890  0.1705
14013TIP3    H141972   2.067   0.843   1.038 -0.2236 -0.5081  0.2536
14013TIP3    H241973   1.935   0.799   1.097 -0.9181  1.3583  0.1106
14014TIP3   OH241974   1.646   0.119   0.840  0.4365  0.0431  0.9575
14014TIP3    H141975   1.595   0.130   0.920 -2.9235 -0.2775 -1.0317
14014TIP3    H241976   1.667   0.209   0.813  0.3545  0.2102  1.4489
14015TIP3   OH241977   2.059   1.091   3.024 -0.2080  0.2499 -0.1746
14015TIP3    H141978   2.021   1.056   2.943 -0.9707  0.4635  0.0864
14015TIP3    H241979   2.024   1.035   3.093 -0.2426  0.5948  0.0890
14016TIP3   OH241980   4.376   1.930   1.024 -0.1088  0.2326 -0.7538
14016TIP3    H141981   4.367   2.019   1.058  1.5508  0.2192 -0.2411
14016TIP3    H241982   4.435   1.937   0.950  1.2390 -0.6322  0.1996
14017TIP3   OH241983   0.081   0.728   1.880 -0.2670  0.1861 -0.4683
14017TIP3    H141984   0.109   0.654   1.934 -1.5951  1.0757  1.5117
14017TIP3    H241985   0.116   0.805   1.924  0.0959  0.8314 -1.8515
14018TIP3   OH241986   1.016   1.031   0.662 -0.3067  0.1371 -0.3627
14018TIP3    H141987   0.949   1.069   0.606 -0.7059  0.7963  0.5585
14018TIP3    H241988   1.035   0.946   0.622 -0.2476  0.7962 -1.7581
14019TIP3   OH241989   8.026   1.654   3.137  0.0013 -0.2641  0.4412
14019TIP3    H141990   8.114   1.630   3.169  1.8644  1.9954 -2.7330
14019TIP3    H241991   8.016   1.745   3.162 -1.2158 -0.3471  0.2448
14020TIP3   OH241992   5.125   5.046   5.449 -0.1562 -0.0218 -0.6412
14020TIP3    H141993   5.104   5.124   5.398 -1.0620 -0.5603 -1.1111
14020TIP3    H241994   5.053   4.985   5.431 -0.2430 -0.4024  0.9025
14021TIP3   OH241995   5.798   3.696   6.859 -0.0963  0.3496 -0.4842
14021TIP3    H141996   5.853   3.738   6.925  1.6792 -0.7565 -1.2344
14021TIP3    H241997   5.776   3.767   6.798  0.1294  0.8821  0.0479
14022TIP3   OH241998   0.973   6.576   1.103 -0.2947 -0.0417 -0.2330
14022TIP3    H141999   0.977   6.596   1.009  1.1724 -1.1832 -0.4357
14022TIP3    H242000   1.042   6.629   1.142 -2.2593  2.0498  0.5542
14023TIP3   OH242001   0.827   0.594   1.991 -0.0692  0.3827 -0.0195
14023TIP3    H142002   0.748   0.614   2.041 -1.1283  0.7076 -1.7824
14023TIP3    H242003   0.841   0.670   1.935  0.7835 -0.2068 -0.6272
14024TIP3   OH242004   0.655   0.323   2.128  0.2008  0.1639  0.3009
14024TIP3    H142005   0.707   0.403   2.120  1.7563 -0.7601  0.9979
14024TIP3    H242006   0.614   0.329   2.214  2.0038 -0.7430  1.2593
14025TIP3   OH242007   7.973   0.206   1.045 -0.2301  0.0765  0.0512
14025TIP3    H142008   7.975   0.201   1.141 -0.3297 -0.2954  0.0333
14025TIP3    H242009   8.023   0.130   1.016  0.2441  0.4793 -0.1876
14026TIP3   OH242010   1.211   0.824   1.109 -0.2867  0.4051  0.5864
14026TIP3    H142011   1.166   0.747   1.144 -0.1241  0.9692  2.1079
14026TIP3    H242012   1.176   0.835   1.021 -1.4408 -0.5073  0.9183
14027TIP3   OH242013   6.587   5.019   6.710 -0.4206 -0.5575  0.4067
14027TIP3    H142014   6.639   5.053   6.637  1.5111 -0.8988  1.6016
14027TIP3    H242015   6.499   5.054   6.695  0.3624  0.8072 -1.1230
14028TIP3   OH242016   4.273   4.015   6.151 -0.0627  0.1974  0.1593
14028TIP3    H142017   4.306   4.038   6.064 -0.6859 -0.1981 -0.1889
14028TIP3    H242018   4.179   4.034   6.146 -0.2994 -0.8793  0.3917
14029TIP3   OH242019   5.958   7.535   1.933 -0.1381  0.3241  0.3044
14029TIP3    H142020   5.902   7.564   2.005 -1.0812 -0.3594 -0.1553
14029TIP3    H242021   6.035   7.498   1.977  0.0306  1.3829  0.9304
14030TIP3   OH242022   0.439   0.034   0.477 -0.0129  0.2252  0.7321
14030TIP3    H142023   0.492   0.065   0.402 -1.2313 -1.3419 -0.8134
14030TIP3    H242024   0.462  -0.058   0.486 -0.5818  0.1742  1.6967
14031TIP3   OH242025   2.417   1.116   0.827 -0.3269  0.1329 -0.0510
14031TIP3    H142026   2.436   1.028   0.795 -0.3318 -0.0002  0.3167
14031TIP3    H242027   2.391   1.104   0.918 -3.5172  0.1365 -0.8865
14032TIP3   OH242028   0.788   3.369   2.376 -0.1382 -0.6569 -0.3124
14032TIP3    H142029   0.806   3.456   2.342 -0.3057 -0.0158  1.2160
14032TIP3    H242030   0.868   3.345   2.424 -0.0030 -1.4454 -0.9107
14033TIP3   OH242031   0.918   1.967   2.230  0.0510  0.4537  0.1668
14033TIP3    H142032   0.889   1.908   2.299  1.1607 -0.1129  0.1648
14033TIP3    H242033   1.012   1.974   2.243  0.0987  1.2423 -0.5971
14034TIP3   OH242034   8.506   0.632   2.668  0.3145  0.1005 -0.3446
14034TIP3    H142035   8.545   0.656   2.753 -0.6552 -0.9975  0.4287
14034TIP3    H242036   8.425   0.683   2.664 -0.6595 -1.3528  0.3257
14035TIP3   OH242037   3.521   3.886   4.924 -0.1330  0.0477 -0.0322
14035TIP3    H142038   3.585   3.824   4.888 -0.0691  0.3355 -0.4163
14035TIP3    H242039   3.565   3.925   4.999 -0.1835 -0.3930  0.2321
14036TIP3   OH242040   6.116   6.337   2.385  0.1947  0.1015  0.8192
14036TIP3    H142041   6.190   6.351   2.327  0.2523 -0.9381  0.6298
14036TIP3    H242042   6.082   6.425   2.403 -0.4427  0.3676 -1.5563
14037TIP3   OH242043   2.421   1.380   0.059 -0.5489 -0.6055  0.4069
14037TIP3    H142044   2.390   1.384  -0.032  0.9425 -4.5977 -0.3937
14037TIP3    H242045   2.350   1.339   0.107 -0.3416 -0.7920  0.5538
14038TIP3   OH242046   0.115   7.655   1.744  0.4864 -0.5354  0.0928
14038TIP3    H142047   0.136   7.615   1.828 -0.1698 -0.1699  0.4296
14038TIP3    H242048   0.074   7.585   1.693 -1.2602 -0.1238  0.9148
14039TIP3   OH242049   0.551   1.386   0.072  0.7301  0.2691 -0.3791
14039TIP3    H142050   0.573   1.317   0.010  0.1623  1.4394 -1.9230
14039TIP3    H242051   0.635   1.419   0.103  1.1596  2.0830 -3.2683
14040TIP3   OH242052   0.479   1.987   1.293  0.4032 -0.4806 -0.0815
14040TIP3    H142053   0.502   1.900   1.259  0.8064 -1.2379  2.0332
14040TIP3    H242054   0.562   2.023   1.323 -0.1733 -0.5458  1.6461
14041TIP3   OH242055   4.966   4.642   6.518 -0.1803  0.0030 -0.2922
14041TIP3    H142056   4.986   4.549   6.505 -1.6201 -0.2062 -1.1064
14041TIP3    H242057   4.997   4.684   6.437 -0.3168  0.1017 -0.2935
14042TIP3   OH242058   5.704   6.445   1.785 -0.0663 -0.3492  0.3048
14042TIP3    H142059   5.652   6.431   1.864 -2.6702 -0.4940 -1.3626
14042TIP3    H242060   5.737   6.534   1.793 -1.9954  0.3636  0.6462
14043TIP3   OH242061   1.591   0.885   0.919  0.1344 -0.8634 -0.3172
14043TIP3    H142062   1.537   0.836   0.857 -0.8257 -0.2861  0.0660
14043TIP3    H242063   1.537   0.892   0.998  0.4822  0.3474 -0.1871
14044TIP3   OH242064   1.238   1.745   1.798  0.6827 -0.2775 -0.0031
14044TIP3    H142065   1.307   1.796   1.754  0.7821  0.3301  0.8493
14044TIP3    H242066   1.180   1.811   1.836 -0.1296 -0.7963 -0.3498
14045TIP3   OH242067   3.748   0.025   2.759 -0.5614 -0.5120 -0.0925
14045TIP3    H142068   3.811  -0.043   2.738 -0.4354 -0.8901  1.4085
14045TIP3    H242069   3.799   0.095   2.800 -0.8222  0.1025 -0.7880
14046TIP3   OH242070   0.032   0.685   0.636 -0.3091  0.1697  0.4753
14046TIP3    H142071   0.044   0.778   0.615 -0.1917  0.0570  0.0490
14046TIP3    H242072   0.063   0.639   0.559 -1.5623 -0.1863  0.1810
14047TIP3   OH242073   1.375   0.662   3.416  0.4322 -0.1696  0.2893
14047TIP3    H142074   1.338   0.737   3.370 -0.8260 -0.0372  1.5043
14047TIP3    H242075   1.303   0.600   3.423  1.4893 -1.5538 -0.7898
14048TIP3   OH242076   3.138   1.295   1.247 -0.2583  0.5591 -0.0875
14048TIP3    H142077   3.063   1.280   1.304  0.2538 -0.4560  0.3439
14048TIP3    H242078   3.166   1.207   1.221  0.3284  0.9586 -0.8393
14049TIP3   OH242079   5.310   4.680   6.362  0.2791  0.1772 -0.4252
14049TIP3    H142080   5.361   4.654   6.439 -0.0870  0.3990 -0.1014
14049TIP3    H242081   5.271   4.599   6.330 -1.3031  0.3829  0.9044
14050TIP3   OH242082   2.035   0.525   0.597 -0.3206 -0.7308 -0.3675
14050TIP3    H142083   1.977   0.450   0.594  0.5761 -1.3928 -1.7344
14050TIP3    H242084   2.055   0.537   0.690 -1.3750 -1.4658 -0.0459
14051TIP3   OH242085   3.987   0.687   0.207 -0.0390  0.3110 -0.0855
14051TIP3    H142086   3.951   0.603   0.178  0.5565  0.9125 -2.6954
14051TIP3    H242087   3.914   0.732   0.248 -0.8494 -0.6948 -0.3993
14052TIP3   OH242088   1.019   1.692   2.303  0.3948 -0.5983  0.0493
14052TIP3    H142089   1.102   1.735   2.325  0.2636  0.8738 -2.1644
14052TIP3    H242090   1.042   1.629   2.234 -0.1234 -1.1003  0.3282
14053TIP3   OH242091   2.001   0.938   1.303 -0.5330  0.3043  0.1759
14053TIP3    H142092   2.017   0.937   1.397 -2.0891 -0.2938  0.4553
14053TIP3    H242093   1.919   0.889   1.292 -1.6879  2.4487 -1.2012
14054TIP3   OH242094   0.499   7.466   0.535  0.3219  0.1952 -0.2450
14054TIP3    H142095   0.413   7.508   0.539  0.1912  0.1457 -2.2413
14054TIP3    H242096   0.558   7.534   0.502  1.2825  0.5333  2.0369
14055TIP3   OH242097   7.810   0.451   2.467 -0.4944  0.1635 -0.2027
14055TIP3    H142098   7.804   0.380   2.531 -1.6228  2.0057  1.8024
14055TIP3    H242099   7.856   0.521   2.514  0.8543  0.6544 -2.2372
14056TIP3   OH242100   2.259   0.956   2.002  0.5549 -0.4098 -0.3070
14056TIP3    H142101   2.280   0.913   2.085  2.0473  0.3783 -0.2672
14056TIP3    H242102   2.220   1.040   2.028 -0.6193 -0.9140 -0.4012
14057TIP3   OH242103   1.495   1.484   1.386  0.1111 -0.1061  0.1171
14057TIP3    H142104   1.469   1.392   1.384 -0.4367  0.0805 -1.2273
14057TIP3    H242105   1.587   1.483   1.362 -0.0226 -0.2515 -0.3868
14058TIP3   OH242106   4.647   4.550   6.477 -0.2379 -0.4362 -0.0272
14058TIP3    H142107   4.603   4.631   6.450  1.1608 -0.0953 -1.3578
14058TIP3    H242108   4.686   4.571   6.562  0.5616  0.4433 -0.6097
14059TIP3   OH242109   2.091   1.219   1.210  0.0114 -0.4629 -0.5982
14059TIP3    H142110   2.010   1.263   1.186  0.9127  1.9537  0.6234
14059TIP3    H242111   2.068   1.166   1.286 -0.1683  1.2197  0.5442
14060TIP3   OH242112   3.094   3.358   1.209 -0.2379  0.2738 -0.1775
14060TIP3    H142113   3.068   3.437   1.258 -0.3814 -0.2044  0.5243
14060TIP3    H242114   3.159   3.389   1.147 -0.0166  0.8837  0.3527
14061TIP3   OH242115   0.724   1.973   2.021 -0.5965  0.0695  0.4827
14061TIP3    H142116   0.708   2.068   2.022  3.5762  0.9260 -2.0336
14061TIP3    H242117   0.775   1.956   2.100  1.9730  0.6975 -0.9705
14062TIP3   OH242118   4.698   6.450   5.816 -0.3119 -0.3313  0.2463
14062TIP3    H142119   4.790   6.437   5.836  0.0181 -1.1483 -1.7202
14062TIP3    H242120   4.680   6.540   5.840  1.4277  0.3567 -0.9562
14063TIP3   OH242121   4.684   2.409   5.380  0.0104 -0.1426  0.0097
14063TIP3    H142122   4.726   2.341   5.433 -0.3213  0.4195  1.0225
14063TIP3    H242123   4.591   2.389   5.386 -0.0519  0.1219 -0.0849
14064TIP3   OH242124   7.228   6.737   0.128 -0.0585 -0.2517 -0.4556
14064TIP3    H142125   7.306   6.701   0.085  0.5853 -0.2986  0.7362
14064TIP3    H242126   7.211   6.820   0.081  1.8634  0.7300  0.5229
14065TIP3   OH242127   0.870   2.966   1.731 -0.2292 -0.1450 -0.2412
14065TIP3    H142128   0.790   2.999   1.770  0.0463  1.2428 -0.8466
14065TIP3    H242129   0.873   2.873   1.757 -0.9958  0.2917  1.4455
14066TIP3   OH242130   2.656   0.881   1.417 -0.0981  0.0007  0.4674
14066TIP3    H142131   2.706   0.801   1.398 -1.1333 -0.4921 -0.2032
14066TIP3    H242132   2.565   0.854   1.414 -0.5718  1.6317 -1.9906
14067TIP3   OH242133   7.526   7.605   1.421  0.4111  0.0692  0.4483
14067TIP3    H142134   7.438   7.569   1.431  0.5839 -0.4303  0.1828
14067TIP3    H242135   7.530   7.677   1.484  0.1356 -0.5103  1.1317
14068TIP3   OH242136   5.676   5.306   6.801  0.4875 -0.1965 -0.2292
14068TIP3    H142137   5.611   5.321   6.733  0.0925  0.8505  0.3724
14068TIP3    H242138   5.625   5.294   6.881  0.8852 -2.6904 -0.3115
14069TIP3   OH242139   1.452   1.863   2.141 -0.4008 -0.0535 -0.1613
14069TIP3    H142140   1.457   1.802   2.067  1.7152 -1.3005  0.9782
14069TIP3    H242141   1.492   1.944   2.108  0.6951 -0.6575 -0.3374
14070TIP3   OH242142   1.919   1.726   1.495  0.8265 -0.4346 -0.2789
14070TIP3    H142143   1.840   1.779   1.496  1.3390  0.3363  0.1808
14070TIP3    H242144   1.991   1.789   1.493  1.4496 -1.1047  0.1820
14071TIP3   OH242145   1.339   0.212   3.455  0.8234  0.1947 -0.1520
14071TIP3    H142146   1.308   0.125   3.430  0.4016 -0.0900  1.3258
14071TIP3    H242147   1.400   0.237   3.385 -1.5368  0.1114 -2.2764
14072TIP3   OH242148   8.014   7.501   1.433  0.3905  0.2767  0.4477
14072TIP3    H142149   7.990   7.413   1.459  0.8318  0.5288  1.7333
14072TIP3    H242150   8.102   7.514   1.470 -0.7624  2.2245  2.6155
14073TIP3   OH242151   3.576   3.120   2.623 -0.4218 -0.7325  0.1076
14073TIP3    H142152   3.575   3.140   2.717 -2.4192 -3.2760  0.6905
14073TIP3    H242153   3.669   3.108   2.603 -0.0981 -2.3436  2.2915
14074TIP3   OH242154   2.394   2.300   1.002 -0.0719 -0.0420 -0.3173
14074TIP3    H142155   2.452   2.266   1.070  0.4656  0.9950 -0.2531
14074TIP3    H242156   2.306   2.284   1.036  0.1953  0.8511  0.8357
14075TIP3   OH242157   1.379   0.376   0.641 -0.0114 -0.5328 -0.4770
14075TIP3    H142158   1.452   0.432   0.664 -0.6731 -0.6240  1.9564
14075TIP3    H242159   1.379   0.374   0.545  2.1505  0.7646 -0.5191
14076TIP3   OH242160   0.749   1.265   1.430 -0.3565  0.0254  0.3448
14076TIP3    H142161   0.840   1.266   1.459 -0.6418 -1.2714  1.3023
14076TIP3    H242162   0.741   1.185   1.379 -1.1918 -0.3263  1.0166
14077TIP3   OH242163   6.752   3.797   5.700 -0.1715 -0.2575  0.1724
14077TIP3    H142164   6.772   3.744   5.623 -0.0499  1.7743 -1.2322
14077TIP3    H242165   6.805   3.759   5.770  0.7985 -1.2668 -1.0903
14078TIP3   OH242166   7.547   6.307   1.051  0.1194  0.5449 -0.6066
14078TIP3    H142167   7.596   6.233   1.015  0.1965  0.1137  0.3867
14078TIP3    H242168   7.488   6.333   0.980 -0.1413 -0.6794 -0.8405
14079TIP3   OH242169   1.670   3.105   6.394 -0.0904 -0.4692 -0.8077
14079TIP3    H142170   1.657   3.198   6.378  0.7260 -0.2951 -0.4798
14079TIP3    H242171   1.589   3.064   6.363 -1.2321  0.5255  0.8008
14080TIP3   OH242172   7.637   8.003   1.469  0.1006  0.1053 -0.3863
14080TIP3    H142173   7.726   7.967   1.463 -0.2631 -0.6046 -1.7761
14080TIP3    H242174   7.596   7.954   1.539  0.8993  0.6305  0.4577
14081TIP3   OH242175   5.648   4.482   6.330 -0.2712 -0.4580  0.5347
14081TIP3    H142176   5.648   4.481   6.235  0.2122  1.7772  0.4785
14081TIP3    H242177   5.563   4.445   6.355 -1.8057  2.0059 -0.8439
14082TIP3   OH242178   1.173  -0.010   0.977  0.6125 -0.3983  0.2438
14082TIP3    H142179   1.195   0.048   0.904  0.0684 -0.3817  0.0913
14082TIP3    H242180   1.081   0.010   0.997 -0.3884 -3.0025 -1.4878
14083TIP3   OH242181   4.535   3.713   5.714  0.0761 -0.4946 -0.0746
14083TIP3    H142182   4.519   3.666   5.632 -0.2310 -0.9512  0.2441
14083TIP3    H242183   4.530   3.646   5.781 -1.6018  0.1909  0.5164
14084TIP3   OH242184   6.239   5.950   6.877 -0.1838  0.3548  0.0734
14084TIP3    H142185   6.301   5.890   6.918 -1.3307  0.7101  2.4093
14084TIP3    H242186   6.173   5.893   6.838 -1.9864  0.0223  3.4129
14085TIP3   OH242187   1.939   1.423   1.614 -0.0324 -0.6332  0.2437
14085TIP3    H142188   2.014   1.374   1.648 -1.8289 -1.7970  2.6810
14085TIP3    H242189   1.968   1.514   1.616  1.5403 -1.1111  0.5088
14086TIP3   OH242190   2.960   1.233   0.320 -0.8101 -0.3680 -0.5268
14086TIP3    H142191   3.043   1.187   0.329  0.5140  1.5195 -2.4657
14086TIP3    H242192   2.918   1.193   0.243 -0.4336  0.4692 -1.1805
14087TIP3   OH242193   1.528   2.353   1.168  0.0035 -0.4545 -0.1278
14087TIP3    H142194   1.504   2.282   1.228 -0.9937  0.0803  0.1102
14087TIP3    H242195   1.489   2.328   1.084 -0.1610 -0.3013 -0.0977
14088TIP3   OH242196   2.451   2.363   1.651 -0.4771  0.0856 -0.2585
14088TIP3    H142197   2.474   2.438   1.597 -0.7341 -0.5853 -1.3201
14088TIP3    H242198   2.505   2.372   1.729  0.0936  0.9218 -0.7444
14089TIP3   OH242199   2.436   0.944   3.538 -0.0327 -0.4560 -0.1041
14089TIP3    H142200   2.404   0.954   3.448 -0.6335  2.0408  0.3621
14089TIP3    H242201   2.435   1.032   3.574 -0.7971 -1.5584  2.7022
14090TIP3   OH242202   5.936   4.912   6.757 -0.4129 -0.3272  0.3922
14090TIP3    H142203   5.977   4.957   6.683  2.6903 -0.8160  1.7365
14090TIP3    H242204   5.853   4.958   6.770  0.1680  1.4123 -1.7501
14091TIP3   OH242205   0.630   2.879   2.864  0.1618 -0.1386  0.1234
14091TIP3    H142206   0.622   2.823   2.788 -0.6945  1.1782 -0.7749
14091TIP3    H242207   0.624   2.819   2.939 -0.5163 -1.2500 -0.8097
14092TIP3   OH242208   4.020   4.862   3.576  0.0119 -0.1917  0.4566
14092TIP3    H142209   4.108   4.871   3.613  0.1366 -0.6154  0.2743
14092TIP3    H242210   4.034   4.832   3.486 -0.2654  1.9271 -0.3019
14093TIP3   OH242211   1.609   0.741   2.075 -0.2893  0.6984 -0.0638
14093TIP3    H142212   1.578   0.759   1.986  0.9566  1.2928 -0.3998
14093TIP3    H242213   1.699   0.710   2.062 -0.5649 -0.5438  0.9036
14094TIP3   OH242214   2.377   0.598   0.443 -0.1791 -0.1712  0.2732
14094TIP3    H142215   2.355   0.596   0.350 -1.6730 -2.1164  0.6373
14094TIP3    H242216   2.455   0.654   0.448 -0.1913  0.1125 -2.1065
14095TIP3   OH242217   5.363   7.975   0.573  0.2364 -0.0166  0.4513
14095TIP3    H142218   5.420   7.899   0.586  0.3357  0.4353  2.8878
14095TIP3    H242219   5.275   7.942   0.591  0.3823  0.6567  2.4393
14096TIP3   OH242220   2.680   2.016   1.460 -0.3070  0.8675  0.2029
14096TIP3    H142221   2.750   2.029   1.396  0.6874 -0.4687  1.0029
14096TIP3    H242222   2.722   2.026   1.545 -1.0644 -0.0078  0.6937
14097TIP3   OH242223   6.611   3.967   6.886 -0.0974  0.2491  0.0195
14097TIP3    H142224   6.662   4.009   6.956  1.3129  1.4392 -1.6760
14097TIP3    H242225   6.559   4.038   6.849 -1.4862 -0.5514  0.3810
14098TIP3   OH242226   2.039   2.078   0.899 -0.9943 -0.6945 -0.3086
14098TIP3    H142227   2.057   2.021   0.825 -0.6302 -2.7107  1.3030
14098TIP3    H242228   1.964   2.132   0.871  0.2740 -0.1679 -2.7812
14099TIP3   OH242229   0.609   1.466   2.764  0.6124 -0.3838  0.0635
14099TIP3    H142230   0.546   1.434   2.828  2.0494 -1.3677  1.0220
14099TIP3    H242231   0.681   1.500   2.817  1.5690 -0.6646 -1.0395
14100TIP3   OH242232   1.450   1.339   1.152  0.4253 -0.2907 -0.1465
14100TIP3    H142233   1.412   1.422   1.124  1.2031  1.1518  2.9243
14100TIP3    H242234   1.408   1.273   1.096 -2.0246  1.8949 -0.9493
14101TIP3   OH242235   2.643   2.620   2.050 -0.4830 -0.1478 -0.3146
14101TIP3    H142236   2.587   2.696   2.059  0.3790  0.4867 -0.2358
14101TIP3    H242237   2.729   2.656   2.025 -0.0174 -1.0684 -0.0684
14102TIP3   OH242238   6.508   7.963   1.491  0.2007  0.3309  0.2799
14102TIP3    H142239   6.506   7.985   1.584 -1.5920 -0.5648  0.4765
14102TIP3    H242240   6.529   7.870   1.489 -2.5263 -0.3212 -0.0499
14103TIP3   OH242241   3.589   0.647   0.098 -0.1349  0.2245 -0.9556
14103TIP3    H142242   3.556   0.729   0.137  0.3488 -0.1456  0.2300
14103TIP3    H242243   3.527   0.629   0.026 -1.7743  0.2382  0.4239
14104TIP3   OH242244   1.678   1.841   1.176  0.2092  0.0521 -0.3678
14104TIP3    H142245   1.644   1.838   1.086 -1.3711  2.2216  0.1243
14104TIP3    H242246   1.644   1.761   1.217 -0.7956  0.0960 -1.1012
14105TIP3   OH242247   2.648   0.437   1.886 -0.2577  0.2734 -0.2446
14105TIP3    H142248   2.632   0.527   1.857 -0.9827  0.6493  1.2438
14105TIP3    H242249   2.743   0.429   1.890 -0.1773  0.5482 -1.6617
14106TIP3   OH242250   0.657   7.936   2.134  0.0554  0.4039  0.1100
14106TIP3    H142251   0.574   7.889   2.135  0.6309 -0.6743 -1.6347
14106TIP3    H242252   0.722   7.870   2.113  1.2214  1.4754  0.2735
14107TIP3   OH242253   0.159   6.639   1.491 -0.0681  0.0029  0.0667
14107TIP3    H142254   0.156   6.682   1.576 -2.3904 -1.6483  0.8723
14107TIP3    H242255   0.102   6.692   1.435 -2.4417 -1.6043  0.8951
14108TIP3   OH242256   2.203   0.032   1.038  0.3898  0.1826 -0.4047
14108TIP3    H142257   2.125   0.053   0.986  0.0966  1.5937  0.5745
14108TIP3    H242258   2.177  -0.042   1.092 -0.0036  0.1071 -0.6946
14109TIP3   OH242259   0.342   0.135   2.803  0.1073  0.0412 -0.0661
14109TIP3    H142260   0.267   0.168   2.754  0.2768  0.5212 -0.0043
14109TIP3    H242261   0.304   0.078   2.871 -0.1686 -0.0713 -0.3161
14110TIP3   OH242262   7.710   6.958   1.261  0.6283 -0.6495  0.2517
14110TIP3    H142263   7.766   7.024   1.303  1.1823  0.7952 -2.6356
14110TIP3    H242264   7.654   7.009   1.203  0.6473 -2.6707 -1.5799
14111TIP3   OH242265   3.611   2.245   2.772 -0.1249  0.0343 -0.3550
14111TIP3    H142266   3.533   2.208   2.731  0.8454 -1.6112 -0.7541
14111TIP3    H242267   3.650   2.300   2.705 -1.3093  1.4164  0.0748
14112TIP3   OH242268   1.867   2.029   2.851  0.2883  0.2740  0.2186
14112TIP3    H142269   1.892   2.089   2.921 -0.6720 -0.1475  0.9380
14112TIP3    H242270   1.780   2.059   2.824  0.6405  0.4188 -0.7798
14113TIP3   OH242271   1.163   1.246   2.191 -0.5202  0.2133  0.3795
14113TIP3    H142272   1.083   1.195   2.196 -1.2547  1.4023  0.9268
14113TIP3    H242273   1.134   1.336   2.175  0.7282  0.5606 -0.0505
14114TIP3   OH242274   2.092   1.757   1.082 -0.0573  0.4017 -0.2353
14114TIP3    H142275   2.056   1.706   1.154  1.2867 -0.0054  0.1440
14114TIP3    H242276   2.117   1.840   1.122 -1.4578  1.0758 -0.6924
14115TIP3   OH242277   2.653   4.445   6.743  0.0586 -0.1768  0.6767
14115TIP3    H142278   2.576   4.398   6.713 -0.1617  0.3175  0.4695
14115TIP3    H242279   2.619   4.521   6.790  0.4151  0.2188  0.3071
14116TIP3   OH242280   2.547   7.259   6.109  0.5809 -0.2254 -0.7102
14116TIP3    H142281   2.618   7.263   6.173  0.9831  0.6414 -1.1912
14116TIP3    H242282   2.586   7.292   6.028 -0.1542 -0.5083 -1.1901
14117TIP3   OH242283   2.604   1.157   1.200  0.5874 -0.0250  0.0955
14117TIP3    H142284   2.685   1.123   1.238 -0.6918 -1.9638  1.1607
14117TIP3    H242285   2.584   1.097   1.128 -0.2088  0.0981  0.2107
14118TIP3   OH242286   1.829   1.973   0.656  0.0255 -0.5831  0.1876
14118TIP3    H142287   1.825   1.926   0.739  0.6116  0.4885  0.8466
14118TIP3    H242288   1.922   1.988   0.641 -0.1054 -0.3135 -0.4023
14119TIP3   OH242289   3.826   3.737   0.712  0.1214 -0.6837 -0.4913
14119TIP3    H142290   3.755   3.758   0.650 -1.3433 -0.9189  1.0754
14119TIP3    H242291   3.826   3.810   0.773  1.9538 -0.1688 -1.0612
14120TIP3   OH242292   7.305   5.026   6.547  0.0005 -0.3134  0.4962
14120TIP3    H142293   7.366   5.061   6.481 -2.6381  0.5900 -1.5336
14120TIP3    H242294   7.314   5.084   6.622  0.4126  0.8336 -0.4211
14121TIP3   OH242295   0.487   5.290   1.635 -0.3238  0.1951 -0.0562
14121TIP3    H142296   0.494   5.239   1.554 -2.8491  1.1695 -0.9235
14121TIP3    H242297   0.502   5.380   1.609 -1.0131  0.5035  0.6043
14122TIP3   OH242298   3.627   1.009   0.818 -0.1473  0.4134  0.2459
14122TIP3    H142299   3.603   1.101   0.808 -3.4281 -0.2416  1.5840
14122TIP3    H242300   3.634   0.976   0.729  0.5583  1.8123 -0.2322
14123TIP3   OH242301   3.984   5.272   6.438  0.1525  0.3588 -0.0811
14123TIP3    H142302   3.954   5.278   6.347 -1.0899 -1.9639  0.1515
14123TIP3    H242303   3.925   5.208   6.479 -0.1783  2.3386  2.7321
14124TIP3   OH242304   1.777   0.766   1.540  0.0639 -0.1851  0.3763
14124TIP3    H142305   1.724   0.708   1.485 -1.0276  1.3593 -0.2355
14124TIP3    H242306   1.841   0.707   1.581  2.0072 -1.2166 -3.7847
14125TIP3   OH242307   1.508   7.489   1.510 -0.1960 -0.1312 -0.1686
14125TIP3    H142308   1.423   7.497   1.467 -0.0590  0.2455 -0.3677
14125TIP3    H242309   1.568   7.540   1.456  0.0356  0.1206  0.3179
14126TIP3   OH242310   5.415   4.862   4.199  0.0156  0.0666 -0.1571
14126TIP3    H142311   5.424   4.831   4.109  1.4353 -0.2487  0.0832
14126TIP3    H242312   5.453   4.950   4.199 -1.1935  0.5947 -0.1552
14127TIP3   OH242313   7.712   2.261   0.081 -0.8394 -0.4553 -0.0917
14127TIP3    H142314   7.656   2.219   0.146 -1.1258 -0.2144 -0.1830
14127TIP3    H242315   7.673   2.238  -0.004 -0.4802 -0.7499 -0.1776
14128TIP3   OH242316   3.729   1.168   1.585 -0.1295  0.0938 -0.5871
14128TIP3    H142317   3.819   1.173   1.554  0.1398 -1.6926 -0.1662
14128TIP3    H242318   3.729   1.217   1.667  0.3293  0.5532 -0.8578
14129TIP3   OH242319   2.382   1.204   2.401  0.4381  0.5257  0.0925
14129TIP3    H142320   2.359   1.263   2.329  0.4112  0.5307  0.1050
14129TIP3    H242321   2.378   1.259   2.479  2.2040  0.9338 -0.1061
14130TIP3   OH242322   5.995   7.026   0.297  0.1172 -0.2882  0.1862
14130TIP3    H142323   6.011   6.977   0.378 -2.2565 -1.2482  0.1139
14130TIP3    H242324   6.029   6.969   0.228  0.8467 -0.1066  0.3925
14131TIP3   OH242325   1.681   0.696   0.437  0.0229 -0.0196  0.3754
14131TIP3    H142326   1.682   0.702   0.341 -1.0502  0.1490  0.3591
14131TIP3    H242327   1.682   0.787   0.467 -3.0171  0.0455  0.4304
14132TIP3   OH242328   6.776   7.948   1.376 -0.1839  0.0080  0.2707
14132TIP3    H142329   6.818   8.027   1.410  0.8384 -0.6024  0.4559
14132TIP3    H242330   6.688   7.976   1.352 -0.1612  0.9753  1.2681
14133TIP3   OH242331   1.673   2.153   3.122 -0.1455  0.6023 -0.2484
14133TIP3    H142332   1.580   2.161   3.142 -0.1170 -1.9716  1.0438
14133TIP3    H242333   1.675   2.130   3.029 -0.7104  2.2910 -0.6929
14134TIP3   OH242334   2.528   1.495   0.517 -0.0878  0.6356  0.1391
14134TIP3    H142335   2.434   1.498   0.530 -0.1005 -0.1095  0.2791
14134TIP3    H242336   2.561   1.574   0.559 -0.6481  0.8952  0.0929
14135TIP3   OH242337   7.762   0.012   0.984  0.0881 -0.1725  0.5310
14135TIP3    H142338   7.825   0.084   0.971  0.4451 -0.6342 -0.3952
14135TIP3    H242339   7.686   0.038   0.932 -0.0148 -0.1824  0.6782
14136TIP3   OH242340   1.256   1.060   1.971 -0.4692  0.3032  0.2597
14136TIP3    H142341   1.247   0.966   1.983  0.3608  0.3599  1.3810
14136TIP3    H242342   1.187   1.098   2.025 -0.5646  0.3571  0.1012
14137TIP3   OH242343   3.454   0.833   0.225  0.5199 -0.3403  0.2882
14137TIP3    H142344   3.389   0.889   0.183  0.4957 -0.5153  0.0913
14137TIP3    H242345   3.463   0.868   0.313 -0.1739 -0.6001  0.4605
14138TIP3   OH242346   0.243   7.170   1.715  0.0326  0.0384 -0.3567
14138TIP3    H142347   0.163   7.117   1.723 -0.4692  0.9044  0.4929
14138TIP3    H242348   0.305   7.128   1.774  1.5724 -3.0439 -4.0141
14139TIP3   OH242349   1.831   2.669   6.722 -0.4909  0.2145  0.0614
14139TIP3    H142350   1.774   2.741   6.694  0.5327  0.9644 -0.1420
14139TIP3    H242351   1.842   2.683   6.816  1.4694  1.6294 -0.3452
14140TIP3   OH242352   3.806   2.227   0.910  0.5973 -0.3379  0.2787
14140TIP3    H142353   3.855   2.194   0.985 -0.8301 -2.3546  0.3764
14140TIP3    H242354   3.714   2.221   0.937  0.2205  2.4699 -0.2396
14141TIP3   OH242355   6.307   7.781   0.876  0.5337  0.2319 -0.4348
14141TIP3    H142356   6.334   7.690   0.884  0.1889  0.2081  0.4805
14141TIP3    H242357   6.255   7.798   0.955  2.2133  1.7728  0.3770
14142TIP3   OH242358   8.222   0.720   2.957 -0.2062  0.6060 -0.8227
14142TIP3    H142359   8.133   0.754   2.942 -0.7672 -0.1721  0.6203
14142TIP3    H242360   8.274   0.798   2.977 -0.9255  0.9142 -0.0838
14143TIP3   OH242361   2.465   2.709   2.532  0.3195 -0.0396 -0.1971
14143TIP3    H142362   2.527   2.744   2.596  1.7851 -0.7952 -1.1628
14143TIP3    H242363   2.427   2.787   2.491  1.0184  0.4437  0.0480
14144TIP3   OH242364   3.439   0.767   2.727  0.7266  0.4734  0.1668
14144TIP3    H142365   3.467   0.794   2.814  0.4052 -0.7125  0.6397
14144TIP3    H242366   3.479   0.832   2.668  2.6686  0.0870  1.0177
14145TIP3   OH242367   1.384   2.144   0.614  0.4218  0.0770 -0.2378
14145TIP3    H142368   1.416   2.209   0.552  0.6546  0.5623  0.3928
14145TIP3    H242369   1.445   2.071   0.607  3.6227  2.2742  3.3086
14146TIP3   OH242370   1.291   7.626   0.800 -0.0810 -0.6853 -0.4053
14146TIP3    H142371   1.365   7.604   0.743  0.8568  0.6917  0.2380
14146TIP3    H242372   1.294   7.561   0.869  0.9735 -0.2277 -0.0089
14147TIP3   OH242373   0.870   2.868   1.347  0.1645 -0.2257  0.2423
14147TIP3    H142374   0.845   2.941   1.404  0.7396 -1.4724  2.1216
14147TIP3    H242375   0.787   2.833   1.316 -0.1497  0.6124  0.1103
14148TIP3   OH242376   6.554   7.034   1.465  0.3429  0.6235 -0.4085
14148TIP3    H142377   6.537   6.952   1.512 -0.8249  0.5101 -1.0268
14148TIP3    H242378   6.616   7.010   1.397  0.0856  0.2762 -0.5221
14149TIP3   OH242379   4.204   4.494   0.378 -0.3320 -0.2400  0.6394
14149TIP3    H142380   4.205   4.567   0.439  1.5580  0.8710 -0.6575
14149TIP3    H242381   4.284   4.445   0.399  0.4801  0.2997 -1.0524
14150TIP3   OH242382   2.022   1.576   0.126  0.3368  0.2700  0.0987
14150TIP3    H142383   2.068   1.603   0.047  1.3212 -1.8475 -0.0865
14150TIP3    H242384   2.061   1.491   0.149 -1.9290 -0.5301  1.1998
14151TIP3   OH242385   2.401   0.943   1.775  0.1135  0.1971 -0.0944
14151TIP3    H142386   2.469   0.876   1.765 -1.2885 -1.3222  0.4186
14151TIP3    H242387   2.388   0.950   1.870 -1.3733 -0.4627 -0.2444
14152TIP3   OH242388   2.416   1.683   2.070  0.7640 -0.0098 -0.5427
14152TIP3    H142389   2.490   1.742   2.083  0.0723  1.1349 -1.6848
14152TIP3    H242390   2.344   1.721   2.120  1.5252 -2.3934  2.5473
14153TIP3   OH242391   7.818   6.005   1.735 -0.0498  0.2016  0.5292
14153TIP3    H142392   7.766   6.072   1.690 -0.7432 -0.0449  0.9611
14153TIP3    H242393   7.889   5.985   1.673  0.3468  1.5540  0.5259
14154TIP3   OH242394   2.186   1.679   1.846 -0.0655 -0.3845 -0.3551
14154TIP3    H142395   2.252   1.663   1.914 -0.3926 -1.6882 -0.3304
14154TIP3    H242396   2.232   1.662   1.764 -0.0842 -0.2694 -0.3899
14155TIP3   OH242397   0.432   7.763   2.385  0.1110 -0.5221  0.0892
14155TIP3    H142398   0.439   7.846   2.338 -1.0771 -1.5387 -1.9551
14155TIP3    H242399   0.518   7.722   2.374 -0.0860 -0.6471 -1.0015
14156TIP3   OH242400   7.171   5.725   6.804 -0.4561 -0.7181  0.8719
14156TIP3    H142401   7.113   5.729   6.728 -1.1664 -0.1127  1.4423
14156TIP3    H242402   7.253   5.688   6.770 -0.9631 -0.9792 -0.0648
14157TIP3   OH242403   7.485   7.184   0.734 -0.3080 -0.6215 -0.6024
14157TIP3    H142404   7.457   7.274   0.754  0.8764 -0.2283 -0.7011
14157TIP3    H242405   7.413   7.149   0.681 -1.4093 -0.1969  0.5948
14158TIP3   OH242406   7.165   7.001   3.032  0.2083  0.6379  0.2358
14158TIP3    H142407   7.099   7.007   3.101  0.5119 -0.1241  0.6041
14158TIP3    H242408   7.238   7.054   3.065 -0.2479  1.5474 -0.2091
14159TIP3   OH242409   0.271   0.320   1.124 -0.0989  0.0998  0.0322
14159TIP3    H142410   0.209   0.323   1.051 -1.2136 -1.0060  0.9144
14159TIP3    H242411   0.221   0.285   1.198  1.4064 -0.2297  0.9378
14160TIP3   OH242412   3.925   3.212   6.607 -0.0822  0.1295  0.0529
14160TIP3    H142413   3.981   3.286   6.583  0.7881 -0.5034  0.0845
14160TIP3    H242414   3.938   3.148   6.537 -0.2820 -0.2709  0.3800
14161TIP3   OH242415   1.044   0.685   4.941  0.1120 -0.3171  0.0591
14161TIP3    H142416   0.970   0.741   4.963 -0.8982 -1.1502 -1.1077
14161TIP3    H242417   1.028   0.659   4.850  1.0019 -1.7800  0.2950
14162TIP3   OH242418   6.513   3.536   6.031  0.4783 -0.0635 -0.2782
14162TIP3    H142419   6.574   3.567   5.965  0.6752 -0.4340 -0.2722
14162TIP3    H242420   6.551   3.454   6.062  0.6377  0.3546  0.6377
14163TIP3   OH242421   0.439   2.219   0.897  0.3855  0.5246  0.1079
14163TIP3    H142422   0.515   2.260   0.855  0.7381 -0.4200 -0.1756
14163TIP3    H242423   0.380   2.293   0.917 -0.1392  0.9284 -2.7316
14164TIP3   OH242424   2.843   4.977   6.276 -0.2378 -0.3032 -0.0026
14164TIP3    H142425   2.902   5.015   6.341  1.2306  0.2657 -1.6376
14164TIP3    H242426   2.763   5.028   6.284  0.3287  0.5255  0.5640
14165TIP3   OH242427   3.393   0.337   0.292 -0.9245 -0.2138 -0.3266
14165TIP3    H142428   3.308   0.297   0.269 -0.3380 -0.7473 -1.6505
14165TIP3    H242429   3.432   0.277   0.355 -1.9554  0.5367  1.0386
14166TIP3   OH242430   7.831   7.827   1.202 -0.4065  0.3124 -0.2528
14166TIP3    H142431   7.764   7.760   1.192  0.1047 -0.2735  0.2495
14166TIP3    H242432   7.857   7.822   1.294 -0.1545  0.9985 -0.2796
14167TIP3   OH242433   3.001   0.693   0.234 -0.0801 -0.2963  0.0347
14167TIP3    H142434   3.095   0.680   0.218 -0.4739 -2.3236 -0.7447
14167TIP3    H242435   2.967   0.605   0.249 -1.7472  0.4983  1.0546
14168TIP3   OH242436   7.017   7.539   1.778  0.7706 -0.1167 -0.0697
14168TIP3    H142437   7.026   7.634   1.786 -0.8592 -0.0760  1.6721
14168TIP3    H242438   7.106   7.505   1.788  0.9520  1.0359  2.8835
14169TIP3   OH242439   3.497   1.426   0.291 -0.2292  0.2410  0.0792
14169TIP3    H142440   3.474   1.488   0.360  0.3251  0.6904 -0.1262
14169TIP3    H242441   3.567   1.470   0.242 -2.0211  0.8281 -2.0404
14170TIP3   OH242442   5.936   1.697   0.117  0.6320 -0.1308 -0.2295
14170TIP3    H142443   6.013   1.642   0.098  1.6266  1.1112  0.1058
14170TIP3    H242444   5.958   1.740   0.200 -0.6663 -0.1724  0.1376
14171TIP3   OH242445   6.934   4.375   5.862 -0.6272 -0.2679 -0.2665
14171TIP3    H142446   7.028   4.368   5.845 -0.5267  0.9715 -0.2189
14171TIP3    H242447   6.923   4.461   5.901 -1.7534 -0.5297 -0.0051
14172TIP3   OH242448   5.368   2.284   6.193  0.5934  0.7806  0.0823
14172TIP3    H142449   5.384   2.378   6.188  0.0583  0.7905 -1.9215
14172TIP3    H242450   5.416   2.248   6.118 -0.7402 -0.3033 -0.2732
14173TIP3   OH242451   3.425   1.137   1.181  0.5011 -0.1626  0.1120
14173TIP3    H142452   3.493   1.178   1.234 -2.6119  2.4675  2.2230
14173TIP3    H242453   3.401   1.203   1.117 -0.1816 -1.0094 -0.5211
14174TIP3   OH242454   4.678   2.452   6.670 -0.5343  0.0045  0.1736
14174TIP3    H142455   4.648   2.365   6.696  0.2153 -0.9441 -2.0202
14174TIP3    H242456   4.632   2.469   6.588  1.0402  0.7078 -0.5720
14175TIP3   OH242457   4.276   0.974   0.381  0.1220 -0.6929  0.2838
14175TIP3    H142458   4.371   0.968   0.368 -0.0946 -2.5677 -0.6935
14175TIP3    H242459   4.250   1.050   0.330  0.8096 -1.5113 -1.3452
14176TIP3   OH242460   0.338   5.845   6.795 -0.0508 -0.1218  0.3069
14176TIP3    H142461   0.345   5.767   6.740 -1.5187 -0.8295  1.0819
14176TIP3    H242462   0.306   5.812   6.879 -0.8343  1.3399  0.5937
14177TIP3   OH242463   3.099   0.832   1.214  0.3788  0.4879 -0.1217
14177TIP3    H142464   3.117   0.892   1.287  0.2084  1.2711 -0.7209
14177TIP3    H242465   3.181   0.829   1.165 -0.5207  2.6729 -1.8473
14178TIP3   OH242466   6.856   5.268   4.972  0.4375 -0.2752  0.2815
14178TIP3    H142467   6.877   5.258   4.879 -1.1004 -1.0692  0.0150
14178TIP3    H242468   6.835   5.361   4.982  2.4455  0.2239  0.2454
14179TIP3   OH242469   1.547   5.925   2.047  0.1231  0.2405  0.9344
14179TIP3    H142470   1.549   6.006   2.097 -0.5349  2.0787 -1.8992
14179TIP3    H242471   1.637   5.893   2.050  0.4449  1.2125  1.8600
14180TIP3   OH242472   5.508   5.710   6.023 -0.5643 -0.1441 -0.9551
14180TIP3    H142473   5.506   5.806   6.030  1.1712 -0.1548 -0.0865
14180TIP3    H242474   5.562   5.682   6.096  2.0823 -1.5522 -3.3686
14181TIP3   OH242475   0.308   7.820   1.635  0.0082  0.1062  0.2075
14181TIP3    H142476   0.249   7.890   1.608  0.8292  0.8810  0.4303
14181TIP3    H242477   0.253   7.741   1.632 -1.4307  0.9971  1.6855
14182TIP3   OH242478   7.191   5.153   5.935 -0.4065 -0.7692 -0.4709
14182TIP3    H142479   7.115   5.096   5.930 -0.2613 -0.8541 -2.0930
14182TIP3    H242480   7.155   5.241   5.935 -0.5758 -0.8366  0.6336
14183TIP3   OH242481   3.050   2.121   0.377 -0.4959 -0.0961 -0.1298
14183TIP3    H142482   2.989   2.050   0.357 -1.7442  0.4380  1.6340
14183TIP3    H242483   3.039   2.184   0.306  0.1233 -1.3372 -1.3423
14184TIP3   OH242484   6.282   3.625   5.892 -0.0589 -0.3613 -0.0619
14184TIP3    H142485   6.352   3.617   5.958 -0.3320 -0.7514  0.1768
14184TIP3    H242486   6.310   3.569   5.820 -0.2511 -0.7129  0.1391
14185TIP3   OH242487   2.596   0.942   1.004 -0.1984 -0.3371 -0.2095
14185TIP3    H142488   2.579   0.850   1.024 -2.7740  0.0923 -0.1992
14185TIP3    H242489   2.578   0.951   0.911  1.6242 -0.1587 -0.5639
14186TIP3   OH242490   6.020   3.695   5.268 -0.0228  0.2749  0.6383
14186TIP3    H142491   6.075   3.716   5.344 -1.0307 -0.1782  1.5127
14186TIP3    H242492   6.014   3.600   5.267 -1.5939  0.3441  1.1594
14187TIP3   OH242493   3.764   1.047   0.259  0.0966 -0.0669 -0.5257
14187TIP3    H142494   3.823   1.020   0.329 -1.2773 -1.0826  0.2667
14187TIP3    H242495   3.795   0.998   0.182  0.3393 -0.5212 -0.1439
14188TIP3   OH242496   3.783   2.446   0.421  0.1342 -0.1202  0.2041
14188TIP3    H142497   3.808   2.435   0.512  3.2406 -1.0640 -0.7086
14188TIP3    H242498   3.689   2.429   0.420 -0.2172  1.3546  3.4319
14189TIP3   OH242499   7.968   5.873   4.165  0.3387 -0.0542  0.1812
14189TIP3    H142500   7.951   5.949   4.109 -0.2790 -0.4499 -0.1684
14189TIP3    H242501   7.937   5.900   4.252  0.1406  0.0969  0.0630
14190TIP3   OH242502   3.909   1.054   0.752 -0.0895  0.1562 -0.0180
14190TIP3    H142503   3.910   1.136   0.801 -1.2995  0.9275 -1.2423
14190TIP3    H242504   3.829   1.010   0.779  0.7135 -0.7591  0.8587
14191TIP3   OH242505   2.552   6.498   6.885  0.2627 -0.3418  0.2693
14191TIP3    H142506   2.469   6.535   6.914 -0.1396 -0.2836 -0.9304
14191TIP3    H242507   2.532   6.458   6.800  1.5024 -0.1844 -0.1024
14192TIP3   OH242508   2.999   1.760   0.072 -0.1759 -0.1856 -0.1949
14192TIP3    H142509   2.942   1.694   0.111 -1.8940  0.5089 -1.4687
14192TIP3    H242510   3.063   1.780   0.140 -0.5555 -2.0434  0.7435
14193TIP3   OH242511   6.737   5.521   5.020 -0.0260 -0.2231 -0.2398
14193TIP3    H142512   6.726   5.540   4.927 -0.8405 -0.0551 -0.1170
14193TIP3    H242513   6.651   5.537   5.058 -0.1824 -2.0972  0.2377
14194TIP3   OH242514   1.378   7.173   0.496  0.1305  0.1599 -0.2408
14194TIP3    H142515   1.291   7.136   0.513  0.4043 -0.0199  0.7917
14194TIP3    H242516   1.406   7.210   0.580  0.8733  0.6034 -0.6726
14195TIP3   OH242517   3.537   0.365   0.051  0.8108  0.2341 -0.5117
14195TIP3    H142518   3.597   0.432   0.083 -1.8433  3.2812 -1.6544
14195TIP3    H242519   3.493   0.333   0.130  0.9324  1.0366 -0.1140
14196TIP3   OH242520   1.173   7.342   1.623  0.1677 -0.0262 -0.3056
14196TIP3    H142521   1.196   7.389   1.543 -0.4345  0.9755  0.0977
14196TIP3    H242522   1.080   7.322   1.613  0.0094  0.4080  0.2903
14197TIP3   OH242523   5.780   5.079   5.777 -0.1015 -0.0093  0.2622
14197TIP3    H142524   5.712   5.014   5.759 -0.8767  0.4094  1.6204
14197TIP3    H242525   5.767   5.146   5.710 -1.5680  0.4811  1.0376
14198TIP3   OH242526   7.452   4.580   4.833 -0.3865  0.5587 -0.0719
14198TIP3    H142527   7.390   4.536   4.776  1.5082  0.8586 -2.4413
14198TIP3    H242528   7.464   4.520   4.907 -0.3736 -1.3420 -1.5859
14199TIP3   OH242529   4.028   2.351   2.263  0.3954  0.2545 -0.1720
14199TIP3    H142530   3.993   2.358   2.174 -2.5454 -0.1807  0.8957
14199TIP3    H242531   4.073   2.434   2.277 -2.2504  1.8599 -0.7931
14200TIP3   OH242532   7.790   5.396   4.909  0.0417 -0.2052  0.3270
14200TIP3    H142533   7.749   5.482   4.906  0.6691  0.0740 -1.6626
14200TIP3    H242534   7.875   5.409   4.866  0.0664 -1.8283 -0.1630
14201TIP3   OH242535   1.825   0.754   1.221  0.4772  0.7140 -0.0705
14201TIP3    H142536   1.842   0.670   1.264  2.1033  2.1232  2.1647
14201TIP3    H242537   1.730   0.754   1.206  0.1009 -0.5795  1.9736
14202TIP3   OH242538   3.874   2.489   2.038 -0.0650  0.5130  0.0955
14202TIP3    H142539   3.819   2.528   1.970 -0.5702 -0.1197  0.1395
14202TIP3    H242540   3.813   2.462   2.106  0.2929 -0.1785  0.1531
14203TIP3   OH242541   7.332   5.484   5.364  0.3698 -0.5125  0.5079
14203TIP3    H142542   7.372   5.569   5.345 -1.1759 -0.0434 -0.7898
14203TIP3    H242543   7.341   5.474   5.459 -0.4345  1.6420  0.8370
14204TIP3   OH242544   5.860   4.022   5.856 -0.3021  0.4770 -0.3272
14204TIP3    H142545   5.914   4.036   5.777 -0.4085  0.0373 -0.4762
14204TIP3    H242546   5.913   4.060   5.927  2.2918 -3.8675  0.2466
14205TIP3   OH242547   3.955   4.125   1.614 -0.3488 -0.0984  0.4995
14205TIP3    H142548   3.950   4.029   1.619 -0.4827 -0.1855 -1.0692
14205TIP3    H242549   3.970   4.143   1.522  1.2034  1.3498  1.0161
14206TIP3   OH242550   4.004   1.951   0.501 -0.0547 -0.3890 -0.6617
14206TIP3    H142551   4.009   1.950   0.596 -1.0305 -1.8002 -0.6039
14206TIP3    H242552   3.970   2.038   0.479 -0.8365 -0.4320  0.3486
14207TIP3   OH242553   5.186   0.375   2.632 -0.3523 -0.2897 -0.7832
14207TIP3    H142554   5.171   0.403   2.542 -1.7479  1.2363 -0.0996
14207TIP3    H242555   5.151   0.447   2.685  1.5740 -0.5967  0.9643
14208TIP3   OH242556   7.346   3.840   6.446  0.3484 -0.3369 -0.3928
14208TIP3    H142557   7.432   3.821   6.483  0.0369  1.0012  1.0868
14208TIP3    H242558   7.357   3.925   6.402 -0.0311 -0.5034 -0.8143
14209TIP3   OH242559   7.389   5.523   6.324 -0.4604 -0.0325  0.6869
14209TIP3    H142560   7.484   5.532   6.338 -0.6823 -0.5870  2.7723
14209TIP3    H242561   7.362   5.609   6.293  0.7578  0.0742 -0.1414
14210TIP3   OH242562   4.083   1.111   0.982 -0.0390 -0.0887  0.6022
14210TIP3    H142563   4.036   1.040   0.937 -0.6452  0.7480 -0.0941
14210TIP3    H242564   4.019   1.148   1.042 -0.6017  1.6711 -1.0206
14211TIP3   OH242565   3.478   1.130   0.236  0.1905 -0.5972 -0.0594
14211TIP3    H142566   3.503   1.222   0.245 -2.0728  0.4065 -3.0749
14211TIP3    H242567   3.561   1.082   0.234  1.4701  1.5842 -0.4231
14212TIP3   OH242568   3.803   2.232   3.248  0.2439  0.2019 -0.0582
14212TIP3    H142569   3.890   2.192   3.250 -0.3242 -1.0091  1.1882
14212TIP3    H242570   3.762   2.198   3.169  1.0532  1.1133 -0.8773
14213TIP3   OH242571   7.400   4.541   6.554  0.0695  0.6169  0.9499
14213TIP3    H142572   7.305   4.549   6.547  0.0545 -0.5746 -0.2299
14213TIP3    H242573   7.427   4.497   6.474  1.5374  0.1931  1.6605
14214TIP3   OH242574   5.913   5.322   6.658 -0.1407  0.1576  0.3720
14214TIP3    H142575   5.859   5.349   6.733  0.5111  0.0689  0.8733
14214TIP3    H242576   5.891   5.230   6.645  0.5760 -0.1359  1.1701
14215TIP3   OH242577   5.553   0.185   4.552  0.0816 -0.4087 -0.1824
14215TIP3    H142578   5.587   0.148   4.471 -0.1362  1.6998 -1.2847
14215TIP3    H242579   5.630   0.198   4.607  0.4297 -0.3908 -0.6722
14216TIP3   OH242580   6.938   5.393   5.364 -0.3753  0.1010 -0.3226
14216TIP3    H142581   6.853   5.360   5.394  0.4642  0.0942  2.2161
14216TIP3    H242582   6.970   5.326   5.304 -0.8720 -1.3532  0.9800
14217TIP3   OH242583   4.837   3.822   4.654  0.1919 -0.1638  0.3801
14217TIP3    H142584   4.770   3.862   4.599 -2.5384 -4.0276  0.7340
14217TIP3    H242585   4.898   3.782   4.591 -1.0620 -1.6465  0.0787
14218TIP3   OH242586   3.206   1.527   0.383 -0.0198 -0.1281  0.6052
14218TIP3    H142587   3.114   1.506   0.371  0.2605  0.1310 -2.3958
14218TIP3    H242588   3.210   1.567   0.470 -3.1215  2.0270 -0.1608
14219TIP3   OH242589   4.858   0.266   1.474 -0.5682 -0.0656 -0.5769
14219TIP3    H142590   4.763   0.257   1.465 -0.5691  0.2472 -0.8818
14219TIP3    H242591   4.875   0.359   1.456 -0.4200  0.2845  1.2905
14220TIP3   OH242592   2.600   1.323   0.876 -0.0488 -0.1451  0.1126
14220TIP3    H142593   2.530   1.264   0.850 -0.3754  0.0349  0.5774
14220TIP3    H242594   2.565   1.411   0.862  0.1468 -0.0547  0.1817
14221TIP3   OH242595   6.348   1.926   2.559  0.0116 -0.0348 -0.1872
14221TIP3    H142596   6.415   1.923   2.490  0.2602 -0.8523  0.0938
14221TIP3    H242597   6.285   1.859   2.534 -0.3719  0.2905 -0.0989
14222TIP3   OH242598   6.840   4.256   6.098 -0.4845  0.4276  0.3891
14222TIP3    H142599   6.918   4.287   6.053  0.7489  0.6420  2.6224
14222TIP3    H242600   6.787   4.335   6.111  0.2783  0.7660  1.4734
14223TIP3   OH242601   6.475   3.812   6.514 -0.2120  0.3425 -0.2342
14223TIP3    H142602   6.497   3.874   6.444  0.9379 -1.7805 -1.8322
14223TIP3    H242603   6.521   3.732   6.489 -1.6423 -1.1461  1.7948
14224TIP3   OH242604   4.491   0.658   1.149 -0.2087  0.2423 -0.3775
14224TIP3    H142605   4.486   0.754   1.150  2.0601  0.4357  3.2264
14224TIP3    H242606   4.519   0.636   1.060  2.4947  3.1924 -0.3443
14225TIP3   OH242607   5.706   3.928   6.729  0.0787 -0.8393  0.4433
14225TIP3    H142608   5.747   4.011   6.705  0.4392 -0.4335  2.4035
14225TIP3    H242609   5.672   3.893   6.646  1.7911  0.2291 -0.7333
14226TIP3   OH242610   3.994   0.260   0.882  0.1521  0.2931 -0.2210
14226TIP3    H142611   3.916   0.242   0.829  0.1610  0.6316 -0.3510
14226TIP3    H242612   4.017   0.175   0.920  1.1737 -0.3243 -2.1498
14227TIP3   OH242613   6.067   5.922   4.448  0.6946 -0.1538 -0.2732
14227TIP3    H142614   5.982   5.912   4.406  0.1431 -0.1416  0.8162
14227TIP3    H242615   6.073   6.016   4.467 -0.0730 -0.4955  1.7434
14228TIP3   OH242616   6.708   5.001   6.437  0.1840 -0.5026  0.2520
14228TIP3    H142617   6.693   4.936   6.368 -2.5612  1.0972 -0.7336
14228TIP3    H242618   6.792   5.041   6.415 -0.6106 -0.0837 -2.1772
14229TIP3   OH242619   7.783   5.859   6.902  0.9488  0.3543  0.1664
14229TIP3    H142620   7.855   5.810   6.862  0.6855 -0.7862  1.0777
14229TIP3    H242621   7.737   5.795   6.956 -1.4919  0.7477 -1.3579
14230TIP3   OH242622   2.477   8.022   1.822  0.6031 -0.0927  0.2659
14230TIP3    H142623   2.546   8.081   1.789  0.1631  0.3164  0.0639
14230TIP3    H242624   2.520   7.937   1.830  1.1439  0.1691  0.1749
14231TIP3   OH242625   5.786   0.258   1.026  0.1837  0.3002 -0.1532
14231TIP3    H142626   5.757   0.335   1.074  2.4983  2.6266 -2.3159
14231TIP3    H242627   5.833   0.206   1.090 -0.9172  0.9338  1.2051
14232TIP3   OH242628   2.367   2.065   0.299  0.4707 -0.2365  0.1281
14232TIP3    H142629   2.358   1.969   0.297  1.1201 -0.2869 -0.4712
14232TIP3    H242630   2.447   2.082   0.249 -0.8290  0.7567 -1.6705
14233TIP3   OH242631   0.830   4.496   5.312  0.1269 -0.0255  0.7772
14233TIP3    H142632   0.859   4.489   5.221  2.0032 -1.1611  1.4326
14233TIP3    H242633   0.739   4.465   5.311  0.2580 -0.3926 -0.6519
14234TIP3   OH242634   8.028   4.910   4.523  0.0415  0.1696 -0.4224
14234TIP3    H142635   7.953   4.859   4.493  0.5572 -0.2991 -0.9036
14234TIP3    H242636   8.039   4.978   4.457 -1.2520  1.5196  0.7127
14235TIP3   OH242637   2.925   3.804   1.086 -0.2508  0.3857  0.6015
14235TIP3    H142638   2.921   3.801   0.990 -1.2321  0.3865  0.6347
14235TIP3    H242639   2.935   3.897   1.106 -1.6606  0.5644  0.5387
14236TIP3   OH242640   5.725   4.107   5.524  0.0813  0.3367 -0.3010
14236TIP3    H142641   5.780   4.162   5.580 -2.2346  1.4587  0.9307
14236TIP3    H242642   5.758   4.123   5.435  0.5499  2.4125  0.2224
14237TIP3   OH242643   7.187   4.860   3.094  0.3379  0.4493 -0.2643
14237TIP3    H142644   7.117   4.882   3.032 -1.1327 -2.6976  0.1911
14237TIP3    H242645   7.158   4.899   3.176 -0.9524 -0.8515 -0.0715
14238TIP3   OH242646   2.728   0.638   0.709  0.1321 -0.1603 -0.4227
14238TIP3    H142647   2.679   0.658   0.788  0.8262 -0.5141  0.1010
14238TIP3    H242648   2.781   0.716   0.693  0.9790 -0.5992  0.2130
14239TIP3   OH242649   5.899   5.835   5.508  0.1804  0.2701 -0.1546
14239TIP3    H142650   5.860   5.771   5.568 -1.3982  0.8774 -0.5012
14239TIP3    H242651   5.826   5.865   5.454  0.9554  2.0832 -0.2488
14240TIP3   OH242652   4.149   1.546   0.692  0.0700 -0.5491 -0.1519
14240TIP3    H142653   4.081   1.553   0.760 -2.1411 -0.8645 -2.2468
14240TIP3    H242654   4.185   1.459   0.704 -0.8565 -0.9074  0.1258
14241TIP3   OH242655   7.455   7.015   0.078 -0.2904  0.0571  0.2663
14241TIP3    H142656   7.495   6.970   0.153 -0.8251 -0.9768 -0.0587
14241TIP3    H242657   7.449   6.947   0.010 -0.1882  0.8806 -0.5776
14242TIP3   OH242658   7.014   4.965   5.937  0.6250 -0.1375 -0.1570
14242TIP3    H142659   6.942   5.027   5.929 -0.1455 -0.9003  0.7313
14242TIP3    H242660   7.014   4.916   5.854 -0.1892 -0.4606  0.0284
14243TIP3   OH242661   5.205   1.509   1.801 -0.2903 -0.0738 -0.3065
14243TIP3    H142662   5.257   1.447   1.853 -0.5272  1.0102  1.2579
14243TIP3    H242663   5.267   1.577   1.776 -0.2853 -0.3470 -1.0335
14244TIP3   OH242664   7.844   6.963   3.202  0.1174  0.7563 -0.1672
14244TIP3    H142665   7.924   6.915   3.223 -0.8561  0.1650  2.3690
14244TIP3    H242666   7.798   6.908   3.138  1.1978  0.5773 -0.8009
14245TIP3   OH242667   2.969   1.365   1.447 -0.2981 -0.1195 -0.0029
14245TIP3    H142668   3.043   1.419   1.472  0.1508 -1.6465  2.0745
14245TIP3    H242669   2.893   1.410   1.484 -0.1328  0.1416  0.0182
14246TIP3   OH242670   7.552   3.349   5.277 -0.4742 -0.1539  0.1858
14246TIP3    H142671   7.525   3.268   5.233  1.5233  0.3544 -2.0794
14246TIP3    H242672   7.490   3.415   5.246 -0.3638 -0.2374 -0.2182
14247TIP3   OH242673   7.285   2.906   4.997  0.1441 -0.0671  0.0948
14247TIP3    H142674   7.359   2.863   5.040 -0.9333 -0.4057  1.6659
14247TIP3    H242675   7.253   2.968   5.062 -0.7099  0.3606 -0.7254
14248TIP3   OH242676   3.943   1.710   0.405  0.6445  0.3369  0.0156
14248TIP3    H142677   3.944   1.750   0.318 -0.5139 -1.5396 -0.8883
14248TIP3    H242678   3.967   1.781   0.464  1.6866  1.5866 -1.8526
14249TIP3   OH242679   1.409   6.664   1.138  0.0468 -0.0711 -0.7530
14249TIP3    H142680   1.338   6.725   1.156 -0.8017 -1.1715 -0.2498
14249TIP3    H242681   1.488   6.715   1.151 -0.6410  0.9129 -0.3204
14250TIP3   OH242682   4.641   3.500   6.163 -0.0826 -0.4403 -0.0307
14250TIP3    H142683   4.566   3.465   6.211  0.1462 -1.1671 -0.1915
14250TIP3    H242684   4.718   3.464   6.207  0.1801  0.4821  0.2698
14251TIP3   OH242685   3.054   0.428   1.291  0.2318 -0.4595 -0.3573
14251TIP3    H142686   3.080   0.379   1.369 -1.8422 -0.5635  0.2987
14251TIP3    H242687   2.969   0.467   1.314 -0.2379 -0.2014 -2.4176
14252TIP3   OH242688   6.049   2.422   5.240 -0.1873 -0.1894 -0.5679
14252TIP3    H142689   6.000   2.420   5.157  0.7404 -0.8468 -1.1122
14252TIP3    H242690   6.121   2.482   5.222  0.0613 -0.4003 -0.2554
14253TIP3   OH242691   1.016   7.477   0.184  0.5936 -0.2791  0.1968
14253TIP3    H142692   0.932   7.489   0.228  0.0740 -2.1629 -0.2137
14253TIP3    H242693   1.027   7.555   0.130 -1.0365 -0.1313  0.0518
14254TIP3   OH242694   3.590   5.242   5.615 -0.2199 -0.5980  0.0993
14254TIP3    H142695   3.658   5.286   5.666  0.2584  0.1659 -1.1776
14254TIP3    H242696   3.508   5.263   5.661  0.1286  0.7231  0.1266
14255TIP3   OH242697   2.009   7.792   0.314  0.0559  0.5327  0.2466
14255TIP3    H142698   1.975   7.858   0.253 -0.5151  0.7577  0.8071
14255TIP3    H242699   2.102   7.785   0.291 -0.3284 -0.0235 -1.2410
14256TIP3   OH242700   4.501   1.415   0.026 -0.7687  0.1245  0.4028
14256TIP3    H142701   4.460   1.467  -0.043 -0.3488 -1.8185 -1.3933
14256TIP3    H242702   4.574   1.469   0.057  1.3147 -0.3391 -3.2776
14257TIP3   OH242703   6.287   5.277   5.931  0.0997  0.0780  0.3357
14257TIP3    H142704   6.354   5.264   5.864 -2.4884 -0.8380 -2.1743
14257TIP3    H242705   6.299   5.368   5.960  1.2660  0.4647 -1.3075
14258TIP3   OH242706   5.789   5.915   6.792 -0.0785 -0.9717 -0.2008
14258TIP3    H142707   5.702   5.945   6.819  0.5352  1.6770 -1.0266
14258TIP3    H242708   5.819   5.861   6.865 -1.2666  0.4162  1.3659
14259TIP3   OH242709   5.671   6.315   0.410  0.1245  0.0381 -0.0740
14259TIP3    H142710   5.719   6.290   0.489 -1.0888  1.5038  1.1649
14259TIP3    H242711   5.715   6.267   0.339 -0.2840 -3.2363  1.7779
14260TIP3   OH242712   6.203   3.615   4.424 -0.9641 -0.4486 -0.3973
14260TIP3    H142713   6.132   3.630   4.361 -0.9147 -0.0934 -0.3706
14260TIP3    H242714   6.283   3.628   4.373 -0.9276  0.4713 -0.1091
14261TIP3   OH242715   0.515   5.245   6.882 -0.0277  0.3743  0.5508
14261TIP3    H142716   0.607   5.248   6.856 -0.3246  0.5296 -0.5033
14261TIP3    H242717   0.491   5.336   6.897 -0.1303  0.3752  0.3857
14262TIP3   OH242718   6.297   6.850   0.308  0.1354  0.2992 -0.1323
14262TIP3    H142719   6.363   6.794   0.347 -0.5140 -0.4137 -0.0473
14262TIP3    H242720   6.269   6.804   0.229  3.1085  2.8249 -2.7841
14263TIP3   OH242721   3.531   1.262   0.822 -0.2131 -0.4309 -0.4309
14263TIP3    H142722   3.447   1.235   0.859  0.3995 -0.1727  1.1820
14263TIP3    H242723   3.532   1.357   0.831  0.3542 -0.4550 -0.2051
14264TIP3   OH242724   5.108   5.705   5.649  0.5419  0.1041 -0.6639
14264TIP3    H142725   5.014   5.717   5.639  0.3701 -1.0574 -0.4371
14264TIP3    H242726   5.118   5.643   5.720  1.4716 -0.1126 -0.9646
14265TIP3   OH242727   7.964   4.946   5.714 -0.0932  0.1161 -0.4935
14265TIP3    H142728   7.937   4.910   5.630  1.8594  0.7695 -1.4477
14265TIP3    H242729   8.058   4.927   5.720  0.1109  1.3692  0.8483
14266TIP3   OH242730   1.778   0.826   4.563  0.0661 -0.1085 -0.0553
14266TIP3    H142731   1.836   0.833   4.639  0.1434 -0.7972 -0.0473
14266TIP3    H242732   1.700   0.781   4.597 -0.6232  1.0971  0.0175
14267TIP3   OH242733   4.734   1.441   1.501 -0.0144 -0.4483  0.5268
14267TIP3    H142734   4.772   1.509   1.556  1.6535  0.2495 -1.4402
14267TIP3    H242735   4.803   1.418   1.439 -2.3660  0.0193 -2.3901
14268TIP3   OH242736   2.087   7.161   1.895  0.4232 -0.3698  0.1235
14268TIP3    H142737   2.092   7.206   1.979  0.4835 -0.5026  0.1913
14268TIP3    H242738   2.089   7.068   1.918  2.0559 -0.4042 -0.1182
14269TIP3   OH242739   6.889   5.132   6.912 -0.6725 -0.0822  0.3367
14269TIP3    H142740   6.973   5.099   6.944 -0.5799 -0.3056 -0.1263
14269TIP3    H242741   6.831   5.055   6.915 -0.7640 -0.0144  0.3116
14270TIP3   OH242742   2.952   1.514   2.263 -0.5124  0.0455  0.6374
14270TIP3    H142743   3.018   1.581   2.282 -0.1276  0.1963 -1.1561
14270TIP3    H242744   2.869   1.552   2.291 -0.1056  0.6599  1.0110
14271TIP3   OH242745   6.058   3.419   5.281  0.0374  0.0265  0.0463
14271TIP3    H142746   6.115   3.390   5.352 -0.4754  1.2226  0.9746
14271TIP3    H242747   5.972   3.429   5.323 -0.2817  0.6732 -0.7644
14272TIP3   OH242748   7.199   5.095   4.679 -0.0469  0.0826 -0.4712
14272TIP3    H142749   7.278   5.044   4.698  0.8072  1.7243  0.4897
14272TIP3    H242750   7.128   5.043   4.715  0.8509 -0.2335  0.8807
14273TIP3   OH242751   5.660   3.602   6.341 -0.1242 -0.3125 -0.2980
14273TIP3    H142752   5.617   3.622   6.258 -1.8728  0.9073  0.8590
14273TIP3    H242753   5.674   3.688   6.382  3.7624 -0.6254 -0.7588
14274TIP3   OH242754   2.479   1.388   2.105 -0.2962 -0.1287 -0.1221
14274TIP3    H142755   2.439   1.475   2.109 -0.9038 -0.3905 -0.4740
14274TIP3    H242756   2.572   1.403   2.121 -0.4297  0.5656 -0.0118
14275TIP3   OH242757   3.850   2.446   0.681 -0.0299  0.1845  0.1287
14275TIP3    H142758   3.846   2.386   0.755  1.7469 -2.0181 -1.4850
14275TIP3    H242759   3.942   2.470   0.674 -0.4255  1.6280 -0.4399
14276TIP3   OH242760   4.852   2.035   0.380  0.2141 -0.1142 -0.4804
14276TIP3    H142761   4.899   2.061   0.301  0.1530 -0.1468 -0.5276
14276TIP3    H242762   4.888   1.950   0.403  2.2836  1.1518  1.1618
14277TIP3   OH242763   8.370   4.622   6.926 -0.0971  0.4225  0.0511
14277TIP3    H142764   8.307   4.606   6.856  0.3646  1.8791 -0.7149
14277TIP3    H242765   8.453   4.587   6.892 -0.2096 -0.3266  0.5324
14278TIP3   OH242766   6.730   6.141   5.482 -0.5226  0.5187 -0.5221
14278TIP3    H142767   6.786   6.118   5.556 -1.7141  2.0596  0.8976
14278TIP3    H242768   6.738   6.067   5.422  1.9946  0.1271  0.2385
14279TIP3   OH242769   8.023   5.217   6.732 -0.0814 -0.2181 -0.2931
14279TIP3    H142770   7.967   5.168   6.671  0.6586 -1.2249 -0.1848
14279TIP3    H242771   8.109   5.177   6.723  0.1240 -0.1539  1.1518
14280TIP3   OH242772   4.901   4.439   6.073 -0.0218  0.3181  0.1022
14280TIP3    H142773   4.865   4.525   6.098 -2.7787 -1.2577  1.7746
14280TIP3    H242774   4.893   4.438   5.977 -0.7372  1.5942  0.1318
14281TIP3   OH242775   5.989   6.207   2.860  0.2464  0.4913 -0.0865
14281TIP3    H142776   5.990   6.251   2.775 -0.6941 -1.0081 -0.8905
14281TIP3    H242777   5.943   6.125   2.844 -0.1246  0.2807  1.9157
14282TIP3   OH242778   6.629   3.555   5.096 -0.2058 -0.3632  0.7983
14282TIP3    H142779   6.634   3.631   5.154  1.2801 -0.5366  0.9009
14282TIP3    H242780   6.673   3.583   5.016 -0.6978 -0.7221  0.4004
14283TIP3   OH242781   1.024   0.432   0.286  0.2962 -0.6473  0.3744
14283TIP3    H142782   1.059   0.347   0.259 -0.9310 -0.4902 -1.8685
14283TIP3    H242783   0.930   0.416   0.297 -0.2209  0.7302 -1.6527
14284TIP3   OH242784   3.360   0.326   2.141 -0.2954 -0.0641 -0.1041
14284TIP3    H142785   3.428   0.391   2.120 -1.0337  0.8289  0.2271
14284TIP3    H242786   3.393   0.282   2.219 -0.2901  0.6663  0.3132
14285TIP3   OH242787   6.451   5.309   6.377 -0.6849 -0.1634 -0.4101
14285TIP3    H142788   6.460   5.326   6.471  0.4419 -0.5268 -0.4381
14285TIP3    H242789   6.440   5.214   6.371 -3.4221  0.1325 -0.4860
14286TIP3   OH242790   1.683   7.631   1.320  0.3530  0.7601 -0.1382
14286TIP3    H142791   1.676   7.719   1.282  1.6518  1.3066  0.8903
14286TIP3    H242792   1.731   7.581   1.254  3.4238  1.9477  1.1230
14287TIP3   OH242793   8.437   2.693   4.427  0.2990  0.4164  0.2114
14287TIP3    H142794   8.372   2.761   4.441 -0.3962  0.1185 -1.4398
14287TIP3    H242795   8.391   2.611   4.443  0.2773  0.2089 -0.8720
14288TIP3   OH242796   7.608   5.093   6.689  0.2003  0.1620  0.5444
14288TIP3    H142797   7.586   5.185   6.681  1.5159  0.4145 -0.3273
14288TIP3    H242798   7.634   5.082   6.781 -0.3471  0.5597  0.7489
14289TIP3   OH242799   3.313   0.583   1.774 -0.6071 -0.1634 -0.5651
14289TIP3    H142800   3.378   0.632   1.824 -0.5946 -1.5771  0.8739
14289TIP3    H242801   3.333   0.601   1.682  0.0675  1.6102 -0.0892
14290TIP3   OH242802   6.361   5.443   5.513 -0.2266  0.0142 -0.3831
14290TIP3    H142803   6.386   5.380   5.446  1.1097  0.9784 -0.8051
14290TIP3    H242804   6.367   5.395   5.596  2.9748  0.1734 -0.4667
14291TIP3   OH242805   7.391   5.619   6.676  0.2655 -0.2250  0.6163
14291TIP3    H142806   7.473   5.667   6.690 -0.4634  0.8052  1.4405
14291TIP3    H242807   7.375   5.625   6.581  1.2143 -0.5716  0.4301
14292TIP3   OH242808   1.521   7.432   1.784 -0.2971  0.5874  0.3844
14292TIP3    H142809   1.479   7.348   1.766 -1.7733  1.2134  0.8042
14292TIP3    H242810   1.534   7.471   1.697 -0.9402  0.5385  0.2621
14293TIP3   OH242811   1.567   7.501   0.356 -0.5852  0.1135 -0.0510
14293TIP3    H142812   1.482   7.541   0.376  0.2691  1.0774  1.7148
14293TIP3    H242813   1.631   7.562   0.392  0.8329 -1.1552 -0.4100
14294TIP3   OH242814   1.494   6.925   0.516  0.2532 -0.3509 -0.4230
14294TIP3    H142815   1.441   6.997   0.482  0.7968  0.4597  0.4262
14294TIP3    H242816   1.581   6.962   0.526  0.4410 -1.0121  0.4223
14295TIP3   OH242817   0.703   7.173   1.458  1.1755  0.1895  0.5608
14295TIP3    H142818   0.630   7.216   1.414  0.1955  1.3614  3.2597
14295TIP3    H242819   0.698   7.081   1.430 -0.4651  0.5595 -0.3750
14296TIP3   OH242820   4.845   4.069   6.709  0.3981  0.2105  0.6341
14296TIP3    H142821   4.762   4.116   6.698  1.0152  1.5267  1.4756
14296TIP3    H242822   4.834   4.020   6.791  0.8316  1.2361  1.3180
14297TIP3   OH242823   5.464   0.158   0.271  0.1406  0.1275 -0.2117
14297TIP3    H142824   5.558   0.147   0.254  0.2445 -0.4203  0.6575
14297TIP3    H242825   5.449   0.111   0.353 -1.0060 -0.2555 -0.6305
14298TIP3   OH242826   1.515   7.802   0.942 -0.0850 -0.0335  0.0178
14298TIP3    H142827   1.452   7.796   1.015  0.5924 -0.0592  0.6059
14298TIP3    H242828   1.598   7.826   0.984 -0.1938  2.2743 -1.0069
14299TIP3   OH242829   5.090   4.078   6.576 -0.0669 -0.7353  0.2031
14299TIP3    H142830   5.001   4.076   6.611  0.4443 -0.7306  1.5423
14299TIP3    H242831   5.093   4.005   6.514 -0.7527 -1.2754  0.7968
14300TIP3   OH242832   1.590   7.622  -0.004 -0.2602 -0.2767  0.3077
14300TIP3    H142833   1.639   7.689  -0.051 -0.2072  1.0365  2.1885
14300TIP3    H242834   1.590   7.651   0.087 -2.1534 -1.6782  0.7924
14301TIP3   OH242835   4.294   1.340   1.110  0.1519 -0.0501  0.0393
14301TIP3    H142836   4.308   1.393   1.032  1.3633  0.8406  0.8369
14301TIP3    H242837   4.355   1.266   1.101  0.0358 -0.1373 -0.0295
14302TIP3   OH242838   8.033   4.214   6.487 -0.2527  0.5736  0.0097
14302TIP3    H142839   7.963   4.149   6.476 -0.1380  0.4694 -0.1067
14302TIP3    H242840   8.005   4.289   6.435  0.1354  0.2044 -0.7281
14303TIP3   OH242841   7.681   7.773   0.809  0.1210 -0.4761  0.1556
14303TIP3    H142842   7.653   7.837   0.874 -1.3773  0.1208 -1.0536
14303TIP3    H242843   7.761   7.810   0.771 -0.9244  0.8566 -0.7755
14304TIP3   OH242844   7.574   7.174   4.012  0.5253  0.1494  0.2703
14304TIP3    H142845   7.538   7.200   4.097  3.0029 -0.3312  1.5144
14304TIP3    H242846   7.632   7.247   3.988  2.2796 -1.1144  0.5517
14305TIP3   OH242847   5.873   7.888   5.234 -0.0671  1.0272 -0.2744
14305TIP3    H142848   5.841   7.876   5.145 -1.0083 -0.1459  0.2188
14305TIP3    H242849   5.847   7.809   5.280  0.8975  1.3866  0.9100
14306TIP3   OH242850   6.180   3.153   6.618 -0.6006  0.0427  0.3100
14306TIP3    H142851   6.203   3.147   6.710 -0.1920 -1.6421  0.1082
14306TIP3    H242852   6.084   3.151   6.617 -0.5777 -1.1935  0.6164
14307TIP3   OH242853   4.583   0.747   3.262 -0.2586 -0.3989 -0.4646
14307TIP3    H142854   4.643   0.820   3.280 -0.0734 -0.0261 -2.4508
14307TIP3    H242855   4.639   0.680   3.223 -0.6417 -1.1630  0.2986
14308TIP3   OH242856   7.263   4.620   2.794  0.6659 -0.2060 -0.5170
14308TIP3    H142857   7.282   4.540   2.746  1.2100  0.1287 -0.8531
14308TIP3    H242858   7.258   4.689   2.727  2.2275  0.3999 -0.0179
14309TIP3   OH242859   6.947   4.784   5.724  0.1214 -0.9245 -0.2826
14309TIP3    H142860   6.981   4.721   5.660  0.1385 -0.3803 -0.8177
14309TIP3    H242861   6.910   4.854   5.671  3.0555  1.1151  0.2594
14310TIP3   OH242862   7.349   5.269   6.226 -0.3734  0.6631  0.1101
14310TIP3    H142863   7.359   5.303   6.137 -1.0643  1.8764  0.4883
14310TIP3    H242864   7.345   5.347   6.281 -0.2248 -0.0816  1.1800
14311TIP3   OH242865   3.115   1.904   0.575 -0.0747 -0.3388 -0.5574
14311TIP3    H142866   3.199   1.950   0.581 -0.0699 -0.3339 -0.6682
14311TIP3    H242867   3.053   1.971   0.546 -0.6504  0.3261  2.0466
14312TIP3   OH242868   1.185   6.115   6.851  0.3307 -0.1846  0.3823
14312TIP3    H142869   1.164   6.034   6.804  1.5737 -1.9314  2.7325
14312TIP3    H242870   1.270   6.142   6.815 -0.2665  0.2777 -0.6731
14313TIP3   OH242871   7.547   5.621   5.935 -0.0311 -0.2939  0.2597
14313TIP3    H142872   7.482   5.672   5.983 -0.2764  0.5606 -0.9617
14313TIP3    H242873   7.612   5.685   5.907  0.0887 -0.7644 -0.5672
14314TIP3   OH242874   7.339   2.079   0.974 -0.3122 -0.6893  0.6600
14314TIP3    H142875   7.399   2.059   1.046 -0.1692  0.7043  0.9432
14314TIP3    H242876   7.392   2.127   0.911 -0.6890 -1.0296  0.0839
14315TIP3   OH242877   6.585   1.456  -0.003 -0.1546 -0.0321 -0.5003
14315TIP3    H142878   6.529   1.388   0.034  0.2061 -0.1028 -0.0783
14315TIP3    H242879   6.674   1.426   0.016  0.0111  0.4185 -0.5668
14316TIP3   OH242880   8.317   6.034   5.094  0.9131 -0.3628 -0.4874
14316TIP3    H142881   8.387   6.056   5.155  1.5231 -0.5186 -1.1257
14316TIP3    H242882   8.362   6.011   5.012  0.1470 -0.8861 -0.7732
14317TIP3   OH242883   2.940   7.670   0.855  0.0173  0.3448  0.0193
14317TIP3    H142884   2.982   7.713   0.781 -1.8864  0.3310 -1.0960
14317TIP3    H242885   2.915   7.742   0.914 -0.4248  0.5381 -0.3994
14318TIP3   OH242886   1.405   5.270   4.367 -0.1753 -0.2370 -0.1391
14318TIP3    H142887   1.411   5.322   4.448 -0.2137 -1.2198  0.5107
14318TIP3    H242888   1.489   5.226   4.361 -0.3312 -0.4991 -0.4049
14319TIP3   OH242889   7.704   7.429   3.986  0.3180 -0.1086  0.3216
14319TIP3    H142890   7.771   7.497   3.981  0.2449 -0.1733 -2.0755
14319TIP3    H242891   7.625   7.471   3.954  0.1937 -1.1850 -0.8478
14320TIP3   OH242892   6.739   4.864   6.032 -0.4372 -0.2343 -0.2261
14320TIP3    H142893   6.793   4.935   6.065  0.7263 -0.8762 -0.7390
14320TIP3    H242894   6.683   4.906   5.966 -0.4837  0.4081  0.2218
14321TIP3   OH242895   0.621   6.373   4.474  0.8857 -0.0201  0.3360
14321TIP3    H142896   0.630   6.353   4.381  2.9646  1.0902  0.2577
14321TIP3    H242897   0.712   6.377   4.506  0.3065  2.2765  1.7990
14322TIP3   OH242898   5.871   5.345   4.550  0.2223 -0.0136 -0.1998
14322TIP3    H142899   5.808   5.285   4.590  0.2296  1.5649  2.2289
14322TIP3    H242900   5.946   5.290   4.528  0.3815 -0.8503  2.3496
14323TIP3   OH242901   4.678   0.937   5.262 -0.1781  0.0651 -0.2208
14323TIP3    H142902   4.763   0.964   5.295 -0.0946  0.6655 -0.9360
14323TIP3    H242903   4.655   1.002   5.196 -1.8648  0.7467  1.0038
14324TIP3   OH242904   0.431   5.180   6.152  0.2741  0.3650 -0.1354
14324TIP3    H142905   0.500   5.211   6.093  0.3362 -1.4528 -1.0365
14324TIP3    H242906   0.364   5.145   6.094 -1.2547  1.7642  0.7544
14325TIP3   OH242907   3.275   0.895   6.242 -0.2674  0.2976 -0.1734
14325TIP3    H142908   3.226   0.889   6.160 -0.3718  0.2905 -0.1096
14325TIP3    H242909   3.243   0.823   6.295 -1.1260  1.0755  0.3750
14326TIP3   OH242910   0.761   5.356   4.489  0.3644 -0.1156 -0.3901
14326TIP3    H142911   0.781   5.367   4.582  1.6116  0.1120 -0.6751
14326TIP3    H242912   0.670   5.328   4.488 -0.1264  1.3454  0.8198
14327TIP3   OH242913   4.497   1.802   0.709 -0.0939  0.2295 -0.6405
14327TIP3    H142914   4.433   1.756   0.654 -1.8792  1.0639  0.7063
14327TIP3    H242915   4.546   1.732   0.752 -1.3325 -0.4252 -0.2824
14328TIP3   OH242916   6.639   3.002   6.597  0.2947 -0.0473  0.7022
14328TIP3    H142917   6.555   2.966   6.571  0.3365  1.6001 -1.8876
14328TIP3    H242918   6.695   2.925   6.609 -1.3295 -1.1078  1.6384
14329TIP3   OH242919   6.427   5.028   6.377 -0.3595  0.2199 -0.4127
14329TIP3    H142920   6.396   4.938   6.371 -1.1853  0.5432 -1.2345
14329TIP3    H242921   6.511   5.022   6.422 -0.3744 -0.9625 -0.5282
14330TIP3   OH242922   1.814   5.251   5.330 -0.8018  0.1607  0.1836
14330TIP3    H142923   1.733   5.200   5.335 -0.1359 -1.0315 -1.1306
14330TIP3    H242924   1.877   5.202   5.383 -1.1077  1.4684  1.8143
14331TIP3   OH242925   7.257   4.361   6.216  0.3099 -0.1632 -0.2884
14331TIP3    H142926   7.232   4.289   6.159 -1.5108  0.1947  0.0384
14331TIP3    H242927   7.228   4.440   6.170 -2.5039  0.0597  1.7582
14332TIP3   OH242928   7.197   5.045   6.232 -0.4899  0.0426 -0.0802
14332TIP3    H142929   7.261   5.114   6.251  0.9148 -1.2251 -0.1868
14332TIP3    H242930   7.190   5.045   6.136 -1.8396  1.2330 -0.0009
14333TIP3   OH242931   1.821   4.258   3.827  0.0323  0.1833 -0.3049
14333TIP3    H142932   1.736   4.299   3.843 -1.0074 -2.2923  0.7056
14333TIP3    H242933   1.801   4.169   3.800  2.3063 -0.7096  0.7800
14334TIP3   OH242934   8.164   2.685   3.175 -0.2870  0.1923  0.2131
14334TIP3    H142935   8.107   2.709   3.102 -0.2342  0.5689  0.2940
14334TIP3    H242936   8.204   2.768   3.202 -0.4609  0.0854  0.7991
14335TIP3   OH242937   6.279   7.495   1.697 -0.3964 -0.0241 -0.2301
14335TIP3    H142938   6.248   7.408   1.671  0.0603 -0.2170 -0.1467
14335TIP3    H242939   6.366   7.478   1.735 -0.8065  0.3148  0.8748
14336TIP3   OH242940   0.262   4.777   1.754  0.1508  0.0856  0.3044
14336TIP3    H142941   0.284   4.723   1.678 -2.7962 -2.3480  1.1042
14336TIP3    H242942   0.191   4.833   1.723 -1.5420 -1.4059  1.4269
14337TIP3   OH242943   6.235   2.634   0.777  0.2196  0.1464 -0.0854
14337TIP3    H142944   6.236   2.539   0.782 -0.9224  0.1292  0.0124
14337TIP3    H242945   6.208   2.653   0.687 -0.2768  0.3748  0.1095
14338TIP3   OH242946   1.589   6.423   6.060 -0.0901  0.3582 -0.2012
14338TIP3    H142947   1.613   6.403   6.150  1.8363 -1.3349 -1.0555
14338TIP3    H242948   1.566   6.339   6.021 -0.6903  1.0413 -1.3665
14339TIP3   OH242949   8.262   3.990   0.161 -0.5880 -0.2147 -0.1382
14339TIP3    H142950   8.188   4.041   0.128 -0.5368  0.6982  1.1197
14339TIP3    H242951   8.338   4.026   0.115 -0.5751  0.7384  0.6099
14340TIP3   OH242952   8.100   3.231   2.266  0.4965  0.7407 -0.4471
14340TIP3    H142953   8.090   3.225   2.171 -1.4590  0.8489 -0.2527
14340TIP3    H242954   8.099   3.140   2.296 -0.0278  0.7650 -0.4023
14341TIP3   OH242955   7.494   7.680   1.888  0.3019  0.0596  0.4459
14341TIP3    H142956   7.433   7.673   1.814  1.8945  0.2472 -0.8985
14341TIP3    H242957   7.441   7.719   1.957 -1.3065 -0.3963 -0.4839
14342TIP3   OH242958   1.885   7.451   4.462 -0.5177 -0.0392  0.4995
14342TIP3    H142959   1.965   7.501   4.476 -0.0651 -0.5622 -0.2313
14342TIP3    H242960   1.914   7.360   4.458 -0.9025 -0.0798 -1.7454
14343TIP3   OH242961   5.623   1.394   0.548  0.5973  0.2175  0.0674
14343TIP3    H142962   5.530   1.381   0.532  0.1928  1.3457  1.3818
14343TIP3    H242963   5.657   1.434   0.468 -0.1853  0.3707 -0.1882
14344TIP3   OH242964   6.286   2.081   1.145  0.2251 -0.0489 -0.1354
14344TIP3    H142965   6.301   2.129   1.227  1.6614  2.0253 -1.5408
14344TIP3    H242966   6.373   2.073   1.106 -0.5141 -0.4235 -1.7531
14345TIP3   OH242967   6.229   1.386   0.901  0.1411 -0.1309  0.4035
14345TIP3    H142968   6.244   1.452   0.833 -0.3338  1.1166  1.5125
14345TIP3    H242969   6.300   1.398   0.963  0.0171 -0.6317  0.6483
14346TIP3   OH242970   1.021   1.264   3.204 -0.2381 -0.2238  0.2336
14346TIP3    H142971   1.082   1.336   3.216 -1.5013  1.2226 -1.8093
14346TIP3    H242972   1.052   1.196   3.264  1.4663  1.6789  1.5547
14347TIP3   OH242973   0.251   2.543   2.575 -0.6215 -0.2031  0.1079
14347TIP3    H142974   0.216   2.563   2.488 -0.2117 -3.9643 -1.0404
14347TIP3    H242975   0.190   2.478   2.611  1.0290 -1.1658  1.2381
14348TIP3   OH242976   6.373   1.631   0.028 -0.0575  0.0826  0.6133
14348TIP3    H142977   6.444   1.577  -0.007 -0.3713 -0.4265  0.7582
14348TIP3    H242978   6.412   1.674   0.104  0.4249  0.6707  0.0382
14349TIP3   OH242979   1.746   6.125   5.999  0.3491 -0.0848 -0.1618
14349TIP3    H142980   1.738   6.126   6.095  0.0334 -0.0903 -0.1886
14349TIP3    H242981   1.831   6.086   5.983  0.7458  0.6330  0.1389
14350TIP3   OH242982   1.482   2.316   0.417  0.4626 -0.0588 -0.1272
14350TIP3    H142983   1.545   2.301   0.346 -0.0545  0.0639 -0.6203
14350TIP3    H242984   1.399   2.333   0.372  0.1100 -0.0596  0.5122
14351TIP3   OH242985   0.413   3.263   0.811 -0.0819 -0.3846  0.1134
14351TIP3    H142986   0.412   3.318   0.890  0.4182  0.2924 -0.3457
14351TIP3    H242987   0.320   3.252   0.788 -0.1661  0.7366 -0.1051
14352TIP3   OH242988   6.839   4.663   0.504  0.1223 -0.4468  0.3332
14352TIP3    H142989   6.927   4.627   0.521  0.7604  0.0256 -1.8727
14352TIP3    H242990   6.854   4.756   0.488 -1.0218 -0.0077  1.6630
14353TIP3   OH242991   7.458   5.163   1.825  0.5423  0.0154  0.1252
14353TIP3    H142992   7.382   5.214   1.796  0.9040 -0.2011 -1.2342
14353TIP3    H242993   7.451   5.163   1.920 -0.4518  1.0874  0.0724
14354TIP3   OH242994   5.323   7.742   0.362 -0.0255 -0.5226 -0.0178
14354TIP3    H142995   5.325   7.833   0.331  0.3327 -0.5172  0.0113
14354TIP3    H242996   5.320   7.689   0.282 -1.2407 -0.4627 -0.0108
14355TIP3   OH242997   0.406   7.854   6.798 -0.1879  0.1115 -0.3917
14355TIP3    H142998   0.370   7.935   6.834  1.5807  1.0196 -0.5965
14355TIP3    H242999   0.442   7.880   6.713 -1.3361 -1.3177 -1.3443
14356TIP3   OH243000   1.334   6.811   5.415 -0.1849  0.0032  0.4070
14356TIP3    H143001   1.276   6.742   5.446 -0.9995  0.8920  0.8708
14356TIP3    H243002   1.295   6.892   5.447 -0.1808  0.8211 -1.5581
14357TIP3   OH243003   1.272   5.017   6.865 -0.0979 -0.4807 -0.8354
14357TIP3    H143004   1.340   4.999   6.800 -0.4451 -1.4048 -0.9491
14357TIP3    H243005   1.273   5.112   6.875  3.5992 -0.6770  1.6923
14358TIP3   OH243006   0.776   6.240   6.793  0.2785 -0.0329 -0.1941
14358TIP3    H143007   0.689   6.277   6.773 -0.2337  0.1059  2.1375
14358TIP3    H243008   0.831   6.317   6.809  1.0147 -0.1000 -2.2405
14359TIP3   OH243009   6.584   0.653   0.999 -0.0077  0.2872 -0.1368
14359TIP3    H143010   6.572   0.660   1.094  0.3710  0.1838 -0.0788
14359TIP3    H243011   6.504   0.689   0.962 -0.0137  0.6427  0.2181
14360TIP3   OH243012   1.747   7.058   6.550 -0.1109 -0.3687  0.2119
14360TIP3    H143013   1.722   7.082   6.461 -0.4981 -1.0732  0.1249
14360TIP3    H243014   1.829   7.104   6.566  1.3247 -2.2800 -1.4563
14361TIP3   OH243015   1.616   6.618   6.542 -0.0061 -0.0002  0.1942
14361TIP3    H143016   1.557   6.691   6.563  1.7473  1.4902  0.0948
14361TIP3    H243017   1.668   6.606   6.622  1.3444  0.4744 -0.5895
14362TIP3   OH243018   3.633   5.979   5.776  0.5092 -0.2368  0.3380
14362TIP3    H143019   3.693   6.032   5.829 -0.0194  1.8004 -1.0472
14362TIP3    H243020   3.546   6.004   5.807  0.2750 -0.7850  0.1189
14363TIP3   OH243021   6.753   0.941   0.097  0.1785 -0.7730 -0.3540
14363TIP3    H143022   6.753   1.002   0.170 -0.4598 -0.8682 -0.2671
14363TIP3    H243023   6.830   0.965   0.045  1.2816 -1.4561  0.9574
14364TIP3   OH243024   6.838   1.382   1.442  0.0070  0.6137 -0.1034
14364TIP3    H143025   6.915   1.374   1.387  0.1867 -0.3689  0.2748
14364TIP3    H243026   6.863   1.443   1.511  1.3301 -1.6560  1.4885
14365TIP3   OH243027   0.092   1.113   0.313 -0.0096 -0.3418  0.7404
14365TIP3    H143028   0.119   1.096   0.222  1.3346  0.4314  0.9709
14365TIP3    H243029   0.072   1.206   0.315  1.4850 -0.0105  1.5759
14366TIP3   OH243030   6.340   0.691   0.859  0.2621 -0.1776 -0.1950
14366TIP3    H143031   6.345   0.600   0.830  1.1921  0.2607 -1.4599
14366TIP3    H243032   6.264   0.693   0.917 -0.7400 -1.4273 -1.4115
14367TIP3   OH243033   6.053   1.859   0.292 -0.0792  0.0570 -0.2424
14367TIP3    H143034   6.031   1.936   0.240 -0.6332 -0.6362 -1.0401
14367TIP3    H243035   5.975   1.842   0.345 -0.3454 -0.5628 -0.8210
14368TIP3   OH243036   8.349   0.582   1.766  0.0670 -0.0544 -0.2914
14368TIP3    H143037   8.419   0.642   1.790 -1.1514  1.0996  0.4261
14368TIP3    H243038   8.286   0.636   1.718 -0.8074 -0.8644 -0.0742
14369TIP3   OH243039   0.313   0.871   2.055  0.3715  0.2276  0.4016
14369TIP3    H143040   0.287   0.961   2.036  1.2440  0.4005 -0.0129
14369TIP3    H243041   0.340   0.873   2.147  1.3321  0.6167  0.1163
14370TIP3   OH243042   7.259   2.127   0.262  0.5802 -0.0061 -0.0510
14370TIP3    H143043   7.328   2.099   0.201  0.2974  0.1332 -0.4322
14370TIP3    H243044   7.198   2.178   0.208  0.2046 -0.0848  0.2995
14371TIP3   OH243045   7.461   1.162   0.263 -0.0900  0.1868  0.3858
14371TIP3    H143046   7.554   1.144   0.272  0.0322  1.4547  1.7256
14371TIP3    H243047   7.421   1.124   0.341 -0.3776  1.8697  1.0616
14372TIP3   OH243048   0.201   2.321   1.122 -0.3353  0.0182  0.0818
14372TIP3    H143049   0.272   2.256   1.130  0.2359  0.4305 -1.5801
14372TIP3    H243050   0.122   2.272   1.146  0.3209 -0.8143  0.5995
14373TIP3   OH243051   7.834   2.002   0.262  0.0057 -0.0020 -0.1315
14373TIP3    H143052   7.805   2.022   0.351 -0.9756  0.0880 -0.4614
14373TIP3    H243053   7.863   1.912   0.265 -0.1760 -0.0454  0.2517
14374TIP3   OH243054   0.818   1.916   3.819 -0.0980 -0.2118  0.9930
14374TIP3    H143055   0.836   2.008   3.839  0.5924 -0.5840  2.0972
14374TIP3    H243056   0.903   1.872   3.830 -0.9197 -1.3871  2.7856
14375TIP3   OH243057   8.449   1.400   1.447 -0.5401  0.4425 -0.3217
14375TIP3    H143058   8.418   1.449   1.522 -2.2285 -1.7374  0.4618
14375TIP3    H243059   8.372   1.355   1.414  1.1243 -2.6944 -0.1858
14376TIP3   OH243060   2.096   1.426   0.773  0.4209  0.1088  0.0962
14376TIP3    H143061   2.088   1.331   0.770 -1.3543  0.2243  0.4252
14376TIP3    H243062   2.129   1.444   0.861  0.4139 -0.1930  0.1617
14377TIP3   OH243063   1.232   3.167   3.523  0.0307  0.2078  0.3374
14377TIP3    H143064   1.242   3.262   3.528 -1.3997  0.4030 -0.1740
14377TIP3    H243065   1.175   3.146   3.597  1.4366 -0.4372  1.2601
14378TIP3   OH243066   2.075   6.757   6.632  0.0529  0.4447  0.5014
14378TIP3    H143067   2.037   6.727   6.549  1.8846  0.7220 -0.4601
14378TIP3    H243068   2.160   6.711   6.637  0.6277  1.5990  1.4842
14379TIP3   OH243069   0.580   1.525   3.081 -0.0038 -0.0351 -0.7977
14379TIP3    H143070   0.536   1.446   3.051  0.2335 -1.9896  3.6399
14379TIP3    H243071   0.674   1.506   3.072  0.0906 -1.1236  2.2148
14380TIP3   OH243072   0.784   3.906   3.595 -0.2179 -0.1214  0.4870
14380TIP3    H143073   0.835   3.825   3.588  0.8412  0.1983  3.5877
14380TIP3    H243074   0.693   3.876   3.603  0.1070 -1.0089  0.9773
14381TIP3   OH243075   7.883   0.793   2.424 -0.4629  0.2569 -0.0601
14381TIP3    H143076   7.847   0.773   2.510  0.3375 -1.6661 -0.1528
14381TIP3    H243077   7.807   0.790   2.365 -0.8568  0.6308  0.4197
14382TIP3   OH243078   5.140   6.061   5.544 -0.1155  0.3477  0.5597
14382TIP3    H143079   5.058   6.105   5.522 -1.1075 -2.8466 -2.5544
14382TIP3    H243080   5.208   6.125   5.523 -1.6686  2.2375  1.0989
14383TIP3   OH243081   1.145   2.989   1.303  0.7637 -0.8340 -0.1522
14383TIP3    H143082   1.182   2.993   1.392  1.8850  1.8524 -0.6833
14383TIP3    H243083   1.058   2.952   1.315  1.5093 -2.0375  1.8578
14384TIP3   OH243084   1.083   3.648   2.913  0.4479  0.2356 -0.1735
14384TIP3    H143085   1.040   3.563   2.921  0.0283  0.4499 -0.1378
14384TIP3    H243086   1.156   3.643   2.974  0.8197 -0.3429 -0.6644
14385TIP3   OH243087   3.568   7.600   6.596 -0.4701 -0.3091  0.1612
14385TIP3    H143088   3.500   7.658   6.628 -0.8160 -0.9508  0.5964
14385TIP3    H243089   3.571   7.529   6.660  2.0463  0.7504  1.3027
14386TIP3   OH243090   5.831   7.515   2.739  0.5619 -0.1206  0.2025
14386TIP3    H143091   5.849   7.483   2.650 -0.9459 -1.0047  0.2048
14386TIP3    H243092   5.903   7.481   2.791  1.8185  0.9515 -0.7868
14387TIP3   OH243093   0.199   2.159   0.022  0.1453  0.0571  0.1243
14387TIP3    H143094   0.208   2.083   0.080 -1.4522 -0.1322  0.1578
14387TIP3    H243095   0.142   2.219   0.071 -1.8671 -0.4315 -1.5307
14388TIP3   OH243096   7.998   2.214   0.213  0.0476  0.1560  0.2188
14388TIP3    H143097   7.944   2.135   0.214 -1.1383  0.8797  3.9803
14388TIP3    H243098   7.945   2.280   0.169 -0.3046 -0.3098 -0.0507
14389TIP3   OH243099   7.476   2.930   0.084 -0.2529  0.0455 -0.0816
14389TIP3    H143100   7.498   2.889   0.000 -0.8513 -0.6103  0.0759
14389TIP3    H243101   7.556   2.921   0.136 -0.6640 -1.7922  0.2767
14390TIP3   OH243102   2.912   6.536   6.820 -0.0787 -0.4950  0.2192
14390TIP3    H143103   2.840   6.507   6.763  1.4285 -0.0665 -1.9577
14390TIP3    H243104   2.920   6.630   6.802  0.6177 -0.4106  0.9472
14391TIP3   OH243105   4.824   0.436   5.816  0.0781  0.4896  0.0914
14391TIP3    H143106   4.790   0.526   5.817 -1.4064 -0.0561 -0.3183
14391TIP3    H243107   4.896   0.438   5.752 -0.9683  1.0412 -1.0988
14392TIP3   OH243108   6.111   2.998   2.202  0.1409 -0.0209 -0.3624
14392TIP3    H143109   6.134   3.005   2.109 -2.4004  0.3030 -0.9825
14392TIP3    H243110   6.057   3.075   2.220  0.8150  0.0578  1.4627
14393TIP3   OH243111   7.547   7.372   1.133 -0.3245  0.0245  0.1229
14393TIP3    H143112   7.568   7.279   1.146  0.2499 -0.1895 -2.1102
14393TIP3    H243113   7.452   7.377   1.146 -0.4109 -0.9344 -0.0685
14394TIP3   OH243114   0.115   2.035   3.246 -0.3191 -0.4909 -0.2688
14394TIP3    H143115   0.187   2.098   3.243 -1.7711  1.2390  0.0470
14394TIP3    H243116   0.055   2.071   3.311 -2.1731 -1.1081 -1.5936
14395TIP3   OH243117   0.195   2.374   1.431  0.3358  0.6715  0.2971
14395TIP3    H143118   0.109   2.362   1.472  0.0602  0.3455 -0.3712
14395TIP3    H243119   0.175   2.395   1.340  1.0224 -2.4518 -0.6308
14396TIP3   OH243120   0.823   1.856   1.785  0.4891 -0.2218 -0.8124
14396TIP3    H143121   0.747   1.849   1.728  0.4490  0.0577 -0.7962
14396TIP3    H243122   0.788   1.887   1.868  0.7424  0.8656 -1.1017
14397TIP3   OH243123   0.541   2.879   0.081  0.0602  0.0068  0.2031
14397TIP3    H143124   0.542   2.967   0.119  0.0455 -0.0325  0.2952
14397TIP3    H243125   0.632   2.860   0.061  0.0012  0.2596 -0.3167
14398TIP3   OH243126   8.020   2.600   1.019 -0.4328  0.7697 -0.2368
14398TIP3    H143127   8.104   2.579   0.977 -0.4441 -2.9978  1.4244
14398TIP3    H243128   8.044   2.646   1.099 -0.0060  0.6722 -0.3075
14399TIP3   OH243129   3.538   4.265   6.782 -0.0541  0.2739  0.3599
14399TIP3    H143130   3.523   4.190   6.725 -0.0412  0.9595 -0.5592
14399TIP3    H243131   3.619   4.304   6.750 -0.1765  0.8063  0.6939
14400TIP3   OH243132   0.848   1.723   1.480  0.7922 -0.5072  0.4251
14400TIP3    H143133   0.758   1.693   1.464  0.2784  0.3321  1.6313
14400TIP3    H243134   0.884   1.661   1.543  0.8827 -0.5344  0.3475
14401TIP3   OH243135   0.475   2.437   2.943  0.4408  0.6893 -0.2913
14401TIP3    H143136   0.501   2.417   2.853 -0.2673  0.8648 -0.5372
14401TIP3    H243137   0.556   2.434   2.993  0.5106 -1.8418 -0.5011
14402TIP3   OH243138   8.294   1.861   1.540  0.1385  0.2151 -0.1802
14402TIP3    H143139   8.364   1.835   1.480 -0.2238 -0.6619 -0.2331
14402TIP3    H243140   8.246   1.929   1.494  1.2490  1.1623  0.0498
14403TIP3   OH243141   1.376   6.708   6.632  0.5703  0.1326 -0.0333
14403TIP3    H143142   1.339   6.628   6.669  0.6054  0.7460  1.3450
14403TIP3    H243143   1.299   6.760   6.606  0.5494 -0.4144 -1.1164
14404TIP3   OH243144   6.121   2.515   1.104 -0.1348  0.1964 -0.1619
14404TIP3    H143145   6.075   2.466   1.036 -0.5359 -2.2941  1.8412
14404TIP3    H243146   6.213   2.495   1.089 -0.1197  0.5641 -0.6147
14405TIP3   OH243147   5.793   2.686   0.976 -0.2767  0.1353  0.2247
14405TIP3    H143148   5.815   2.637   1.055  1.8380  0.6427  0.0027
14405TIP3    H243149   5.763   2.771   1.008 -0.6684 -0.1112  0.5148
14406TIP3   OH243150   2.198   7.567   6.880 -0.9768 -0.0519  0.4887
14406TIP3    H143151   2.245   7.484   6.889 -1.4629 -0.4738 -0.7914
14406TIP3    H243152   2.264   7.634   6.899 -0.6610 -0.7314  1.8396
14407TIP3   OH243153   0.371   3.459   1.034 -0.1227 -0.2449  0.0631
14407TIP3    H143154   0.407   3.535   0.989 -1.2774 -0.2553 -0.9227
14407TIP3    H243155   0.316   3.496   1.103 -0.3318 -0.1718 -0.1380
14408TIP3   OH243156   8.316   1.987   0.228 -0.3287 -0.7296 -0.1438
14408TIP3    H143157   8.243   2.014   0.172 -2.5482 -2.9128  1.5931
14408TIP3    H243158   8.331   2.062   0.285 -0.7032  0.0002 -0.9796
14409TIP3   OH243159   3.082   6.261   6.371 -0.3718 -0.4448 -0.0304
14409TIP3    H143160   3.173   6.230   6.374  0.2176  1.1189 -0.7443
14409TIP3    H243161   3.029   6.184   6.391  1.0669 -1.6650 -0.8042
14410TIP3   OH243162   0.800   0.456   1.764  0.2885 -0.0124 -0.2976
14410TIP3    H143163   0.827   0.487   1.851  0.8626 -0.4589 -0.3085
14410TIP3    H243164   0.714   0.417   1.778  0.6967 -0.7435  0.2199
14411TIP3   OH243165   4.756   0.007   5.769  0.4611  0.7594  0.1007
14411TIP3    H143166   4.829   0.052   5.727  0.6685  0.7510  0.4499
14411TIP3    H243167   4.691  -0.005   5.699  2.3099 -2.5782 -1.1346
14412TIP3   OH243168   0.064   3.361   0.152  0.1932 -0.0164  0.3108
14412TIP3    H143169   0.112   3.438   0.183 -1.2667  1.4858 -1.0975
14412TIP3    H243170   0.113   3.331   0.076 -0.7479  1.1925 -0.7972
14413TIP3   OH243171   0.777   3.720   2.806  0.2614  0.5182  0.0756
14413TIP3    H143172   0.847   3.717   2.741  0.1687 -0.3347  0.0112
14413TIP3    H243173   0.761   3.629   2.829 -1.5789  0.6202 -0.6896
14414TIP3   OH243174   8.078   2.802   1.233  0.7218  0.9160  0.3590
14414TIP3    H143175   8.029   2.830   1.310 -2.3511  0.8609 -1.5187
14414TIP3    H243176   8.093   2.882   1.183 -1.9604  0.2562 -1.5712
14415TIP3   OH243177   0.174   2.795   2.751  0.1552 -0.9972  0.0224
14415TIP3    H143178   0.260   2.801   2.710  0.5834 -1.9526  0.7585
14415TIP3    H243179   0.115   2.841   2.691  1.5829  1.8580  0.7594
14416TIP3   OH243180   2.378   2.453   2.580 -0.0176 -0.2145 -0.0823
14416TIP3    H143181   2.410   2.543   2.571 -0.8262  0.1383  0.5409
14416TIP3    H243182   2.456   2.399   2.566  0.3879  0.5633 -0.9168
14417TIP3   OH243183   4.736   5.470   6.703 -0.4130  0.1407  0.5651
14417TIP3    H143184   4.657   5.466   6.756 -2.3106 -0.4289 -2.1918
14417TIP3    H243185   4.757   5.378   6.684  1.2929  0.2554  1.7871
14418TIP3   OH243186   8.460   0.232   0.560  0.7556 -0.2710 -0.2924
14418TIP3    H143187   8.432   0.272   0.642  2.8915  1.7350 -0.5010
14418TIP3    H243188   8.410   0.277   0.492 -0.2730 -1.2361 -0.1886
14419TIP3   OH243189   8.072   2.560   1.888  0.6736 -0.0838  0.1216
14419TIP3    H143190   8.137   2.629   1.877  1.5003 -0.6016  1.5601
14419TIP3    H243191   8.079   2.508   1.808 -0.0495  1.5534 -1.0235
14420TIP3   OH243192   0.567   1.442   3.529 -0.2222  0.3945  0.2248
14420TIP3    H143193   0.506   1.399   3.590  1.1433 -1.5712  0.2550
14420TIP3    H243194   0.653   1.428   3.567  0.2430  3.8664  0.5957
14421TIP3   OH243195   4.194   3.802   5.253  0.3115 -0.2554 -0.4999
14421TIP3    H143196   4.153   3.725   5.294  0.5241 -0.5566 -0.8549
14421TIP3    H243197   4.158   3.876   5.302 -1.4605 -0.4489 -1.4781
14422TIP3   OH243198   8.505   2.072   1.943 -0.5484  0.1183 -0.1930
14422TIP3    H143199   8.445   2.000   1.921 -0.9568  0.3866  0.0206
14422TIP3    H243200   8.540   2.101   1.858 -0.3361 -0.3714 -0.2723
14423TIP3   OH243201   0.781   1.422   0.200 -0.0686 -0.7693 -0.3599
14423TIP3    H143202   0.876   1.425   0.192 -0.1557 -0.3950 -1.2335
14423TIP3    H243203   0.765   1.414   0.295  0.8308 -1.0509 -0.2352
14424TIP3   OH243204   6.287   0.254   2.695 -0.1024  0.1472 -0.4600
14424TIP3    H143205   6.200   0.273   2.729  0.7926  1.7482  1.0253
14424TIP3    H243206   6.340   0.234   2.772  1.1548  0.4668 -1.2076
14425TIP3   OH243207   1.146   2.730   0.166  0.8244 -0.5366 -0.2415
14425TIP3    H143208   1.213   2.701   0.105  1.2973  1.0721 -0.5049
14425TIP3    H243209   1.166   2.822   0.182 -0.7527 -0.2902  0.4165
14426TIP3   OH243210   6.415   1.059   0.275 -0.0550  0.7349  0.1642
14426TIP3    H143211   6.502   1.023   0.291  0.0362  0.3711 -1.0991
14426TIP3    H243212   6.357   1.007   0.332  0.7937  2.3771  2.5960
14427TIP3   OH243213   0.197   2.858   1.492 -0.2539 -0.2932 -0.1882
14427TIP3    H143214   0.260   2.786   1.499  0.3488  0.4646  2.8377
14427TIP3    H243215   0.112   2.815   1.485  0.2001 -1.2968  0.3477
14428TIP3   OH243216   6.004   0.453   0.325  0.3998 -0.3583 -0.1726
14428TIP3    H143217   5.918   0.454   0.284  0.9460 -0.9838 -1.3772
14428TIP3    H243218   5.987   0.436   0.418 -0.8391  0.7497 -0.1870
14429TIP3   OH243219   0.022   1.712   1.063  0.0770 -0.4258 -0.0844
14429TIP3    H143220   0.098   1.693   1.009 -1.8216 -0.1504 -2.9624
14429TIP3    H243221   0.034   1.804   1.088 -0.0551  0.0906 -1.8336
14430TIP3   OH243222   7.957   0.485   3.997 -0.2541  0.4130  0.5407
14430TIP3    H143223   7.986   0.566   4.039  1.3483 -0.3919  1.0229
14430TIP3    H243224   8.036   0.452   3.953 -1.1543 -0.3512 -0.5193
14431TIP3   OH243225   0.018   4.410   2.547 -0.3705 -0.0771 -0.0234
14431TIP3    H143226   0.027   4.316   2.558 -0.7134 -0.2097 -0.8878
14431TIP3    H243227   0.053   4.428   2.460 -0.3185  0.5924  0.1343
14432TIP3   OH243228   0.368   2.834   0.670 -0.8539  0.2429  0.1440
14432TIP3    H143229   0.399   2.890   0.742 -1.3163  1.7618 -0.8234
14432TIP3    H243230   0.273   2.832   0.681 -1.0184  1.3769 -1.0768
14433TIP3   OH243231   7.845   0.507   1.916  0.4959 -0.1960  0.1946
14433TIP3    H143232   7.798   0.590   1.924 -0.4764 -0.5844 -1.2319
14433TIP3    H243233   7.779   0.441   1.939  1.3243 -0.5669  1.5317
14434TIP3   OH243234   0.218   3.832   0.097 -0.6170 -0.4583 -0.2700
14434TIP3    H143235   0.165   3.904   0.062 -0.3937  0.3157  0.9648
14434TIP3    H243236   0.231   3.854   0.189  2.6880 -0.1494 -0.7616
14435TIP3   OH243237   7.736   4.881   0.448  0.2430  0.4489  0.4186
14435TIP3    H143238   7.670   4.906   0.383  0.8510  0.8092 -0.0621
14435TIP3    H243239   7.816   4.867   0.397 -0.2243 -3.2845  0.5155
14436TIP3   OH243240   1.027   1.903   1.356  0.0438 -0.0532  0.0514
14436TIP3    H143241   0.992   1.992   1.359 -0.6939 -0.1847 -2.7879
14436TIP3    H243242   0.957   1.849   1.392  0.0318  0.3972  0.7109
14437TIP3   OH243243   1.926   1.764   0.337  0.2668 -0.3816  0.3867
14437TIP3    H143244   1.949   1.857   0.332  1.1237 -0.6041  0.0914
14437TIP3    H243245   1.987   1.721   0.277  0.1702 -1.1942  0.8650
14438TIP3   OH243246   3.767   7.083   6.333 -0.0247 -0.2950  0.3734
14438TIP3    H143247   3.755   6.995   6.369 -0.8861 -0.7847 -1.0921
14438TIP3    H243248   3.792   7.069   6.242  0.9350  0.9619  0.4368
14439TIP3   OH243249   1.249   6.336   5.888 -0.4034  0.1183 -0.5254
14439TIP3    H143250   1.325   6.395   5.896 -0.3931  0.1404 -0.7705
14439TIP3    H243251   1.218   6.350   5.798 -0.0459 -0.6786 -0.7787
14440TIP3   OH243252   0.375   1.739   2.374  0.0386  0.3453  0.7384
14440TIP3    H143253   0.296   1.713   2.422 -1.4007  0.9629 -1.2185
14440TIP3    H243254   0.374   1.835   2.376  1.5410  0.3567  1.9265
14441TIP3   OH243255   3.749   6.403   6.708 -0.0655 -0.0024  0.0641
14441TIP3    H143256   3.804   6.411   6.630  0.4697 -0.7840  0.3559
14441TIP3    H243257   3.670   6.359   6.678 -1.3241  2.6642 -0.7264
14442TIP3   OH243258   1.119   2.710   1.940  0.6083  0.2155 -0.4427
14442TIP3    H143259   1.030   2.689   1.912  0.2645  1.3291 -0.1876
14442TIP3    H243260   1.127   2.672   2.027 -0.7177  2.8699  0.9024
14443TIP3   OH243261   6.712   4.587   1.345 -0.3524  0.4727  0.5644
14443TIP3    H143262   6.769   4.658   1.313 -0.5990  0.1637 -0.5710
14443TIP3    H243263   6.765   4.508   1.336 -1.1723  0.0957 -1.0935
14444TIP3   OH243264   1.026   2.466   1.378 -0.0080  0.2782  0.1036
14444TIP3    H143265   0.942   2.435   1.412 -0.4986  0.5488 -0.8315
14444TIP3    H243266   1.020   2.452   1.283  2.5029 -3.2658  0.3639
14445TIP3   OH243267   2.276   2.639   1.366 -0.3050  0.4321  0.7781
14445TIP3    H143268   2.300   2.710   1.307  0.4187  0.1098  0.6865
14445TIP3    H243269   2.355   2.587   1.376 -0.6988 -0.0949  1.2265
14446TIP3   OH243270   6.609   1.960   0.334  0.4596 -0.1001  0.0523
14446TIP3    H143271   6.565   2.011   0.265  0.8180  0.8692  0.5277
14446TIP3    H243272   6.655   1.892   0.286 -1.2996 -0.9580 -0.4848
14447TIP3   OH243273  -0.007   3.978   0.505  0.5943  0.3446  0.2366
14447TIP3    H143274   0.035   4.010   0.425 -1.0216 -1.8578 -1.5734
14447TIP3    H243275   0.047   3.904   0.533 -0.0768 -0.2781 -0.0944
14448TIP3   OH243276   7.746   2.788   1.065 -0.1998 -0.0452 -0.3152
14448TIP3    H143277   7.802   2.808   1.140  0.0235  0.1517 -0.5321
14448TIP3    H243278   7.712   2.700   1.083 -0.0468 -0.0499 -0.0454
14449TIP3   OH243279   0.556   3.103   1.761 -0.5550 -0.4910  0.0008
14449TIP3    H143280   0.616   3.133   1.829 -1.5091 -0.6166  0.9082
14449TIP3    H243281   0.505   3.034   1.803  0.0921 -1.8378 -1.4000
14450TIP3   OH243282   7.620   3.177   0.292 -0.1488  0.8641  0.4669
14450TIP3    H143283   7.541   3.187   0.238 -0.2543  0.5425  0.5599
14450TIP3    H243284   7.691   3.173   0.229 -0.3260 -0.0802  0.3136
14451TIP3   OH243285   0.380   3.102   1.510  0.4454  0.3222 -0.6432
14451TIP3    H143286   0.326   3.023   1.509 -1.3382  1.4575  1.1565
14451TIP3    H243287   0.451   3.081   1.570  0.4586 -0.2223 -0.8468
14452TIP3   OH243288   6.432   2.658   0.505 -0.6179 -0.2495 -0.0493
14452TIP3    H143289   6.352   2.610   0.529 -0.9330 -1.9351 -4.0176
14452TIP3    H243290   6.503   2.600   0.532 -0.8587 -0.5459 -0.0450
14453TIP3   OH243291   7.436   1.236   1.589  0.8557 -0.2335 -0.1387
14453TIP3    H143292   7.503   1.231   1.520  0.1110  0.6075 -0.9515
14453TIP3    H243293   7.357   1.201   1.548  0.1831  1.0833 -0.0216
14454TIP3   OH243294   7.744   1.281   0.590  0.4084 -0.8221 -0.2287
14454TIP3    H143295   7.811   1.349   0.593 -0.3052 -0.1593  1.5042
14454TIP3    H243296   7.753   1.235   0.674 -1.2687 -0.7220  0.0265
14455TIP3   OH243297   0.797   2.603   3.375  0.3758  0.0617  0.6296
14455TIP3    H143298   0.871   2.579   3.320 -0.0507 -0.7889  0.4230
14455TIP3    H243299   0.741   2.526   3.375 -0.7676  0.8780  0.3702
14456TIP3   OH243300   7.488   1.039   0.737 -0.5035 -0.9196  0.1484
14456TIP3    H143301   7.500   1.102   0.809 -0.4913 -1.8013  0.9345
14456TIP3    H243302   7.424   1.080   0.680  0.5572  0.4419 -0.0900
14457TIP3   OH243303   7.458   3.062   2.273  0.3698 -0.3443 -0.4654
14457TIP3    H143304   7.406   3.048   2.352  3.0125 -2.3974  1.0191
14457TIP3    H243305   7.461   2.977   2.230 -0.7702  0.6874 -2.6401
14458TIP3   OH243306   1.056   3.799   1.376  0.4034  0.2619  0.1744
14458TIP3    H143307   1.142   3.837   1.397  0.1532  1.2013 -0.4971
14458TIP3    H243308   1.037   3.742   1.451  2.3654 -1.2611 -0.4346
14459TIP3   OH243309   3.584   6.355   6.271 -0.1882  0.5462  0.0190
14459TIP3    H143310   3.632   6.346   6.189  0.3884  2.4842  0.1328
14459TIP3    H243311   3.522   6.427   6.255 -1.1538 -0.0902  0.7807
14460TIP3   OH243312   8.425   2.532   3.188 -0.0192  0.0902  0.1110
14460TIP3    H143313   8.361   2.555   3.122  1.3117  0.6019 -1.0235
14460TIP3    H243314   8.510   2.549   3.147  0.8844 -1.6524  1.1538
14461TIP3   OH243315   8.180   2.297   1.017 -0.2506 -0.0320  0.1835
14461TIP3    H143316   8.200   2.389   1.000 -1.2276 -0.0044 -0.8479
14461TIP3    H243317   8.121   2.271   0.946 -0.6860 -1.2091  0.9575
14462TIP3   OH243318   7.602   1.782   0.097  0.3295 -0.9166 -0.0633
14462TIP3    H143319   7.671   1.792   0.031  0.5260 -0.3000  0.2290
14462TIP3    H243320   7.590   1.687   0.105 -0.9974 -0.9831 -2.3279
14463TIP3   OH243321   0.998   1.578   1.694  0.1163 -0.7146 -0.6310
14463TIP3    H143322   0.956   1.549   1.775  3.3156 -1.7113  0.7380
14463TIP3    H243323   1.047   1.656   1.720  1.6205 -1.3774 -1.4623
14464TIP3   OH243324   4.146   6.726   6.339 -0.2649 -0.8679  0.5966
14464TIP3    H143325   4.183   6.641   6.363 -0.6409 -1.5760 -1.2565
14464TIP3    H243326   4.128   6.719   6.245  0.1628  1.4343  0.3146
14465TIP3   OH243327   6.943   1.126   1.306  0.5913  0.2248 -0.7016
14465TIP3    H143328   6.936   1.079   1.223 -0.1178 -3.6665  1.4415
14465TIP3    H243329   6.855   1.124   1.343  1.1335  0.8482  0.6797
14466TIP3   OH243330   8.097   1.692   0.043  0.2520  0.3170 -0.1028
14466TIP3    H143331   8.074   1.724   0.130 -0.3849  0.3426 -0.2811
14466TIP3    H243332   8.192   1.678   0.047 -0.1032 -1.7918  1.2769
14467TIP3   OH243333   0.568   2.212   2.121 -0.3288  0.5226  0.1644
14467TIP3    H143334   0.473   2.199   2.118 -0.0408 -1.2883 -2.1301
14467TIP3    H243335   0.586   2.268   2.045  0.2451  2.5732  1.7481
14468TIP3   OH243336   0.051   3.116   1.819 -0.6903  0.2097 -0.4222
14468TIP3    H143337   0.065   3.110   1.724  0.1302  0.8657 -0.3516
14468TIP3    H243338   0.128   3.163   1.851 -0.5042 -0.8203  0.6861
14469TIP3   OH243339   2.776   6.244   6.328 -0.4525 -0.3666  0.8482
14469TIP3    H143340   2.843   6.176   6.326  0.0809  0.1693  0.0343
14469TIP3    H243341   2.786   6.285   6.414 -1.4691 -1.9758  1.7695
14470TIP3   OH243342   1.494   3.107   1.294 -0.3102 -0.1808 -0.6066
14470TIP3    H143343   1.470   3.072   1.380 -2.2085  0.0576 -1.0161
14470TIP3    H243344   1.411   3.131   1.254  0.7081  1.6471 -1.6940
14471TIP3   OH243345   1.510   3.230   2.529 -0.7178 -0.1136  0.1006
14471TIP3    H143346   1.557   3.155   2.494  0.2827  0.2053  0.7329
14471TIP3    H243347   1.450   3.257   2.459  1.1317  0.4135 -1.3076
14472TIP3   OH243348   0.528   1.626   1.976 -0.6899  0.1297 -0.8852
14472TIP3    H143349   0.471   1.582   2.039 -1.3888  2.5026  0.1861
14472TIP3    H243350   0.593   1.671   2.030 -0.4226  0.9887 -1.9036
14473TIP3   OH243351   0.576   2.765   1.513 -0.4320  0.4394  0.5469
14473TIP3    H143352   0.493   2.719   1.524  0.2913 -0.2840  3.4498
14473TIP3    H243353   0.626   2.712   1.451 -1.1459 -0.5254  0.7963
14474TIP3   OH243354   7.690   0.764   0.201 -0.0202 -0.3422 -0.2045
14474TIP3    H143355   7.716   0.855   0.209 -0.7973 -0.1168 -0.1620
14474TIP3    H243356   7.728   0.721   0.277 -0.9227  0.2518  0.5926
14475TIP3   OH243357   6.545   2.734   1.409 -0.4004 -0.0126 -0.0252
14475TIP3    H143358   6.538   2.820   1.451 -2.7913  0.0743 -0.5175
14475TIP3    H243359   6.560   2.754   1.316  0.3145 -0.1567  0.0545
14476TIP3   OH243360   2.924   2.278   0.562  0.0645  0.3058 -0.3030
14476TIP3    H143361   2.911   2.358   0.511  2.4900  1.1437  0.3217
14476TIP3    H243362   2.976   2.222   0.504  0.3190  0.0815  0.1461
14477TIP3   OH243363   2.034   0.558   2.083 -0.1011 -0.7085  0.6146
14477TIP3    H143364   2.124   0.591   2.073  0.2708 -2.2772 -1.6973
14477TIP3    H243365   1.980   0.637   2.090  1.2804  0.2814  0.2685
14478TIP3   OH243366   6.104   2.026   0.552 -0.4091  0.3513  0.8724
14478TIP3    H143367   6.018   1.987   0.568  0.0407 -0.1164  2.2121
14478TIP3    H243368   6.100   2.111   0.595  0.0202  0.0461  1.5275
14479TIP3   OH243369   0.298   3.471   0.276 -0.2336  0.1699  0.4456
14479TIP3    H143370   0.373   3.456   0.335 -0.5342  1.3192  1.1399
14479TIP3    H243371   0.336   3.467   0.188  0.1941 -1.7401  0.6935
14480TIP3   OH243372   0.311   4.824   0.819  0.3692 -0.2177 -0.2539
14480TIP3    H143373   0.311   4.790   0.730 -1.6990  0.5184 -0.5609
14480TIP3    H243374   0.236   4.781   0.861  1.0191 -0.1805  0.9754
14481TIP3   OH243375   2.184   2.106   2.859  0.2791  0.3394  0.0650
14481TIP3    H143376   2.142   2.094   2.944  0.4009  0.9135  0.2065
14481TIP3    H243377   2.148   2.036   2.805 -1.2933  1.1446  0.0211
14482TIP3   OH243378   6.209   3.422   3.954 -0.0869 -0.2157 -0.2527
14482TIP3    H143379   6.131   3.417   4.010 -0.5405 -1.3969 -0.9770
14482TIP3    H243380   6.238   3.513   3.961 -1.5223  0.2299  0.0298
14483TIP3   OH243381   0.954   5.513   6.363 -0.1005 -0.1026  0.1328
14483TIP3    H143382   0.898   5.579   6.323  1.4137  0.7918 -0.5653
14483TIP3    H243383   0.907   5.430   6.349  0.1509  0.2250 -3.1213
14484TIP3   OH243384   5.834   4.492   0.573 -0.0019  0.3254  0.0318
14484TIP3    H143385   5.776   4.548   0.624  0.7260  0.8346  0.3184
14484TIP3    H243386   5.835   4.409   0.620  0.8711  0.8755  1.0089
14485TIP3   OH243387   7.792   5.251   1.207 -0.6152 -0.1058 -0.2964
14485TIP3    H143388   7.849   5.221   1.279 -0.2318  0.7433 -0.2429
14485TIP3    H243389   7.760   5.170   1.167  0.9699 -0.6099 -0.5999
14486TIP3   OH243390   5.110   0.362   5.071 -0.5705  0.5128  0.6525
14486TIP3    H143391   5.150   0.445   5.047  0.7005  0.1685  1.5486
14486TIP3    H243392   5.121   0.356   5.166 -1.6028 -0.1929  0.7416
14487TIP3   OH243393   1.191   2.072   0.840 -0.0127  0.3070 -0.8112
14487TIP3    H143394   1.122   2.046   0.900 -0.0011  0.4306 -0.7440
14487TIP3    H243395   1.179   2.017   0.763  2.1284 -2.4017  0.6882
14488TIP3   OH243396   0.536   0.522   0.817 -0.4210 -0.1514 -0.3939
14488TIP3    H143397   0.550   0.600   0.871 -0.5431 -0.5971  0.2866
14488TIP3    H243398   0.531   0.450   0.880  1.9986 -1.0282 -1.1506
14489TIP3   OH243399   1.392   3.729   2.930 -0.4082 -0.1293 -0.2724
14489TIP3    H143400   1.475   3.773   2.910 -1.3420  1.7958 -0.0248
14489TIP3    H243401   1.405   3.639   2.901  1.8462  0.0947 -0.0319
14490TIP3   OH243402   0.823   1.653   0.882  0.2078 -0.7029 -0.6146
14490TIP3    H143403   0.810   1.637   0.976  3.0482 -1.0856 -0.2424
14490TIP3    H243404   0.918   1.650   0.870 -0.0903 -0.2390 -3.4455
14491TIP3   OH243405   1.551   7.680   0.710  0.4125 -0.0281 -0.2712
14491TIP3    H143406   1.499   7.727   0.774  2.4929 -1.8895  2.9458
14491TIP3    H243407   1.611   7.745   0.673 -0.3603  0.9149  0.1483
14492TIP3   OH243408   1.407   1.622   1.151  0.1871 -0.4041 -0.1039
14492TIP3    H143409   1.336   1.679   1.181  1.4309  1.1694 -0.0813
14492TIP3    H243410   1.442   1.582   1.230  1.7188  1.6868  0.3335
14493TIP3   OH243411   0.023   2.720   0.614  0.0382 -0.3576  0.4048
14493TIP3    H143412   0.035   2.811   0.590 -0.4637 -0.6959 -1.2166
14493TIP3    H243413   0.052   2.671   0.538 -2.8870 -1.4289 -0.1026
14494TIP3   OH243414   1.163   2.876   1.016  0.2053  0.3857 -0.3797
14494TIP3    H143415   1.203   2.878   1.103 -0.4465  0.4343 -0.0809
14494TIP3    H243416   1.093   2.942   1.020 -0.0648  0.1301 -0.8258
14495TIP3   OH243417   3.048   2.727   0.735 -0.2905  0.3084  0.0489
14495TIP3    H143418   3.111   2.658   0.717 -0.3007  0.1070  0.7935
14495TIP3    H243419   2.965   2.696   0.697 -0.0561  0.3718 -0.5197
14496TIP3   OH243420   8.478   3.835   1.166 -0.0246  0.5597  0.2520
14496TIP3    H143421   8.411   3.883   1.117  0.3165  0.3259 -0.4647
14496TIP3    H243422   8.484   3.879   1.250 -0.8081  0.8179  0.1700
14497TIP3   OH243423   1.230   6.345   0.368  0.4991 -0.0175 -0.3796
14497TIP3    H143424   1.277   6.360   0.450  1.0321  0.0252 -0.6916
14497TIP3    H243425   1.290   6.293   0.314  0.7922  1.2796 -1.3395
14498TIP3   OH243426   8.300   3.624   1.303  0.1566 -0.0826  0.2856
14498TIP3    H143427   8.350   3.676   1.241 -0.6993  2.3417  1.5674
14498TIP3    H243428   8.229   3.585   1.251  0.1044  1.0047 -0.4605
14499TIP3   OH243429   1.536   3.511   0.265  0.0253  0.5185  0.0730
14499TIP3    H143430   1.615   3.520   0.317 -0.1648  0.4707  0.3702
14499TIP3    H243431   1.546   3.576   0.195  0.4718  0.2890 -0.0791
14500TIP3   OH243432   6.713   7.721   1.689  0.5722  0.1980  0.0477
14500TIP3    H143433   6.709   7.656   1.759  1.4430 -0.2360 -0.3047
14500TIP3    H243434   6.707   7.670   1.609 -1.1686  0.7537 -0.1947
14501TIP3   OH243435   2.551   7.027   6.300  0.0641 -0.5506  0.3265
14501TIP3    H143436   2.611   7.100   6.314 -0.2054 -0.4750  1.1190
14501TIP3    H243437   2.467   7.059   6.332  0.3380 -1.8609  2.5228
14502TIP3   OH243438   0.232   1.960   2.103  0.0831 -0.4151 -0.4280
14502TIP3    H143439   0.309   1.933   2.054 -0.4617  0.2743 -1.6857
14502TIP3    H243440   0.185   2.019   2.044 -1.2391 -0.5670  0.4456
14503TIP3   OH243441   0.485   0.983   0.813 -0.2515 -0.0486 -0.5469
14503TIP3    H143442   0.542   0.934   0.754 -0.5831 -1.1932  0.0766
14503TIP3    H243443   0.397   0.955   0.791 -0.2324 -2.8921  2.5563
14504TIP3   OH243444   7.170   3.273   0.222 -0.4724 -0.0021  0.1340
14504TIP3    H143445   7.120   3.259   0.142  0.1145  1.0718 -0.4208
14504TIP3    H243446   7.129   3.350   0.263  0.3513  0.5115 -0.0154
14505TIP3   OH243447   0.497   1.328   1.613  0.4467  0.2739 -0.2623
14505TIP3    H143448   0.473   1.253   1.668 -1.7538  0.8852 -0.3549
14505TIP3    H243449   0.570   1.296   1.560  0.8166 -1.1814  1.0770
14506TIP3   OH243450   7.979   3.648   2.240  0.2565 -0.8663 -0.1478
14506TIP3    H143451   7.900   3.602   2.214  0.9628 -2.2171  0.0518
14506TIP3    H243452   8.050   3.602   2.194  0.6424  2.3443 -2.9494
14507TIP3   OH243453   0.312   0.468   2.204 -0.4501 -0.3119  0.2574
14507TIP3    H143454   0.266   0.479   2.120 -0.7617  3.2282  0.8544
14507TIP3    H243455   0.264   0.396   2.246 -1.1599 -1.2322 -1.9817
14508TIP3   OH243456   5.436   5.019   6.854 -0.7174 -0.8787 -1.0460
14508TIP3    H143457   5.434   5.110   6.883 -1.5397 -1.1718 -0.1476
14508TIP3    H243458   5.526   4.991   6.866 -1.5160 -1.7535  3.6547
14509TIP3   OH243459   4.541   4.900   6.726  0.1758 -0.4128 -0.4930
14509TIP3    H143460   4.503   4.982   6.694 -0.9722 -1.3733 -1.6282
14509TIP3    H243461   4.466   4.848   6.754  1.0660 -0.0103  2.9174
14510TIP3   OH243462   7.556   3.462   3.083  0.1827 -0.5454  0.1018
14510TIP3    H143463   7.530   3.409   3.159  0.1186 -0.3951  0.1842
14510TIP3    H243464   7.477   3.511   3.060  0.1598 -0.7021 -0.1527
14511TIP3   OH243465   7.828   1.327   2.153  0.2287  0.4381  0.0961
14511TIP3    H143466   7.836   1.419   2.178  1.2269  0.5921 -0.7462
14511TIP3    H243467   7.741   1.320   2.113  0.2148  1.0431  0.0220
14512TIP3   OH243468   2.865   7.392   6.013 -0.0179  0.6576 -0.2587
14512TIP3    H143469   2.803   7.384   5.940  0.1764  0.1309 -0.3631
14512TIP3    H243470   2.822   7.453   6.073 -0.0192  1.3742 -0.9777
14513TIP3   OH243471   0.582   1.182   0.623 -0.0186  0.5633  0.2867
14513TIP3    H143472   0.577   1.125   0.699 -1.8488 -1.6229 -1.4247
14513TIP3    H243473   0.499   1.231   0.623  0.6594  1.7448  0.5815
14514TIP3   OH243474   2.672   1.253   0.071 -0.3794 -0.1191  0.0492
14514TIP3    H143475   2.698   1.292   0.155  0.4995  0.5014 -0.5059
14514TIP3    H243476   2.583   1.285   0.056  0.2008  1.3814 -0.2200
14515TIP3   OH243477   6.780   1.138   0.292 -0.0348 -0.3215  0.2516
14515TIP3    H143478   6.772   1.201   0.364 -1.4389  0.9529 -0.9595
14515TIP3    H243479   6.825   1.187   0.223 -2.0346 -0.2715 -1.0746
14516TIP3   OH243480   0.909   2.607   0.141 -0.0392 -0.0475 -0.0212
14516TIP3    H143481   0.884   2.662   0.066 -0.9843  2.5099  2.1149
14516TIP3    H243482   0.992   2.644   0.171 -1.7018  1.5763  2.7042
14517TIP3   OH243483   7.999   6.017   1.147  0.2007  0.1537 -0.2523
14517TIP3    H143484   8.055   6.007   1.070 -1.2699 -1.3021 -1.1777
14517TIP3    H243485   8.045   5.969   1.216 -1.0430 -3.2729 -1.6513
14518TIP3   OH243486   3.740   6.063   5.527 -0.4801  0.4527  0.2483
14518TIP3    H143487   3.709   6.040   5.615  1.1769 -1.5346  0.3539
14518TIP3    H243488   3.737   5.981   5.478 -0.3363  1.3215 -1.2279
14519TIP3   OH243489   1.622   7.718   5.703 -0.2854  0.2665  0.2303
14519TIP3    H143490   1.696   7.658   5.693 -0.7712 -0.1567 -0.9893
14519TIP3    H243491   1.575   7.686   5.779  0.0192 -0.2926  0.1840
14520TIP3   OH243492   5.435   5.418   6.342 -0.1209 -0.5765 -0.1209
14520TIP3    H143493   5.419   5.339   6.393  3.3170  0.4171  2.6516
14520TIP3    H243494   5.382   5.485   6.385 -0.3477 -0.6119 -0.3438
14521TIP3   OH243495   0.840   2.744   1.050 -0.7059  0.0270 -0.1077
14521TIP3    H143496   0.914   2.704   1.005 -0.5716  0.2470 -0.0797
14521TIP3    H243497   0.874   2.826   1.086 -0.7785 -0.2020  0.4979
14522TIP3   OH243498   8.348   3.086   1.217 -0.1711 -0.3995 -0.2400
14522TIP3    H143499   8.426   3.138   1.199  0.1542 -1.1464 -0.9966
14522TIP3    H243500   8.280   3.151   1.233  0.3204  0.2600 -0.7948
14523TIP3   OH243501   3.204   5.314   6.233  0.2232 -0.4531 -0.2079
14523TIP3    H143502   3.185   5.221   6.222 -2.1484 -0.2520  1.6606
14523TIP3    H243503   3.132   5.358   6.188 -0.0975  0.4445  1.1683
14524TIP3   OH243504   1.742   2.519   0.979 -0.0762  0.3455 -0.3017
14524TIP3    H143505   1.785   2.585   0.923 -0.3318  0.6268 -0.1692
14524TIP3    H243506   1.649   2.532   0.963 -0.0645 -2.2533 -2.8671
14525TIP3   OH243507   3.797   6.819   6.427  0.1098 -0.6833 -0.2743
14525TIP3    H143508   3.721   6.782   6.473  1.2375 -2.6161  0.0920
14525TIP3    H243509   3.780   6.800   6.335  0.1095 -1.1000 -0.1934
14526TIP3   OH243510   7.607   0.174   2.502  0.1831 -0.3453  0.0549
14526TIP3    H143511   7.651   0.212   2.578  1.2820 -1.3256 -0.0833
14526TIP3    H243512   7.552   0.244   2.469  1.4061  0.8089  0.4236
14527TIP3   OH243513   0.943   3.197   0.169  0.5458  0.0339 -0.0706
14527TIP3    H143514   0.942   3.105   0.193 -0.3866 -0.1804 -0.8857
14527TIP3    H243515   0.880   3.204   0.097  1.4801  1.0906 -0.8095
14528TIP3   OH243516   3.070   4.387   0.570 -0.0515 -0.3410  0.5910
14528TIP3    H143517   3.129   4.347   0.506  0.5125  1.9588 -0.3540
14528TIP3    H243518   3.120   4.460   0.606 -2.3140  1.7035 -0.2719
14529TIP3   OH243519   4.765   2.131   2.155 -0.0333  0.5650  0.3186
14529TIP3    H143520   4.696   2.150   2.219  0.5408 -0.7082  1.3195
14529TIP3    H243521   4.842   2.110   2.208  0.4179 -0.6072 -0.7968
14530TIP3   OH243522   2.720   0.309   0.235 -0.4544  0.5697  0.0008
14530TIP3    H143523   2.785   0.363   0.190 -0.6877  1.6858  0.9497
14530TIP3    H243524   2.770   0.262   0.302 -0.1816 -0.7418 -1.0985
14531TIP3   OH243525   3.267   2.299   2.606 -0.7245 -0.4109  0.0693
14531TIP3    H143526   3.258   2.354   2.684 -0.0932  1.2732 -1.0193
14531TIP3    H243527   3.187   2.314   2.556 -0.0482  0.4091 -0.7769
14532TIP3   OH243528   5.969   5.840   5.813  0.3348  0.0019 -0.5495
14532TIP3    H143529   6.028   5.764   5.810 -0.6813 -0.7105 -2.7152
14532TIP3    H243530   5.886   5.808   5.779 -0.8209  1.4907  0.7815
14533TIP3   OH243531   1.962   3.293   0.307  0.1553  0.6310  0.3858
14533TIP3    H143532   2.009   3.340   0.238 -0.8904  0.0393 -0.7469
14533TIP3    H243533   1.887   3.253   0.263  1.5857 -3.0286  1.0808
14534TIP3   OH243534   2.872   0.705   1.369 -0.6690  0.1808 -0.4923
14534TIP3    H143535   2.916   0.680   1.451 -0.2900 -0.0402 -0.7640
14534TIP3    H243536   2.937   0.756   1.321 -1.0103  0.6027 -0.5054
14535TIP3   OH243537   1.618   3.306   2.778 -0.0550 -0.2448 -0.6237
14535TIP3    H143538   1.578   3.286   2.693  1.1935 -3.1905 -0.5788
14535TIP3    H243539   1.569   3.252   2.841  1.0021 -0.4085  0.0670
14536TIP3   OH243540   5.800   4.766   4.290 -0.6917  0.0057  0.4458
14536TIP3    H143541   5.883   4.737   4.330 -0.2249  1.3766  0.5154
14536TIP3    H243542   5.819   4.770   4.196 -0.9949 -0.6906  0.3554
14537TIP3   OH243543   1.056   3.223   1.195 -0.1281 -0.4269  0.0342
14537TIP3    H143544   1.083   3.306   1.235 -1.1162  0.7004 -1.6036
14537TIP3    H243545   1.086   3.156   1.257  1.2839  1.1049  1.0473
14538TIP3   OH243546   2.870   2.094   1.280 -0.3819  0.1075 -0.2523
14538TIP3    H143547   2.936   2.153   1.316  0.9670 -2.1286  1.0053
14538TIP3    H243548   2.875   2.108   1.185  0.7693  1.1109 -0.0595
14539TIP3   OH243549   0.817   2.773   2.442  0.1057  0.0678 -0.7042
14539TIP3    H143550   0.880   2.700   2.438  0.6584  0.3788  1.4686
14539TIP3    H243551   0.865   2.848   2.409 -0.1651 -0.3540 -2.0744
14540TIP3   OH243552   3.967   7.310   6.881  0.2524  0.0848 -0.5789
14540TIP3    H143553   4.013   7.324   6.964  0.5482 -1.8029 -0.4027
14540TIP3    H243554   3.893   7.254   6.904  0.4648 -0.6443 -1.6317
14541TIP3   OH243555   0.466   2.871   0.423 -0.1344 -0.1395 -0.4012
14541TIP3    H143556   0.445   2.882   0.515  0.6793  1.1592 -0.3525
14541TIP3    H243557   0.409   2.800   0.393 -2.3001  1.1974  0.4575
14542TIP3   OH243558   2.442   3.050   0.039 -0.6366 -0.3585  0.6832
14542TIP3    H143559   2.406   3.109   0.105  1.3956 -0.6064  2.0618
14542TIP3    H243560   2.484   2.981   0.089 -0.2697 -1.3153 -0.9036
14543TIP3   OH243561   0.660   1.423   0.898 -0.0575  0.4920  0.4349
14543TIP3    H143562   0.726   1.354   0.903 -0.4326  0.2395  2.3104
14543TIP3    H243563   0.708   1.501   0.871  0.4960 -0.3296 -0.9822
14544TIP3   OH243564   0.628   3.816   0.266 -0.4169  0.5496 -0.0483
14544TIP3    H143565   0.716   3.830   0.303 -0.2817  0.2780 -0.2712
14544TIP3    H243566   0.586   3.755   0.327 -0.4523  0.6810  0.0595
14545TIP3   OH243567   4.118   7.558   4.826  0.0480 -0.0404 -0.3268
14545TIP3    H143568   4.118   7.526   4.916 -0.3889  0.8737  0.0075
14545TIP3    H243569   4.036   7.607   4.818  0.8979  1.3784 -0.6691
14546TIP3   OH243570   4.690   1.628   2.107 -0.0575 -0.3295 -0.1963
14546TIP3    H143571   4.742   1.570   2.051  1.4504  0.8024 -0.0047
14546TIP3    H243572   4.718   1.716   2.083  1.3895  0.1694  3.0326
14547TIP3   OH243573   4.430   6.949   6.195 -0.9061  0.2254 -0.4834
14547TIP3    H143574   4.395   6.897   6.123 -1.3429 -0.1844  0.0186
14547TIP3    H243575   4.520   6.967   6.171 -1.4135  1.1743 -1.7384
14548TIP3   OH243576   2.855   1.934   0.333 -0.6011  0.1594  0.3732
14548TIP3    H143577   2.780   1.887   0.298 -0.4752 -1.2456  1.9031
14548TIP3    H243578   2.883   1.881   0.408  0.8054  1.6155  0.9013
14549TIP3   OH243579   1.835   1.280   1.978 -0.3245  0.3190 -0.6028
14549TIP3    H143580   1.790   1.241   1.903  0.2548  0.0755 -0.8225
14549TIP3    H243581   1.922   1.303   1.946 -0.2636  0.7378 -0.1608
14550TIP3   OH243582   0.814   3.219   0.504 -0.3791 -0.3953  0.0695
14550TIP3    H143583   0.833   3.303   0.464  0.6410 -0.4672  0.3944
14550TIP3    H243584   0.881   3.160   0.471 -0.2197 -0.7340  0.9681
14551TIP3   OH243585   0.347   2.634   0.376  0.2839  0.0389 -0.1789
14551TIP3    H143586   0.283   2.588   0.431  0.3473  0.3684  0.1719
14551TIP3    H243587   0.316   2.619   0.287 -0.4648  0.4524  0.0031
14552TIP3   OH243588   1.591   1.173   6.451 -0.8498 -0.2941  0.0102
14552TIP3    H143589   1.565   1.105   6.388  1.5193 -0.2950 -1.0429
14552TIP3    H243590   1.640   1.125   6.518  1.0864  0.3557 -0.8893
14553TIP3   OH243591   0.351   2.598   1.508  0.1604  0.3031  0.4863
14553TIP3    H143592   0.360   2.550   1.590 -0.1106  0.6557  0.7242
14553TIP3    H243593   0.329   2.532   1.443 -1.9017  0.3345  1.1287
14554TIP3   OH243594   7.930   0.162   6.076  0.0403  0.2371 -0.8779
14554TIP3    H143595   7.977   0.231   6.124  1.5911 -0.1152 -1.8408
14554TIP3    H243596   7.944   0.184   5.984  1.0699 -1.7189 -1.1999
14555TIP3   OH243597   4.375   4.070   5.911 -0.1966  0.2883 -0.7530
14555TIP3    H143598   4.451   4.116   5.877  1.4621 -1.4215  0.5345
14555TIP3    H243599   4.358   4.001   5.846 -0.1975  0.2204 -0.6805
14556TIP3   OH243600   4.961   4.988   6.478  0.7152 -0.3963  0.2593
14556TIP3    H143601   5.023   4.931   6.432 -1.1593 -1.1871 -1.3664
14556TIP3    H243602   4.886   4.931   6.495 -1.0984  1.5336 -1.1731
14557TIP3   OH243603   5.787   7.659   5.365  0.0007 -0.3481 -0.4569
14557TIP3    H143604   5.785   7.687   5.457 -0.8315 -1.3168 -0.1738
14557TIP3    H243605   5.868   7.610   5.356  1.3118  1.8438 -0.8712
14558TIP3   OH243606   1.379   2.250   2.557  0.5111 -0.3890  0.2898
14558TIP3    H143607   1.296   2.204   2.569  0.3059  0.0845  0.7317
14558TIP3    H243608   1.442   2.204   2.612  0.8169 -1.4540 -0.9313
14559TIP3   OH243609   3.025   1.789   0.988  0.0837 -0.3548  0.5445
14559TIP3    H143610   3.000   1.719   0.927  0.5324  0.5486 -0.6791
14559TIP3    H243611   2.978   1.768   1.068  1.5169 -3.0220  0.7495
14560TIP3   OH243612   3.140   4.804   1.796  0.5968 -0.1916  0.1159
14560TIP3    H143613   3.084   4.863   1.746 -1.6281 -0.9928  1.5976
14560TIP3    H243614   3.227   4.845   1.792 -0.0325  1.0065 -2.3214
14561TIP3   OH243615   5.845   7.791   6.264 -0.0171 -0.2278  0.5588
14561TIP3    H143616   5.826   7.878   6.227 -1.5878 -0.3194  1.0966
14561TIP3    H243617   5.852   7.806   6.358 -0.3233 -0.6739  0.6544
14562TIP3   OH243618   1.388   4.865   0.288  0.4254 -0.2939  0.2544
14562TIP3    H143619   1.460   4.919   0.256 -0.7516  1.1488  0.0257
14562TIP3    H243620   1.324   4.927   0.322 -0.3161 -1.6061  1.3070
14563TIP3   OH243621   3.733   3.865   2.156 -0.0709 -0.2578 -0.3700
14563TIP3    H143622   3.685   3.848   2.237 -0.2825  0.4248 -0.3436
14563TIP3    H243623   3.723   3.786   2.104 -0.3259 -0.5213  0.0832
14564TIP3   OH243624   2.164   2.782   0.892  0.2225  0.3432  0.1659
14564TIP3    H143625   2.246   2.795   0.941 -0.3124  0.5159  1.0259
14564TIP3    H243626   2.105   2.848   0.926 -0.3019  0.1794 -0.4134
14565TIP3   OH243627   6.607   5.797   6.108 -0.1109  0.0744 -0.0705
14565TIP3    H143628   6.628   5.859   6.178 -0.0559 -0.0653  0.0376
14565TIP3    H243629   6.546   5.735   6.147 -0.9844  0.6703 -0.4809
14566TIP3   OH243630   3.807   2.000   2.537  0.0650  0.5539  0.3408
14566TIP3    H143631   3.732   2.025   2.482  0.0323  2.4898  1.2332
14566TIP3    H243632   3.860   1.944   2.480 -3.1069 -2.6776  0.3526
14567TIP3   OH243633   5.648   7.428   6.771  0.1673 -0.3065 -0.2928
14567TIP3    H143634   5.638   7.483   6.693  1.9160 -0.6342 -0.7802
14567TIP3    H243635   5.742   7.410   6.775  0.4426  1.3799  3.0511
14568TIP3   OH243636   1.879   1.386   0.596 -0.0198 -0.7335 -0.2420
14568TIP3    H143637   1.930   1.357   0.520  0.4961 -0.5213  0.0186
14568TIP3    H243638   1.941   1.437   0.648 -0.5802 -0.2230 -0.0688
14569TIP3   OH243639   1.222   2.610   2.173 -0.0372  0.2702 -0.0930
14569TIP3    H143640   1.258   2.598   2.261 -0.9426  0.1751  0.2702
14569TIP3    H243641   1.154   2.677   2.184  0.0585  0.4797 -0.7762
14570TIP3   OH243642   3.209   3.030   1.737  0.4024 -0.4177  0.3423
14570TIP3    H143643   3.220   3.061   1.647  1.7106 -1.5270  0.1028
14570TIP3    H243644   3.298   3.031   1.773  0.1612 -1.8191  1.0069
14571TIP3   OH243645   5.576   5.805   5.041  0.3034  0.0486 -0.4703
14571TIP3    H143646   5.658   5.766   5.071  0.1662  0.1799  0.0846
14571TIP3    H243647   5.596   5.898   5.032  0.1229  0.1344 -0.0011
14572TIP3   OH243648   2.140   2.863   3.609 -0.2931 -0.2139 -0.0110
14572TIP3    H143649   2.107   2.950   3.632 -1.2789 -0.3879 -0.7494
14572TIP3    H243650   2.109   2.806   3.680  1.3796  0.2453  1.1059
14573TIP3   OH243651   7.955   0.509   1.098  0.2803 -0.4223 -0.2854
14573TIP3    H143652   8.009   0.458   1.159 -0.0483 -0.8365 -0.3426
14573TIP3    H243653   7.988   0.485   1.012  1.3811  0.8744 -0.2445
14574TIP3   OH243654   0.753   0.824   0.892 -0.2531 -0.5002 -0.1332
14574TIP3    H143655   0.681   0.784   0.939 -1.2277  0.5860 -0.6794
14574TIP3    H243656   0.720   0.840   0.804  0.5685  0.2037 -0.3343
14575TIP3   OH243657   3.278   2.548   0.295  0.0733  0.4900  0.4776
14575TIP3    H143658   3.191   2.581   0.271 -1.0075  0.6779  4.3208
14575TIP3    H243659   3.306   2.605   0.366  0.9403 -2.8866  2.9511
14576TIP3   OH243660   1.606   2.954   0.215  0.5192  0.3985  0.6042
14576TIP3    H143661   1.678   2.914   0.166 -1.9741 -0.0590 -2.8515
14576TIP3    H243662   1.593   2.895   0.290  1.7149 -1.1739 -0.3910
14577TIP3   OH243663   1.886   3.794   1.555  0.0717  0.2666  0.4312
14577TIP3    H143664   1.875   3.707   1.518  1.2895 -0.1916  1.1085
14577TIP3    H243665   1.930   3.844   1.486  0.7795 -0.1048  0.6038
14578TIP3   OH243666   2.067   2.527   0.478 -0.6187 -0.1889  0.2574
14578TIP3    H143667   1.980   2.565   0.487 -0.2499  0.7153  0.0567
14578TIP3    H243668   2.075   2.508   0.385  0.2401  1.7910 -0.0920
14579TIP3   OH243669   4.922   5.440   6.296 -0.6540 -0.6542 -0.1666
14579TIP3    H143670   4.977   5.514   6.320  0.3539 -1.4386 -0.0370
14579TIP3    H243671   4.961   5.406   6.216 -0.1144 -2.0557  0.6708
14580TIP3   OH243672   4.743   6.793   6.487 -0.3180  0.4765  0.2754
14580TIP3    H143673   4.654   6.758   6.495 -0.8576  2.1309  1.7866
14580TIP3    H243674   4.731   6.888   6.478  1.3892  1.0342  3.3403
14581TIP3   OH243675   6.836   0.080   6.307 -0.3818 -0.7528 -0.6692
14581TIP3    H143676   6.889   0.074   6.227  0.3054  1.3432 -0.4147
14581TIP3    H243677   6.824  -0.011   6.335  1.0281 -1.4034 -2.0759
14582TIP3   OH243678   4.914   6.663   4.989 -0.1021 -0.2851  0.2076
14582TIP3    H143679   4.824   6.692   5.006  0.2778  0.3154  1.2112
14582TIP3    H243680   4.968   6.739   5.010  0.6511 -0.6680 -0.3298
14583TIP3   OH243681   3.455   4.587   2.201 -0.2757 -0.3213 -0.5462
14583TIP3    H143682   3.517   4.528   2.159  1.6251  1.7743 -0.7686
14583TIP3    H243683   3.502   4.670   2.210 -2.9257  1.2476 -0.4274
14584TIP3   OH243684   6.776   7.342   0.944 -0.0171  0.3094  0.2966
14584TIP3    H143685   6.751   7.429   0.914 -0.1062  0.2500  0.1985
14584TIP3    H243686   6.693   7.297   0.961  0.0235  0.0851 -0.1030
14585TIP3   OH243687   1.875   2.293   0.852  0.4251  0.3485 -0.0278
14585TIP3    H143688   1.832   2.367   0.893 -1.5666 -1.1986  0.7316
14585TIP3    H243689   1.834   2.286   0.766 -0.2222 -0.5863  0.3533
14586TIP3   OH243690   6.175   5.548   6.195 -0.1251  0.6456  0.1070
14586TIP3    H143691   6.159   5.507   6.280  1.6922  0.5836  0.4411
14586TIP3    H243692   6.185   5.641   6.214 -1.7191  0.9274 -0.3255
14587TIP3   OH243693   3.843   5.830   6.789 -0.0683 -0.2126 -0.2288
14587TIP3    H143694   3.938   5.821   6.777 -0.1420 -0.0869 -0.9658
14587TIP3    H243695   3.833   5.907   6.844  0.2172  0.5942 -1.2801
14588TIP3   OH243696   1.989   2.113   1.876 -0.2320 -0.5704 -0.0522
14588TIP3    H143697   2.064   2.073   1.833  0.9719  0.1153  1.3784
14588TIP3    H243698   1.961   2.182   1.816  0.2924 -0.8304 -0.5943
14589TIP3   OH243699   7.528   0.095   5.368  0.1860  0.5113 -0.2113
14589TIP3    H143700   7.510   0.023   5.308 -2.3225  0.0538  1.0242
14589TIP3    H243701   7.585   0.056   5.435  1.2258  0.4497 -1.1355
14590TIP3   OH243702   3.005   6.990   6.636 -0.0032 -0.1093 -0.6060
14590TIP3    H143703   2.999   7.048   6.560 -0.7490 -1.9513 -2.0024
14590TIP3    H243704   3.084   6.939   6.621  1.8060  1.9249  1.6588
14591TIP3   OH243705   6.193   5.675   5.779 -0.0892  0.1556 -0.2473
14591TIP3    H143706   6.235   5.703   5.860  0.8774  0.0630 -0.7060
14591TIP3    H243707   6.167   5.584   5.795  1.2097 -0.2606 -0.4637
14592TIP3   OH243708   1.909   2.700   0.797 -0.1726 -0.2275  0.7105
14592TIP3    H143709   1.995   2.736   0.816 -0.4827  1.4768 -0.9770
14592TIP3    H243710   1.907   2.693   0.701 -2.7307  1.8521  0.5837
14593TIP3   OH243711   4.746   5.988   6.320  0.7402  0.5175 -0.0339
14593TIP3    H143712   4.713   5.899   6.304 -0.6857  0.6593  1.7902
14593TIP3    H243713   4.829   5.993   6.273  0.1668 -1.3218 -1.2860
14594TIP3   OH243714   5.571   7.218   5.924  0.7799  0.4498  0.3803
14594TIP3    H143715   5.585   7.284   5.992  4.1398  0.6499 -0.4172
14594TIP3    H243716   5.504   7.160   5.960  0.7938  1.9014  2.8593
14595TIP3   OH243717   4.034   2.219   0.458  0.0655 -0.0465  0.2006
14595TIP3    H143718   4.099   2.281   0.490 -0.9049  0.3966  1.3442
14595TIP3    H243719   3.970   2.272   0.411 -0.3315 -0.2802  0.4733
14596TIP3   OH243720   1.887   1.804   0.901  0.0680 -0.0884  0.8822
14596TIP3    H143721   1.970   1.811   0.949  0.7446 -0.3417 -0.2410
14596TIP3    H243722   1.846   1.725   0.934  0.6301 -0.3736  0.8932
14597TIP3   OH243723   2.770   1.949   0.657 -0.0692 -0.3631  0.1023
14597TIP3    H143724   2.753   2.011   0.586 -3.0053 -2.8170 -1.4931
14597TIP3    H243725   2.735   1.991   0.735 -0.4220  0.7379 -0.6363
14598TIP3   OH243726   3.008   0.021   1.554 -0.1923  0.2368 -0.2190
14598TIP3    H143727   3.039   0.062   1.635  0.1684 -0.2193 -0.1257
14598TIP3    H243728   2.920   0.057   1.541 -0.5865 -0.3266  0.8264
14599TIP3   OH243729   5.313   6.824   6.460  0.2714  0.2849 -0.0766
14599TIP3    H143730   5.224   6.813   6.491  0.5360 -0.4385  0.4371
14599TIP3    H243731   5.352   6.887   6.520  0.2660  0.2020  0.0136
14600TIP3   OH243732   2.007   4.349   1.235  0.6108 -0.2197  0.1457
14600TIP3    H143733   2.041   4.286   1.300  0.9922  1.0863  1.2471
14600TIP3    H243734   2.055   4.328   1.155  0.8049 -1.2756  0.5214
14601TIP3   OH243735   4.228   7.889   5.871 -0.6968 -0.1449 -0.5972
14601TIP3    H143736   4.209   7.925   5.785 -2.1181 -3.1195 -1.6013
14601TIP3    H243737   4.142   7.865   5.906 -0.0670  0.3303  1.3484
14602TIP3   OH243738   1.287   2.454   1.460  0.4185  0.0690  0.4379
14602TIP3    H143739   1.316   2.375   1.412  0.9608 -0.0639  0.9801
14602TIP3    H243740   1.198   2.469   1.428  0.1264 -1.0482  0.6742
14603TIP3   OH243741   0.870   0.871   1.140  0.1462 -0.1765 -0.0232
14603TIP3    H143742   0.923   0.794   1.160 -0.3979 -0.3040  0.9786
14603TIP3    H243743   0.838   0.856   1.051  1.7127 -0.1345 -0.6089
14604TIP3   OH243744   4.927   6.993   6.673 -0.0064  0.2951 -0.2280
14604TIP3    H143745   4.894   6.980   6.584 -0.5700 -0.2751  0.0601
14604TIP3    H243746   4.872   7.062   6.710  0.6228  0.9659 -0.5203
14605TIP3   OH243747   0.645   3.430   1.140 -0.2805 -0.1146 -0.2372
14605TIP3    H143748   0.614   3.390   1.221  2.4870  0.2477  1.0779
14605TIP3    H243749   0.618   3.370   1.071 -0.4186 -1.7659  1.2229
14606TIP3   OH243750   4.646   6.096   5.856 -0.1812 -0.5356  0.4117
14606TIP3    H143751   4.599   6.019   5.888  1.5591 -1.3363  1.1383
14606TIP3    H243752   4.689   6.132   5.934 -1.9033  1.8829  0.2932
14607TIP3   OH243753   5.425   7.146   5.145 -0.3028  0.3865 -0.5500
14607TIP3    H143754   5.366   7.128   5.218 -0.9154  0.1026 -1.1080
14607TIP3    H243755   5.428   7.064   5.095  0.1531  0.5568 -0.8082
14608TIP3   OH243756   0.930   0.126   1.200  0.4712  0.0297 -0.4190
14608TIP3    H143757   0.873   0.080   1.139  0.7242 -0.2459 -0.4493
14608TIP3    H243758   0.872   0.162   1.266  0.1049  1.0155 -1.2649
14609TIP3   OH243759   1.720   1.653   0.470 -0.7100 -0.5742 -0.2459
14609TIP3    H143760   1.776   1.707   0.414  0.6738  0.8427  2.3998
14609TIP3    H243761   1.747   1.563   0.450  0.1563 -0.0682 -1.4324
14610TIP3   OH243762   4.951   5.984   6.122 -0.3947  0.6111 -0.1460
14610TIP3    H143763   4.910   6.023   6.045  0.2780  1.2167 -0.2126
14610TIP3    H243764   4.954   5.890   6.103  0.5912  0.8512 -1.2731
14611TIP3   OH243765   3.814   0.058   1.039 -0.5846  0.1489  0.4322
14611TIP3    H143766   3.882   0.066   1.106  0.7164 -0.6347 -0.7728
14611TIP3    H243767   3.749   0.123   1.064  0.2722  0.4431  1.9987
14612TIP3   OH243768   5.203   6.604   6.822  0.0637 -0.0478 -0.2883
14612TIP3    H143769   5.190   6.698   6.838 -0.8902 -0.1911 -0.1613
14612TIP3    H243770   5.149   6.561   6.888  1.1208 -0.6969  0.1592
14613TIP3   OH243771   3.125   1.085   0.993 -0.4177 -0.3819 -0.0787
14613TIP3    H143772   3.181   1.008   1.011  0.2782 -0.2517 -1.6255
14613TIP3    H243773   3.038   1.057   1.019  0.1939 -0.9364  1.4508
14614TIP3   OH243774   2.435   2.684   0.530  0.7236 -0.0094 -0.3453
14614TIP3    H143775   2.471   2.716   0.447  1.5913 -0.4784 -0.1561
14614TIP3    H243776   2.352   2.645   0.506  0.4992  0.7584 -0.8485
14615TIP3   OH243777   6.856   0.281   5.779 -0.3046 -0.1017  0.5453
14615TIP3    H143778   6.769   0.318   5.766  0.1693  0.8529  0.0190
14615TIP3    H243779   6.879   0.243   5.695 -0.6787 -1.3574  1.0108
14616TIP3   OH243780   3.324   5.126   6.616 -0.3634 -0.4242  0.4406
14616TIP3    H143781   3.394   5.099   6.556 -1.4228 -1.0957 -0.5050
14616TIP3    H243782   3.301   5.215   6.588  0.3647 -0.0403  1.0139
14617TIP3   OH243783   2.186   2.240   0.408  0.4344 -0.4838 -0.1221
14617TIP3    H143784   2.232   2.312   0.449  0.8414 -1.4067  1.0673
14617TIP3    H243785   2.253   2.195   0.356  0.4482 -0.6913  0.0733
14618TIP3   OH243786   4.219   7.145   6.213  0.4255  0.0282  0.3662
14618TIP3    H143787   4.283   7.075   6.198 -0.5644 -0.3234 -2.6601
14618TIP3    H243788   4.149   7.102   6.263  0.9053 -0.5354  0.5645
14619TIP3   OH243789   1.598   2.548   0.570 -0.2842  0.1692  0.6847
14619TIP3    H143790   1.568   2.509   0.488 -0.3313  0.4851  0.5551
14619TIP3    H243791   1.519   2.553   0.624  0.0680 -1.7178  1.4182
14620TIP3   OH243792   4.926   4.733   5.825  0.1630  0.0945 -1.1356
14620TIP3    H143793   4.872   4.655   5.837  0.1552  0.0497 -1.4630
14620TIP3    H243794   5.009   4.701   5.790  0.3021  0.1918 -0.8946
14621TIP3   OH243795   1.747   4.597   0.012  0.6992 -0.0362 -0.1041
14621TIP3    H143796   1.792   4.644   0.083 -1.2851  1.0159  0.4804
14621TIP3    H243797   1.706   4.666  -0.040  1.3596 -0.8668 -1.7767
14622TIP3   OH243798   2.038   2.943   1.078  0.2468  0.0330  0.3690
14622TIP3    H143799   1.962   2.900   1.118  0.4315 -0.9348 -0.3083
14622TIP3    H243800   2.101   2.952   1.150  0.3395 -1.1496  0.4467
14623TIP3   OH243801   8.495   0.080   6.809  0.3980 -0.1403 -0.1613
14623TIP3    H143802   8.530   0.026   6.881 -2.1835 -1.9337 -0.2060
14623TIP3    H243803   8.440   0.145   6.853 -0.7048 -0.8657 -0.4448
14624TIP3   OH243804   1.833   3.500   0.435 -0.0677  0.5705 -0.4286
14624TIP3    H143805   1.854   3.422   0.384  2.3136  0.3761  0.7688
14624TIP3    H243806   1.834   3.469   0.526 -2.3383  1.3172 -0.1324
14625TIP3   OH243807   4.326   4.624   5.213  0.0496  0.4062  0.2981
14625TIP3    H143808   4.321   4.629   5.308  2.1704 -2.3397  0.5900
14625TIP3    H243809   4.238   4.597   5.186 -0.1551 -0.2414  1.5846
14626TIP3   OH243810   1.182   4.019   2.579  0.1731  0.3872  0.3181
14626TIP3    H143811   1.099   4.066   2.585  0.8106  1.2836  2.7384
14626TIP3    H243812   1.184   3.965   2.658  1.7593  0.1464  0.1226
14627TIP3   OH243813   1.231   2.721   1.693  0.0752  0.0807  0.2483
14627TIP3    H143814   1.171   2.658   1.654 -0.8353  1.6736 -0.9441
14627TIP3    H243815   1.203   2.728   1.784 -1.3787  0.5954 -0.2306
14628TIP3   OH243816   0.404   1.872   0.846 -0.1937  0.2116 -1.0418
14628TIP3    H143817   0.378   1.920   0.768  2.8027  3.7723 -0.0088
14628TIP3    H243818   0.498   1.862   0.838 -0.2210 -1.9483  0.7928
14629TIP3   OH243819   5.970   0.503   6.348  0.4522  0.1905 -0.6739
14629TIP3    H143820   6.027   0.480   6.275  1.0965 -0.0974 -0.0885
14629TIP3    H243821   6.030   0.515   6.422 -0.2496 -0.1063 -0.0527
14630TIP3   OH243822   4.919   4.358   5.485  0.4461  0.7262  0.3706
14630TIP3    H143823   4.970   4.306   5.547  1.2703 -0.3231 -1.1583
14630TIP3    H243824   4.851   4.399   5.538  1.0537 -0.2684  1.9396
14631TIP3   OH243825   0.705   3.119  -0.007 -0.1601 -0.4082  0.0492
14631TIP3    H143826   0.633   3.141  -0.066 -0.4306  1.3885  1.0072
14631TIP3    H243827   0.680   3.156   0.077  0.5184 -2.4044  1.1651
14632TIP3   OH243828   2.272   3.415   1.038  0.3128 -0.3261 -0.0982
14632TIP3    H143829   2.232   3.340   1.082 -0.3752 -0.0433 -0.2223
14632TIP3    H243830   2.301   3.472   1.110  0.2211 -0.3949 -0.0064
14633TIP3   OH243831   0.836   3.011   2.276  0.3460  0.8842  0.1975
14633TIP3    H143832   0.753   3.047   2.248  0.2898  0.6002 -0.0040
14633TIP3    H243833   0.889   3.007   2.197  0.7742  1.6541  0.4388
14634TIP3   OH243834   1.510   2.180   2.303 -0.9779 -0.3812  0.0800
14634TIP3    H143835   1.455   2.219   2.371  1.0566  0.7027  1.1401
14634TIP3    H243836   1.503   2.241   2.229 -0.4265  0.2620  0.5576
14635TIP3   OH243837   1.634   0.815   3.470 -0.0995  0.1430  0.7283
14635TIP3    H143838   1.568   0.752   3.442  1.3864 -0.9788 -0.3657
14635TIP3    H243839   1.595   0.860   3.545 -2.1817 -0.3078 -0.0597
14636TIP3   OH243840   5.497   5.297   6.080 -0.4882 -0.2130 -0.5913
14636TIP3    H143841   5.482   5.353   6.156  1.6737  0.6651 -0.7863
14636TIP3    H243842   5.500   5.208   6.115  2.3124  0.3299  0.6376
14637TIP3   OH243843   7.542   3.756   1.129  0.2942  0.0575  0.0717
14637TIP3    H143844   7.591   3.833   1.158  0.7963 -0.6767  1.2223
14637TIP3    H243845   7.531   3.768   1.035  1.2839  1.0158  0.0671
14638TIP3   OH243846   0.425   3.139   1.247  0.0039 -0.0997  0.1594
14638TIP3    H143847   0.334   3.124   1.220  0.5095 -1.1271 -1.0534
14638TIP3    H243848   0.429   3.106   1.336 -0.4220 -1.5830 -0.3510
14639TIP3   OH243849   4.837   5.457   0.289  0.0511  0.2168  0.2784
14639TIP3    H143850   4.929   5.468   0.313  0.3916 -0.9496 -0.4699
14639TIP3    H243851   4.830   5.366   0.262 -1.4249  0.1900  0.7349
14640TIP3   OH243852   1.072   3.700   0.839  0.2400 -1.0001  0.0005
14640TIP3    H143853   1.086   3.790   0.810 -0.6409 -1.4141 -1.8037
14640TIP3    H243854   1.036   3.708   0.927 -0.5118  0.4389 -0.4161
14641TIP3   OH243855   6.736   2.026   0.962 -0.1747 -0.1689 -0.1773
14641TIP3    H143856   6.723   2.032   1.057  1.1744  0.2642 -0.0117
14641TIP3    H243857   6.830   2.014   0.951 -0.2658  0.2330 -1.4903
14642TIP3   OH243858   8.451   5.426   1.708 -0.6851 -0.3225  0.5081
14642TIP3    H143859   8.427   5.337   1.733  1.4983 -0.5202  2.0168
14642TIP3    H243860   8.448   5.476   1.789  0.2413  0.4912  0.0593
14643TIP3   OH243861   7.389   0.432   5.782  0.5745 -1.0306 -0.3227
14643TIP3    H143862   7.373   0.468   5.694  2.2112  1.2466  0.2581
14643TIP3    H243863   7.323   0.363   5.792 -3.1582  2.1910 -1.3055
14644TIP3   OH243864   4.676   6.637   6.217 -0.2632 -0.0105 -0.5892
14644TIP3    H143865   4.751   6.695   6.224  0.3550 -0.6888 -1.5523
14644TIP3    H243866   4.634   6.660   6.134 -1.4880  0.7872  0.2325
14645TIP3   OH243867   2.952   2.925   1.462 -0.1620  0.1500  0.1095
14645TIP3    H143868   2.958   2.994   1.396 -0.2934  1.6060  1.5950
14645TIP3    H243869   3.035   2.930   1.510 -0.4400 -0.2878  0.6517
14646TIP3   OH243870   2.467   2.175   1.460  0.6340 -0.7603  0.3620
14646TIP3    H143871   2.549   2.127   1.470 -0.2880 -2.2870  0.5866
14646TIP3    H243872   2.457   2.222   1.543 -0.0291 -2.6278  1.3595
14647TIP3   OH243873   4.892   7.206   6.211 -0.4395 -0.3373 -0.1977
14647TIP3    H143874   4.941   7.269   6.158  1.1428 -2.7655 -1.7045
14647TIP3    H243875   4.959   7.147   6.246 -1.9022 -1.2353  1.1432
14648TIP3   OH243876   2.427   1.439   2.537  0.1243 -0.4814 -0.1347
14648TIP3    H143877   2.472   1.408   2.616  1.8396 -0.6479 -1.1582
14648TIP3    H243878   2.468   1.523   2.518  0.5851 -1.0128 -1.5501
14649TIP3   OH243879   5.864   5.054   4.361 -0.5508 -0.3183 -0.3774
14649TIP3    H143880   5.836   4.967   4.334 -0.5884 -0.2692 -0.4969
14649TIP3    H243881   5.824   5.113   4.297 -1.3589 -0.1362  0.2875
14650TIP3   OH243882   5.433   4.578   6.572  0.7547 -0.9026 -0.4742
14650TIP3    H143883   5.527   4.578   6.590  0.2999  1.0381  2.0951
14650TIP3    H243884   5.394   4.531   6.646 -0.4202 -0.6086 -0.8972
14651TIP3   OH243885   3.894   4.394   1.730  0.2180  0.1591 -0.2145
14651TIP3    H143886   3.944   4.470   1.702  2.2100 -0.9917  0.1072
14651TIP3    H243887   3.862   4.354   1.649  0.0206  0.7707 -0.4354
14652TIP3   OH243888   2.037   3.767   1.785 -0.7663  0.9517  0.1418
14652TIP3    H143889   1.976   3.759   1.712 -0.6476  0.0875  0.1275
14652TIP3    H243890   2.084   3.849   1.769  1.1892 -0.5456 -2.2488
14653TIP3   OH243891   3.367   1.630   1.080 -0.3707 -0.0419  0.0815
14653TIP3    H143892   3.397   1.690   1.149 -1.3655 -0.5879  1.0079
14653TIP3    H243893   3.277   1.608   1.106  0.1042 -2.1858 -0.0648
14654TIP3   OH243894   0.747   1.682   2.172 -0.5335  0.1782  0.0161
14654TIP3    H143895   0.757   1.728   2.256 -1.4565  1.4589 -0.5527
14654TIP3    H243896   0.830   1.699   2.126 -0.5657  0.6360  0.1215
14655TIP3   OH243897   0.553   0.626   2.193  0.1952  0.0826 -0.1986
14655TIP3    H143898   0.535   0.647   2.101 -0.7408  1.0716  0.2022
14655TIP3    H243899   0.478   0.573   2.221 -0.3153  1.1376  0.4434
14656TIP3   OH243900   5.907   6.104   6.341  0.2516 -0.6694 -0.3047
14656TIP3    H143901   5.822   6.084   6.303 -0.5040  1.8558 -0.0595
14656TIP3    H243902   5.887   6.129   6.432  1.2205  0.0637 -0.2844
14657TIP3   OH243903   0.331   2.310   0.516 -0.1276 -0.0152  0.0498
14657TIP3    H143904   0.243   2.293   0.550  0.5334 -2.4039  0.6594
14657TIP3    H243905   0.356   2.394   0.556 -1.7318  0.2017  0.6454
14658TIP3   OH243906   3.227   1.943   1.091  0.3708 -0.5380 -0.2965
14658TIP3    H143907   3.184   2.028   1.082  0.2081 -0.4602  1.0613
14658TIP3    H243908   3.157   1.879   1.079  0.2077 -0.4476  0.1640
14659TIP3   OH243909   8.467   1.106   1.536 -0.4051 -0.0955 -0.6414
14659TIP3    H143910   8.384   1.069   1.505 -2.5508  1.7369  2.5656
14659TIP3    H243911   8.464   1.197   1.509  0.6829 -0.0890 -0.7454
14660TIP3   OH243912   2.164   2.383   1.613 -0.5429  0.4533 -0.0978
14660TIP3    H143913   2.180   2.477   1.610 -1.7163  0.6458 -0.5085
14660TIP3    H243914   2.251   2.344   1.626 -0.1118  1.6092  0.5581
14661TIP3   OH243915   4.887   0.390   0.737 -0.2327 -0.1056 -0.7251
14661TIP3    H143916   4.871   0.329   0.809 -0.6958 -0.5240 -1.1878
14661TIP3    H243917   4.963   0.441   0.766 -0.6106 -0.0564  0.2065
14662TIP3   OH243918   6.219   1.030   6.851  0.4020 -0.5337 -0.3745
14662TIP3    H143919   6.258   0.985   6.926 -0.4709 -0.0798  0.3648
14662TIP3    H243920   6.138   0.981   6.834 -0.1475  0.2489 -0.0746
14663TIP3   OH243921   1.936   4.002   1.126 -0.2485 -0.5259  0.2356
14663TIP3    H143922   1.856   4.051   1.141  0.5519  0.4672  1.3851
14663TIP3    H243923   1.909   3.910   1.121 -1.2370 -0.3538  2.2886
14664TIP3   OH243924   5.519   7.945   6.291  0.2233 -0.4953  0.1449
14664TIP3    H143925   5.588   7.961   6.355 -0.6641 -0.9619  1.2396
14664TIP3    H243926   5.514   8.026   6.240  0.1873  0.2854  1.3816
14665TIP3   OH243927   2.024   4.216   0.501 -0.2376  0.6158 -0.4530
14665TIP3    H143928   2.080   4.219   0.579 -2.6455  1.2989  1.3324
14665TIP3    H243929   2.026   4.124   0.474 -2.1626 -0.4449  2.6339
14666TIP3   OH243930   4.763   4.296   6.454  0.5426 -0.0155  0.0383
14666TIP3    H143931   4.731   4.386   6.446  0.4865  0.1554  2.0327
14666TIP3    H243932   4.696   4.251   6.505 -0.0046 -1.5178 -1.9093
14667TIP3   OH243933   3.213   4.558   1.898  0.5090  0.4154  0.1377
14667TIP3    H143934   3.302   4.549   1.864  1.6725  1.3883  2.7984
14667TIP3    H243935   3.181   4.640   1.861  0.7624  0.1132 -0.7517
14668TIP3   OH243936   5.585   7.463   6.078 -0.0679  0.3494  0.3889
14668TIP3    H143937   5.629   7.539   6.039 -0.2856  0.7769  0.9750
14668TIP3    H243938   5.644   7.435   6.149 -0.7430  0.9397  1.1931
14669TIP3   OH243939   3.610   6.731   6.180 -0.0165  0.1340  0.2543
14669TIP3    H143940   3.621   6.778   6.097 -0.5983  2.3685  1.3986
14669TIP3    H243941   3.521   6.696   6.175 -0.4212  1.1188  0.3280
14670TIP3   OH243942   1.317   1.409   0.031 -0.2872  0.1183 -0.6121
14670TIP3    H143943   1.344   1.391  -0.059 -0.0700 -0.8763 -0.3613
14670TIP3    H243944   1.314   1.504   0.038  2.9889  0.2834 -0.7299
14671TIP3   OH243945   3.156   1.312   1.840 -0.1622  0.0897 -0.8057
14671TIP3    H143946   3.155   1.230   1.790  0.6761 -0.8880  0.7228
14671TIP3    H243947   3.089   1.300   1.908  2.2475 -0.7565  1.5342
14672TIP3   OH243948   1.427   1.258   2.091  0.2362 -0.3726  0.7347
14672TIP3    H143949   1.337   1.264   2.122  0.5423 -0.9882  1.7409
14672TIP3    H243950   1.425   1.188   2.026  0.2850 -1.3632  1.8021
14673TIP3   OH243951   2.350   1.870   0.600  0.5632 -0.1459  0.5561
14673TIP3    H143952   2.391   1.952   0.574  1.4939 -0.6769  0.3000
14673TIP3    H243953   2.413   1.803   0.574 -1.0749 -1.0837 -1.1000
14674TIP3   OH243954   4.792   6.731   5.717 -0.3596  0.0280  0.5920
14674TIP3    H143955   4.885   6.757   5.717 -0.2546 -0.3371  0.7427
14674TIP3    H243956   4.786   6.665   5.648 -0.2459 -0.8395  1.3995
14675TIP3   OH243957   0.839   1.697   1.179 -0.3279 -0.1159  0.7739
14675TIP3    H143958   0.795   1.629   1.229  2.0325 -2.0538  0.2863
14675TIP3    H243959   0.903   1.735   1.239  1.1415 -1.0988 -0.1422
14676TIP3   OH243960   0.452   1.888   1.950  0.4375 -0.5338 -0.1382
14676TIP3    H143961   0.456   1.798   1.984 -0.2618 -0.2770  0.6468
14676TIP3    H243962   0.533   1.929   1.981  0.5971 -0.7988 -0.2057
14677TIP3   OH243963   2.575   2.505   0.200 -0.1528 -0.1825 -0.6045
14677TIP3    H143964   2.547   2.597   0.198 -0.4680 -0.2490  0.4562
14677TIP3    H243965   2.647   2.500   0.137 -0.2838  0.7405 -0.8314
14678TIP3   OH243966   6.807   0.737   5.917 -0.0907  0.1391  0.3666
14678TIP3    H143967   6.794   0.822   5.875  1.9868  0.4171  0.2628
14678TIP3    H243968   6.867   0.754   5.989 -1.0460 -0.9365  1.4522
14679TIP3   OH243969   3.085   2.607   3.668  0.1812  0.2941  0.0533
14679TIP3    H143970   3.091   2.587   3.762  1.4242  0.5735  0.0388
14679TIP3    H243971   3.014   2.671   3.662  0.7263  1.0033  0.9322
14680TIP3   OH243972   6.959   7.761   1.950  0.4969  0.1435  0.2379
14680TIP3    H143973   6.958   7.857   1.953  0.3315  0.2512 -2.2652
14680TIP3    H243974   6.867   7.736   1.961  0.3876  0.3449 -0.1744
14681TIP3   OH243975   2.167   2.757   0.131  0.5151  0.3491 -0.3475
14681TIP3    H143976   2.130   2.669   0.125 -1.0423  1.0085 -0.7429
14681TIP3    H243977   2.261   2.743   0.142 -0.0632 -1.4083  2.7160
14682TIP3   OH243978   5.830   4.671   6.375  0.4994 -0.0990 -0.2279
14682TIP3    H143979   5.753   4.614   6.376  0.2778  0.1586 -1.3622
14682TIP3    H243980   5.887   4.636   6.443 -1.0880  0.3703  1.3714
14683TIP3   OH243981   7.661   0.699   6.147 -0.9744 -0.7219 -0.1048
14683TIP3    H143982   7.610   0.672   6.224 -1.6733  2.1774  0.5054
14683TIP3    H243983   7.752   0.698   6.178 -0.7940 -3.6703 -0.5319
14684TIP3   OH243984   1.573   3.104   0.581 -0.1996  0.0733  0.2162
14684TIP3    H143985   1.559   3.047   0.505 -1.4217 -0.8067  1.0654
14684TIP3    H243986   1.639   3.059   0.633  0.7129  0.7277 -0.3651
14685TIP3   OH243987   1.774   3.389   0.978 -0.0403  0.2325  0.2898
14685TIP3    H143988   1.709   3.458   0.988  0.8110  0.7615  2.4183
14685TIP3    H243989   1.725   3.308   0.995 -1.0973  0.2350 -2.4748
14686TIP3   OH243990   4.385   4.628   2.266  0.5916  0.1006  0.0956
14686TIP3    H143991   4.345   4.693   2.207  2.6933  1.1912 -0.1904
14686TIP3    H243992   4.399   4.676   2.347 -0.1414 -0.7478  0.7365
14687TIP3   OH243993   1.121   0.799   5.956  0.0326 -0.2461 -0.1387
14687TIP3    H143994   1.190   0.792   6.022 -1.1567 -1.0663  1.0301
14687TIP3    H243995   1.159   0.760   5.877 -0.0817 -3.3036  1.2768
14688TIP3   OH243996   7.600   5.794   6.708  0.0111  0.2664  0.3082
14688TIP3    H143997   7.514   5.836   6.710 -0.7477 -1.3131  2.9307
14688TIP3    H243998   7.650   5.840   6.775  0.3001 -0.7143  0.7582
14689TIP3   OH243999   3.556   3.818   1.766  0.4425 -0.1656 -0.0993
14689TIP3    H144000   3.468   3.849   1.790  0.1953 -2.1261  1.6796
14689TIP3    H244001   3.597   3.893   1.723 -1.0813  1.7435  1.6561
14690TIP3   OH244002   5.977   5.094   5.107  0.5434 -0.3238  0.3956
14690TIP3    H144003   6.060   5.060   5.141 -0.4219 -0.9134  2.2241
14690TIP3    H244004   5.919   5.097   5.184 -0.8882  0.8298 -0.6985
14691TIP3   OH244005   3.546   2.168   0.977  0.4501  0.4369  0.0747
14691TIP3    H144006   3.477   2.233   0.962 -0.0368  0.2757  1.5611
14691TIP3    H244007   3.516   2.090   0.930 -0.1415  0.5246  0.3039
14692TIP3   OH244008   3.611   2.101   0.510 -0.3128  0.6846  0.0134
14692TIP3    H144009   3.644   2.065   0.427 -1.1511 -0.4722  0.1732
14692TIP3    H244010   3.557   2.176   0.484  3.5108  3.5382 -0.1847
14693TIP3   OH244011   4.551   4.673   6.131  0.7137 -0.7742  0.7697
14693TIP3    H144012   4.639   4.636   6.138  0.4494 -1.9501 -1.6293
14693TIP3    H244013   4.529   4.667   6.038 -0.9829  1.7092  0.9556
14694TIP3   OH244014   5.876   5.813   6.344 -0.7552  0.6376 -0.2002
14694TIP3    H144015   5.933   5.887   6.327 -1.2257  1.3784  1.3646
14694TIP3    H244016   5.897   5.786   6.434  0.0760 -1.7237 -1.0580
14695TIP3   OH244017   2.229   1.533   1.020  0.4234  0.4804 -0.0872
14695TIP3    H144018   2.163   1.596   1.049  0.7581  0.9603 -0.3735
14695TIP3    H244019   2.245   1.479   1.098  0.4462  1.0107  0.2771
14696TIP3   OH244020   2.316   2.409   0.117  0.4413 -0.0661 -0.3977
14696TIP3    H144021   2.394   2.431   0.168  2.1416 -0.8851 -2.5435
14696TIP3    H244022   2.337   2.324   0.078 -1.3924 -0.1268 -1.2683
14697TIP3   OH244023   4.487   2.955   1.829  0.3103  0.1811 -0.5620
14697TIP3    H144024   4.568   3.000   1.805  1.2703 -0.4564  1.2984
14697TIP3    H244025   4.442   3.016   1.887  0.8382 -0.5494  0.6562
14698TIP3   OH244026   5.483   6.042   5.940 -0.0698 -0.3206  0.1256
14698TIP3    H144027   5.418   6.017   6.006  1.4765  0.0111  1.8201
14698TIP3    H244028   5.504   6.133   5.961 -0.6532  0.2684 -1.7785
14699TIP3   OH244029   5.703   4.600   6.637  0.2943  0.3086  0.3587
14699TIP3    H144030   5.711   4.604   6.732 -0.7450 -0.5992  0.4905
14699TIP3    H244031   5.793   4.593   6.605  0.5463 -1.0419  1.3501
14700TIP3   OH244032   3.189   2.715   1.911  0.5961 -0.7309 -0.5335
14700TIP3    H144033   3.119   2.752   1.857  0.6058  0.8781  0.5031
14700TIP3    H244034   3.233   2.792   1.948  2.0852 -1.7553 -0.1257
14701TIP3   OH244035   4.127   3.472   1.527  0.8613  0.6353  0.2645
14701TIP3    H144036   4.131   3.448   1.619 -1.1250  2.6043  0.9135
14701TIP3    H244037   4.188   3.412   1.484 -0.3567 -2.2842  2.4191
14702TIP3   OH244038   2.788   4.133   0.720 -0.0304  0.3095 -0.3463
14702TIP3    H144039   2.854   4.179   0.772  0.4865 -0.8486  0.0537
14702TIP3    H244040   2.838   4.092   0.649 -0.1873 -1.2022  0.3882
14703TIP3   OH244041   3.669   4.054   1.618 -0.1756  0.1161  0.3648
14703TIP3    H144042   3.749   4.106   1.628 -0.8121  1.1451  0.1242
14703TIP3    H244043   3.676   4.015   1.531 -0.0388  0.3728  0.2616
14704TIP3   OH244044   5.551   6.589   3.627 -0.2040 -0.3958  0.5650
14704TIP3    H144045   5.529   6.657   3.564  1.3911 -0.4254 -0.0524
14704TIP3    H244046   5.562   6.510   3.575  0.2641 -0.6080  0.9739
14705TIP3   OH244047   5.355   7.107   6.547 -0.0704  0.0777  0.5527
14705TIP3    H144048   5.360   7.165   6.471 -0.0130 -0.6269  0.0203
14705TIP3    H244049   5.408   7.151   6.614  0.4579  0.3543 -0.0396
14706TIP3   OH244050   3.282   1.656   0.017  0.3265  0.3456 -0.2011
14706TIP3    H144051   3.361   1.686   0.062 -0.3786  0.3827  1.0387
14706TIP3    H244052   3.272   1.565   0.043  0.2533  0.1859 -0.7754
14707TIP3   OH244053   5.142   6.021   6.318 -0.0384 -0.5337 -0.3285
14707TIP3    H144054   5.105   6.007   6.406  0.0243 -0.4451 -0.2878
14707TIP3    H244055   5.068   6.010   6.259 -0.3708  0.7953 -0.1733
14708TIP3   OH244056   3.095   3.204   2.117  0.0795  0.3577 -0.5999
14708TIP3    H144057   3.123   3.276   2.061  1.2719  1.3523  1.2067
14708TIP3    H244058   3.156   3.133   2.097 -1.2216 -0.2584 -2.5298
14709TIP3   OH244059   7.293   4.587   5.818 -0.1231  0.1118 -0.7228
14709TIP3    H144060   7.256   4.590   5.906  1.6013 -0.9179  0.0564
14709TIP3    H244061   7.268   4.500   5.784  1.6032 -0.6235 -0.1605
14710TIP3   OH244062   3.228   4.445   1.060  0.1449  0.8382  0.6320
14710TIP3    H144063   3.193   4.405   1.139  2.8582  1.3085  2.1342
14710TIP3    H244064   3.285   4.378   1.022 -0.7016  0.8137 -0.6304
14711TIP3   OH244065   6.461   3.866   3.752 -0.2693  0.0307  0.1763
14711TIP3    H144066   6.373   3.857   3.716  0.1406 -0.9258 -0.6051
14711TIP3    H244067   6.484   3.958   3.736 -0.1941 -0.3159 -1.7902
14712TIP3   OH244068   3.761   2.378   1.233 -0.4473 -0.2218  0.2618
14712TIP3    H144069   3.730   2.450   1.178 -0.3390 -0.2192  0.2054
14712TIP3    H244070   3.852   2.399   1.252 -0.2256 -0.6660 -0.2835
14713TIP3   OH244071   5.684   6.642   6.621  0.4712 -0.1135  0.3490
14713TIP3    H144072   5.673   6.576   6.553  0.3279 -1.0289  1.2453
14713TIP3    H244073   5.606   6.633   6.676 -0.5179  2.1465 -0.6364
14714TIP3   OH244074   2.460   4.372   1.015 -0.4153 -0.4702 -0.1650
14714TIP3    H144075   2.487   4.453   1.058  0.6143  0.7442 -3.0171
14714TIP3    H244076   2.365   4.378   1.012 -0.4113  0.1221  0.5742
14715TIP3   OH244077   3.811   7.847   6.122 -0.2896  0.0586 -0.2566
14715TIP3    H144078   3.780   7.758   6.105 -0.4345 -0.1225  0.9229
14715TIP3    H244079   3.874   7.838   6.193 -2.1990  1.1826  1.6555
14716TIP3   OH244080   5.298   5.531   6.576  0.3074  0.1028  0.5492
14716TIP3    H144081   5.235   5.509   6.645 -1.0564  0.5328 -0.5399
14716TIP3    H244082   5.247   5.580   6.511  1.8673  0.8411 -0.1460
14717TIP3   OH244083   3.014   2.741   0.273  0.1226 -0.1531 -0.3571
14717TIP3    H144084   2.930   2.783   0.258 -0.4858 -1.7686 -1.5792
14717TIP3    H244085   3.068   2.809   0.314 -2.0810  0.5806  1.4099
14718TIP3   OH244086   4.944   6.238   5.549  0.1631  0.2833  0.1663
14718TIP3    H144087   4.952   6.334   5.550 -2.4507  0.5784 -1.3704
14718TIP3    H244088   4.849   6.223   5.550  0.5574 -2.3123  0.6886
14719TIP3   OH244089   6.143   7.930   6.718 -0.1262 -0.3233 -0.0398
14719TIP3    H144090   6.156   8.017   6.679  2.8544 -2.0114 -3.0098
14719TIP3    H244091   6.073   7.890   6.666  2.0574 -1.5814 -2.1187
14720TIP3   OH244092   3.213   2.036   0.115 -0.4264 -0.1823  0.5270
14720TIP3    H144093   3.245   1.975   0.048  1.1324  0.0475  1.0475
14720TIP3    H244094   3.207   1.983   0.194  0.8570  0.2965  0.9622
14721TIP3   OH244095   7.744   6.227   4.789  0.3366  0.1337  0.7849
14721TIP3    H144096   7.732   6.307   4.739 -0.3161 -0.9916 -0.9351
14721TIP3    H244097   7.839   6.218   4.799  0.5291 -0.0416 -1.0129
14722TIP3   OH244098   4.223   4.767   6.077  0.6059 -0.1028  0.0578
14722TIP3    H144099   4.169   4.694   6.108 -2.3216  1.1690 -1.8486
14722TIP3    H244100   4.237   4.821   6.155 -1.1596 -0.3204  0.5636
14723TIP3   OH244101   2.418   2.813   1.166  0.5838 -0.2814 -0.4248
14723TIP3    H144102   2.453   2.858   1.089  1.1612 -1.8000 -1.0755
14723TIP3    H244103   2.415   2.721   1.140 -1.7879 -0.4730  0.4072
14724TIP3   OH244104   6.900   5.638   5.221  0.7082  0.3670 -0.1042
14724TIP3    H144105   6.824   5.609   5.171  1.4660  0.9778 -1.6537
14724TIP3    H244106   6.928   5.561   5.270  0.6880 -0.5972 -1.5989
14725TIP3   OH244107   7.255   6.951   4.200  0.3253  0.4408  0.1065
14725TIP3    H144108   7.333   6.945   4.144  1.3404 -0.3312  1.5828
14725TIP3    H244109   7.238   6.861   4.228 -2.0598  0.3780 -1.4678
14726TIP3   OH244110   5.585   5.925   6.577 -0.0606 -0.3754 -0.1533
14726TIP3    H144111   5.649   5.927   6.648 -0.9986 -0.3559  0.7090
14726TIP3    H244112   5.549   5.836   6.580  0.4388 -0.6198 -1.1115
14727TIP3   OH244113   4.438   4.360   1.444 -0.1681 -0.0160 -0.4562
14727TIP3    H144114   4.481   4.291   1.393  1.0426 -0.2071  0.8042
14727TIP3    H244115   4.359   4.319   1.478 -0.7190 -0.0440 -1.7368
14728TIP3   OH244116   6.677   4.452   6.185  0.1159 -0.3738 -0.5069
14728TIP3    H144117   6.636   4.490   6.107 -2.4158 -1.6999  0.1198
14728TIP3    H244118   6.687   4.525   6.246  0.6092  0.3587 -1.4562
14729TIP3   OH244119   3.354   3.997   1.881 -0.6915  0.6201  0.9050
14729TIP3    H144120   3.369   4.081   1.837 -1.0076  0.8640  1.2601
14729TIP3    H244121   3.344   4.019   1.974 -2.0023  0.3320  0.8464
14730TIP3   OH244122   2.890   3.854   0.819  0.0136 -0.5949  0.0855
14730TIP3    H144123   2.850   3.941   0.834 -0.0527 -0.3187 -1.6726
14730TIP3    H244124   2.979   3.873   0.790  0.4429 -1.1662  0.9878
14731TIP3   OH244125   3.994   1.606   0.937  0.0829  0.1195  0.4178
14731TIP3    H144126   4.077   1.637   0.973  0.4015 -1.6656  1.2817
14731TIP3    H244127   3.951   1.685   0.903  2.6612  0.8971 -1.1741
14732TIP3   OH244128   7.702   0.068   6.211 -0.5230 -0.2295  0.2132
14732TIP3    H144129   7.771   0.127   6.180  0.3021 -1.2826  0.0319
14732TIP3    H244130   7.717  -0.014   6.164 -1.1999 -0.8321  1.0379
14733TIP3   OH244131   8.233   3.276   0.299  0.1426 -0.2136 -0.1751
14733TIP3    H144132   8.269   3.210   0.359  0.6810 -1.1918 -1.5475
14733TIP3    H244133   8.229   3.356   0.351  0.4775 -1.0752  1.2059
14734TIP3   OH244134   1.382   4.386   0.131  0.7284 -0.3336  0.0227
14734TIP3    H144135   1.366   4.478   0.153  1.4976  0.1100 -1.2007
14734TIP3    H244136   1.341   4.374   0.045  2.6211 -0.4974 -0.8835
14735TIP3   OH244137   7.060   1.095   4.327 -0.3614  0.5378 -0.1511
14735TIP3    H144138   7.069   1.168   4.266  0.1070  0.3004 -0.3763
14735TIP3    H244139   7.103   1.022   4.283 -1.0547  0.0552 -0.0439
14736TIP3   OH244140   0.569   2.746   0.938  0.1182 -0.5707 -0.6004
14736TIP3    H144141   0.543   2.837   0.923  1.1641 -0.1502  0.0747
14736TIP3    H244142   0.645   2.752   0.996 -0.0569 -1.8964 -0.2154
14737TIP3   OH244143   2.388   7.300   6.588 -0.4248  0.5475  0.4391
14737TIP3    H144144   2.327   7.235   6.555 -0.3714 -0.5318  2.3784
14737TIP3    H244145   2.364   7.311   6.680  1.0279  1.5670  0.7191
14738TIP3   OH244146   8.006   5.368   0.134  0.1117  0.1552 -0.4130
14738TIP3    H144147   7.954   5.289   0.150 -0.1062  0.8443  2.5054
14738TIP3    H244148   7.941   5.437   0.121  0.2230  0.7963  2.1115
14739TIP3   OH244149   0.986   4.250   0.487  0.1991  0.2182 -0.1616
14739TIP3    H144150   0.979   4.331   0.538  1.6997  0.4263 -0.2699
14739TIP3    H244151   1.077   4.222   0.499  0.0987 -0.6337 -1.3477
14740TIP3   OH244152   8.283   2.482   2.175  0.1217  0.3175  0.0413
14740TIP3    H144153   8.372   2.458   2.199 -0.0459 -1.1601 -0.7679
14740TIP3    H244154   8.234   2.479   2.257  0.7338  0.7866  0.4269
14741TIP3   OH244155   7.918   1.819   1.901 -0.3708 -0.0046  0.4392
14741TIP3    H144156   7.894   1.907   1.931  1.4621  0.2050  1.3180
14741TIP3    H244157   8.003   1.830   1.860 -0.9388 -1.0735 -1.0636
14742TIP3   OH244158   2.662   4.484   0.174 -0.3827  0.1508  0.4523
14742TIP3    H144159   2.642   4.395   0.145 -1.1842  0.2214  0.7720
14742TIP3    H244160   2.609   4.496   0.253  1.6678 -0.0117  1.9011
14743TIP3   OH244161   3.763   7.669   5.366  0.4052 -0.1180  0.5885
14743TIP3    H144162   3.834   7.710   5.415  0.4279 -1.2601  1.5329
14743TIP3    H244163   3.684   7.696   5.411  0.2317  1.0356 -0.3774
14744TIP3   OH244164   5.274   1.584   6.544  0.1715 -0.2269  0.5988
14744TIP3    H144165   5.255   1.510   6.601 -2.2367 -0.0543  0.0587
14744TIP3    H244166   5.325   1.546   6.472 -0.2055 -1.1832  0.8265
14745TIP3   OH244167   1.083   3.139   1.629 -0.3480  0.3585  0.4071
14745TIP3    H144168   1.007   3.086   1.655 -2.7216  1.7923 -3.2968
14745TIP3    H244169   1.145   3.076   1.592 -0.6089 -0.5584  1.5058
14746TIP3   OH244170   0.951   1.693   1.989 -0.4914 -0.4531 -0.0797
14746TIP3    H144171   0.888   1.730   1.927 -0.3135  0.9236  0.5585
14746TIP3    H244172   1.011   1.765   2.010 -0.3798 -0.9726  1.4854
14747TIP3   OH244173   8.354   2.268   0.690  1.0574 -0.3327 -0.1824
14747TIP3    H144174   8.403   2.348   0.710  0.4818  0.3155 -1.3223
14747TIP3    H244175   8.262   2.294   0.698  0.8786 -1.0083 -0.0754
14748TIP3   OH244176   7.771   1.197   0.862  0.6370 -0.0942  0.4818
14748TIP3    H144177   7.692   1.246   0.885  0.3289 -0.3859  0.0465
14748TIP3    H244178   7.761   1.113   0.907  0.8471 -0.0144  0.6793
14749TIP3   OH244179   7.826   2.813   0.807 -0.0106 -0.2270  0.4416
14749TIP3    H144180   7.881   2.735   0.801 -1.0993 -1.1161  1.7473
14749TIP3    H244181   7.808   2.823   0.900 -0.3774  1.2495  0.2290
14750TIP3   OH244182   0.419   4.371   1.914 -0.2698  0.3365 -0.1403
14750TIP3    H144183   0.496   4.424   1.893  1.1977 -2.0126 -0.9316
14750TIP3    H244184   0.426   4.295   1.855 -1.7071 -1.2584  1.6803
14751TIP3   OH244185   0.874   5.094   0.094  0.6785  0.0906 -0.0250
14751TIP3    H144186   0.908   5.179   0.122 -3.5489  1.6139  0.8361
14751TIP3    H244187   0.871   5.099  -0.002 -1.7628  1.8817  0.1112
14752TIP3   OH244188   8.354   3.900   1.422  0.0775  0.2720 -0.5500
14752TIP3    H144189   8.390   3.851   1.496  0.3357  2.7447  1.0320
14752TIP3    H244190   8.260   3.890   1.430  0.1741 -0.9363 -0.9270
14753TIP3   OH244191   2.568   7.956   5.601 -0.2841 -0.3017 -0.3925
14753TIP3    H144192   2.498   7.906   5.560  0.3220 -2.3281  0.9666
14753TIP3    H244193   2.553   7.947   5.695 -0.0081  1.8821 -0.1069
14754TIP3   OH244194   6.918   0.571   6.408 -0.4549  0.7255 -0.1606
14754TIP3    H144195   6.940   0.481   6.433 -1.2327  0.7689  0.7350
14754TIP3    H244196   6.903   0.568   6.314  2.1689  0.4586 -0.5898
14755TIP3   OH244197   0.912   2.601   0.726 -0.2564 -0.6791 -0.5088
14755TIP3    H144198   0.994   2.606   0.775 -0.3293 -1.8421 -0.2436
14755TIP3    H244199   0.939   2.609   0.635 -0.1253  1.5509 -0.3122
14756TIP3   OH244200   2.317   3.360   0.657 -0.0580  0.1568  0.2653
14756TIP3    H144201   2.287   3.447   0.631 -0.7972  0.2872  1.5235
14756TIP3    H244202   2.282   3.302   0.589  0.4918  0.8277 -0.6154
14757TIP3   OH244203   3.856   7.066   5.658  0.1942 -0.1286 -0.6326
14757TIP3    H144204   3.931   7.007   5.658 -0.0233 -0.4127  0.7465
14757TIP3    H244205   3.845   7.091   5.566  2.0437  0.0116 -0.8285
14758TIP3   OH244206   6.570   1.593   6.768 -0.7378  0.7725  0.1711
14758TIP3    H144207   6.498   1.634   6.721 -0.1408 -0.0319 -1.4891
14758TIP3    H244208   6.598   1.658   6.832 -0.5076  2.5452 -1.6776
14759TIP3   OH244209   2.624   1.638   0.945 -0.1202  0.2250  0.3329
14759TIP3    H144210   2.545   1.628   0.892 -1.7187 -0.0837  2.7288
14759TIP3    H244211   2.617   1.726   0.982  0.2926 -0.0941  1.1716
14760TIP3   OH244212   7.312   3.910   6.033 -0.4061 -0.4412  0.6210
14760TIP3    H144213   7.377   3.847   6.064 -1.1401 -1.2576  0.5373
14760TIP3    H244214   7.350   3.948   5.954 -1.1250 -2.8366 -0.9446
14761TIP3   OH244215   2.585   3.491   0.342  0.3512  0.0479 -0.7271
14761TIP3    H144216   2.554   3.475   0.431 -2.8105  0.2597 -1.7273
14761TIP3    H244217   2.583   3.586   0.333 -0.2049 -0.0058 -1.2714
14762TIP3   OH244218   7.612   1.383   5.388 -0.2059 -0.3034 -0.0187
14762TIP3    H144219   7.521   1.393   5.418 -0.2383 -0.6947  0.0101
14762TIP3    H244220   7.604   1.354   5.297 -0.1430 -3.2545  0.8567
14763TIP3   OH244221   8.427   3.380   6.871  0.0013 -0.1042  0.0940
14763TIP3    H144222   8.412   3.473   6.858  0.5710  0.2430  1.7216
14763TIP3    H244223   8.389   3.362   6.958 -2.1227 -1.8691 -1.1365
14764TIP3   OH244224   4.623   6.878   4.647 -0.3554  0.2628  0.3634
14764TIP3    H144225   4.594   6.950   4.591 -0.4779 -1.4173 -1.8391
14764TIP3    H244226   4.543   6.844   4.687 -0.3783  0.9472  0.8896
14765TIP3   OH244227   1.611   4.811   1.984 -0.0981 -0.2812  0.1303
14765TIP3    H144228   1.549   4.852   1.923  0.0304 -0.0862  0.1316
14765TIP3    H244229   1.616   4.720   1.954  1.3879  0.2496 -1.3217
14766TIP3   OH244230   1.046   4.776   0.634 -0.2828 -0.5040 -0.0472
14766TIP3    H144231   1.070   4.831   0.708 -1.9765  0.1791  0.0198
14766TIP3    H244232   1.034   4.837   0.562  0.6623 -1.0982 -0.7100
14767TIP3   OH244233   7.387   1.518   6.593 -0.1933  0.6330 -0.0927
14767TIP3    H144234   7.371   1.428   6.566  1.1978 -0.1738  1.6734
14767TIP3    H244235   7.449   1.552   6.528  1.3679 -0.5609  0.7429
14768TIP3   OH244236   1.784   3.908   0.520 -0.5189 -0.7429 -0.2364
14768TIP3    H144237   1.784   3.953   0.604 -0.4990 -2.3773  0.6620
14768TIP3    H244238   1.720   3.837   0.531 -0.2038 -1.2327 -1.4603
14769TIP3   OH244239   1.231   4.114   1.574  0.7375 -0.0227 -0.1974
14769TIP3    H144240   1.280   4.115   1.656  0.7697  0.6242 -0.2186
14769TIP3    H244241   1.268   4.041   1.524  0.0384 -1.0523  0.7645
14770TIP3   OH244242   2.967   4.008   0.542 -0.0192  0.2718 -0.2107
14770TIP3    H144243   3.033   4.045   0.483  0.2773  0.9803  0.5538
14770TIP3    H244244   2.976   3.914   0.532  0.5966  0.3772 -0.6894
14771TIP3   OH244245   7.284   0.352   4.835 -0.1072  0.3459  0.9245
14771TIP3    H144246   7.345   0.279   4.835  1.1564  1.3787  0.9306
14771TIP3    H244247   7.238   0.346   4.919  0.7428  0.1816  1.3790
14772TIP3   OH244248   1.249   3.446   3.604  0.1590  0.5863  1.2932
14772TIP3    H144249   1.210   3.511   3.545  1.6905  0.4817  0.1179
14772TIP3    H244250   1.202   3.456   3.686 -1.9394  0.8496  0.0915
14773TIP3   OH244251   7.087   2.781   2.867 -0.1250 -0.0236 -0.3743
14773TIP3    H144252   7.050   2.694   2.879 -1.0066  0.2653 -0.9398
14773TIP3    H244253   7.081   2.797   2.773 -3.3402  2.1002  0.1087
14774TIP3   OH244254   1.158   3.683   0.342 -0.3520 -0.1606 -0.2410
14774TIP3    H144255   1.065   3.668   0.329 -0.4240 -0.1415  0.2515
14774TIP3    H244256   1.192   3.599   0.374 -0.3213  0.0274  0.2195
14775TIP3   OH244257   5.699   1.920   6.538  0.0481  0.6008 -0.6856
14775TIP3    H144258   5.770   1.867   6.502 -0.6103 -1.1280  0.4707
14775TIP3    H244259   5.620   1.887   6.494 -0.5984 -0.6755  1.3190
14776TIP3   OH244260   1.393   5.699   1.922 -0.5510 -0.3880  0.0744
14776TIP3    H144261   1.313   5.748   1.903 -0.4606 -0.7256 -1.1844
14776TIP3    H244262   1.446   5.760   1.974 -1.3032  0.1108  0.2636
14777TIP3   OH244263   1.415   3.016   0.047 -0.2229  0.4488 -0.0307
14777TIP3    H144264   1.337   3.025   0.102  0.1723 -0.9066  0.7778
14777TIP3    H244265   1.485   2.991   0.108 -0.0900 -2.5338 -1.3329
14778TIP3   OH244266   3.365   7.778   5.608 -0.9086  0.1366  0.2053
14778TIP3    H144267   3.273   7.788   5.585 -0.7844  2.7822  0.7832
14778TIP3    H244268   3.364   7.737   5.695 -1.5747  1.6489  0.9202
14779TIP3   OH244269   2.348   5.105   1.915  0.1803  0.6355 -0.4037
14779TIP3    H144270   2.276   5.064   1.963  0.7827  0.6744  0.5606
14779TIP3    H244271   2.307   5.178   1.868 -0.7281 -0.4884 -1.3891
14780TIP3   OH244272   2.866   4.838   0.204  0.1105 -0.2237 -0.3599
14780TIP3    H144273   2.897   4.772   0.266  2.0294  0.9477 -0.0316
14780TIP3    H244274   2.848   4.916   0.256  3.9630  1.5285 -1.4290
14781TIP3   OH244275   5.193   4.883   4.944 -0.2474  0.0110 -0.0602
14781TIP3    H144276   5.273   4.863   4.992  0.1100  0.0717 -0.6320
14781TIP3    H244277   5.218   4.950   4.881 -0.6425 -0.2902 -0.5455
14782TIP3   OH244278   6.187   4.032   5.572 -0.0932  0.2417 -0.0947
14782TIP3    H144279   6.260   4.088   5.596  1.2943 -0.9670 -1.4119
14782TIP3    H244280   6.165   3.985   5.652  1.9967 -0.9741 -0.2033
14783TIP3   OH244281   0.954   0.183   6.918  0.3255 -0.1464  0.2094
14783TIP3    H144282   1.005   0.109   6.884  0.4935 -0.6487  1.4902
14783TIP3    H244283   0.865   0.167   6.889  0.5052 -0.4372 -0.1830
14784TIP3   OH244284   0.558   2.479   1.084 -0.2315  0.1240  0.3999
14784TIP3    H144285   0.602   2.517   1.008 -1.1344  0.3675 -0.0077
14784TIP3    H244286   0.469   2.515   1.080 -0.7375 -1.0789  0.6952
14785TIP3   OH244287   7.592   1.870   6.757  0.8345 -0.5723 -0.2961
14785TIP3    H144288   7.546   1.794   6.793 -0.4807 -0.5608 -1.9177
14785TIP3    H244289   7.542   1.946   6.788  1.1965 -0.4334 -0.0402
14786TIP3   OH244290   4.868   3.692   5.808 -0.1196 -0.4525  0.1533
14786TIP3    H144291   4.936   3.631   5.838  0.6725  0.0412 -0.6310
14786TIP3    H244292   4.827   3.723   5.889 -0.8707 -2.4119  0.5413
14787TIP3   OH244293   5.835   0.675   6.942  0.1806  0.2522  0.4705
14787TIP3    H144294   5.799   0.619   6.873  0.1099 -1.6907  2.0763
14787TIP3    H244295   5.778   0.752   6.942 -0.9652 -0.5868 -0.3443
14788TIP3   OH244296   5.522   0.804   6.013  0.5765 -0.2024 -0.1010
14788TIP3    H144297   5.475   0.856   6.077  2.2421 -0.5723  1.4699
14788TIP3    H244298   5.482   0.717   6.018 -1.0079  0.4137 -1.4494
14789TIP3   OH244299   2.557   4.845   0.556 -0.0062 -0.0415 -0.3071
14789TIP3    H144300   2.510   4.832   0.474 -1.4053 -3.4360  0.9801
14789TIP3    H244301   2.533   4.771   0.611  0.8161  2.1877  3.2638
14790TIP3   OH244302   7.976   0.437   4.634  0.4318  0.1700 -0.0280
14790TIP3    H144303   7.968   0.496   4.558 -2.4639 -0.1656 -0.0348
14790TIP3    H244304   8.021   0.360   4.600 -0.6726  0.1070 -1.3822
14791TIP3   OH244305   2.576   5.096   2.094  0.2613  0.6089  0.2312
14791TIP3    H144306   2.497   5.100   2.040  0.4764 -0.3364 -0.1689
14791TIP3    H244307   2.648   5.094   2.030  0.5810  0.8957  0.5796
14792TIP3   OH244308   6.624   0.760   4.857 -0.8033  0.0142 -0.3309
14792TIP3    H144309   6.659   0.673   4.840  0.0560  0.4166 -0.6913
14792TIP3    H244310   6.612   0.798   4.769  2.9958  1.8546 -0.1735
14793TIP3   OH244311   5.990   2.339   5.497 -0.1119  0.1959  0.0399
14793TIP3    H144312   5.992   2.390   5.416  1.4801  0.4240  0.2014
14793TIP3    H244313   6.051   2.385   5.556  1.9604 -2.2916 -0.0689
14794TIP3   OH244314   1.812   3.025   0.757 -0.0288 -0.3909  0.7066
14794TIP3    H144315   1.862   3.006   0.677 -0.0889  0.2395  0.5153
14794TIP3    H244316   1.876   3.066   0.816 -0.1495 -0.2109  0.7151
14795TIP3   OH244317   7.593   3.910   6.537  0.0950  0.1675 -0.1718
14795TIP3    H144318   7.656   3.844   6.565  2.3997  2.1016 -0.5918
14795TIP3    H244319   7.561   3.949   6.618 -0.5681 -0.7778  0.0389
14796TIP3   OH244320   6.335   1.971   5.654  0.0088  0.1170  0.6278
14796TIP3    H144321   6.278   2.032   5.702  0.4584  3.8351 -3.3110
14796TIP3    H244322   6.278   1.932   5.588  0.8878  0.1811 -0.1817
14797TIP3   OH244323   7.451   4.697   0.953 -1.0431  0.0205 -0.3249
14797TIP3    H144324   7.488   4.708   0.866 -0.8551 -0.6756 -0.3405
14797TIP3    H244325   7.370   4.748   0.952 -0.6617  0.6130 -0.6635
14798TIP3   OH244326   2.233   8.037   6.056  0.0490  0.0142 -0.2911
14798TIP3    H144327   2.169   7.968   6.038  0.6793 -0.5733 -0.3004
14798TIP3    H244328   2.313   8.008   6.012  0.8827 -0.1962  1.3409
14799TIP3   OH244329   2.632   2.234   6.909  0.7003  0.1779  0.0101
14799TIP3    H144330   2.655   2.226   6.816  0.1351  1.6548 -0.2578
14799TIP3    H244331   2.601   2.146   6.932  2.2204 -0.6065 -0.8036
14800TIP3   OH244332   1.350   6.107   0.699  0.1457  0.0407 -0.0278
14800TIP3    H144333   1.398   6.052   0.637  0.3677 -0.8881  0.9478
14800TIP3    H244334   1.268   6.060   0.714  0.4024 -0.1046  0.9274
14801TIP3   OH244335   8.065   0.498   5.845 -0.0618 -0.7616 -0.1695
14801TIP3    H144336   7.981   0.541   5.856  0.3471  0.8052 -2.8032
14801TIP3    H244337   8.124   0.545   5.903 -0.4694 -0.2772 -0.1435
14802TIP3   OH244338   1.533   5.793   0.302  0.1070 -0.3603  0.3666
14802TIP3    H144339   1.525   5.701   0.327 -0.5905 -0.7908 -1.3181
14802TIP3    H244340   1.581   5.791   0.219 -0.2350  0.7653  0.1341
14803TIP3   OH244341   4.885   7.929   4.709 -0.3509 -0.1451 -0.6083
14803TIP3    H144342   4.824   7.978   4.655 -0.1473  0.6242 -0.1521
14803TIP3    H244343   4.958   7.909   4.651  0.7573  2.3492 -0.1542
14804TIP3   OH244344   1.884   4.146   0.212 -0.1612 -0.3853 -0.6869
14804TIP3    H144345   1.971   4.164   0.177 -0.2966 -0.8346 -1.2552
14804TIP3    H244346   1.894   4.151   0.307  0.1888  0.9477 -0.7805
14805TIP3   OH244347   5.399   6.727   6.098  0.8883 -0.2478 -0.2298
14805TIP3    H144348   5.312   6.746   6.063  0.6076 -0.7468  0.1864
14805TIP3    H244349   5.441   6.813   6.107 -0.5401  0.2454  2.1203
14806TIP3   OH244350   5.002   6.029   5.832 -0.3513  0.5762 -0.4937
14806TIP3    H144351   5.053   6.073   5.763  2.4222 -0.2945  0.9182
14806TIP3    H244352   5.066   5.975   5.878 -2.6781 -0.9003  1.1315
14807TIP3   OH244353   4.170   1.984   0.254 -0.5753 -0.5214  0.1330
14807TIP3    H144354   4.124   1.964   0.336  0.8164  0.5362  1.2046
14807TIP3    H244355   4.226   2.058   0.276  0.4923 -0.8138 -1.5477
14808TIP3   OH244356   2.067   6.425   5.338 -0.0237 -0.1091  0.4869
14808TIP3    H144357   2.139   6.392   5.391 -0.7749 -1.2393  0.8265
14808TIP3    H244358   2.035   6.501   5.387 -0.8484 -1.2704  1.7894
14809TIP3   OH244359   2.901   3.901   1.871 -0.3084  0.0732 -0.3217
14809TIP3    H144360   2.903   3.946   1.955  2.1228 -0.4730 -0.0707
14809TIP3    H244361   2.842   3.827   1.886 -0.9192  0.7117  0.5029
14810TIP3   OH244362   8.352   4.891   1.806  0.3910  0.1433  0.3684
14810TIP3    H144363   8.295   4.814   1.816  2.1272 -1.4127 -1.4134
14810TIP3    H244364   8.315   4.938   1.731  1.1530 -0.6042 -0.4791
14811TIP3   OH244365   7.082   3.479   0.379 -0.0198  0.5728 -0.0231
14811TIP3    H144366   7.091   3.527   0.461 -0.9900  0.9543 -0.1278
14811TIP3    H244367   7.069   3.546   0.313 -0.0483  0.2283 -0.3723
14812TIP3   OH244368   2.979   5.956   0.123  0.6803 -0.4036  0.5227
14812TIP3    H144369   2.946   5.869   0.100  0.7614 -0.5842  1.0675
14812TIP3    H244370   3.074   5.946   0.126  0.9419  0.5595 -2.8173
14813TIP3   OH244371   3.537   4.945   0.408 -0.1107  0.2151 -0.6425
14813TIP3    H144372   3.456   4.949   0.358 -0.1562 -1.3424 -0.7181
14813TIP3    H244373   3.515   4.896   0.487  0.7827 -0.3129 -0.7164
14814TIP3   OH244374   4.956   6.774   6.105  0.1717 -0.2252 -0.1449
14814TIP3    H144375   5.002   6.773   6.189 -0.0606  3.8463  0.1196
14814TIP3    H244376   5.025   6.788   6.041 -0.1513  1.5421 -0.1382
14815TIP3   OH244377   6.124   5.958   6.273  0.4629  0.3890  0.4760
14815TIP3    H144378   6.073   6.028   6.314 -0.7817  1.0088 -2.0463
14815TIP3    H244379   6.139   5.989   6.184  0.8330 -2.0943 -0.3562
14816TIP3   OH244380   1.325   3.886   1.156 -0.0791 -0.0546 -0.0698
14816TIP3    H144381   1.291   3.913   1.071 -0.8967 -1.7008 -0.2756
14816TIP3    H244382   1.392   3.820   1.135  0.8681  0.7179  0.4891
14817TIP3   OH244383   0.297   2.726   6.151  0.3756 -0.5269 -0.0023
14817TIP3    H144384   0.315   2.785   6.078 -2.7623 -1.4645 -1.6149
14817TIP3    H244385   0.323   2.639   6.119  1.3066 -0.5964  0.9179
14818TIP3   OH244386   4.514   4.029   1.557  0.5006  0.4803 -0.2555
14818TIP3    H144387   4.463   3.970   1.611 -1.6799  1.7284 -0.8944
14818TIP3    H244388   4.543   4.098   1.617  1.0297  0.0379  0.0030
14819TIP3   OH244389   1.974   7.193   6.572  0.2584  0.2900 -0.1508
14819TIP3    H144390   2.032   7.126   6.609  1.4547  1.4047  0.0049
14819TIP3    H244391   2.021   7.275   6.585 -0.9837  1.1095 -0.7995
14820TIP3   OH244392   5.096   6.469   5.029  0.6941 -0.2258 -0.3142
14820TIP3    H144393   5.068   6.554   4.995  0.0162  0.1269  1.0521
14820TIP3    H244394   5.013   6.423   5.046  1.0007 -0.4155  0.7284
14821TIP3   OH244395   5.675   5.008   6.773  0.0740  0.3055  0.0417
14821TIP3    H144396   5.625   4.949   6.716 -1.0687  0.3974  0.9239
14821TIP3    H244397   5.675   5.092   6.728 -2.1884  0.7941  0.8904
14822TIP3   OH244398   5.981   7.524   6.758 -0.4825 -0.1542 -0.3888
14822TIP3    H144399   6.034   7.452   6.721  0.6869  0.3365  0.2968
14822TIP3    H244400   6.037   7.562   6.825 -2.0175 -0.0882  0.8759
   8.50000   8.01388   6.94022   0.00000   0.00000  -2.83333   0.00000  -2.83333  -4.00694
