Title t=  51.00000 step= 25500
29212
    1ASP      N    1   1.627   0.825   1.850
    1ASP    HT1    2   1.695   0.867   1.918
    1ASP    HT2    3   1.562   0.903   1.828
    1ASP    HT3    4   1.682   0.797   1.766
    1ASP     CA    5   1.566   0.705   1.887
    1ASP     HA    6   1.481   0.689   1.822
    1ASP     CB    7   1.644   0.571   1.883
    1ASP    HB1    8   1.578   0.494   1.928
    1ASP    HB2    9   1.736   0.578   1.945
    1ASP     CG   10   1.687   0.536   1.741
    1ASP    OD1   11   1.639   0.596   1.645
    1ASP    OD2   12   1.773   0.441   1.730
    1ASP      C   13   1.506   0.727   2.027
    1ASP      O   14   1.582   0.762   2.120
    2GLY      N   15   1.372   0.726   2.043
    2GLY     HN   16   1.311   0.696   1.969
    2GLY     CA   17   1.309   0.756   2.172
    2GLY    HA1   18   1.354   0.694   2.249
    2GLY    HA2   19   1.205   0.734   2.157
    2GLY      C   20   1.304   0.899   2.217
    2GLY      O   21   1.371   0.982   2.158
    3ASP      N   22   1.216   0.932   2.316
    3ASP     HN   23   1.146   0.864   2.336
    3ASP     CA   24   1.192   1.071   2.354
    3ASP     HA   25   1.198   1.126   2.262
    3ASP     CB   26   1.048   1.069   2.413
    3ASP    HB1   27   1.029   1.160   2.474
    3ASP    HB2   28   1.036   0.992   2.492
    3ASP     CG   29   0.937   1.059   2.312
    3ASP    OD1   30   0.833   0.999   2.335
    3ASP    OD2   31   0.953   1.119   2.202
    3ASP      C   32   1.293   1.110   2.451
    3ASP      O   33   1.327   1.036   2.541
    4GLY      N   34   1.341   1.236   2.452
    4GLY     HN   35   1.315   1.300   2.381
    4GLY     CA   36   1.421   1.304   2.553
    4GLY    HA1   37   1.452   1.399   2.511
    4GLY    HA2   38   1.510   1.247   2.578
    4GLY      C   39   1.348   1.340   2.683
    4GLY      O   40   1.229   1.302   2.700
    5PRO      N   41   1.417   1.404   2.779
    5PRO     CD   42   1.568   1.419   2.771
    5PRO    HD1   43   1.586   1.472   2.675
    5PRO    HD2   44   1.626   1.324   2.763
    5PRO     CA   45   1.368   1.467   2.902
    5PRO     HA   46   1.367   1.392   2.979
    5PRO     CB   47   1.480   1.562   2.939
    5PRO    HB1   48   1.482   1.605   3.041
    5PRO    HB2   49   1.483   1.644   2.865
    5PRO     CG   50   1.606   1.487   2.905
    5PRO    HG1   51   1.699   1.540   2.878
    5PRO    HG2   52   1.630   1.406   2.978
    5PRO      C   53   1.230   1.532   2.893
    5PRO      O   54   1.212   1.631   2.825
    6GLY      N   55   1.131   1.480   2.975
    6GLY     HN   56   1.151   1.392   3.018
    6GLY     CA   57   1.005   1.550   2.984
    6GLY    HA1   58   0.945   1.481   3.041
    6GLY    HA2   59   0.972   1.570   2.884
    6GLY      C   60   1.001   1.687   3.062
    6GLY      O   61   1.105   1.750   3.080
    7ASP      N   62   0.874   1.736   3.090
    7ASP     HN   63   0.795   1.678   3.073
    7ASP     CA   64   0.843   1.860   3.165
    7ASP     HA   65   0.857   1.936   3.090
    7ASP     CB   66   0.696   1.878   3.215
    7ASP    HB1   67   0.696   1.957   3.293
    7ASP    HB2   68   0.656   1.781   3.252
    7ASP     CG   69   0.601   1.930   3.115
    7ASP    OD1   70   0.478   1.937   3.143
    7ASP    OD2   71   0.636   1.972   3.000
    7ASP      C   72   0.946   1.892   3.282
    7ASP      O   73   0.973   1.805   3.366
    8PRO      N   74   1.002   2.022   3.298
    8PRO     CD   75   1.038   2.115   3.188
    8PRO    HD1   76   0.946   2.177   3.174
    8PRO    HD2   77   1.059   2.074   3.087
    8PRO     CA   78   1.075   2.061   3.419
    8PRO     HA   79   1.158   1.991   3.426
    8PRO     CB   80   1.129   2.202   3.385
    8PRO    HB1   81   1.220   2.219   3.447
    8PRO    HB2   82   1.053   2.279   3.413
    8PRO     CG   83   1.158   2.198   3.235
    8PRO    HG1   84   1.143   2.301   3.196
    8PRO    HG2   85   1.255   2.153   3.205
    8PRO      C   86   1.007   2.035   3.553
    8PRO      O   87   0.886   2.028   3.563
    9GLY      N   88   1.085   1.999   3.656
    9GLY     HN   89   1.178   1.983   3.624
    9GLY     CA   90   1.044   1.963   3.792
    9GLY    HA1   91   1.137   1.958   3.846
    9GLY    HA2   92   0.991   1.869   3.793
    9GLY      C   93   0.951   2.065   3.853
    9GLY      O   94   0.956   2.185   3.830
   10ASP      N   95   0.865   2.017   3.939
   10ASP     HN   96   0.854   1.918   3.942
   10ASP     CA   97   0.797   2.097   4.045
   10ASP     HA   98   0.751   2.186   4.003
   10ASP     CB   99   0.705   2.004   4.124
   10ASP    HB1  100   0.678   2.042   4.225
   10ASP    HB2  101   0.758   1.908   4.136
   10ASP     CG  102   0.572   1.986   4.057
   10ASP    OD1  103   0.550   2.026   3.941
   10ASP    OD2  104   0.481   1.917   4.118
   10ASP      C  105   0.899   2.150   4.145
   10ASP      O  106   1.005   2.090   4.166
   11GLY      N  107   0.877   2.267   4.197
   11GLY     HN  108   0.789   2.313   4.181
   11GLY     CA  109   0.975   2.348   4.264
   11GLY    HA1  110   1.013   2.291   4.347
   11GLY    HA2  111   0.918   2.435   4.294
   11GLY      C  112   1.093   2.387   4.176
   11GLY    OT1  113   1.213   2.362   4.218
   11GLY    OT2  114   1.082   2.433   4.062
   12LIT    LIT  115   4.035   5.698   1.686
   13LIT    LIT  116   4.417   6.141   0.198
   14LIT    LIT  117   2.764   0.196   0.688
   15LIT    LIT  118   4.290   0.874   2.061
   16LIT    LIT  119   1.223   2.325   4.007
   17LIT    LIT  120   6.422   0.235   3.574
   18LIT    LIT  121   2.891   3.219   3.317
   19LIT    LIT  122   2.382   5.480   0.383
   20LIT    LIT  123   7.146   1.862   3.765
   21LIT    LIT  124   1.836   0.492   2.343
   22LIT    LIT  125   3.542   1.021   5.720
   23LIT    LIT  126   4.918   6.752   0.655
   24LIT    LIT  127   5.670   4.639   4.915
   25LIT    LIT  128   0.435   2.056   3.016
   26LIT    LIT  129   0.581   1.990   3.769
   27LIT    LIT  130   3.625   1.099   3.166
   28LIT    LIT  131   0.235   5.555   5.771
   29LIT    LIT  132   7.139   3.205   3.150
   30LIT    LIT  133   7.109   1.954   1.755
   31LIT    LIT  134   5.016   1.249   1.861
   32LIT    LIT  135   1.664   6.517   5.777
   33LIT    LIT  136   3.773   3.432   2.488
   34LIT    LIT  137   5.611   1.435   3.875
   35LIT    LIT  138   0.506   1.779   2.168
   36LIT    LIT  139   6.609   6.106   2.091
   37LIT    LIT  140   1.455   4.715   0.859
   38LIT    LIT  141   3.723   6.377   0.415
   39LIT    LIT  142   1.773   0.482   1.538
   40LIT    LIT  143   4.969   0.129   2.541
   41LIT    LIT  144   2.512   1.552   3.562
   42LIT    LIT  145   0.823   0.970   2.140
   43CLA    CLA  146   2.636   6.755   2.427
   44CLA    CLA  147   3.705   0.926   3.889
   45CLA    CLA  148   2.891   3.948   3.676
   46CLA    CLA  149   6.179   3.469   0.866
   47CLA    CLA  150   0.248   1.843   2.607
   48CLA    CLA  151   4.345   6.319   1.279
   49CLA    CLA  152   3.208   6.155   4.016
   50CLA    CLA  153   3.673   4.023   1.039
   51CLA    CLA  154   7.048   1.990   2.368
   52CLA    CLA  155   3.669   4.173   3.182
   53CLA    CLA  156   2.491   1.837   2.852
   54CLA    CLA  157   4.247   1.500   0.933
   55CLA    CLA  158   6.150   3.040   5.420
   56CLA    CLA  159   0.033   1.012   4.852
   57CLA    CLA  160   6.421   3.964   3.840
   58CLA    CLA  161   3.970   3.423   2.377
   59CLA    CLA  162   5.401   0.804   1.643
   60CLA    CLA  163   6.271   6.198   3.397
   61CLA    CLA  164   6.157   6.788   0.786
   62CLA    CLA  165   6.729   0.326   1.976
   63CLA    CLA  166   1.949   4.952   5.814
   64CLA    CLA  167   4.779   4.496   0.552
   65CLA    CLA  168   6.742   4.510   3.354
   66CLA    CLA  169   1.369   6.673   2.864
   67CLA    CLA  170   5.945   1.682   2.328
   68CLA    CLA  171   0.550   2.504   1.060
   69CLA    CLA  172   3.659   4.027   2.262
   70TIP3   OH2  173   5.329   3.569   0.235
   70TIP3    H1  174   5.320   3.474   0.226
   70TIP3    H2  175   5.255   3.594   0.290
   71TIP3   OH2  176   0.625   4.303   4.788
   71TIP3    H1  177   0.562   4.292   4.858
   71TIP3    H2  178   0.572   4.319   4.710
   72TIP3   OH2  179   6.601   3.876   5.253
   72TIP3    H1  180   6.522   3.880   5.199
   72TIP3    H2  181   6.660   3.940   5.213
   73TIP3   OH2  182   5.386   5.925   5.303
   73TIP3    H1  183   5.355   5.837   5.282
   73TIP3    H2  184   5.478   5.925   5.279
   74TIP3   OH2  185   3.967   5.034   5.482
   74TIP3    H1  186   4.009   4.969   5.539
   74TIP3    H2  187   4.020   5.033   5.402
   75TIP3   OH2  188   3.353   3.002   1.357
   75TIP3    H1  189   3.390   3.079   1.401
   75TIP3    H2  190   3.291   3.037   1.294
   76TIP3   OH2  191   4.752   1.206   4.289
   76TIP3    H1  192   4.764   1.284   4.342
   76TIP3    H2  193   4.826   1.208   4.228
   77TIP3   OH2  194   5.574   1.831   0.368
   77TIP3    H1  195   5.530   1.878   0.297
   77TIP3    H2  196   5.615   1.755   0.325
   78TIP3   OH2  197   5.567   1.064   4.762
   78TIP3    H1  198   5.642   1.120   4.740
   78TIP3    H2  199   5.493   1.123   4.765
   79TIP3   OH2  200   0.482   4.186   3.526
   79TIP3    H1  201   0.505   4.195   3.618
   79TIP3    H2  202   0.394   4.148   3.526
   80TIP3   OH2  203   5.959   4.742   5.901
   80TIP3    H1  204   6.039   4.759   5.950
   80TIP3    H2  205   5.972   4.786   5.817
   81TIP3   OH2  206   7.192   4.678   3.862
   81TIP3    H1  207   7.193   4.769   3.893
   81TIP3    H2  208   7.176   4.627   3.941
   82TIP3   OH2  209   3.259   3.985   4.364
   82TIP3    H1  210   3.337   3.936   4.339
   82TIP3    H2  211   3.186   3.929   4.337
   83TIP3   OH2  212   2.349   6.424   5.401
   83TIP3    H1  213   2.407   6.352   5.424
   83TIP3    H2  214   2.349   6.424   5.305
   84TIP3   OH2  215   5.590   2.122   2.969
   84TIP3    H1  216   5.543   2.109   2.887
   84TIP3    H2  217   5.557   2.205   3.003
   85TIP3   OH2  218   6.846   1.810   3.734
   85TIP3    H1  219   6.825   1.797   3.641
   85TIP3    H2  220   6.782   1.874   3.765
   86TIP3   OH2  221   0.341   1.726   3.028
   86TIP3    H1  222   0.367   1.644   3.072
   86TIP3    H2  223   0.377   1.795   3.084
   87TIP3   OH2  224   6.973   6.577   1.719
   87TIP3    H1  225   6.955   6.590   1.812
   87TIP3    H2  226   6.893   6.605   1.675
   88TIP3   OH2  227   0.725   6.074   5.027
   88TIP3    H1  228   0.672   6.043   4.954
   88TIP3    H2  229   0.701   6.166   5.037
   89TIP3   OH2  230   6.116   6.006   4.129
   89TIP3    H1  231   6.110   6.100   4.111
   89TIP3    H2  232   6.053   5.966   4.070
   90TIP3   OH2  233   0.887   4.654   4.460
   90TIP3    H1  234   0.879   4.748   4.473
   90TIP3    H2  235   0.964   4.629   4.511
   91TIP3   OH2  236   4.822   5.651   0.360
   91TIP3    H1  237   4.836   5.653   0.455
   91TIP3    H2  238   4.907   5.625   0.325
   92TIP3   OH2  239   6.506   1.852   5.797
   92TIP3    H1  240   6.470   1.810   5.719
   92TIP3    H2  241   6.430   1.892   5.839
   93TIP3   OH2  242   6.947   5.487   3.406
   93TIP3    H1  243   6.942   5.410   3.349
   93TIP3    H2  244   6.961   5.560   3.346
   94TIP3   OH2  245   3.678   3.032   1.568
   94TIP3    H1  246   3.682   3.005   1.476
   94TIP3    H2  247   3.680   3.128   1.564
   95TIP3   OH2  248   2.347   2.933   5.250
   95TIP3    H1  249   2.346   2.847   5.207
   95TIP3    H2  250   2.390   2.917   5.334
   96TIP3   OH2  251   6.470   6.490   1.291
   96TIP3    H1  252   6.474   6.575   1.248
   96TIP3    H2  253   6.474   6.427   1.219
   97TIP3   OH2  254   2.934   4.641   4.076
   97TIP3    H1  255   2.998   4.575   4.102
   97TIP3    H2  256   2.866   4.591   4.030
   98TIP3   OH2  257   0.569   1.966   2.154
   98TIP3    H1  258   0.558   2.012   2.236
   98TIP3    H2  259   0.556   2.032   2.086
   99TIP3   OH2  260   2.208   4.892   2.727
   99TIP3    H1  261   2.187   4.815   2.781
   99TIP3    H2  262   2.147   4.959   2.758
  100TIP3   OH2  263   5.139   5.554   5.554
  100TIP3    H1  264   5.053   5.568   5.592
  100TIP3    H2  265   5.151   5.628   5.494
  101TIP3   OH2  266   5.204   2.794   3.005
  101TIP3    H1  267   5.161   2.876   2.980
  101TIP3    H2  268   5.269   2.819   3.069
  102TIP3   OH2  269   2.686   1.209   0.291
  102TIP3    H1  270   2.686   1.261   0.371
  102TIP3    H2  271   2.595   1.179   0.282
  103TIP3   OH2  272   6.770   2.097   0.592
  103TIP3    H1  273   6.815   2.015   0.571
  103TIP3    H2  274   6.708   2.072   0.661
  104TIP3   OH2  275   0.743   6.137  -0.066
  104TIP3    H1  276   0.724   6.053  -0.023
  104TIP3    H2  277   0.663   6.188  -0.053
  105TIP3   OH2  278   0.725   3.882   2.641
  105TIP3    H1  279   0.754   3.953   2.584
  105TIP3    H2  280   0.646   3.848   2.600
  106TIP3   OH2  281   4.164   0.951   4.521
  106TIP3    H1  282   4.137   0.869   4.563
  106TIP3    H2  283   4.108   0.957   4.444
  107TIP3   OH2  284   5.444   2.482   0.678
  107TIP3    H1  285   5.525   2.520   0.710
  107TIP3    H2  286   5.375   2.522   0.732
  108TIP3   OH2  287   3.762   3.866   2.520
  108TIP3    H1  288   3.771   3.925   2.594
  108TIP3    H2  289   3.749   3.923   2.444
  109TIP3   OH2  290   3.737   0.033   4.177
  109TIP3    H1  291   3.811  -0.028   4.175
  109TIP3    H2  292   3.664  -0.017   4.141
  110TIP3   OH2  293   1.031   0.245   2.418
  110TIP3    H1  294   0.939   0.252   2.396
  110TIP3    H2  295   1.032   0.224   2.512
  111TIP3   OH2  296   3.124   4.550   4.842
  111TIP3    H1  297   3.125   4.642   4.814
  111TIP3    H2  298   3.120   4.500   4.761
  112TIP3   OH2  299   6.908   1.506   5.175
  112TIP3    H1  300   6.974   1.470   5.234
  112TIP3    H2  301   6.835   1.445   5.181
  113TIP3   OH2  302   1.981   5.486   3.365
  113TIP3    H1  303   1.984   5.537   3.446
  113TIP3    H2  304   1.955   5.549   3.298
  114TIP3   OH2  305   3.560   0.390   4.594
  114TIP3    H1  306   3.613   0.380   4.515
  114TIP3    H2  307   3.547   0.485   4.602
  115TIP3   OH2  308   4.904   0.825   3.382
  115TIP3    H1  309   4.956   0.750   3.354
  115TIP3    H2  310   4.953   0.863   3.455
  116TIP3   OH2  311   6.749   6.439   5.537
  116TIP3    H1  312   6.666   6.477   5.510
  116TIP3    H2  313   6.734   6.410   5.627
  117TIP3   OH2  314   3.652   5.031   2.467
  117TIP3    H1  315   3.573   5.084   2.455
  117TIP3    H2  316   3.629   4.969   2.536
  118TIP3   OH2  317   0.419   5.016   5.711
  118TIP3    H1  318   0.329   5.048   5.721
  118TIP3    H2  319   0.419   4.969   5.628
  119TIP3   OH2  320   2.581   5.034   0.417
  119TIP3    H1  321   2.532   4.971   0.364
  119TIP3    H2  322   2.651   5.064   0.360
  120TIP3   OH2  323   2.173   1.574   4.043
  120TIP3    H1  324   2.113   1.603   3.975
  120TIP3    H2  325   2.206   1.655   4.082
  121TIP3   OH2  326   1.684   5.480   1.457
  121TIP3    H1  327   1.706   5.560   1.410
  121TIP3    H2  328   1.766   5.450   1.495
  122TIP3   OH2  329   6.164   3.911   2.239
  122TIP3    H1  330   6.079   3.943   2.270
  122TIP3    H2  331   6.159   3.918   2.144
  123TIP3   OH2  332   1.445   6.011   3.109
  123TIP3    H1  333   1.414   6.061   3.034
  123TIP3    H2  334   1.369   5.962   3.138
  124TIP3   OH2  335   7.033   1.438   1.460
  124TIP3    H1  336   7.110   1.419   1.406
  124TIP3    H2  337   7.016   1.356   1.506
  125TIP3   OH2  338   4.299   3.607   2.416
  125TIP3    H1  339   4.234   3.665   2.457
  125TIP3    H2  340   4.287   3.523   2.460
  126TIP3   OH2  341   1.036   5.783   4.075
  126TIP3    H1  342   1.052   5.729   3.998
  126TIP3    H2  343   1.109   5.845   4.076
  127TIP3   OH2  344   0.482   2.516   4.939
  127TIP3    H1  345   0.447   2.603   4.958
  127TIP3    H2  346   0.473   2.506   4.844
  128TIP3   OH2  347   2.955   0.463   3.963
  128TIP3    H1  348   2.999   0.493   4.043
  128TIP3    H2  349   2.938   0.544   3.914
  129TIP3   OH2  350   2.132   2.909   3.326
  129TIP3    H1  351   2.089   2.912   3.240
  129TIP3    H2  352   2.061   2.891   3.388
  130TIP3   OH2  353   1.139   4.418   5.128
  130TIP3    H1  354   1.146   4.437   5.222
  130TIP3    H2  355   1.173   4.328   5.120
  131TIP3   OH2  356   5.118   0.676   5.306
  131TIP3    H1  357   5.153   0.619   5.238
  131TIP3    H2  358   5.069   0.743   5.259
  132TIP3   OH2  359   5.973   3.405   3.308
  132TIP3    H1  360   5.889   3.441   3.336
  132TIP3    H2  361   5.990   3.445   3.223
  133TIP3   OH2  362   6.926   2.445   4.463
  133TIP3    H1  363   6.972   2.527   4.443
  133TIP3    H2  364   6.995   2.383   4.483
  134TIP3   OH2  365   1.998   2.761   1.198
  134TIP3    H1  366   1.958   2.798   1.120
  134TIP3    H2  367   1.941   2.788   1.270
  135TIP3   OH2  368   0.842   5.614   5.097
  135TIP3    H1  369   0.884   5.695   5.069
  135TIP3    H2  370   0.869   5.602   5.187
  136TIP3   OH2  371   2.981   3.851   4.331
  136TIP3    H1  372   2.916   3.786   4.359
  136TIP3    H2  373   2.987   3.912   4.405
  137TIP3   OH2  374   0.594   1.524  -0.020
  137TIP3    H1  375   0.570   1.616  -0.011
  137TIP3    H2  376   0.511   1.477  -0.013
  138TIP3   OH2  377   5.072   0.988   1.883
  138TIP3    H1  378   5.097   0.995   1.791
  138TIP3    H2  379   5.076   0.894   1.902
  139TIP3   OH2  380   6.282   1.466   3.916
  139TIP3    H1  381   6.228   1.404   3.966
  139TIP3    H2  382   6.303   1.535   3.978
  140TIP3   OH2  383   4.629   4.145   4.789
  140TIP3    H1  384   4.596   4.229   4.757
  140TIP3    H2  385   4.665   4.164   4.876
  141TIP3   OH2  386   7.158   5.664   4.542
  141TIP3    H1  387   7.128   5.754   4.544
  141TIP3    H2  388   7.086   5.615   4.502
  142TIP3   OH2  389   0.649   3.958   3.492
  142TIP3    H1  390   0.593   4.036   3.490
  142TIP3    H2  391   0.730   3.988   3.534
  143TIP3   OH2  392   0.180   6.104   1.546
  143TIP3    H1  393   0.119   6.155   1.491
  143TIP3    H2  394   0.163   6.136   1.635
  144TIP3   OH2  395   2.433   3.886   1.972
  144TIP3    H1  396   2.392   3.919   2.052
  144TIP3    H2  397   2.424   3.957   1.909
  145TIP3   OH2  398   3.664   5.181   3.466
  145TIP3    H1  399   3.581   5.218   3.436
  145TIP3    H2  400   3.677   5.102   3.414
  146TIP3   OH2  401   3.532   6.278   5.229
  146TIP3    H1  402   3.593   6.324   5.172
  146TIP3    H2  403   3.480   6.347   5.269
  147TIP3   OH2  404   3.122   5.731   2.060
  147TIP3    H1  405   3.084   5.782   2.131
  147TIP3    H2  406   3.049   5.680   2.026
  148TIP3   OH2  407   5.068   0.093   1.697
  148TIP3    H1  408   5.008   0.107   1.770
  148TIP3    H2  409   5.068  -0.002   1.684
  149TIP3   OH2  410   5.975   3.266   4.705
  149TIP3    H1  411   6.002   3.207   4.776
  149TIP3    H2  412   6.056   3.284   4.658
  150TIP3   OH2  413   6.451   5.573   4.011
  150TIP3    H1  414   6.440   5.645   4.073
  150TIP3    H2  415   6.529   5.597   3.960
  151TIP3   OH2  416   6.576   1.869   3.044
  151TIP3    H1  417   6.547   1.923   2.970
  151TIP3    H2  418   6.669   1.856   3.029
  152TIP3   OH2  419   6.917   5.911   3.020
  152TIP3    H1  420   6.976   5.925   2.946
  152TIP3    H2  421   6.829   5.913   2.982
  153TIP3   OH2  422   2.048   3.154   2.592
  153TIP3    H1  423   2.017   3.197   2.672
  153TIP3    H2  424   2.050   3.225   2.527
  154TIP3   OH2  425   0.801   5.728   3.738
  154TIP3    H1  426   0.849   5.761   3.663
  154TIP3    H2  427   0.722   5.688   3.700
  155TIP3   OH2  428   3.896   5.143   4.384
  155TIP3    H1  429   3.824   5.134   4.446
  155TIP3    H2  430   3.858   5.188   4.309
  156TIP3   OH2  431   2.753   1.974   2.761
  156TIP3    H1  432   2.729   2.052   2.811
  156TIP3    H2  433   2.679   1.914   2.773
  157TIP3   OH2  434   6.528   4.218   5.318
  157TIP3    H1  435   6.587   4.243   5.247
  157TIP3    H2  436   6.441   4.246   5.288
  158TIP3   OH2  437   4.898   0.155   4.532
  158TIP3    H1  438   4.892   0.059   4.526
  158TIP3    H2  439   4.912   0.172   4.625
  159TIP3   OH2  440   4.970   1.392   0.923
  159TIP3    H1  441   4.989   1.450   0.850
  159TIP3    H2  442   4.883   1.418   0.953
  160TIP3   OH2  443   6.918   0.990   5.760
  160TIP3    H1  444   6.868   1.067   5.786
  160TIP3    H2  445   6.943   0.948   5.842
  161TIP3   OH2  446   0.602   2.197   0.984
  161TIP3    H1  447   0.531   2.133   0.983
  161TIP3    H2  448   0.560   2.279   1.008
  162TIP3   OH2  449   5.128   1.048   3.515
  162TIP3    H1  450   5.087   1.079   3.595
  162TIP3    H2  451   5.190   0.981   3.544
  163TIP3   OH2  452   2.824   0.166   5.094
  163TIP3    H1  453   2.795   0.132   5.009
  163TIP3    H2  454   2.829   0.260   5.081
  164TIP3   OH2  455   5.407   5.266   1.838
  164TIP3    H1  456   5.458   5.305   1.767
  164TIP3    H2  457   5.419   5.327   1.912
  165TIP3   OH2  458   7.090   2.081   5.806
  165TIP3    H1  459   7.147   2.006   5.791
  165TIP3    H2  460   7.007   2.043   5.835
  166TIP3   OH2  461   4.197   5.797   4.897
  166TIP3    H1  462   4.138   5.845   4.839
  166TIP3    H2  463   4.234   5.728   4.841
  167TIP3   OH2  464   5.790   1.723   0.924
  167TIP3    H1  465   5.877   1.693   0.898
  167TIP3    H2  466   5.758   1.654   0.983
  168TIP3   OH2  467   2.988   6.128   2.339
  168TIP3    H1  468   2.918   6.185   2.369
  168TIP3    H2  469   2.981   6.129   2.243
  169TIP3   OH2  470   6.086   4.801   3.592
  169TIP3    H1  471   6.005   4.752   3.581
  169TIP3    H2  472   6.060   4.880   3.639
  170TIP3   OH2  473   1.516   4.441   5.762
  170TIP3    H1  474   1.577   4.368   5.762
  170TIP3    H2  475   1.563   4.513   5.720
  171TIP3   OH2  476   5.395   5.951   0.417
  171TIP3    H1  477   5.310   5.928   0.379
  171TIP3    H2  478   5.411   6.041   0.388
  172TIP3   OH2  479   3.993   2.331   4.291
  172TIP3    H1  480   3.964   2.282   4.368
  172TIP3    H2  481   4.084   2.352   4.309
  173TIP3   OH2  482   6.452   0.605   5.089
  173TIP3    H1  483   6.418   0.691   5.063
  173TIP3    H2  484   6.394   0.542   5.046
  174TIP3   OH2  485   6.803   6.505   3.191
  174TIP3    H1  486   6.708   6.494   3.199
  174TIP3    H2  487   6.813   6.572   3.123
  175TIP3   OH2  488   4.657   6.403   1.759
  175TIP3    H1  489   4.596   6.338   1.726
  175TIP3    H2  490   4.675   6.460   1.685
  176TIP3   OH2  491   0.408   3.007   5.699
  176TIP3    H1  492   0.395   3.020   5.793
  176TIP3    H2  493   0.342   2.943   5.674
  177TIP3   OH2  494   2.835   5.778   3.665
  177TIP3    H1  495   2.788   5.832   3.602
  177TIP3    H2  496   2.778   5.775   3.741
  178TIP3   OH2  497   3.383   3.275   2.566
  178TIP3    H1  498   3.398   3.332   2.641
  178TIP3    H2  499   3.290   3.252   2.571
  179TIP3   OH2  500   1.068   5.213   5.486
  179TIP3    H1  501   1.129   5.273   5.442
  179TIP3    H2  502   1.010   5.182   5.416
  180TIP3   OH2  503   0.966   2.475   3.098
  180TIP3    H1  504   0.954   2.563   3.135
  180TIP3    H2  505   1.046   2.482   3.046
  181TIP3   OH2  506   0.500   0.323   2.636
  181TIP3    H1  507   0.570   0.388   2.631
  181TIP3    H2  508   0.482   0.299   2.544
  182TIP3   OH2  509   0.833   1.353   2.106
  182TIP3    H1  510   0.844   1.389   2.018
  182TIP3    H2  511   0.883   1.271   2.105
  183TIP3   OH2  512   4.078   1.143   3.406
  183TIP3    H1  513   4.129   1.218   3.438
  183TIP3    H2  514   4.133   1.104   3.338
  184TIP3   OH2  515   2.929   0.554   3.104
  184TIP3    H1  516   2.962   0.469   3.075
  184TIP3    H2  517   2.946   0.556   3.198
  185TIP3   OH2  518   3.862   4.252   5.572
  185TIP3    H1  519   3.949   4.212   5.560
  185TIP3    H2  520   3.801   4.179   5.564
  186TIP3   OH2  521   1.997   1.811   1.351
  186TIP3    H1  522   1.973   1.821   1.258
  186TIP3    H2  523   1.976   1.720   1.371
  187TIP3   OH2  524   0.494   3.675   3.055
  187TIP3    H1  525   0.442   3.703   2.980
  187TIP3    H2  526   0.578   3.647   3.018
  188TIP3   OH2  527   6.550   6.205   1.155
  188TIP3    H1  528   6.485   6.134   1.161
  188TIP3    H2  529   6.625   6.172   1.204
  189TIP3   OH2  530   6.876   3.051   4.480
  189TIP3    H1  531   6.840   3.054   4.569
  189TIP3    H2  532   6.841   3.129   4.437
  190TIP3   OH2  533   5.739   6.198   5.228
  190TIP3    H1  534   5.718   6.239   5.312
  190TIP3    H2  535   5.791   6.264   5.182
  191TIP3   OH2  536   2.060   3.450   1.844
  191TIP3    H1  537   2.007   3.370   1.838
  191TIP3    H2  538   2.094   3.449   1.933
  192TIP3   OH2  539   0.962   5.759   2.436
  192TIP3    H1  540   0.908   5.725   2.507
  192TIP3    H2  541   0.963   5.854   2.451
  193TIP3   OH2  542   4.239   1.932   4.666
  193TIP3    H1  543   4.285   1.874   4.727
  193TIP3    H2  544   4.282   1.916   4.581
  194TIP3   OH2  545   0.234   5.382   0.130
  194TIP3    H1  546   0.237   5.307   0.189
  194TIP3    H2  547   0.291   5.359   0.057
  195TIP3   OH2  548   1.159   2.673   1.421
  195TIP3    H1  549   1.081   2.685   1.475
  195TIP3    H2  550   1.154   2.582   1.391
  196TIP3   OH2  551   4.891   3.962   4.901
  196TIP3    H1  552   4.980   3.968   4.866
  196TIP3    H2  553   4.862   4.053   4.909
  197TIP3   OH2  554   4.644   3.513   1.542
  197TIP3    H1  555   4.565   3.565   1.558
  197TIP3    H2  556   4.716   3.571   1.566
  198TIP3   OH2  557   1.147   4.961   3.531
  198TIP3    H1  558   1.084   4.961   3.603
  198TIP3    H2  559   1.210   4.893   3.554
  199TIP3   OH2  560   5.984   0.769   0.940
  199TIP3    H1  561   5.916   0.735   0.998
  199TIP3    H2  562   6.066   0.748   0.984
  200TIP3   OH2  563   5.719   1.015   4.169
  200TIP3    H1  564   5.685   1.012   4.080
  200TIP3    H2  565   5.808   1.047   4.160
  201TIP3   OH2  566   3.228   5.089   3.972
  201TIP3    H1  567   3.159   5.022   3.968
  201TIP3    H2  568   3.199   5.156   3.911
  202TIP3   OH2  569   0.950   0.924   0.108
  202TIP3    H1  570   0.915   0.980   0.039
  202TIP3    H2  571   0.952   0.836   0.069
  203TIP3   OH2  572   5.842   3.260   1.671
  203TIP3    H1  573   5.928   3.301   1.659
  203TIP3    H2  574   5.833   3.202   1.595
  204TIP3   OH2  575   0.846   2.405   2.438
  204TIP3    H1  576   0.775   2.345   2.459
  204TIP3    H2  577   0.908   2.352   2.387
  205TIP3   OH2  578   4.357   2.222   3.749
  205TIP3    H1  579   4.440   2.220   3.795
  205TIP3    H2  580   4.298   2.171   3.804
  206TIP3   OH2  581   1.399   3.618   3.843
  206TIP3    H1  582   1.357   3.536   3.868
  206TIP3    H2  583   1.422   3.660   3.927
  207TIP3   OH2  584   2.439   1.054   5.248
  207TIP3    H1  585   2.351   1.068   5.281
  207TIP3    H2  586   2.436   0.968   5.205
  208TIP3   OH2  587   2.404   2.888   1.226
  208TIP3    H1  588   2.446   2.857   1.145
  208TIP3    H2  589   2.452   2.968   1.248
  209TIP3   OH2  590   6.319   3.990   0.996
  209TIP3    H1  591   6.378   4.016   0.925
  209TIP3    H2  592   6.333   3.896   1.005
  210TIP3   OH2  593   0.320   5.467   3.110
  210TIP3    H1  594   0.346   5.387   3.064
  210TIP3    H2  595   0.224   5.468   3.103
  211TIP3   OH2  596   6.297   2.086   0.631
  211TIP3    H1  597   6.373   2.059   0.681
  211TIP3    H2  598   6.322   2.074   0.539
  212TIP3   OH2  599   1.248   4.892   4.571
  212TIP3    H1  600   1.285   4.848   4.648
  212TIP3    H2  601   1.307   4.966   4.555
  213TIP3   OH2  602   2.222   2.204   4.006
  213TIP3    H1  603   2.267   2.272   4.056
  213TIP3    H2  604   2.248   2.220   3.915
  214TIP3   OH2  605   0.392   1.838   1.651
  214TIP3    H1  606   0.392   1.932   1.637
  214TIP3    H2  607   0.478   1.818   1.688
  215TIP3   OH2  608   5.351   6.695   3.788
  215TIP3    H1  609   5.295   6.618   3.773
  215TIP3    H2  610   5.321   6.759   3.724
  216TIP3   OH2  611   7.090   1.003   3.731
  216TIP3    H1  612   7.033   1.076   3.706
  216TIP3    H2  613   7.176   1.027   3.696
  217TIP3   OH2  614   1.223   0.015   0.084
  217TIP3    H1  615   1.135   0.052   0.091
  217TIP3    H2  616   1.209  -0.076   0.062
  218TIP3   OH2  617   2.991   0.980   4.949
  218TIP3    H1  618   3.079   0.995   4.916
  218TIP3    H2  619   2.981   1.042   5.021
  219TIP3   OH2  620   5.283   2.853   1.103
  219TIP3    H1  621   5.188   2.843   1.105
  219TIP3    H2  622   5.317   2.773   1.142
  220TIP3   OH2  623   3.671   3.640   5.516
  220TIP3    H1  624   3.684   3.616   5.607
  220TIP3    H2  625   3.607   3.712   5.519
  221TIP3   OH2  626   6.319   4.486   5.472
  221TIP3    H1  627   6.289   4.573   5.499
  221TIP3    H2  628   6.338   4.440   5.554
  222TIP3   OH2  629   6.439   4.012   1.306
  222TIP3    H1  630   6.489   4.073   1.361
  222TIP3    H2  631   6.424   4.059   1.224
  223TIP3   OH2  632   4.599   1.145   3.848
  223TIP3    H1  633   4.609   1.180   3.936
  223TIP3    H2  634   4.644   1.061   3.850
  224TIP3   OH2  635   3.032   6.796   1.080
  224TIP3    H1  636   2.956   6.738   1.085
  224TIP3    H2  637   3.062   6.805   1.170
  225TIP3   OH2  638   4.059   0.441   5.074
  225TIP3    H1  639   4.034   0.408   5.160
  225TIP3    H2  640   4.102   0.367   5.032
  226TIP3   OH2  641   4.720   1.520   4.993
  226TIP3    H1  642   4.691   1.445   4.941
  226TIP3    H2  643   4.641   1.573   5.005
  227TIP3   OH2  644   2.312   6.735   2.057
  227TIP3    H1  645   2.284   6.660   2.004
  227TIP3    H2  646   2.379   6.778   2.004
  228TIP3   OH2  647   4.620   3.513   2.458
  228TIP3    H1  648   4.561   3.438   2.452
  228TIP3    H2  649   4.580   3.570   2.524
  229TIP3   OH2  650   1.246   6.152   2.979
  229TIP3    H1  651   1.178   6.124   3.040
  229TIP3    H2  652   1.247   6.248   2.987
  230TIP3   OH2  653   4.543   0.824   2.370
  230TIP3    H1  654   4.583   0.785   2.447
  230TIP3    H2  655   4.549   0.756   2.302
  231TIP3   OH2  656   4.275   2.077   2.218
  231TIP3    H1  657   4.266   2.014   2.290
  231TIP3    H2  658   4.369   2.092   2.211
  232TIP3   OH2  659   6.886   2.655   3.625
  232TIP3    H1  660   6.834   2.722   3.669
  232TIP3    H2  661   6.958   2.636   3.686
  233TIP3   OH2  662   5.567   4.237   0.538
  233TIP3    H1  663   5.507   4.162   0.529
  233TIP3    H2  664   5.593   4.258   0.449
  234TIP3   OH2  665   4.203   3.452   1.688
  234TIP3    H1  666   4.160   3.367   1.696
  234TIP3    H2  667   4.223   3.477   1.779
  235TIP3   OH2  668   3.939   6.196   2.575
  235TIP3    H1  669   3.963   6.191   2.483
  235TIP3    H2  670   3.847   6.221   2.574
  236TIP3   OH2  671   0.724   6.577   3.850
  236TIP3    H1  672   0.724   6.594   3.756
  236TIP3    H2  673   0.671   6.647   3.888
  237TIP3   OH2  674   2.953   4.982   3.940
  237TIP3    H1  675   2.976   4.890   3.931
  237TIP3    H2  676   2.868   4.989   3.898
  238TIP3   OH2  677   6.628   1.022   5.304
  238TIP3    H1  678   6.595   0.933   5.315
  238TIP3    H2  679   6.717   1.011   5.270
  239TIP3   OH2  680   5.308   6.348   0.491
  239TIP3    H1  681   5.375   6.359   0.558
  239TIP3    H2  682   5.352   6.299   0.422
  240TIP3   OH2  683   5.405   3.577   1.163
  240TIP3    H1  684   5.442   3.491   1.183
  240TIP3    H2  685   5.311   3.566   1.177
  241TIP3   OH2  686   3.239   5.596   3.014
  241TIP3    H1  687   3.285   5.640   2.942
  241TIP3    H2  688   3.207   5.668   3.069
  242TIP3   OH2  689   3.256   2.723   3.527
  242TIP3    H1  690   3.339   2.748   3.488
  242TIP3    H2  691   3.190   2.765   3.472
  243TIP3   OH2  692   2.494   3.387   1.986
  243TIP3    H1  693   2.470   3.381   2.078
  243TIP3    H2  694   2.434   3.452   1.949
  244TIP3   OH2  695   5.780   6.378   2.764
  244TIP3    H1  696   5.813   6.356   2.851
  244TIP3    H2  697   5.741   6.465   2.774
  245TIP3   OH2  698   2.534   5.743   3.348
  245TIP3    H1  699   2.613   5.748   3.293
  245TIP3    H2  700   2.462   5.765   3.289
  246TIP3   OH2  701   2.420   0.832   0.139
  246TIP3    H1  702   2.394   0.882   0.217
  246TIP3    H2  703   2.472   0.759   0.172
  247TIP3   OH2  704   5.203   1.304   3.389
  247TIP3    H1  705   5.132   1.347   3.341
  247TIP3    H2  706   5.170   1.217   3.409
  248TIP3   OH2  707   1.489   0.918   0.090
  248TIP3    H1  708   1.527   1.005   0.103
  248TIP3    H2  709   1.398   0.927   0.117
  249TIP3   OH2  710   3.994   6.127   1.440
  249TIP3    H1  711   3.925   6.084   1.490
  249TIP3    H2  712   3.952   6.151   1.357
  250TIP3   OH2  713   5.104   1.247   2.033
  250TIP3    H1  714   5.195   1.258   2.060
  250TIP3    H2  715   5.053   1.296   2.098
  251TIP3   OH2  716   6.484   5.190   2.618
  251TIP3    H1  717   6.431   5.267   2.638
  251TIP3    H2  718   6.515   5.159   2.704
  252TIP3   OH2  719   2.002   0.110   5.214
  252TIP3    H1  720   2.029   0.042   5.275
  252TIP3    H2  721   2.072   0.175   5.217
  253TIP3   OH2  722   4.510   2.684   1.640
  253TIP3    H1  723   4.522   2.591   1.619
  253TIP3    H2  724   4.594   2.724   1.615
  254TIP3   OH2  725   2.648   6.104   5.231
  254TIP3    H1  726   2.605   6.118   5.146
  254TIP3    H2  727   2.740   6.093   5.210
  255TIP3   OH2  728   5.707   5.134   1.046
  255TIP3    H1  729   5.640   5.067   1.062
  255TIP3    H2  730   5.659   5.209   1.013
  256TIP3   OH2  731   2.564   1.903   0.486
  256TIP3    H1  732   2.547   1.991   0.521
  256TIP3    H2  733   2.650   1.909   0.445
  257TIP3   OH2  734   4.076   0.111   1.060
  257TIP3    H1  735   4.046   0.194   1.097
  257TIP3    H2  736   4.009   0.047   1.086
  258TIP3   OH2  737   3.435   4.715   4.669
  258TIP3    H1  738   3.527   4.722   4.642
  258TIP3    H2  739   3.409   4.806   4.687
  259TIP3   OH2  740   3.971   4.919   2.618
  259TIP3    H1  741   3.902   4.934   2.682
  259TIP3    H2  742   3.975   4.823   2.609
  260TIP3   OH2  743   1.450   5.262   0.072
  260TIP3    H1  744   1.457   5.170   0.047
  260TIP3    H2  745   1.514   5.273   0.142
  261TIP3   OH2  746   5.383   6.319   1.618
  261TIP3    H1  747   5.405   6.412   1.622
  261TIP3    H2  748   5.345   6.307   1.531
  262TIP3   OH2  749   5.806   6.673   0.496
  262TIP3    H1  750   5.880   6.617   0.518
  262TIP3    H2  751   5.841   6.734   0.431
  263TIP3   OH2  752   6.606   1.170   2.210
  263TIP3    H1  753   6.658   1.240   2.171
  263TIP3    H2  754   6.544   1.145   2.141
  264TIP3   OH2  755   2.959   6.168   3.588
  264TIP3    H1  756   3.000   6.083   3.607
  264TIP3    H2  757   2.865   6.150   3.588
  265TIP3   OH2  758   4.939   2.552   1.616
  265TIP3    H1  759   4.938   2.469   1.570
  265TIP3    H2  760   5.024   2.554   1.661
  266TIP3   OH2  761   0.353   1.838   2.270
  266TIP3    H1  762   0.308   1.914   2.233
  266TIP3    H2  763   0.283   1.781   2.300
  267TIP3   OH2  764   3.286   0.419   4.625
  267TIP3    H1  765   3.368   0.441   4.669
  267TIP3    H2  766   3.313   0.368   4.548
  268TIP3   OH2  767   4.327   3.785   1.808
  268TIP3    H1  768   4.342   3.763   1.716
  268TIP3    H2  769   4.251   3.843   1.806
  269TIP3   OH2  770   5.571   2.504   5.521
  269TIP3    H1  771   5.628   2.497   5.445
  269TIP3    H2  772   5.533   2.592   5.515
  270TIP3   OH2  773   3.247   3.089   3.510
  270TIP3    H1  774   3.315   3.154   3.528
  270TIP3    H2  775   3.272   3.049   3.427
  271TIP3   OH2  776   1.863   6.150   0.350
  271TIP3    H1  777   1.884   6.059   0.326
  271TIP3    H2  778   1.944   6.184   0.387
  272TIP3   OH2  779   3.220   5.945   4.481
  272TIP3    H1  780   3.254   5.877   4.423
  272TIP3    H2  781   3.217   6.024   4.426
  273TIP3   OH2  782   1.863   5.983   2.203
  273TIP3    H1  783   1.845   5.901   2.158
  273TIP3    H2  784   1.776   6.021   2.219
  274TIP3   OH2  785   2.048   0.742   4.122
  274TIP3    H1  786   1.963   0.785   4.109
  274TIP3    H2  787   2.031   0.677   4.190
  275TIP3   OH2  788   4.613   4.012   0.298
  275TIP3    H1  789   4.703   3.979   0.307
  275TIP3    H2  790   4.615   4.098   0.341
  276TIP3   OH2  791   2.665   2.431   5.430
  276TIP3    H1  792   2.578   2.440   5.469
  276TIP3    H2  793   2.648   2.398   5.342
  277TIP3   OH2  794   1.630   2.232   0.209
  277TIP3    H1  795   1.635   2.145   0.171
  277TIP3    H2  796   1.567   2.224   0.280
  278TIP3   OH2  797   3.421   5.087   3.072
  278TIP3    H1  798   3.424   5.183   3.074
  278TIP3    H2  799   3.444   5.060   3.161
  279TIP3   OH2  800   4.644   1.004   3.145
  279TIP3    H1  801   4.617   0.912   3.157
  279TIP3    H2  802   4.567   1.055   3.172
  280TIP3   OH2  803   0.781   6.489   5.752
  280TIP3    H1  804   0.812   6.573   5.717
  280TIP3    H2  805   0.778   6.431   5.676
  281TIP3   OH2  806   0.307   5.807   3.007
  281TIP3    H1  807   0.372   5.792   3.075
  281TIP3    H2  808   0.228   5.834   3.053
  282TIP3   OH2  809   5.876   3.935   3.636
  282TIP3    H1  810   5.934   3.957   3.709
  282TIP3    H2  811   5.931   3.885   3.576
  283TIP3   OH2  812   2.033   1.236   1.685
  283TIP3    H1  813   1.970   1.290   1.638
  283TIP3    H2  814   2.024   1.149   1.646
  284TIP3   OH2  815   1.812   2.936   3.855
  284TIP3    H1  816   1.808   3.024   3.818
  284TIP3    H2  817   1.875   2.943   3.927
  285TIP3   OH2  818   4.437   6.747   4.553
  285TIP3    H1  819   4.452   6.841   4.556
  285TIP3    H2  820   4.381   6.729   4.629
  286TIP3   OH2  821   3.014   6.434   2.581
  286TIP3    H1  822   3.065   6.472   2.653
  286TIP3    H2  823   2.989   6.509   2.527
  287TIP3   OH2  824   6.007   3.487   3.053
  287TIP3    H1  825   6.017   3.580   3.031
  287TIP3    H2  826   5.941   3.455   2.990
  288TIP3   OH2  827   5.227   3.654   1.494
  288TIP3    H1  828   5.200   3.599   1.420
  288TIP3    H2  829   5.169   3.730   1.490
  289TIP3   OH2  830   3.283   5.919   0.696
  289TIP3    H1  831   3.226   5.986   0.734
  289TIP3    H2  832   3.229   5.876   0.629
  290TIP3   OH2  833   1.905   6.669   1.296
  290TIP3    H1  834   1.960   6.623   1.359
  290TIP3    H2  835   1.965   6.730   1.252
  291TIP3   OH2  836   5.817   2.738   2.527
  291TIP3    H1  837   5.813   2.646   2.555
  291TIP3    H2  838   5.835   2.734   2.433
  292TIP3   OH2  839   6.645   1.256   4.151
  292TIP3    H1  840   6.673   1.217   4.234
  292TIP3    H2  841   6.556   1.285   4.167
  293TIP3   OH2  842   4.550   2.829   0.444
  293TIP3    H1  843   4.618   2.776   0.486
  293TIP3    H2  844   4.475   2.824   0.503
  294TIP3   OH2  845   7.151   1.672   3.816
  294TIP3    H1  846   7.072   1.624   3.839
  294TIP3    H2  847   7.222   1.624   3.859
  295TIP3   OH2  848   6.893   6.509   3.575
  295TIP3    H1  849   6.933   6.434   3.530
  295TIP3    H2  850   6.809   6.521   3.531
  296TIP3   OH2  851   4.561   4.005   1.521
  296TIP3    H1  852   4.569   4.099   1.535
  296TIP3    H2  853   4.636   3.968   1.567
  297TIP3   OH2  854   4.398   3.538   0.800
  297TIP3    H1  855   4.492   3.523   0.813
  297TIP3    H2  856   4.388   3.633   0.808
  298TIP3   OH2  857   5.512   4.683   1.851
  298TIP3    H1  858   5.542   4.693   1.942
  298TIP3    H2  859   5.526   4.590   1.832
  299TIP3   OH2  860   2.219   1.138   0.123
  299TIP3    H1  861   2.176   1.121   0.206
  299TIP3    H2  862   2.151   1.175   0.067
  300TIP3   OH2  863   0.922   5.337   4.612
  300TIP3    H1  864   0.833   5.327   4.645
  300TIP3    H2  865   0.960   5.249   4.616
  301TIP3   OH2  866   5.813   4.433   5.285
  301TIP3    H1  867   5.901   4.452   5.252
  301TIP3    H2  868   5.825   4.359   5.345
  302TIP3   OH2  869   3.367   4.246   3.339
  302TIP3    H1  870   3.314   4.167   3.331
  302TIP3    H2  871   3.454   4.220   3.310
  303TIP3   OH2  872   0.952   6.733   5.812
  303TIP3    H1  873   1.009   6.672   5.860
  303TIP3    H2  874   0.864   6.715   5.845
  304TIP3   OH2  875   3.121   5.175   0.277
  304TIP3    H1  876   3.175   5.130   0.341
  304TIP3    H2  877   3.157   5.263   0.272
  305TIP3   OH2  878   3.022   0.485   5.601
  305TIP3    H1  879   3.007   0.398   5.636
  305TIP3    H2  880   3.037   0.471   5.507
  306TIP3   OH2  881   4.415   0.572   4.861
  306TIP3    H1  882   4.369   0.503   4.814
  306TIP3    H2  883   4.448   0.630   4.792
  307TIP3   OH2  884   5.726   5.009   4.331
  307TIP3    H1  885   5.672   5.086   4.344
  307TIP3    H2  886   5.720   4.961   4.414
  308TIP3   OH2  887   1.732   2.441   0.662
  308TIP3    H1  888   1.665   2.382   0.696
  308TIP3    H2  889   1.689   2.485   0.588
  309TIP3   OH2  890   4.118   5.468   1.347
  309TIP3    H1  891   4.128   5.525   1.271
  309TIP3    H2  892   4.096   5.382   1.311
  310TIP3   OH2  893   1.035   0.367   2.940
  310TIP3    H1  894   1.043   0.415   2.857
  310TIP3    H2  895   0.971   0.417   2.991
  311TIP3   OH2  896   6.485   0.996   3.142
  311TIP3    H1  897   6.432   0.941   3.200
  311TIP3    H2  898   6.546   0.934   3.100
  312TIP3   OH2  899   2.947   6.696   2.514
  312TIP3    H1  900   2.862   6.713   2.472
  312TIP3    H2  901   2.941   6.741   2.599
  313TIP3   OH2  902   1.964   3.751   4.573
  313TIP3    H1  903   2.041   3.702   4.604
  313TIP3    H2  904   1.909   3.761   4.650
  314TIP3   OH2  905   2.802   0.552   3.653
  314TIP3    H1  906   2.709   0.530   3.659
  314TIP3    H2  907   2.820   0.603   3.731
  315TIP3   OH2  908   3.003   5.103   1.953
  315TIP3    H1  909   2.912   5.106   1.981
  315TIP3    H2  910   3.000   5.058   1.868
  316TIP3   OH2  911   6.309   1.475   4.485
  316TIP3    H1  912   6.269   1.546   4.434
  316TIP3    H2  913   6.388   1.514   4.521
  317TIP3   OH2  914   5.050   1.877   5.179
  317TIP3    H1  915   5.006   1.923   5.107
  317TIP3    H2  916   4.991   1.805   5.201
  318TIP3   OH2  917   5.066   3.014   0.138
  318TIP3    H1  918   5.009   3.087   0.114
  318TIP3    H2  919   5.125   3.050   0.203
  319TIP3   OH2  920   1.834   0.277   0.911
  319TIP3    H1  921   1.868   0.223   0.839
  319TIP3    H2  922   1.748   0.239   0.931
  320TIP3   OH2  923   0.845   2.359   0.766
  320TIP3    H1  924   0.925   2.402   0.737
  320TIP3    H2  925   0.874   2.297   0.834
  321TIP3   OH2  926   4.026   2.026   0.256
  321TIP3    H1  927   4.071   2.055   0.177
  321TIP3    H2  928   3.990   1.940   0.233
  322TIP3   OH2  929   2.445   3.562   5.412
  322TIP3    H1  930   2.537   3.562   5.439
  322TIP3    H2  931   2.400   3.609   5.482
  323TIP3   OH2  932   7.083   2.343   5.755
  323TIP3    H1  933   7.003   2.376   5.796
  323TIP3    H2  934   7.078   2.248   5.764
  324TIP3   OH2  935   1.655   0.986   5.318
  324TIP3    H1  936   1.728   0.944   5.272
  324TIP3    H2  937   1.604   1.028   5.249
  325TIP3   OH2  938   2.397   5.304   2.651
  325TIP3    H1  939   2.328   5.316   2.716
  325TIP3    H2  940   2.356   5.329   2.568
  326TIP3   OH2  941   3.719   1.455   3.973
  326TIP3    H1  942   3.728   1.426   3.883
  326TIP3    H2  943   3.764   1.388   4.025
  327TIP3   OH2  944   1.693   0.133   1.624
  327TIP3    H1  945   1.776   0.180   1.622
  327TIP3    H2  946   1.693   0.088   1.709
  328TIP3   OH2  947   4.208   4.010   3.630
  328TIP3    H1  948   4.162   3.996   3.712
  328TIP3    H2  949   4.301   4.016   3.655
  329TIP3   OH2  950   2.141   1.367   5.520
  329TIP3    H1  951   2.075   1.361   5.450
  329TIP3    H2  952   2.094   1.337   5.598
  330TIP3   OH2  953   3.673   2.357   2.887
  330TIP3    H1  954   3.689   2.424   2.954
  330TIP3    H2  955   3.618   2.401   2.822
  331TIP3   OH2  956   1.754   1.094   2.838
  331TIP3    H1  957   1.689   1.044   2.788
  331TIP3    H2  958   1.791   1.155   2.774
  332TIP3   OH2  959   5.715   0.625   4.856
  332TIP3    H1  960   5.766   0.648   4.934
  332TIP3    H2  961   5.770   0.562   4.809
  333TIP3   OH2  962   6.006   6.159   5.748
  333TIP3    H1  963   5.988   6.252   5.765
  333TIP3    H2  964   6.020   6.155   5.654
  334TIP3   OH2  965   5.859   5.079   2.732
  334TIP3    H1  966   5.923   5.076   2.661
  334TIP3    H2  967   5.835   5.172   2.738
  335TIP3   OH2  968   5.845   6.435   4.667
  335TIP3    H1  969   5.883   6.347   4.671
  335TIP3    H2  970   5.752   6.422   4.682
  336TIP3   OH2  971   2.221   3.395   5.322
  336TIP3    H1  972   2.231   3.473   5.375
  336TIP3    H2  973   2.285   3.333   5.357
  337TIP3   OH2  974   7.148   1.322   3.463
  337TIP3    H1  975   7.104   1.278   3.535
  337TIP3    H2  976   7.077   1.360   3.411
  338TIP3   OH2  977   7.013   4.194   1.133
  338TIP3    H1  978   7.000   4.224   1.043
  338TIP3    H2  979   7.104   4.217   1.153
  339TIP3   OH2  980   3.391   0.200   0.875
  339TIP3    H1  981   3.459   0.140   0.846
  339TIP3    H2  982   3.418   0.285   0.842
  340TIP3   OH2  983   4.069   0.710   5.462
  340TIP3    H1  984   3.975   0.695   5.475
  340TIP3    H2  985   4.078   0.727   5.369
  341TIP3   OH2  986   1.381   2.160   1.484
  341TIP3    H1  987   1.429   2.155   1.401
  341TIP3    H2  988   1.405   2.080   1.529
  342TIP3   OH2  989   4.706   5.095   3.773
  342TIP3    H1  990   4.743   5.119   3.858
  342TIP3    H2  991   4.642   5.027   3.793
  343TIP3   OH2  992   5.979   0.692   0.657
  343TIP3    H1  993   5.994   0.703   0.751
  343TIP3    H2  994   5.963   0.598   0.646
  344TIP3   OH2  995   5.753   1.040   1.258
  344TIP3    H1  996   5.771   0.996   1.341
  344TIP3    H2  997   5.772   1.132   1.275
  345TIP3   OH2  998   3.623   4.557   5.790
  345TIP3    H1  999   3.647   4.557   5.697
  345TIP3    H2 1000   3.575   4.639   5.802
  346TIP3   OH2 1001   4.640   6.770   2.414
  346TIP3    H1 1002   4.591   6.688   2.422
  346TIP3    H2 1003   4.638   6.790   2.320
  347TIP3   OH2 1004   2.163   5.784   4.581
  347TIP3    H1 1005   2.254   5.786   4.551
  347TIP3    H2 1006   2.159   5.709   4.641
  348TIP3   OH2 1007   3.875   2.978   5.380
  348TIP3    H1 1008   3.805   3.009   5.321
  348TIP3    H2 1009   3.928   2.920   5.325
  349TIP3   OH2 1010   6.482   4.953   2.214
  349TIP3    H1 1011   6.497   4.890   2.144
  349TIP3    H2 1012   6.569   4.980   2.241
  350TIP3   OH2 1013   3.235   2.862   4.935
  350TIP3    H1 1014   3.158   2.822   4.893
  350TIP3    H2 1015   3.303   2.857   4.868
  351TIP3   OH2 1016   5.487   1.686   4.729
  351TIP3    H1 1017   5.457   1.699   4.639
  351TIP3    H2 1018   5.487   1.774   4.767
  352TIP3   OH2 1019   4.119   6.491   3.318
  352TIP3    H1 1020   4.123   6.398   3.339
  352TIP3    H2 1021   4.117   6.535   3.403
  353TIP3   OH2 1022   0.044   6.171   5.702
  353TIP3    H1 1023   0.014   6.182   5.612
  353TIP3    H2 1024   0.006   6.246   5.749
  354TIP3   OH2 1025   6.058   2.130   0.370
  354TIP3    H1 1026   6.060   2.109   0.464
  354TIP3    H2 1027   5.971   2.102   0.341
  355TIP3   OH2 1028   0.485   2.663   4.039
  355TIP3    H1 1029   0.406   2.682   3.988
  355TIP3    H2 1030   0.557   2.693   3.983
  356TIP3   OH2 1031   2.263   1.249   2.351
  356TIP3    H1 1032   2.186   1.237   2.295
  356TIP3    H2 1033   2.295   1.337   2.328
  357TIP3   OH2 1034   6.726   3.234   3.847
  357TIP3    H1 1035   6.795   3.179   3.812
  357TIP3    H2 1036   6.646   3.182   3.837
  358TIP3   OH2 1037   5.867   2.394   3.717
  358TIP3    H1 1038   5.794   2.335   3.697
  358TIP3    H2 1039   5.830   2.482   3.712
  359TIP3   OH2 1040   1.701   4.767   1.235
  359TIP3    H1 1041   1.782   4.785   1.284
  359TIP3    H2 1042   1.671   4.854   1.207
  360TIP3   OH2 1043   2.403   0.490   2.121
  360TIP3    H1 1044   2.455   0.569   2.106
  360TIP3    H2 1045   2.432   0.429   2.054
  361TIP3   OH2 1046   2.663   3.427   1.674
  361TIP3    H1 1047   2.735   3.443   1.612
  361TIP3    H2 1048   2.679   3.339   1.708
  362TIP3   OH2 1049   6.560   5.972   3.107
  362TIP3    H1 1050   6.576   5.906   3.174
  362TIP3    H2 1051   6.467   5.993   3.115
  363TIP3   OH2 1052   3.470   3.544   3.833
  363TIP3    H1 1053   3.404   3.613   3.844
  363TIP3    H2 1054   3.533   3.561   3.902
  364TIP3   OH2 1055   0.840   2.466   5.186
  364TIP3    H1 1056   0.834   2.543   5.243
  364TIP3    H2 1057   0.789   2.399   5.232
  365TIP3   OH2 1058   6.191   0.933   5.553
  365TIP3    H1 1059   6.236   0.898   5.475
  365TIP3    H2 1060   6.105   0.891   5.551
  366TIP3   OH2 1061   4.739   3.719   2.318
  366TIP3    H1 1062   4.720   3.692   2.228
  366TIP3    H2 1063   4.675   3.671   2.371
  367TIP3   OH2 1064   3.894   5.948   4.103
  367TIP3    H1 1065   3.803   5.935   4.075
  367TIP3    H2 1066   3.938   5.981   4.025
  368TIP3   OH2 1067   5.581   5.929   5.915
  368TIP3    H1 1068   5.548   5.953   5.828
  368TIP3    H2 1069   5.527   5.856   5.942
  369TIP3   OH2 1070   4.310   0.063   1.997
  369TIP3    H1 1071   4.327  -0.030   1.985
  369TIP3    H2 1072   4.377   0.107   1.944
  370TIP3   OH2 1073   6.463   1.356   3.715
  370TIP3    H1 1074   6.465   1.264   3.742
  370TIP3    H2 1075   6.399   1.396   3.774
  371TIP3   OH2 1076   1.198   5.051   1.482
  371TIP3    H1 1077   1.242   4.969   1.459
  371TIP3    H2 1078   1.237   5.076   1.566
  372TIP3   OH2 1079   0.463   5.456   0.985
  372TIP3    H1 1080   0.517   5.523   0.943
  372TIP3    H2 1081   0.429   5.499   1.064
  373TIP3   OH2 1082   3.177   0.805   4.389
  373TIP3    H1 1083   3.267   0.779   4.368
  373TIP3    H2 1084   3.179   0.823   4.483
  374TIP3   OH2 1085   7.177   4.124   5.197
  374TIP3    H1 1086   7.104   4.081   5.242
  374TIP3    H2 1087   7.246   4.127   5.263
  375TIP3   OH2 1088   3.102   6.682   2.256
  375TIP3    H1 1089   3.059   6.708   2.338
  375TIP3    H2 1090   3.133   6.593   2.273
  376TIP3   OH2 1091   0.439   4.685   4.432
  376TIP3    H1 1092   0.451   4.594   4.457
  376TIP3    H2 1093   0.367   4.684   4.369
  377TIP3   OH2 1094   3.153   2.067   3.216
  377TIP3    H1 1095   3.129   1.991   3.268
  377TIP3    H2 1096   3.141   2.038   3.125
  378TIP3   OH2 1097   6.897   3.934   4.785
  378TIP3    H1 1098   6.925   4.004   4.843
  378TIP3    H2 1099   6.953   3.942   4.708
  379TIP3   OH2 1100   5.113   4.873   5.374
  379TIP3    H1 1101   5.170   4.870   5.451
  379TIP3    H2 1102   5.060   4.952   5.386
  380TIP3   OH2 1103   5.719   3.288   2.326
  380TIP3    H1 1104   5.674   3.353   2.272
  380TIP3    H2 1105   5.662   3.277   2.402
  381TIP3   OH2 1106   3.637   2.393   2.298
  381TIP3    H1 1107   3.694   2.424   2.369
  381TIP3    H2 1108   3.573   2.337   2.342
  382TIP3   OH2 1109   4.247   1.717   3.911
  382TIP3    H1 1110   4.275   1.808   3.915
  382TIP3    H2 1111   4.308   1.676   3.849
  383TIP3   OH2 1112   2.826   6.579   4.890
  383TIP3    H1 1113   2.853   6.552   4.803
  383TIP3    H2 1114   2.835   6.501   4.944
  384TIP3   OH2 1115   6.595   0.478   0.567
  384TIP3    H1 1116   6.628   0.388   0.567
  384TIP3    H2 1117   6.664   0.528   0.523
  385TIP3   OH2 1118   2.705   0.360   0.779
  385TIP3    H1 1119   2.623   0.398   0.748
  385TIP3    H2 1120   2.736   0.421   0.846
  386TIP3   OH2 1121   3.989   3.983   0.316
  386TIP3    H1 1122   3.966   3.954   0.227
  386TIP3    H2 1123   3.904   3.990   0.360
  387TIP3   OH2 1124   0.671   4.725   4.101
  387TIP3    H1 1125   0.660   4.685   4.015
  387TIP3    H2 1126   0.583   4.753   4.126
  388TIP3   OH2 1127   4.935   5.268   2.208
  388TIP3    H1 1128   5.007   5.206   2.202
  388TIP3    H2 1129   4.896   5.267   2.121
  389TIP3   OH2 1130   1.316   2.696   1.641
  389TIP3    H1 1131   1.247   2.660   1.697
  389TIP3    H2 1132   1.274   2.709   1.556
  390TIP3   OH2 1133   6.622   0.792   3.022
  390TIP3    H1 1134   6.664   0.817   2.940
  390TIP3    H2 1135   6.565   0.718   2.999
  391TIP3   OH2 1136   2.130   2.843   1.621
  391TIP3    H1 1137   2.202   2.889   1.664
  391TIP3    H2 1138   2.167   2.814   1.537
  392TIP3   OH2 1139   0.870   4.173   4.789
  392TIP3    H1 1140   0.796   4.232   4.802
  392TIP3    H2 1141   0.868   4.150   4.697
  393TIP3   OH2 1142   4.307   4.098   4.821
  393TIP3    H1 1143   4.249   4.164   4.859
  393TIP3    H2 1144   4.388   4.105   4.871
  394TIP3   OH2 1145   4.319   1.687   4.833
  394TIP3    H1 1146   4.279   1.664   4.750
  394TIP3    H2 1147   4.256   1.657   4.899
  395TIP3   OH2 1148   6.276   5.203   3.706
  395TIP3    H1 1149   6.355   5.249   3.676
  395TIP3    H2 1150   6.222   5.194   3.627
  396TIP3   OH2 1151   0.396   5.212   3.307
  396TIP3    H1 1152   0.356   5.298   3.315
  396TIP3    H2 1153   0.490   5.229   3.304
  397TIP3   OH2 1154   0.706   1.504   1.647
  397TIP3    H1 1155   0.674   1.450   1.575
  397TIP3    H2 1156   0.771   1.562   1.607
  398TIP3   OH2 1157   3.182   5.781   0.471
  398TIP3    H1 1158   3.161   5.835   0.395
  398TIP3    H2 1159   3.117   5.711   0.470
  399TIP3   OH2 1160   3.696   0.287   1.014
  399TIP3    H1 1161   3.616   0.244   1.045
  399TIP3    H2 1162   3.706   0.363   1.072
  400TIP3   OH2 1163   6.304   6.078   1.193
  400TIP3    H1 1164   6.220   6.082   1.147
  400TIP3    H2 1165   6.299   6.150   1.257
  401TIP3   OH2 1166   5.942   1.383   5.640
  401TIP3    H1 1167   5.948   1.457   5.579
  401TIP3    H2 1168   5.902   1.421   5.719
  402TIP3   OH2 1169   3.458   3.146   1.724
  402TIP3    H1 1170   3.465   3.104   1.638
  402TIP3    H2 1171   3.546   3.180   1.742
  403TIP3   OH2 1172   1.983   3.089   0.875
  403TIP3    H1 1173   2.060   3.081   0.930
  403TIP3    H2 1174   1.978   3.182   0.853
  404TIP3   OH2 1175   1.528   2.935   4.191
  404TIP3    H1 1176   1.586   2.874   4.236
  404TIP3    H2 1177   1.506   3.000   4.257
  405TIP3   OH2 1178   2.197   2.591   3.141
  405TIP3    H1 1179   2.153   2.599   3.226
  405TIP3    H2 1180   2.162   2.662   3.088
  406TIP3   OH2 1181   0.639   2.714   5.489
  406TIP3    H1 1182   0.728   2.695   5.458
  406TIP3    H2 1183   0.612   2.635   5.534
  407TIP3   OH2 1184   5.177   2.157   1.684
  407TIP3    H1 1185   5.227   2.110   1.751
  407TIP3    H2 1186   5.242   2.180   1.618
  408TIP3   OH2 1187   0.867   3.340   2.077
  408TIP3    H1 1188   0.890   3.384   1.995
  408TIP3    H2 1189   0.883   3.405   2.145
  409TIP3   OH2 1190   5.010   2.268   5.404
  409TIP3    H1 1191   4.991   2.305   5.490
  409TIP3    H2 1192   4.925   2.266   5.360
  410TIP3   OH2 1193   6.501   3.706   0.642
  410TIP3    H1 1194   6.530   3.700   0.551
  410TIP3    H2 1195   6.569   3.757   0.686
  411TIP3   OH2 1196   3.218   4.971   0.466
  411TIP3    H1 1197   3.139   5.007   0.506
  411TIP3    H2 1198   3.232   4.887   0.509
  412TIP3   OH2 1199   4.168   0.216   2.718
  412TIP3    H1 1200   4.172   0.161   2.639
  412TIP3    H2 1201   4.196   0.302   2.687
  413TIP3   OH2 1202   5.057   3.859   1.514
  413TIP3    H1 1203   4.993   3.929   1.504
  413TIP3    H2 1204   5.051   3.833   1.606
  414TIP3   OH2 1205   0.073   6.133   0.843
  414TIP3    H1 1206   0.016   6.189   0.895
  414TIP3    H2 1207   0.017   6.061   0.815
  415TIP3   OH2 1208   3.869   2.738   4.981
  415TIP3    H1 1209   3.934   2.730   5.051
  415TIP3    H2 1210   3.800   2.676   5.005
  416TIP3   OH2 1211   5.738   3.710   0.571
  416TIP3    H1 1212   5.667   3.773   0.560
  416TIP3    H2 1213   5.701   3.628   0.537
  417TIP3   OH2 1214   1.395   4.471   1.293
  417TIP3    H1 1215   1.464   4.536   1.305
  417TIP3    H2 1216   1.318   4.522   1.270
  418TIP3   OH2 1217   6.972   4.054   3.692
  418TIP3    H1 1218   6.877   4.065   3.684
  418TIP3    H2 1219   7.003   4.048   3.601
  419TIP3   OH2 1220   0.174   6.658   0.341
  419TIP3    H1 1221   0.093   6.683   0.298
  419TIP3    H2 1222   0.225   6.740   0.345
  420TIP3   OH2 1223   4.816   2.911   3.583
  420TIP3    H1 1224   4.739   2.967   3.594
  420TIP3    H2 1225   4.786   2.824   3.608
  421TIP3   OH2 1226   1.415   2.819   2.668
  421TIP3    H1 1227   1.339   2.876   2.683
  421TIP3    H2 1228   1.387   2.760   2.598
  422TIP3   OH2 1229   1.477   6.448   0.240
  422TIP3    H1 1230   1.433   6.438   0.155
  422TIP3    H2 1231   1.478   6.542   0.256
  423TIP3   OH2 1232   6.845   1.356   2.635
  423TIP3    H1 1233   6.777   1.306   2.589
  423TIP3    H2 1234   6.861   1.306   2.715
  424TIP3   OH2 1235   6.074   3.947   1.983
  424TIP3    H1 1236   6.114   3.995   1.909
  424TIP3    H2 1237   6.036   3.869   1.943
  425TIP3   OH2 1238   0.849   3.983   2.357
  425TIP3    H1 1239   0.830   4.064   2.403
  425TIP3    H2 1240   0.772   3.968   2.302
  426TIP3   OH2 1241   4.558   0.657   4.065
  426TIP3    H1 1242   4.586   0.602   3.992
  426TIP3    H2 1243   4.521   0.735   4.023
  427TIP3   OH2 1244   2.712   3.800   5.578
  427TIP3    H1 1245   2.653   3.849   5.520
  427TIP3    H2 1246   2.734   3.721   5.529
  428TIP3   OH2 1247   1.982   6.247   1.377
  428TIP3    H1 1248   1.916   6.287   1.321
  428TIP3    H2 1249   1.956   6.271   1.466
  429TIP3   OH2 1250   6.342   1.889   2.196
  429TIP3    H1 1251   6.393   1.930   2.266
  429TIP3    H2 1252   6.373   1.799   2.193
  430TIP3   OH2 1253   4.760   0.331   4.174
  430TIP3    H1 1254   4.711   0.313   4.094
  430TIP3    H2 1255   4.767   0.245   4.217
  431TIP3   OH2 1256   0.369   4.337   1.151
  431TIP3    H1 1257   0.434   4.371   1.090
  431TIP3    H2 1258   0.393   4.245   1.163
  432TIP3   OH2 1259   0.195   2.519   1.775
  432TIP3    H1 1260   0.264   2.454   1.779
  432TIP3    H2 1261   0.215   2.571   1.697
  433TIP3   OH2 1262   0.973   6.825   0.605
  433TIP3    H1 1263   1.025   6.851   0.530
  433TIP3    H2 1264   0.932   6.742   0.579
  434TIP3   OH2 1265   5.471   0.297   4.117
  434TIP3    H1 1266   5.478   0.362   4.187
  434TIP3    H2 1267   5.393   0.322   4.068
  435TIP3   OH2 1268   2.257   3.923   5.187
  435TIP3    H1 1269   2.231   3.837   5.220
  435TIP3    H2 1270   2.353   3.920   5.188
  436TIP3   OH2 1271   5.606   3.663   0.953
  436TIP3    H1 1272   5.536   3.653   1.018
  436TIP3    H2 1273   5.648   3.578   0.949
  437TIP3   OH2 1274   3.583   2.643   1.785
  437TIP3    H1 1275   3.670   2.616   1.755
  437TIP3    H2 1276   3.544   2.563   1.819
  438TIP3   OH2 1277   0.296   6.045  -0.008
  438TIP3    H1 1278   0.346   5.974  -0.048
  438TIP3    H2 1279   0.326   6.124  -0.054
  439TIP3   OH2 1280   6.509   5.985   5.481
  439TIP3    H1 1281   6.519   5.920   5.550
  439TIP3    H2 1282   6.423   5.968   5.443
  440TIP3   OH2 1283   7.101   5.137   3.295
  440TIP3    H1 1284   7.094   5.206   3.361
  440TIP3    H2 1285   7.010   5.117   3.272
  441TIP3   OH2 1286   5.571   3.437   3.829
  441TIP3    H1 1287   5.647   3.477   3.789
  441TIP3    H2 1288   5.592   3.344   3.834
  442TIP3   OH2 1289   1.336   6.106   5.556
  442TIP3    H1 1290   1.260   6.097   5.499
  442TIP3    H2 1291   1.303   6.083   5.644
  443TIP3   OH2 1292   4.662   4.379   4.117
  443TIP3    H1 1293   4.682   4.286   4.107
  443TIP3    H2 1294   4.591   4.396   4.055
  444TIP3   OH2 1295   4.711   6.206   3.545
  444TIP3    H1 1296   4.663   6.225   3.626
  444TIP3    H2 1297   4.791   6.163   3.575
  445TIP3   OH2 1298   5.014   3.848   3.365
  445TIP3    H1 1299   4.960   3.794   3.423
  445TIP3    H2 1300   5.102   3.810   3.372
  446TIP3   OH2 1301   6.687   2.221   4.099
  446TIP3    H1 1302   6.739   2.198   4.021
  446TIP3    H2 1303   6.711   2.312   4.117
  447TIP3   OH2 1304   4.888   3.985   3.841
  447TIP3    H1 1305   4.799   4.013   3.864
  447TIP3    H2 1306   4.920   3.940   3.918
  448TIP3   OH2 1307   5.417   4.556   2.211
  448TIP3    H1 1308   5.423   4.531   2.303
  448TIP3    H2 1309   5.370   4.639   2.211
  449TIP3   OH2 1310   4.463   3.843  -0.058
  449TIP3    H1 1311   4.519   3.805   0.009
  449TIP3    H2 1312   4.404   3.901  -0.010
  450TIP3   OH2 1313   7.192   4.568   1.966
  450TIP3    H1 1314   7.166   4.644   2.018
  450TIP3    H2 1315   7.160   4.588   1.878
  451TIP3   OH2 1316   0.536   6.692   0.656
  451TIP3    H1 1317   0.468   6.661   0.715
  451TIP3    H2 1318   0.591   6.748   0.711
  452TIP3   OH2 1319   2.831   0.424   4.323
  452TIP3    H1 1320   2.807   0.339   4.360
  452TIP3    H2 1321   2.926   0.427   4.332
  453TIP3   OH2 1322   1.528   6.327   2.221
  453TIP3    H1 1323   1.457   6.333   2.158
  453TIP3    H2 1324   1.485   6.322   2.307
  454TIP3   OH2 1325   2.500   5.470   1.794
  454TIP3    H1 1326   2.593   5.489   1.809
  454TIP3    H2 1327   2.472   5.538   1.732
  455TIP3   OH2 1328   3.642   5.446   4.567
  455TIP3    H1 1329   3.590   5.519   4.600
  455TIP3    H2 1330   3.716   5.439   4.627
  456TIP3   OH2 1331   5.752   0.821   3.870
  456TIP3    H1 1332   5.730   0.738   3.913
  456TIP3    H2 1333   5.816   0.797   3.803
  457TIP3   OH2 1334   1.215   6.158   0.792
  457TIP3    H1 1335   1.222   6.253   0.794
  457TIP3    H2 1336   1.300   6.126   0.822
  458TIP3   OH2 1337   2.195   3.798   1.122
  458TIP3    H1 1338   2.209   3.721   1.178
  458TIP3    H2 1339   2.131   3.769   1.057
  459TIP3   OH2 1340   6.776   1.273   1.860
  459TIP3    H1 1341   6.722   1.303   1.934
  459TIP3    H2 1342   6.854   1.328   1.864
  460TIP3   OH2 1343   7.082   4.086   4.590
  460TIP3    H1 1344   7.140   4.072   4.515
  460TIP3    H2 1345   7.140   4.079   4.666
  461TIP3   OH2 1346   2.142   1.696   0.527
  461TIP3    H1 1347   2.222   1.698   0.475
  461TIP3    H2 1348   2.076   1.738   0.472
  462TIP3   OH2 1349   5.433   2.192   5.298
  462TIP3    H1 1350   5.343   2.174   5.271
  462TIP3    H2 1351   5.481   2.202   5.215
  463TIP3   OH2 1352   3.563   2.185   3.726
  463TIP3    H1 1353   3.469   2.171   3.716
  463TIP3    H2 1354   3.578   2.179   3.820
  464TIP3   OH2 1355   3.418   5.153   2.418
  464TIP3    H1 1356   3.374   5.101   2.350
  464TIP3    H2 1357   3.423   5.241   2.381
  465TIP3   OH2 1358   5.312   5.199   4.349
  465TIP3    H1 1359   5.230   5.151   4.363
  465TIP3    H2 1360   5.356   5.150   4.279
  466TIP3   OH2 1361   1.973   5.991   3.621
  466TIP3    H1 1362   1.948   6.020   3.534
  466TIP3    H2 1363   1.902   6.021   3.678
  467TIP3   OH2 1364   0.840   1.554   0.543
  467TIP3    H1 1365   0.788   1.624   0.584
  467TIP3    H2 1366   0.819   1.560   0.450
  468TIP3   OH2 1367   6.968   6.286   4.433
  468TIP3    H1 1368   7.036   6.353   4.423
  468TIP3    H2 1369   6.918   6.315   4.509
  469TIP3   OH2 1370   3.254   3.585   0.332
  469TIP3    H1 1371   3.304   3.578   0.413
  469TIP3    H2 1372   3.251   3.495   0.299
  470TIP3   OH2 1373   1.597   6.663   2.635
  470TIP3    H1 1374   1.512   6.646   2.674
  470TIP3    H2 1375   1.633   6.577   2.615
  471TIP3   OH2 1376   6.903   1.549   2.897
  471TIP3    H1 1377   6.820   1.515   2.931
  471TIP3    H2 1378   6.886   1.561   2.803
  472TIP3   OH2 1379   2.687   4.263   0.076
  472TIP3    H1 1380   2.658   4.186   0.126
  472TIP3    H2 1381   2.782   4.252   0.069
  473TIP3   OH2 1382   1.174   2.285   5.593
  473TIP3    H1 1383   1.201   2.368   5.631
  473TIP3    H2 1384   1.195   2.219   5.659
  474TIP3   OH2 1385   5.661   4.508   5.060
  474TIP3    H1 1386   5.710   4.478   5.136
  474TIP3    H2 1387   5.591   4.443   5.049
  475TIP3   OH2 1388   2.836   0.829   5.922
  475TIP3    H1 1389   2.854   0.740   5.892
  475TIP3    H2 1390   2.813   0.818   6.015
  476TIP3   OH2 1391   0.814   1.293   3.359
  476TIP3    H1 1392   0.731   1.248   3.342
  476TIP3    H2 1393   0.790   1.385   3.367
  477TIP3   OH2 1394   6.152   4.449   2.591
  477TIP3    H1 1395   6.162   4.370   2.644
  477TIP3    H2 1396   6.188   4.426   2.506
  478TIP3   OH2 1397   0.316   6.639   2.068
  478TIP3    H1 1398   0.339   6.717   2.120
  478TIP3    H2 1399   0.270   6.674   1.992
  479TIP3   OH2 1400   1.803   5.393   3.822
  479TIP3    H1 1401   1.893   5.412   3.850
  479TIP3    H2 1402   1.753   5.387   3.903
  480TIP3   OH2 1403   1.907   0.423   2.155
  480TIP3    H1 1404   1.873   0.337   2.129
  480TIP3    H2 1405   1.984   0.436   2.099
  481TIP3   OH2 1406   3.851   1.022   1.573
  481TIP3    H1 1407   3.822   1.112   1.591
  481TIP3    H2 1408   3.777   0.981   1.530
  482TIP3   OH2 1409   6.793   2.623   3.218
  482TIP3    H1 1410   6.834   2.702   3.254
  482TIP3    H2 1411   6.822   2.621   3.127
  483TIP3   OH2 1412   4.326   5.558   3.687
  483TIP3    H1 1413   4.411   5.553   3.730
  483TIP3    H2 1414   4.315   5.651   3.666
  484TIP3   OH2 1415   0.421   5.263   1.489
  484TIP3    H1 1416   0.447   5.265   1.397
  484TIP3    H2 1417   0.457   5.181   1.523
  485TIP3   OH2 1418   3.008   4.880   5.504
  485TIP3    H1 1419   3.050   4.851   5.585
  485TIP3    H2 1420   3.078   4.882   5.439
  486TIP3   OH2 1421   6.323   4.512   1.416
  486TIP3    H1 1422   6.299   4.450   1.347
  486TIP3    H2 1423   6.244   4.517   1.471
  487TIP3   OH2 1424   0.487   5.242   1.937
  487TIP3    H1 1425   0.502   5.199   2.021
  487TIP3    H2 1426   0.516   5.332   1.950
  488TIP3   OH2 1427   3.432   2.442   3.408
  488TIP3    H1 1428   3.349   2.425   3.362
  488TIP3    H2 1429   3.498   2.395   3.357
  489TIP3   OH2 1430   7.098   1.662   5.743
  489TIP3    H1 1431   7.082   1.591   5.804
  489TIP3    H2 1432   7.034   1.650   5.674
  490TIP3   OH2 1433   6.528   1.223   0.980
  490TIP3    H1 1434   6.526   1.294   0.916
  490TIP3    H2 1435   6.452   1.169   0.959
  491TIP3   OH2 1436   7.155   0.296   3.975
  491TIP3    H1 1437   7.067   0.287   4.012
  491TIP3    H2 1438   7.179   0.207   3.948
  492TIP3   OH2 1439   2.887   5.211   1.666
  492TIP3    H1 1440   2.951   5.147   1.698
  492TIP3    H2 1441   2.814   5.159   1.634
  493TIP3   OH2 1442   3.133   3.713   5.744
  493TIP3    H1 1443   3.055   3.757   5.709
  493TIP3    H2 1444   3.140   3.744   5.835
  494TIP3   OH2 1445   2.764   1.416   1.705
  494TIP3    H1 1446   2.811   1.499   1.717
  494TIP3    H2 1447   2.710   1.430   1.627
  495TIP3   OH2 1448   1.487   0.674   2.481
  495TIP3    H1 1449   1.569   0.686   2.529
  495TIP3    H2 1450   1.463   0.583   2.496
  496TIP3   OH2 1451   6.522   5.328   4.203
  496TIP3    H1 1452   6.498   5.389   4.133
  496TIP3    H2 1453   6.602   5.364   4.240
  497TIP3   OH2 1454   6.260   5.393   3.946
  497TIP3    H1 1455   6.315   5.324   3.910
  497TIP3    H2 1456   6.322   5.458   3.980
  498TIP3   OH2 1457   3.872   5.539   2.476
  498TIP3    H1 1458   3.794   5.483   2.475
  498TIP3    H2 1459   3.857   5.602   2.406
  499TIP3   OH2 1460   4.392   0.987   5.087
  499TIP3    H1 1461   4.308   1.009   5.049
  499TIP3    H2 1462   4.449   0.969   5.012
  500TIP3   OH2 1463   2.085   0.886   5.833
  500TIP3    H1 1464   2.120   0.974   5.847
  500TIP3    H2 1465   2.038   0.865   5.913
  501TIP3   OH2 1466   3.460   0.918   4.744
  501TIP3    H1 1467   3.519   0.976   4.696
  501TIP3    H2 1468   3.512   0.885   4.817
  502TIP3   OH2 1469   4.094   0.196   4.990
  502TIP3    H1 1470   4.079   0.149   4.909
  502TIP3    H2 1471   4.048   0.144   5.057
  503TIP3   OH2 1472   2.364   2.659   2.267
  503TIP3    H1 1473   2.407   2.731   2.222
  503TIP3    H2 1474   2.432   2.591   2.272
  504TIP3   OH2 1475   6.609   0.672   5.877
  504TIP3    H1 1476   6.656   0.730   5.816
  504TIP3    H2 1477   6.587   0.595   5.824
  505TIP3   OH2 1478   0.816   1.292   0.673
  505TIP3    H1 1479   0.757   1.346   0.726
  505TIP3    H2 1480   0.834   1.345   0.595
  506TIP3   OH2 1481   0.265   3.441   2.998
  506TIP3    H1 1482   0.289   3.524   2.956
  506TIP3    H2 1483   0.269   3.377   2.927
  507TIP3   OH2 1484   3.175   0.119   4.746
  507TIP3    H1 1485   3.216   0.160   4.670
  507TIP3    H2 1486   3.083   0.144   4.740
  508TIP3   OH2 1487   5.969   0.946   2.429
  508TIP3    H1 1488   5.948   0.960   2.336
  508TIP3    H2 1489   5.945   0.855   2.446
  509TIP3   OH2 1490   6.441   0.276   1.635
  509TIP3    H1 1491   6.437   0.191   1.592
  509TIP3    H2 1492   6.514   0.269   1.696
  510TIP3   OH2 1493   2.800   4.477   4.677
  510TIP3    H1 1494   2.826   4.491   4.586
  510TIP3    H2 1495   2.763   4.388   4.678
  511TIP3   OH2 1496   5.040   2.965   2.338
  511TIP3    H1 1497   4.951   2.983   2.306
  511TIP3    H2 1498   5.090   3.043   2.315
  512TIP3   OH2 1499   3.117   3.387   0.779
  512TIP3    H1 1500   3.149   3.476   0.764
  512TIP3    H2 1501   3.023   3.397   0.794
  513TIP3   OH2 1502   6.597   0.070   4.239
  513TIP3    H1 1503   6.686   0.064   4.274
  513TIP3    H2 1504   6.604   0.134   4.169
  514TIP3   OH2 1505   6.528   3.273   5.069
  514TIP3    H1 1506   6.507   3.195   5.120
  514TIP3    H2 1507   6.507   3.346   5.127
  515TIP3   OH2 1508   1.507   2.013   2.601
  515TIP3    H1 1509   1.536   2.048   2.517
  515TIP3    H2 1510   1.488   2.090   2.654
  516TIP3   OH2 1511   0.632   5.981   2.188
  516TIP3    H1 1512   0.542   5.948   2.187
  516TIP3    H2 1513   0.652   5.998   2.096
  517TIP3   OH2 1514   5.860   0.903   5.267
  517TIP3    H1 1515   5.841   0.809   5.274
  517TIP3    H2 1516   5.839   0.925   5.176
  518TIP3   OH2 1517   6.283   5.975   3.158
  518TIP3    H1 1518   6.206   5.971   3.101
  518TIP3    H2 1519   6.254   6.024   3.235
  519TIP3   OH2 1520   5.053   2.381   4.355
  519TIP3    H1 1521   5.094   2.364   4.270
  519TIP3    H2 1522   5.124   2.381   4.418
  520TIP3   OH2 1523   5.451   6.045   4.404
  520TIP3    H1 1524   5.492   6.047   4.491
  520TIP3    H2 1525   5.524   6.055   4.343
  521TIP3   OH2 1526   1.043   2.167   2.576
  521TIP3    H1 1527   0.955   2.131   2.582
  521TIP3    H2 1528   1.046   2.209   2.490
  522TIP3   OH2 1529   6.319   1.070   2.801
  522TIP3    H1 1530   6.374   1.013   2.748
  522TIP3    H2 1531   6.231   1.033   2.793
  523TIP3   OH2 1532   7.039   6.398   0.282
  523TIP3    H1 1533   7.131   6.377   0.267
  523TIP3    H2 1534   6.993   6.363   0.206
  524TIP3   OH2 1535   4.626   5.451   0.683
  524TIP3    H1 1536   4.684   5.474   0.756
  524TIP3    H2 1537   4.617   5.532   0.633
  525TIP3   OH2 1538   0.653   1.990   4.724
  525TIP3    H1 1539   0.627   1.996   4.632
  525TIP3    H2 1540   0.749   1.995   4.723
  526TIP3   OH2 1541   3.258   1.272   4.356
  526TIP3    H1 1542   3.328   1.308   4.410
  526TIP3    H2 1543   3.189   1.338   4.360
  527TIP3   OH2 1544   1.024   3.106   2.934
  527TIP3    H1 1545   1.032   3.190   2.979
  527TIP3    H2 1546   1.063   3.121   2.848
  528TIP3   OH2 1547   3.307   3.293   1.914
  528TIP3    H1 1548   3.213   3.279   1.928
  528TIP3    H2 1549   3.332   3.222   1.854
  529TIP3   OH2 1550   4.750   4.826   4.965
  529TIP3    H1 1551   4.733   4.738   4.931
  529TIP3    H2 1552   4.737   4.817   5.060
  530TIP3   OH2 1553   3.470   6.171   4.935
  530TIP3    H1 1554   3.423   6.156   5.017
  530TIP3    H2 1555   3.561   6.147   4.955
  531TIP3   OH2 1556   2.116   2.563   0.304
  531TIP3    H1 1557   2.082   2.569   0.215
  531TIP3    H2 1558   2.208   2.592   0.295
  532TIP3   OH2 1559   3.846   4.174   4.065
  532TIP3    H1 1560   3.870   4.132   4.148
  532TIP3    H2 1561   3.929   4.186   4.019
  533TIP3   OH2 1562   2.353   0.563   1.114
  533TIP3    H1 1563   2.448   0.579   1.107
  533TIP3    H2 1564   2.324   0.555   1.023
  534TIP3   OH2 1565   5.659   0.181   5.174
  534TIP3    H1 1566   5.748   0.218   5.175
  534TIP3    H2 1567   5.673   0.087   5.186
  535TIP3   OH2 1568   5.699   5.440   2.299
  535TIP3    H1 1569   5.635   5.510   2.287
  535TIP3    H2 1570   5.768   5.461   2.237
  536TIP3   OH2 1571   5.895   6.243   1.394
  536TIP3    H1 1572   5.822   6.213   1.447
  536TIP3    H2 1573   5.933   6.162   1.357
  537TIP3   OH2 1574   4.142   1.552   0.051
  537TIP3    H1 1575   4.225   1.541   0.097
  537TIP3    H2 1576   4.082   1.493   0.096
  538TIP3   OH2 1577   4.827   0.410   0.948
  538TIP3    H1 1578   4.869   0.475   1.005
  538TIP3    H2 1579   4.900   0.363   0.908
  539TIP3   OH2 1580   5.902   0.346   0.718
  539TIP3    H1 1581   5.874   0.262   0.755
  539TIP3    H2 1582   5.957   0.385   0.787
  540TIP3   OH2 1583   2.596   0.572   3.456
  540TIP3    H1 1584   2.508   0.569   3.493
  540TIP3    H2 1585   2.618   0.481   3.439
  541TIP3   OH2 1586   3.697   4.927   4.829
  541TIP3    H1 1587   3.608   4.948   4.860
  541TIP3    H2 1588   3.683   4.887   4.743
  542TIP3   OH2 1589   4.639   4.242   2.699
  542TIP3    H1 1590   4.548   4.211   2.707
  542TIP3    H2 1591   4.686   4.195   2.768
  543TIP3   OH2 1592   0.279   1.472   0.375
  543TIP3    H1 1593   0.254   1.403   0.314
  543TIP3    H2 1594   0.299   1.427   0.457
  544TIP3   OH2 1595   6.469   0.435   0.983
  544TIP3    H1 1596   6.472   0.347   1.022
  544TIP3    H2 1597   6.415   0.425   0.905
  545TIP3   OH2 1598   6.752   4.936   5.170
  545TIP3    H1 1599   6.831   4.990   5.176
  545TIP3    H2 1600   6.751   4.906   5.079
  546TIP3   OH2 1601   6.054   3.629   3.961
  546TIP3    H1 1602   6.086   3.653   3.874
  546TIP3    H2 1603   6.084   3.699   4.018
  547TIP3   OH2 1604   6.945   0.417   4.144
  547TIP3    H1 1605   6.986   0.405   4.230
  547TIP3    H2 1606   6.948   0.511   4.129
  548TIP3   OH2 1607   2.296   1.802   1.065
  548TIP3    H1 1608   2.384   1.835   1.085
  548TIP3    H2 1609   2.270   1.755   1.144
  549TIP3   OH2 1610   0.390   3.763   3.278
  549TIP3    H1 1611   0.327   3.696   3.303
  549TIP3    H2 1612   0.411   3.743   3.187
  550TIP3   OH2 1613   2.147   0.269   3.878
  550TIP3    H1 1614   2.193   0.266   3.962
  550TIP3    H2 1615   2.060   0.304   3.900
  551TIP3   OH2 1616   6.990   1.845   0.917
  551TIP3    H1 1617   7.081   1.873   0.915
  551TIP3    H2 1618   6.971   1.818   0.828
  552TIP3   OH2 1619   5.836   6.033   2.830
  552TIP3    H1 1620   5.843   5.943   2.797
  552TIP3    H2 1621   5.826   6.086   2.751
  553TIP3   OH2 1622   0.254   3.677   5.654
  553TIP3    H1 1623   0.223   3.747   5.711
  553TIP3    H2 1624   0.189   3.608   5.661
  554TIP3   OH2 1625   4.181   2.211   4.643
  554TIP3    H1 1626   4.109   2.235   4.583
  554TIP3    H2 1627   4.205   2.123   4.615
  555TIP3   OH2 1628   4.363   4.903   4.741
  555TIP3    H1 1629   4.417   4.916   4.663
  555TIP3    H2 1630   4.273   4.916   4.711
  556TIP3   OH2 1631   0.563   5.087   2.156
  556TIP3    H1 1632   0.633   5.032   2.192
  556TIP3    H2 1633   0.577   5.173   2.196
  557TIP3   OH2 1634   1.083   6.773   5.175
  557TIP3    H1 1635   0.999   6.776   5.221
  557TIP3    H2 1636   1.129   6.852   5.202
  558TIP3   OH2 1637   5.197   0.052   4.866
  558TIP3    H1 1638   5.140   0.119   4.831
  558TIP3    H2 1639   5.166  -0.030   4.827
  559TIP3   OH2 1640   3.258   6.696   0.964
  559TIP3    H1 1641   3.164   6.701   0.948
  559TIP3    H2 1642   3.270   6.616   1.016
  560TIP3   OH2 1643   4.106   3.936   2.165
  560TIP3    H1 1644   4.041   3.866   2.171
  560TIP3    H2 1645   4.190   3.891   2.164
  561TIP3   OH2 1646   3.609   4.301   4.136
  561TIP3    H1 1647   3.636   4.389   4.159
  561TIP3    H2 1648   3.690   4.258   4.106
  562TIP3   OH2 1649   4.506   3.229   1.978
  562TIP3    H1 1650   4.413   3.217   1.995
  562TIP3    H2 1651   4.544   3.247   2.064
  563TIP3   OH2 1652   1.314   5.079   2.266
  563TIP3    H1 1653   1.391   5.129   2.295
  563TIP3    H2 1654   1.253   5.082   2.339
  564TIP3   OH2 1655   1.513   6.153   0.615
  564TIP3    H1 1656   1.565   6.232   0.629
  564TIP3    H2 1657   1.436   6.183   0.568
  565TIP3   OH2 1658   2.809   5.018   0.695
  565TIP3    H1 1659   2.765   4.983   0.617
  565TIP3    H2 1660   2.739   5.052   0.749
  566TIP3   OH2 1661   4.453   0.455   0.937
  566TIP3    H1 1662   4.493   0.539   0.958
  566TIP3    H2 1663   4.373   0.476   0.889
  567TIP3   OH2 1664   2.749   0.053   0.272
  567TIP3    H1 1665   2.771   0.140   0.240
  567TIP3    H2 1666   2.831   0.017   0.304
  568TIP3   OH2 1667   4.129   2.621   2.027
  568TIP3    H1 1668   4.182   2.632   1.948
  568TIP3    H2 1669   4.049   2.578   1.996
  569TIP3   OH2 1670   6.915   5.235   3.822
  569TIP3    H1 1671   6.839   5.181   3.842
  569TIP3    H2 1672   6.924   5.229   3.727
  570TIP3   OH2 1673   4.318   5.100   2.960
  570TIP3    H1 1674   4.326   5.040   2.886
  570TIP3    H2 1675   4.331   5.187   2.922
  571TIP3   OH2 1676   4.439   3.912   5.096
  571TIP3    H1 1677   4.428   4.006   5.109
  571TIP3    H2 1678   4.353   3.874   5.112
  572TIP3   OH2 1679   2.487   5.546   3.557
  572TIP3    H1 1680   2.524   5.605   3.492
  572TIP3    H2 1681   2.473   5.600   3.635
  573TIP3   OH2 1682   6.595   2.536   4.847
  573TIP3    H1 1683   6.642   2.469   4.897
  573TIP3    H2 1684   6.605   2.509   4.756
  574TIP3   OH2 1685   6.455   6.432   0.053
  574TIP3    H1 1686   6.406   6.494   0.108
  574TIP3    H2 1687   6.539   6.422   0.098
  575TIP3   OH2 1688   1.154   1.527   5.582
  575TIP3    H1 1689   1.228   1.550   5.526
  575TIP3    H2 1690   1.193   1.500   5.665
  576TIP3   OH2 1691   1.144   1.189   1.255
  576TIP3    H1 1692   1.138   1.106   1.207
  576TIP3    H2 1693   1.089   1.177   1.332
  577TIP3   OH2 1694   5.617   3.900   3.034
  577TIP3    H1 1695   5.543   3.843   3.055
  577TIP3    H2 1696   5.615   3.908   2.938
  578TIP3   OH2 1697   5.532   5.626   4.892
  578TIP3    H1 1698   5.479   5.553   4.923
  578TIP3    H2 1699   5.621   5.604   4.921
  579TIP3   OH2 1700   3.677   2.112   0.956
  579TIP3    H1 1701   3.651   2.051   0.887
  579TIP3    H2 1702   3.772   2.117   0.949
  580TIP3   OH2 1703   2.421   3.462   0.944
  580TIP3    H1 1704   2.468   3.545   0.943
  580TIP3    H2 1705   2.342   3.479   0.995
  581TIP3   OH2 1706   5.168   5.492   1.687
  581TIP3    H1 1707   5.183   5.398   1.687
  581TIP3    H2 1708   5.135   5.511   1.774
  582TIP3   OH2 1709   2.510   2.904   0.492
  582TIP3    H1 1710   2.546   2.824   0.453
  582TIP3    H2 1711   2.558   2.975   0.450
  583TIP3   OH2 1712   5.516   4.061   1.308
  583TIP3    H1 1713   5.422   4.048   1.299
  583TIP3    H2 1714   5.554   3.975   1.289
  584TIP3   OH2 1715   2.764   0.406   2.086
  584TIP3    H1 1716   2.845   0.418   2.135
  584TIP3    H2 1717   2.773   0.461   2.009
  585TIP3   OH2 1718   0.730   1.266   5.444
  585TIP3    H1 1719   0.801   1.328   5.429
  585TIP3    H2 1720   0.751   1.192   5.387
  586TIP3   OH2 1721   1.843   0.704   0.716
  586TIP3    H1 1722   1.891   0.638   0.766
  586TIP3    H2 1723   1.865   0.787   0.759
  587TIP3   OH2 1724   1.625   5.383   1.840
  587TIP3    H1 1725   1.554   5.441   1.866
  587TIP3    H2 1726   1.630   5.391   1.745
  588TIP3   OH2 1727   6.158   5.478   0.253
  588TIP3    H1 1728   6.234   5.430   0.285
  588TIP3    H2 1729   6.144   5.548   0.317
  589TIP3   OH2 1730   4.654   3.098   1.568
  589TIP3    H1 1731   4.603   3.159   1.620
  589TIP3    H2 1732   4.722   3.152   1.528
  590TIP3   OH2 1733   6.607   5.894   0.423
  590TIP3    H1 1734   6.560   5.810   0.426
  590TIP3    H2 1735   6.592   5.933   0.509
  591TIP3   OH2 1736   4.425   2.933   1.960
  591TIP3    H1 1737   4.430   2.959   2.052
  591TIP3    H2 1738   4.504   2.970   1.921
  592TIP3   OH2 1739   0.448   5.480   4.840
  592TIP3    H1 1740   0.502   5.454   4.765
  592TIP3    H2 1741   0.361   5.495   4.804
  593TIP3   OH2 1742   3.394   1.674   4.034
  593TIP3    H1 1743   3.334   1.704   3.966
  593TIP3    H2 1744   3.380   1.579   4.038
  594TIP3   OH2 1745   6.218   1.948   3.015
  594TIP3    H1 1746   6.236   1.905   2.931
  594TIP3    H2 1747   6.234   1.880   3.080
  595TIP3   OH2 1748   1.462   1.437   0.191
  595TIP3    H1 1749   1.493   1.347   0.186
  595TIP3    H2 1750   1.525   1.481   0.248
  596TIP3   OH2 1751   7.053   6.552   3.805
  596TIP3    H1 1752   7.009   6.522   3.725
  596TIP3    H2 1753   7.104   6.476   3.834
  597TIP3   OH2 1754   3.202   1.013   0.646
  597TIP3    H1 1755   3.233   1.098   0.678
  597TIP3    H2 1756   3.109   1.012   0.670
  598TIP3   OH2 1757   1.191   3.764   2.760
  598TIP3    H1 1758   1.152   3.847   2.734
  598TIP3    H2 1759   1.281   3.786   2.786
  599TIP3   OH2 1760   0.134   3.116   4.097
  599TIP3    H1 1761   0.044   3.149   4.093
  599TIP3    H2 1762   0.183   3.184   4.141
  600TIP3   OH2 1763   3.803   4.956   2.821
  600TIP3    H1 1764   3.816   4.919   2.908
  600TIP3    H2 1765   3.818   5.050   2.832
  601TIP3   OH2 1766   0.906   2.418   1.548
  601TIP3    H1 1767   0.976   2.363   1.585
  601TIP3    H2 1768   0.928   2.507   1.576
  602TIP3   OH2 1769   1.438   5.311   3.665
  602TIP3    H1 1770   1.483   5.227   3.660
  602TIP3    H2 1771   1.390   5.308   3.748
  603TIP3   OH2 1772   5.751   3.143   4.464
  603TIP3    H1 1773   5.698   3.174   4.391
  603TIP3    H2 1774   5.743   3.211   4.531
  604TIP3   OH2 1775   6.081   3.157   3.368
  604TIP3    H1 1776   6.040   3.243   3.378
  604TIP3    H2 1777   6.154   3.172   3.308
  605TIP3   OH2 1778   5.708   3.434   5.545
  605TIP3    H1 1779   5.773   3.366   5.563
  605TIP3    H2 1780   5.696   3.430   5.450
  606TIP3   OH2 1781   6.639   2.085   5.611
  606TIP3    H1 1782   6.687   2.077   5.694
  606TIP3    H2 1783   6.584   2.007   5.608
  607TIP3   OH2 1784   5.856   5.871   5.040
  607TIP3    H1 1785   5.872   5.777   5.042
  607TIP3    H2 1786   5.943   5.910   5.048
  608TIP3   OH2 1787   1.804   4.060   3.411
  608TIP3    H1 1788   1.730   4.010   3.445
  608TIP3    H2 1789   1.881   4.009   3.438
  609TIP3   OH2 1790   3.255   3.778   3.870
  609TIP3    H1 1791   3.201   3.826   3.807
  609TIP3    H2 1792   3.212   3.792   3.954
  610TIP3   OH2 1793   4.173   3.016   1.828
  610TIP3    H1 1794   4.116   2.939   1.834
  610TIP3    H2 1795   4.238   3.004   1.896
  611TIP3   OH2 1796   6.331   4.128   3.052
  611TIP3    H1 1797   6.319   4.034   3.059
  611TIP3    H2 1798   6.397   4.148   3.118
  612TIP3   OH2 1799   3.030   4.907   0.962
  612TIP3    H1 1800   3.060   4.848   0.893
  612TIP3    H2 1801   3.098   4.902   1.029
  613TIP3   OH2 1802   3.342   2.461   3.877
  613TIP3    H1 1803   3.412   2.446   3.940
  613TIP3    H2 1804   3.371   2.537   3.827
  614TIP3   OH2 1805   1.775   4.132   1.141
  614TIP3    H1 1806   1.682   4.154   1.133
  614TIP3    H2 1807   1.809   4.194   1.206
  615TIP3   OH2 1808   5.140   5.288   0.692
  615TIP3    H1 1809   5.092   5.356   0.739
  615TIP3    H2 1810   5.149   5.217   0.755
  616TIP3   OH2 1811   2.567   4.443   5.681
  616TIP3    H1 1812   2.555   4.494   5.761
  616TIP3    H2 1813   2.554   4.507   5.610
  617TIP3   OH2 1814   5.382   0.100   0.409
  617TIP3    H1 1815   5.352   0.011   0.391
  617TIP3    H2 1816   5.460   0.089   0.464
  618TIP3   OH2 1817   5.112   6.873   4.496
  618TIP3    H1 1818   5.080   6.824   4.572
  618TIP3    H2 1819   5.033   6.910   4.455
  619TIP3   OH2 1820   3.394   1.291   2.186
  619TIP3    H1 1821   3.305   1.255   2.182
  619TIP3    H2 1822   3.440   1.247   2.114
  620TIP3   OH2 1823   2.667   2.435   3.448
  620TIP3    H1 1824   2.666   2.350   3.404
  620TIP3    H2 1825   2.603   2.488   3.401
  621TIP3   OH2 1826   0.760   0.478   5.771
  621TIP3    H1 1827   0.769   0.573   5.767
  621TIP3    H2 1828   0.814   0.446   5.699
  622TIP3   OH2 1829   5.018   4.104   1.779
  622TIP3    H1 1830   5.001   4.158   1.856
  622TIP3    H2 1831   5.083   4.154   1.729
  623TIP3   OH2 1832   5.045   1.836   3.128
  623TIP3    H1 1833   5.060   1.768   3.062
  623TIP3    H2 1834   5.131   1.852   3.166
  624TIP3   OH2 1835   4.176   4.028   1.425
  624TIP3    H1 1836   4.110   3.973   1.383
  624TIP3    H2 1837   4.169   4.007   1.518
  625TIP3   OH2 1838   4.860   4.047   1.553
  625TIP3    H1 1839   4.817   4.126   1.521
  625TIP3    H2 1840   4.895   4.072   1.638
  626TIP3   OH2 1841   0.992   3.438   0.093
  626TIP3    H1 1842   0.970   3.486   0.173
  626TIP3    H2 1843   1.048   3.367   0.122
  627TIP3   OH2 1844   2.860   3.765   4.924
  627TIP3    H1 1845   2.783   3.709   4.935
  627TIP3    H2 1846   2.925   3.728   4.984
  628TIP3   OH2 1847   3.672   0.316   5.389
  628TIP3    H1 1848   3.706   0.228   5.403
  628TIP3    H2 1849   3.578   0.305   5.379
  629TIP3   OH2 1850   2.572   0.623   4.904
  629TIP3    H1 1851   2.662   0.593   4.913
  629TIP3    H2 1852   2.562   0.691   4.971
  630TIP3   OH2 1853   1.144   3.684   3.007
  630TIP3    H1 1854   1.158   3.692   2.913
  630TIP3    H2 1855   1.221   3.726   3.046
  631TIP3   OH2 1856   4.178   5.134   2.527
  631TIP3    H1 1857   4.263   5.116   2.488
  631TIP3    H2 1858   4.166   5.228   2.517
  632TIP3   OH2 1859   2.768   4.438   0.287
  632TIP3    H1 1860   2.747   4.364   0.230
  632TIP3    H2 1861   2.741   4.515   0.238
  633TIP3   OH2 1862   4.479   3.199  -0.012
  633TIP3    H1 1863   4.424   3.178   0.063
  633TIP3    H2 1864   4.525   3.118  -0.031
  634TIP3   OH2 1865   3.340   4.319   3.909
  634TIP3    H1 1866   3.426   4.277   3.897
  634TIP3    H2 1867   3.323   4.311   4.003
  635TIP3   OH2 1868   3.761   3.480   4.983
  635TIP3    H1 1869   3.857   3.478   4.978
  635TIP3    H2 1870   3.742   3.528   5.063
  636TIP3   OH2 1871   3.674   2.613   4.056
  636TIP3    H1 1872   3.745   2.638   4.114
  636TIP3    H2 1873   3.706   2.535   4.010
  637TIP3   OH2 1874   0.513   1.227   4.991
  637TIP3    H1 1875   0.476   1.260   5.073
  637TIP3    H2 1876   0.516   1.303   4.933
  638TIP3   OH2 1877   0.610   2.195   3.423
  638TIP3    H1 1878   0.672   2.261   3.390
  638TIP3    H2 1879   0.639   2.177   3.512
  639TIP3   OH2 1880   0.568   6.376   0.324
  639TIP3    H1 1881   0.542   6.285   0.310
  639TIP3    H2 1882   0.487   6.426   0.312
  640TIP3   OH2 1883   7.195   0.986   4.400
  640TIP3    H1 1884   7.185   0.997   4.306
  640TIP3    H2 1885   7.190   1.074   4.436
  641TIP3   OH2 1886   0.148   2.589   2.050
  641TIP3    H1 1887   0.176   2.564   1.962
  641TIP3    H2 1888   0.192   2.527   2.108
  642TIP3   OH2 1889   6.777   3.012   2.084
  642TIP3    H1 1890   6.836   3.080   2.050
  642TIP3    H2 1891   6.689   3.045   2.063
  643TIP3   OH2 1892   0.408   1.964   0.637
  643TIP3    H1 1893   0.329   1.910   0.636
  643TIP3    H2 1894   0.377   2.051   0.663
  644TIP3   OH2 1895   7.115   5.248   4.013
  644TIP3    H1 1896   7.154   5.335   4.008
  644TIP3    H2 1897   7.059   5.242   3.935
  645TIP3   OH2 1898   0.801   0.268   2.685
  645TIP3    H1 1899   0.882   0.239   2.728
  645TIP3    H2 1900   0.753   0.187   2.668
  646TIP3   OH2 1901   6.629   4.728   0.779
  646TIP3    H1 1902   6.638   4.728   0.875
  646TIP3    H2 1903   6.636   4.820   0.755
  647TIP3   OH2 1904   4.482   5.686   0.196
  647TIP3    H1 1905   4.460   5.652   0.109
  647TIP3    H2 1906   4.497   5.607   0.248
  648TIP3   OH2 1907   4.638   0.884   0.120
  648TIP3    H1 1908   4.728   0.870   0.149
  648TIP3    H2 1909   4.639   0.861   0.027
  649TIP3   OH2 1910   1.478   5.353   4.792
  649TIP3    H1 1911   1.558   5.341   4.742
  649TIP3    H2 1912   1.494   5.431   4.844
  650TIP3   OH2 1913   0.505   0.393   5.821
  650TIP3    H1 1914   0.492   0.303   5.792
  650TIP3    H2 1915   0.594   0.415   5.793
  651TIP3   OH2 1916   2.592   1.574   3.734
  651TIP3    H1 1917   2.623   1.499   3.784
  651TIP3    H2 1918   2.645   1.647   3.767
  652TIP3   OH2 1919   3.596   2.509   0.491
  652TIP3    H1 1920   3.602   2.425   0.445
  652TIP3    H2 1921   3.682   2.519   0.533
  653TIP3   OH2 1922   7.154   4.797   4.816
  653TIP3    H1 1923   7.186   4.804   4.726
  653TIP3    H2 1924   7.089   4.727   4.814
  654TIP3   OH2 1925   0.813   4.064   2.821
  654TIP3    H1 1926   0.768   4.145   2.796
  654TIP3    H2 1927   0.753   3.995   2.795
  655TIP3   OH2 1928   2.766   2.232   0.687
  655TIP3    H1 1929   2.820   2.162   0.652
  655TIP3    H2 1930   2.677   2.198   0.683
  656TIP3   OH2 1931   5.663   6.764   2.307
  656TIP3    H1 1932   5.574   6.798   2.296
  656TIP3    H2 1933   5.695   6.751   2.218
  657TIP3   OH2 1934   5.674   4.948   4.792
  657TIP3    H1 1935   5.760   4.972   4.758
  657TIP3    H2 1936   5.626   4.917   4.715
  658TIP3   OH2 1937   0.363   2.626   0.048
  658TIP3    H1 1938   0.423   2.697   0.069
  658TIP3    H2 1939   0.290   2.668   0.004
  659TIP3   OH2 1940   5.494   6.062   3.257
  659TIP3    H1 1941   5.537   6.003   3.195
  659TIP3    H2 1942   5.563   6.120   3.287
  660TIP3   OH2 1943   2.292   3.115   4.519
  660TIP3    H1 1944   2.371   3.132   4.469
  660TIP3    H2 1945   2.243   3.198   4.515
  661TIP3   OH2 1946   4.059   1.346   4.337
  661TIP3    H1 1947   4.019   1.422   4.294
  661TIP3    H2 1948   4.092   1.292   4.265
  662TIP3   OH2 1949   6.509   2.799   1.073
  662TIP3    H1 1950   6.478   2.887   1.051
  662TIP3    H2 1951   6.600   2.798   1.044
  663TIP3   OH2 1952   1.001   6.534   0.968
  663TIP3    H1 1953   0.997   6.596   1.040
  663TIP3    H2 1954   0.910   6.526   0.939
  664TIP3   OH2 1955   2.465   4.506   0.398
  664TIP3    H1 1956   2.545   4.558   0.408
  664TIP3    H2 1957   2.460   4.487   0.304
  665TIP3   OH2 1958   3.727   1.246   3.262
  665TIP3    H1 1959   3.806   1.281   3.222
  665TIP3    H2 1960   3.726   1.281   3.351
  666TIP3   OH2 1961   3.492   1.598   5.849
  666TIP3    H1 1962   3.415   1.587   5.903
  666TIP3    H2 1963   3.517   1.509   5.824
  667TIP3   OH2 1964   6.491   0.424   3.539
  667TIP3    H1 1965   6.481   0.453   3.448
  667TIP3    H2 1966   6.481   0.504   3.591
  668TIP3   OH2 1967   5.517   0.253   1.855
  668TIP3    H1 1968   5.422   0.250   1.852
  668TIP3    H2 1969   5.539   0.211   1.939
  669TIP3   OH2 1970   4.299   4.248   2.153
  669TIP3    H1 1971   4.366   4.236   2.221
  669TIP3    H2 1972   4.235   4.179   2.170
  670TIP3   OH2 1973   4.590   5.126   2.004
  670TIP3    H1 1974   4.673   5.081   1.985
  670TIP3    H2 1975   4.523   5.069   1.966
  671TIP3   OH2 1976   4.712   3.553   3.187
  671TIP3    H1 1977   4.692   3.611   3.261
  671TIP3    H2 1978   4.697   3.465   3.220
  672TIP3   OH2 1979   3.664   2.428   2.027
  672TIP3    H1 1980   3.660   2.421   2.123
  672TIP3    H2 1981   3.617   2.351   1.996
  673TIP3   OH2 1982   0.576   2.926   1.663
  673TIP3    H1 1983   0.512   2.964   1.603
  673TIP3    H2 1984   0.634   2.875   1.606
  674TIP3   OH2 1985   6.079   4.439   3.407
  674TIP3    H1 1986   6.090   4.363   3.349
  674TIP3    H2 1987   6.047   4.509   3.349
  675TIP3   OH2 1988   6.082   6.153   1.017
  675TIP3    H1 1989   6.116   6.236   1.050
  675TIP3    H2 1990   5.986   6.163   1.018
  676TIP3   OH2 1991   2.045   6.068   2.408
  676TIP3    H1 1992   2.010   6.033   2.325
  676TIP3    H2 1993   2.004   6.013   2.475
  677TIP3   OH2 1994   6.918   6.412   1.234
  677TIP3    H1 1995   6.841   6.390   1.182
  677TIP3    H2 1996   6.963   6.479   1.182
  678TIP3   OH2 1997   2.780   3.114   4.941
  678TIP3    H1 1998   2.830   3.127   5.022
  678TIP3    H2 1999   2.810   3.030   4.908
  679TIP3   OH2 2000   2.286   4.712   5.296
  679TIP3    H1 2001   2.380   4.731   5.297
  679TIP3    H2 2002   2.281   4.617   5.288
  680TIP3   OH2 2003   6.246   4.387   2.300
  680TIP3    H1 2004   6.256   4.454   2.232
  680TIP3    H2 2005   6.213   4.310   2.253
  681TIP3   OH2 2006   4.955   3.962   0.845
  681TIP3    H1 2007   5.048   3.939   0.852
  681TIP3    H2 2008   4.913   3.880   0.818
  682TIP3   OH2 2009   3.265   2.351   2.940
  682TIP3    H1 2010   3.326   2.420   2.966
  682TIP3    H2 2011   3.191   2.361   3.000
  683TIP3   OH2 2012   0.218   4.820   2.193
  683TIP3    H1 2013   0.158   4.765   2.243
  683TIP3    H2 2014   0.174   4.831   2.108
  684TIP3   OH2 2015   2.779   6.601   5.301
  684TIP3    H1 2016   2.808   6.687   5.331
  684TIP3    H2 2017   2.781   6.546   5.378
  685TIP3   OH2 2018   6.177   5.679   5.290
  685TIP3    H1 2019   6.136   5.744   5.233
  685TIP3    H2 2020   6.216   5.730   5.361
  686TIP3   OH2 2021   0.048   0.890   1.604
  686TIP3    H1 2022  -0.004   0.901   1.524
  686TIP3    H2 2023   0.001   0.941   1.670
  687TIP3   OH2 2024   3.804   1.379   2.961
  687TIP3    H1 2025   3.866   1.395   3.032
  687TIP3    H2 2026   3.732   1.439   2.978
  688TIP3   OH2 2027   3.174   6.415   2.200
  688TIP3    H1 2028   3.268   6.432   2.198
  688TIP3    H2 2029   3.152   6.391   2.110
  689TIP3   OH2 2030   1.883   5.523   0.726
  689TIP3    H1 2031   1.970   5.483   0.724
  689TIP3    H2 2032   1.893   5.605   0.678
  690TIP3   OH2 2033   5.113   1.638   2.643
  690TIP3    H1 2034   5.125   1.715   2.588
  690TIP3    H2 2035   5.091   1.568   2.582
  691TIP3   OH2 2036   3.112   4.388   2.498
  691TIP3    H1 2037   3.110   4.381   2.402
  691TIP3    H2 2038   3.175   4.458   2.516
  692TIP3   OH2 2039   6.218   5.781   3.959
  692TIP3    H1 2040   6.195   5.871   3.938
  692TIP3    H2 2041   6.283   5.788   4.028
  693TIP3   OH2 2042   7.005   5.370   4.628
  693TIP3    H1 2043   6.920   5.340   4.596
  693TIP3    H2 2044   7.030   5.439   4.567
  694TIP3   OH2 2045   0.169   1.726   4.418
  694TIP3    H1 2046   0.261   1.751   4.410
  694TIP3    H2 2047   0.160   1.691   4.507
  695TIP3   OH2 2048  -0.004   0.476   5.114
  695TIP3    H1 2049  -0.021   0.567   5.089
  695TIP3    H2 2050   0.089   0.473   5.133
  696TIP3   OH2 2051   5.051   4.640   0.418
  696TIP3    H1 2052   4.966   4.627   0.460
  696TIP3    H2 2053   5.031   4.655   0.326
  697TIP3   OH2 2054   2.356   1.506   0.718
  697TIP3    H1 2055   2.287   1.570   0.735
  697TIP3    H2 2056   2.330   1.465   0.635
  698TIP3   OH2 2057   6.670   0.711   0.797
  698TIP3    H1 2058   6.644   0.630   0.841
  698TIP3    H2 2059   6.630   0.705   0.710
  699TIP3   OH2 2060   7.244   5.702   3.611
  699TIP3    H1 2061   7.272   5.739   3.695
  699TIP3    H2 2062   7.197   5.623   3.635
  700TIP3   OH2 2063   6.698   2.498   2.228
  700TIP3    H1 2064   6.741   2.583   2.225
  700TIP3    H2 2065   6.608   2.516   2.256
  701TIP3   OH2 2066   2.763   5.554   2.397
  701TIP3    H1 2067   2.753   5.471   2.350
  701TIP3    H2 2068   2.751   5.531   2.489
  702TIP3   OH2 2069   2.433   3.505   3.706
  702TIP3    H1 2070   2.463   3.596   3.713
  702TIP3    H2 2071   2.514   3.454   3.703
  703TIP3   OH2 2072   3.329   1.423   2.640
  703TIP3    H1 2073   3.278   1.371   2.578
  703TIP3    H2 2074   3.278   1.503   2.651
  704TIP3   OH2 2075   7.089   0.830   5.639
  704TIP3    H1 2076   7.027   0.759   5.625
  704TIP3    H2 2077   7.034   0.906   5.657
  705TIP3   OH2 2078   4.860   0.960   2.985
  705TIP3    H1 2079   4.954   0.973   2.997
  705TIP3    H2 2080   4.819   1.027   3.040
  706TIP3   OH2 2081   1.202   6.228   1.229
  706TIP3    H1 2082   1.236   6.247   1.316
  706TIP3    H2 2083   1.245   6.292   1.172
  707TIP3   OH2 2084   2.848   4.581   0.682
  707TIP3    H1 2085   2.843   4.523   0.758
  707TIP3    H2 2086   2.915   4.542   0.626
  708TIP3   OH2 2087   6.904   3.789   0.952
  708TIP3    H1 2088   6.828   3.753   0.998
  708TIP3    H2 2089   6.958   3.826   1.022
  709TIP3   OH2 2090   5.747   2.868   4.449
  709TIP3    H1 2091   5.761   2.831   4.536
  709TIP3    H2 2092   5.750   2.962   4.462
  710TIP3   OH2 2093   2.982   6.675   5.582
  710TIP3    H1 2094   2.902   6.690   5.633
  710TIP3    H2 2095   2.970   6.728   5.503
  711TIP3   OH2 2096   6.450   0.124   1.360
  711TIP3    H1 2097   6.357   0.111   1.380
  711TIP3    H2 2098   6.495   0.062   1.418
  712TIP3   OH2 2099   1.655   0.495   0.794
  712TIP3    H1 2100   1.736   0.451   0.817
  712TIP3    H2 2101   1.682   0.581   0.761
  713TIP3   OH2 2102   1.753   5.072   5.556
  713TIP3    H1 2103   1.801   5.147   5.521
  713TIP3    H2 2104   1.732   5.097   5.647
  714TIP3   OH2 2105   4.189   0.427   2.037
  714TIP3    H1 2106   4.129   0.426   1.962
  714TIP3    H2 2107   4.137   0.466   2.107
  715TIP3   OH2 2108   3.216   1.335   4.929
  715TIP3    H1 2109   3.124   1.314   4.944
  715TIP3    H2 2110   3.216   1.430   4.915
  716TIP3   OH2 2111   1.202   2.468   2.944
  716TIP3    H1 2112   1.223   2.557   2.916
  716TIP3    H2 2113   1.287   2.426   2.960
  717TIP3   OH2 2114   1.747   5.173   1.066
  717TIP3    H1 2115   1.704   5.133   0.990
  717TIP3    H2 2116   1.738   5.108   1.135
  718TIP3   OH2 2117   5.079   1.620   2.044
  718TIP3    H1 2118   5.015   1.682   2.009
  718TIP3    H2 2119   5.054   1.536   2.005
  719TIP3   OH2 2120   3.077   0.578   4.192
  719TIP3    H1 2121   3.066   0.672   4.204
  719TIP3    H2 2122   3.063   0.541   4.279
  720TIP3   OH2 2123   6.673   0.177   0.935
  720TIP3    H1 2124   6.614   0.164   1.010
  720TIP3    H2 2125   6.626   0.140   0.861
  721TIP3   OH2 2126   1.086   6.079   5.415
  721TIP3    H1 2127   1.085   6.175   5.411
  721TIP3    H2 2128   1.007   6.052   5.369
  722TIP3   OH2 2129   4.551   4.203   1.733
  722TIP3    H1 2130   4.575   4.139   1.800
  722TIP3    H2 2131   4.456   4.194   1.724
  723TIP3   OH2 2132   3.266   1.132   1.122
  723TIP3    H1 2133   3.303   1.220   1.126
  723TIP3    H2 2134   3.335   1.080   1.080
  724TIP3   OH2 2135   5.137   5.525   2.031
  724TIP3    H1 2136   5.231   5.515   2.046
  724TIP3    H2 2137   5.097   5.504   2.116
  725TIP3   OH2 2138  -0.005   0.861   5.906
  725TIP3    H1 2139   0.089   0.865   5.922
  725TIP3    H2 2140  -0.013   0.860   5.811
  726TIP3   OH2 2141   0.415   3.017   4.491
  726TIP3    H1 2142   0.338   3.000   4.437
  726TIP3    H2 2143   0.431   2.934   4.537
  727TIP3   OH2 2144   4.906   1.083   4.581
  727TIP3    H1 2145   4.947   1.094   4.496
  727TIP3    H2 2146   4.954   1.011   4.623
  728TIP3   OH2 2147   2.286   1.616   5.309
  728TIP3    H1 2148   2.236   1.535   5.321
  728TIP3    H2 2149   2.324   1.608   5.222
  729TIP3   OH2 2150   2.887   5.719   5.669
  729TIP3    H1 2151   2.828   5.644   5.672
  729TIP3    H2 2152   2.953   5.701   5.736
  730TIP3   OH2 2153   6.908   5.132   2.508
  730TIP3    H1 2154   6.924   5.064   2.442
  730TIP3    H2 2155   6.821   5.112   2.543
  731TIP3   OH2 2156   3.929   0.839   4.997
  731TIP3    H1 2157   3.874   0.777   5.044
  731TIP3    H2 2158   4.008   0.848   5.050
  732TIP3   OH2 2159   2.102   1.879   1.597
  732TIP3    H1 2160   2.029   1.918   1.645
  732TIP3    H2 2161   2.061   1.824   1.530
  733TIP3   OH2 2162   4.629   5.754   2.625
  733TIP3    H1 2163   4.705   5.708   2.587
  733TIP3    H2 2164   4.553   5.706   2.592
  734TIP3   OH2 2165   6.237   0.188   2.601
  734TIP3    H1 2166   6.275   0.159   2.517
  734TIP3    H2 2167   6.151   0.147   2.604
  735TIP3   OH2 2168   2.440   0.764   0.693
  735TIP3    H1 2169   2.408   0.844   0.734
  735TIP3    H2 2170   2.492   0.793   0.618
  736TIP3   OH2 2171   5.547   3.784   2.741
  736TIP3    H1 2172   5.570   3.840   2.667
  736TIP3    H2 2173   5.476   3.728   2.708
  737TIP3   OH2 2174   2.928   2.453   0.757
  737TIP3    H1 2175   3.018   2.426   0.774
  737TIP3    H2 2176   2.881   2.371   0.745
  738TIP3   OH2 2177   2.326   1.970   1.488
  738TIP3    H1 2178   2.249   1.928   1.527
  738TIP3    H2 2179   2.290   2.025   1.419
  739TIP3   OH2 2180   2.466   2.549   3.293
  739TIP3    H1 2181   2.406   2.593   3.232
  739TIP3    H2 2182   2.410   2.491   3.344
  740TIP3   OH2 2183   0.827   4.526   1.554
  740TIP3    H1 2184   0.859   4.586   1.622
  740TIP3    H2 2185   0.906   4.493   1.513
  741TIP3   OH2 2186   6.458   2.281   3.160
  741TIP3    H1 2187   6.450   2.229   3.240
  741TIP3    H2 2188   6.446   2.371   3.189
  742TIP3   OH2 2189   7.143   3.593   3.212
  742TIP3    H1 2190   7.069   3.619   3.157
  742TIP3    H2 2191   7.215   3.649   3.183
  743TIP3   OH2 2192   2.026   4.474   4.809
  743TIP3    H1 2193   2.003   4.383   4.828
  743TIP3    H2 2194   1.942   4.520   4.809
  744TIP3   OH2 2195   5.065   6.462   0.351
  744TIP3    H1 2196   5.073   6.554   0.325
  744TIP3    H2 2197   5.149   6.441   0.392
  745TIP3   OH2 2198   6.644   3.695   1.014
  745TIP3    H1 2199   6.619   3.652   1.096
  745TIP3    H2 2200   6.561   3.720   0.974
  746TIP3   OH2 2201   5.636   5.939   5.214
  746TIP3    H1 2202   5.686   5.913   5.137
  746TIP3    H2 2203   5.674   6.022   5.241
  747TIP3   OH2 2204   5.015   0.062   3.982
  747TIP3    H1 2205   4.966  -0.017   4.004
  747TIP3    H2 2206   5.034   0.103   4.066
  748TIP3   OH2 2207   3.567   5.812   1.375
  748TIP3    H1 2208   3.640   5.753   1.360
  748TIP3    H2 2209   3.605   5.900   1.368
  749TIP3   OH2 2210   4.561   5.440   3.842
  749TIP3    H1 2211   4.595   5.475   3.759
  749TIP3    H2 2212   4.611   5.485   3.910
  750TIP3   OH2 2213   0.420   0.093   2.036
  750TIP3    H1 2214   0.491   0.076   2.098
  750TIP3    H2 2215   0.385   0.006   2.016
  751TIP3   OH2 2216   6.019   0.681   0.266
  751TIP3    H1 2217   5.947   0.700   0.326
  751TIP3    H2 2218   5.977   0.639   0.191
  752TIP3   OH2 2219   4.415   0.905   3.994
  752TIP3    H1 2220   4.413   1.000   3.982
  752TIP3    H2 2221   4.334   0.885   4.041
  753TIP3   OH2 2222   1.820   0.890   4.119
  753TIP3    H1 2223   1.746   0.947   4.099
  753TIP3    H2 2224   1.787   0.802   4.100
  754TIP3   OH2 2225   2.846   3.430   5.656
  754TIP3    H1 2226   2.907   3.375   5.606
  754TIP3    H2 2227   2.891   3.447   5.739
  755TIP3   OH2 2228   1.533   3.400   4.126
  755TIP3    H1 2229   1.566   3.332   4.186
  755TIP3    H2 2230   1.609   3.454   4.106
  756TIP3   OH2 2231   4.867   3.766   3.577
  756TIP3    H1 2232   4.793   3.717   3.612
  756TIP3    H2 2233   4.940   3.743   3.635
  757TIP3   OH2 2234   5.549   2.692   0.068
  757TIP3    H1 2235   5.619   2.678   0.131
  757TIP3    H2 2236   5.573   2.638  -0.007
  758TIP3   OH2 2237   6.934   0.688   5.305
  758TIP3    H1 2238   6.920   0.783   5.302
  758TIP3    H2 2239   7.021   0.678   5.344
  759TIP3   OH2 2240   3.712   5.044   0.497
  759TIP3    H1 2241   3.703   5.137   0.517
  759TIP3    H2 2242   3.622   5.015   0.480
  760TIP3   OH2 2243   6.037   0.461   5.004
  760TIP3    H1 2244   6.054   0.383   4.951
  760TIP3    H2 2245   6.038   0.533   4.942
  761TIP3   OH2 2246   2.276   1.803   3.245
  761TIP3    H1 2247   2.255   1.881   3.194
  761TIP3    H2 2248   2.365   1.780   3.218
  762TIP3   OH2 2249   4.262   2.566   0.230
  762TIP3    H1 2250   4.313   2.567   0.311
  762TIP3    H2 2251   4.186   2.511   0.249
  763TIP3   OH2 2252   2.123   5.365   4.323
  763TIP3    H1 2253   2.042   5.324   4.353
  763TIP3    H2 2254   2.104   5.392   4.233
  764TIP3   OH2 2255   6.908   2.185   1.611
  764TIP3    H1 2256   6.815   2.169   1.593
  764TIP3    H2 2257   6.909   2.227   1.697
  765TIP3   OH2 2258   5.627   0.764   0.874
  765TIP3    H1 2259   5.564   0.796   0.808
  765TIP3    H2 2260   5.656   0.680   0.839
  766TIP3   OH2 2261   3.057   2.976   2.515
  766TIP3    H1 2262   3.082   3.069   2.513
  766TIP3    H2 2263   3.139   2.929   2.500
  767TIP3   OH2 2264   2.078   1.343   3.642
  767TIP3    H1 2265   2.147   1.288   3.679
  767TIP3    H2 2266   2.084   1.327   3.547
  768TIP3   OH2 2267   3.697   0.705   0.658
  768TIP3    H1 2268   3.751   0.783   0.675
  768TIP3    H2 2269   3.611   0.740   0.634
  769TIP3   OH2 2270   2.203   4.580   0.193
  769TIP3    H1 2271   2.203   4.516   0.121
  769TIP3    H2 2272   2.184   4.663   0.150
  770TIP3   OH2 2273   0.078   2.131   1.284
  770TIP3    H1 2274   0.001   2.186   1.299
  770TIP3    H2 2275   0.067   2.057   1.344
  771TIP3   OH2 2276   6.295   0.061   4.943
  771TIP3    H1 2277   6.276  -0.030   4.966
  771TIP3    H2 2278   6.343   0.095   5.019
  772TIP3   OH2 2279   5.691   5.303   4.659
  772TIP3    H1 2280   5.639   5.240   4.610
  772TIP3    H2 2281   5.756   5.250   4.705
  773TIP3   OH2 2282   2.974   2.437   4.577
  773TIP3    H1 2283   3.032   2.364   4.555
  773TIP3    H2 2284   3.024   2.515   4.552
  774TIP3   OH2 2285   6.821   1.337   2.138
  774TIP3    H1 2286   6.899   1.294   2.173
  774TIP3    H2 2287   6.847   1.429   2.128
  775TIP3   OH2 2288   2.239   6.612   3.719
  775TIP3    H1 2289   2.153   6.647   3.698
  775TIP3    H2 2290   2.300   6.678   3.686
  776TIP3   OH2 2291   2.961   5.840   0.709
  776TIP3    H1 2292   3.002   5.760   0.742
  776TIP3    H2 2293   2.868   5.832   0.734
  777TIP3   OH2 2294   1.106   3.625   4.474
  777TIP3    H1 2295   1.051   3.691   4.517
  777TIP3    H2 2296   1.151   3.674   4.404
  778TIP3   OH2 2297   6.773   6.281   5.309
  778TIP3    H1 2298   6.779   6.288   5.404
  778TIP3    H2 2299   6.739   6.366   5.280
  779TIP3   OH2 2300   1.266   3.460   3.344
  779TIP3    H1 2301   1.198   3.518   3.310
  779TIP3    H2 2302   1.218   3.393   3.394
  780TIP3   OH2 2303   6.143   3.423   1.186
  780TIP3    H1 2304   6.164   3.446   1.095
  780TIP3    H2 2305   6.198   3.481   1.238
  781TIP3   OH2 2306   1.070   0.947   1.130
  781TIP3    H1 2307   0.986   0.918   1.094
  781TIP3    H2 2308   1.134   0.886   1.094
  782TIP3   OH2 2309   1.488   6.718   2.045
  782TIP3    H1 2310   1.442   6.690   1.965
  782TIP3    H2 2311   1.519   6.806   2.025
  783TIP3   OH2 2312   1.018   0.207   1.796
  783TIP3    H1 2313   0.983   0.248   1.717
  783TIP3    H2 2314   0.952   0.224   1.863
  784TIP3   OH2 2315   1.626   4.537   2.441
  784TIP3    H1 2316   1.652   4.541   2.533
  784TIP3    H2 2317   1.699   4.575   2.393
  785TIP3   OH2 2318   0.002   2.419   0.460
  785TIP3    H1 2319   0.045   2.499   0.490
  785TIP3    H2 2320  -0.041   2.445   0.379
  786TIP3   OH2 2321   3.567   2.860   0.590
  786TIP3    H1 2322   3.642   2.827   0.640
  786TIP3    H2 2323   3.602   2.877   0.503
  787TIP3   OH2 2324   3.882   5.468   3.437
  787TIP3    H1 2325   3.923   5.486   3.521
  787TIP3    H2 2326   3.947   5.416   3.389
  788TIP3   OH2 2327   6.620   2.711   0.459
  788TIP3    H1 2328   6.533   2.737   0.429
  788TIP3    H2 2329   6.603   2.659   0.538
  789TIP3   OH2 2330   2.079   4.871   0.306
  789TIP3    H1 2331   2.028   4.791   0.324
  789TIP3    H2 2332   2.143   4.874   0.378
  790TIP3   OH2 2333   6.480   2.085   4.975
  790TIP3    H1 2334   6.494   2.175   4.945
  790TIP3    H2 2335   6.401   2.056   4.930
  791TIP3   OH2 2336   0.473   4.107   4.975
  791TIP3    H1 2337   0.557   4.062   4.963
  791TIP3    H2 2338   0.472   4.131   5.068
  792TIP3   OH2 2339   3.911   3.537   1.688
  792TIP3    H1 2340   3.891   3.627   1.663
  792TIP3    H2 2341   4.006   3.537   1.702
  793TIP3   OH2 2342   0.796   5.103   5.780
  793TIP3    H1 2343   0.887   5.126   5.762
  793TIP3    H2 2344   0.799   5.011   5.807
  794TIP3   OH2 2345   1.982   4.217   4.849
  794TIP3    H1 2346   2.018   4.197   4.936
  794TIP3    H2 2347   1.993   4.136   4.799
  795TIP3   OH2 2348   5.162   5.621   5.835
  795TIP3    H1 2349   5.170   5.630   5.740
  795TIP3    H2 2350   5.067   5.624   5.852
  796TIP3   OH2 2351   6.817   5.265   1.989
  796TIP3    H1 2352   6.827   5.301   2.076
  796TIP3    H2 2353   6.722   5.264   1.973
  797TIP3   OH2 2354   5.378   1.361   1.597
  797TIP3    H1 2355   5.470   1.389   1.603
  797TIP3    H2 2356   5.347   1.397   1.514
  798TIP3   OH2 2357   2.777   5.851   0.369
  798TIP3    H1 2358   2.755   5.906   0.444
  798TIP3    H2 2359   2.785   5.912   0.295
  799TIP3   OH2 2360   0.857   4.455   5.205
  799TIP3    H1 2361   0.880   4.531   5.259
  799TIP3    H2 2362   0.941   4.413   5.185
  800TIP3   OH2 2363   1.225   4.941   4.905
  800TIP3    H1 2364   1.312   4.959   4.869
  800TIP3    H2 2365   1.240   4.868   4.966
  801TIP3   OH2 2366   7.124   5.705   5.544
  801TIP3    H1 2367   7.064   5.688   5.471
  801TIP3    H2 2368   7.124   5.800   5.554
  802TIP3   OH2 2369   3.627   2.711   4.586
  802TIP3    H1 2370   3.708   2.666   4.561
  802TIP3    H2 2371   3.559   2.668   4.535
  803TIP3   OH2 2372   1.346   6.072   4.705
  803TIP3    H1 2373   1.305   6.155   4.683
  803TIP3    H2 2374   1.288   6.005   4.669
  804TIP3   OH2 2375   6.356   1.701   1.331
  804TIP3    H1 2376   6.345   1.622   1.385
  804TIP3    H2 2377   6.416   1.755   1.381
  805TIP3   OH2 2378   4.403   2.260   0.741
  805TIP3    H1 2379   4.367   2.255   0.652
  805TIP3    H2 2380   4.485   2.309   0.730
  806TIP3   OH2 2381   3.249   5.208   1.750
  806TIP3    H1 2382   3.178   5.144   1.764
  806TIP3    H2 2383   3.213   5.291   1.782
  807TIP3   OH2 2384   4.809   3.336   2.034
  807TIP3    H1 2385   4.828   3.271   2.102
  807TIP3    H2 2386   4.771   3.410   2.081
  808TIP3   OH2 2387   3.678   4.649   1.843
  808TIP3    H1 2388   3.633   4.578   1.889
  808TIP3    H2 2389   3.712   4.609   1.763
  809TIP3   OH2 2390   6.441   0.916   2.605
  809TIP3    H1 2391   6.453   0.821   2.600
  809TIP3    H2 2392   6.444   0.945   2.514
  810TIP3   OH2 2393   1.330   3.701   1.262
  810TIP3    H1 2394   1.379   3.684   1.342
  810TIP3    H2 2395   1.387   3.671   1.191
  811TIP3   OH2 2396   1.720   5.265   5.000
  811TIP3    H1 2397   1.713   5.220   4.916
  811TIP3    H2 2398   1.788   5.331   4.986
  812TIP3   OH2 2399   0.686   3.945   4.950
  812TIP3    H1 2400   0.708   3.862   4.907
  812TIP3    H2 2401   0.764   3.967   5.001
  813TIP3   OH2 2402   3.551   5.397   5.373
  813TIP3    H1 2403   3.485   5.362   5.313
  813TIP3    H2 2404   3.589   5.471   5.327
  814TIP3   OH2 2405   1.501   3.454   0.058
  814TIP3    H1 2406   1.567   3.384   0.056
  814TIP3    H2 2407   1.436   3.427  -0.006
  815TIP3   OH2 2408   1.998   6.362   1.057
  815TIP3    H1 2409   1.940   6.438   1.055
  815TIP3    H2 2410   2.041   6.367   1.143
  816TIP3   OH2 2411   6.428   2.571   3.518
  816TIP3    H1 2412   6.423   2.479   3.491
  816TIP3    H2 2413   6.508   2.604   3.477
  817TIP3   OH2 2414   5.464   1.673   4.045
  817TIP3    H1 2415   5.549   1.662   4.088
  817TIP3    H2 2416   5.407   1.709   4.114
  818TIP3   OH2 2417   0.465   0.193   0.489
  818TIP3    H1 2418   0.499   0.207   0.577
  818TIP3    H2 2419   0.537   0.218   0.431
  819TIP3   OH2 2420   6.629   4.854   4.357
  819TIP3    H1 2421   6.579   4.934   4.341
  819TIP3    H2 2422   6.665   4.831   4.271
  820TIP3   OH2 2423   4.917   4.921   1.645
  820TIP3    H1 2424   4.863   4.842   1.645
  820TIP3    H2 2425   5.007   4.889   1.640
  821TIP3   OH2 2426   0.094   2.986   4.669
  821TIP3    H1 2427   0.114   2.984   4.575
  821TIP3    H2 2428   0.009   2.943   4.676
  822TIP3   OH2 2429   4.734   3.668   2.041
  822TIP3    H1 2430   4.704   3.740   1.985
  822TIP3    H2 2431   4.655   3.617   2.058
  823TIP3   OH2 2432   3.453   4.939   5.550
  823TIP3    H1 2433   3.408   4.859   5.525
  823TIP3    H2 2434   3.390   5.009   5.534
  824TIP3   OH2 2435   4.958   4.371   1.944
  824TIP3    H1 2436   5.048   4.380   1.975
  824TIP3    H2 2437   4.908   4.350   2.023
  825TIP3   OH2 2438   0.277   5.864   1.761
  825TIP3    H1 2439   0.360   5.820   1.776
  825TIP3    H2 2440   0.274   5.878   1.666
  826TIP3   OH2 2441   4.618   4.257   3.356
  826TIP3    H1 2442   4.686   4.198   3.390
  826TIP3    H2 2443   4.661   4.343   3.354
  827TIP3   OH2 2444   2.546   0.309   2.778
  827TIP3    H1 2445   2.590   0.355   2.850
  827TIP3    H2 2446   2.460   0.285   2.814
  828TIP3   OH2 2447   3.308   6.354   0.632
  828TIP3    H1 2448   3.266   6.277   0.595
  828TIP3    H2 2449   3.284   6.354   0.724
  829TIP3   OH2 2450   5.638   2.914   1.589
  829TIP3    H1 2451   5.612   2.914   1.497
  829TIP3    H2 2452   5.723   2.870   1.591
  830TIP3   OH2 2453   0.891   3.707   4.981
  830TIP3    H1 2454   0.877   3.701   4.886
  830TIP3    H2 2455   0.968   3.652   4.996
  831TIP3   OH2 2456   3.436   3.562   5.186
  831TIP3    H1 2457   3.365   3.515   5.143
  831TIP3    H2 2458   3.391   3.626   5.242
  832TIP3   OH2 2459   5.268   4.941   1.044
  832TIP3    H1 2460   5.310   4.854   1.045
  832TIP3    H2 2461   5.175   4.922   1.037
  833TIP3   OH2 2462   7.024   5.725   1.772
  833TIP3    H1 2463   6.956   5.790   1.788
  833TIP3    H2 2464   7.104   5.777   1.757
  834TIP3   OH2 2465   5.526   4.413   1.883
  834TIP3    H1 2466   5.576   4.335   1.861
  834TIP3    H2 2467   5.536   4.422   1.978
  835TIP3   OH2 2468   6.631   4.678   1.855
  835TIP3    H1 2469   6.578   4.650   1.780
  835TIP3    H2 2470   6.601   4.623   1.928
  836TIP3   OH2 2471   1.110   6.576   1.985
  836TIP3    H1 2472   1.019   6.602   1.969
  836TIP3    H2 2473   1.115   6.563   2.080
  837TIP3   OH2 2474   2.152   3.417   1.068
  837TIP3    H1 2475   2.101   3.456   0.997
  837TIP3    H2 2476   2.179   3.332   1.034
  838TIP3   OH2 2477   4.447   0.542   1.239
  838TIP3    H1 2478   4.500   0.597   1.182
  838TIP3    H2 2479   4.387   0.497   1.180
  839TIP3   OH2 2480   3.335   2.762   2.223
  839TIP3    H1 2481   3.259   2.741   2.278
  839TIP3    H2 2482   3.357   2.679   2.180
  840TIP3   OH2 2483   4.749   4.701   3.125
  840TIP3    H1 2484   4.834   4.746   3.125
  840TIP3    H2 2485   4.768   4.615   3.089
  841TIP3   OH2 2486   1.783   4.667   0.587
  841TIP3    H1 2487   1.871   4.704   0.580
  841TIP3    H2 2488   1.796   4.581   0.628
  842TIP3   OH2 2489   0.759   5.699   2.227
  842TIP3    H1 2490   0.819   5.726   2.297
  842TIP3    H2 2491   0.675   5.687   2.271
  843TIP3   OH2 2492   5.944   0.717   3.687
  843TIP3    H1 2493   6.017   0.771   3.658
  843TIP3    H2 2494   5.972   0.627   3.669
  844TIP3   OH2 2495   4.333   2.773   5.359
  844TIP3    H1 2496   4.331   2.696   5.303
  844TIP3    H2 2497   4.247   2.776   5.400
  845TIP3   OH2 2498   0.082   0.153   2.817
  845TIP3    H1 2499   0.148   0.220   2.799
  845TIP3    H2 2500   0.025   0.193   2.882
  846TIP3   OH2 2501   2.488  -0.042   1.289
  846TIP3    H1 2502   2.461   0.045   1.259
  846TIP3    H2 2503   2.566  -0.026   1.342
  847TIP3   OH2 2504   4.946   5.266   4.560
  847TIP3    H1 2505   4.969   5.182   4.519
  847TIP3    H2 2506   4.986   5.332   4.504
  848TIP3   OH2 2507   2.075   0.035   1.913
  848TIP3    H1 2508   2.021  -0.040   1.937
  848TIP3    H2 2509   2.012   0.102   1.886
  849TIP3   OH2 2510   1.803   2.835   5.647
  849TIP3    H1 2511   1.815   2.744   5.675
  849TIP3    H2 2512   1.767   2.828   5.558
  850TIP3   OH2 2513   6.882   1.600   2.189
  850TIP3    H1 2514   6.815   1.641   2.244
  850TIP3    H2 2515   6.965   1.621   2.233
  851TIP3   OH2 2516   5.857   0.512   5.903
  851TIP3    H1 2517   5.866   0.600   5.864
  851TIP3    H2 2518   5.897   0.454   5.838
  852TIP3   OH2 2519   7.177   2.139   1.745
  852TIP3    H1 2520   7.149   2.231   1.747
  852TIP3    H2 2521   7.267   2.142   1.712
  853TIP3   OH2 2522   4.909   5.199   0.169
  853TIP3    H1 2523   4.898   5.249   0.088
  853TIP3    H2 2524   4.957   5.121   0.142
  854TIP3   OH2 2525   6.734   4.592   2.556
  854TIP3    H1 2526   6.675   4.538   2.504
  854TIP3    H2 2527   6.813   4.600   2.503
  855TIP3   OH2 2528   0.563   6.562   1.517
  855TIP3    H1 2529   0.648   6.571   1.561
  855TIP3    H2 2530   0.582   6.510   1.439
  856TIP3   OH2 2531   4.357   5.801   1.991
  856TIP3    H1 2532   4.424   5.815   1.924
  856TIP3    H2 2533   4.293   5.871   1.976
  857TIP3   OH2 2534   5.371   6.636   2.132
  857TIP3    H1 2535   5.293   6.590   2.163
  857TIP3    H2 2536   5.412   6.576   2.070
  858TIP3   OH2 2537   0.606   0.202   5.045
  858TIP3    H1 2538   0.553   0.282   5.034
  858TIP3    H2 2539   0.621   0.196   5.139
  859TIP3   OH2 2540  -0.012   1.303   5.565
  859TIP3    H1 2541  -0.025   1.397   5.575
  859TIP3    H2 2542   0.079   1.294   5.537
  860TIP3   OH2 2543   2.693   2.095   5.300
  860TIP3    H1 2544   2.726   2.099   5.390
  860TIP3    H2 2545   2.725   2.175   5.259
  861TIP3   OH2 2546   1.562   4.292   2.343
  861TIP3    H1 2547   1.589   4.381   2.321
  861TIP3    H2 2548   1.604   4.274   2.427
  862TIP3   OH2 2549   3.737   1.593   1.197
  862TIP3    H1 2550   3.675   1.650   1.152
  862TIP3    H2 2551   3.812   1.587   1.138
  863TIP3   OH2 2552   4.769   5.123   2.409
  863TIP3    H1 2553   4.815   5.039   2.419
  863TIP3    H2 2554   4.835   5.182   2.373
  864TIP3   OH2 2555   0.946   0.569   0.575
  864TIP3    H1 2556   0.956   0.664   0.577
  864TIP3    H2 2557   1.007   0.539   0.507
  865TIP3   OH2 2558   1.710   0.299   4.900
  865TIP3    H1 2559   1.764   0.345   4.836
  865TIP3    H2 2560   1.637   0.263   4.850
  866TIP3   OH2 2561   0.257   2.334   4.492
  866TIP3    H1 2562   0.244   2.269   4.422
  866TIP3    H2 2563   0.214   2.295   4.568
  867TIP3   OH2 2564   4.014   6.085   5.499
  867TIP3    H1 2565   3.953   6.030   5.547
  867TIP3    H2 2566   3.959   6.136   5.439
  868TIP3   OH2 2567   3.530   5.793   2.540
  868TIP3    H1 2568   3.525   5.847   2.619
  868TIP3    H2 2569   3.439   5.782   2.513
  869TIP3   OH2 2570   6.792   2.277   0.841
  869TIP3    H1 2571   6.814   2.316   0.756
  869TIP3    H2 2572   6.875   2.272   0.887
  870TIP3   OH2 2573   7.110   2.737   1.942
  870TIP3    H1 2574   7.174   2.679   1.982
  870TIP3    H2 2575   7.029   2.685   1.939
  871TIP3   OH2 2576   5.428   0.903   2.613
  871TIP3    H1 2577   5.519   0.875   2.617
  871TIP3    H2 2578   5.430   0.985   2.565
  872TIP3   OH2 2579   5.514   6.518   0.959
  872TIP3    H1 2580   5.558   6.598   0.987
  872TIP3    H2 2581   5.576   6.448   0.980
  873TIP3   OH2 2582   2.127   0.194   0.773
  873TIP3    H1 2583   2.067   0.158   0.838
  873TIP3    H2 2584   2.099   0.154   0.690
  874TIP3   OH2 2585   4.065   2.252   2.322
  874TIP3    H1 2586   4.101   2.189   2.259
  874TIP3    H2 2587   3.995   2.296   2.274
  875TIP3   OH2 2588   3.911   1.187   5.062
  875TIP3    H1 2589   3.822   1.191   5.028
  875TIP3    H2 2590   3.905   1.132   5.140
  876TIP3   OH2 2591   5.643   6.226   3.659
  876TIP3    H1 2592   5.649   6.136   3.691
  876TIP3    H2 2593   5.723   6.239   3.608
  877TIP3   OH2 2594   3.686   2.853   2.978
  877TIP3    H1 2595   3.618   2.920   2.968
  877TIP3    H2 2596   3.663   2.785   2.914
  878TIP3   OH2 2597   6.926   1.021   3.015
  878TIP3    H1 2598   6.945   1.114   3.003
  878TIP3    H2 2599   6.965   0.999   3.100
  879TIP3   OH2 2600   5.755   5.568   1.156
  879TIP3    H1 2601   5.755   5.535   1.246
  879TIP3    H2 2602   5.665   5.597   1.142
  880TIP3   OH2 2603   5.212   0.405   3.686
  880TIP3    H1 2604   5.175   0.338   3.743
  880TIP3    H2 2605   5.303   0.412   3.712
  881TIP3   OH2 2606   3.648   2.280   3.312
  881TIP3    H1 2607   3.586   2.221   3.269
  881TIP3    H2 2608   3.671   2.235   3.393
  882TIP3   OH2 2609   5.382   4.109   2.789
  882TIP3    H1 2610   5.322   4.035   2.776
  882TIP3    H2 2611   5.393   4.114   2.884
  883TIP3   OH2 2612   5.449   0.269   5.014
  883TIP3    H1 2613   5.439   0.193   4.957
  883TIP3    H2 2614   5.485   0.233   5.095
  884TIP3   OH2 2615   3.019   5.211   5.858
  884TIP3    H1 2616   3.108   5.243   5.843
  884TIP3    H2 2617   2.965   5.262   5.797
  885TIP3   OH2 2618   2.848   4.117   1.669
  885TIP3    H1 2619   2.930   4.073   1.648
  885TIP3    H2 2620   2.803   4.056   1.728
  886TIP3   OH2 2621   3.675   1.732   2.865
  886TIP3    H1 2622   3.673   1.819   2.906
  886TIP3    H2 2623   3.759   1.729   2.819
  887TIP3   OH2 2624   3.208   0.614   3.346
  887TIP3    H1 2625   3.246   0.684   3.293
  887TIP3    H2 2626   3.251   0.534   3.315
  888TIP3   OH2 2627   0.454   5.490   1.662
  888TIP3    H1 2628   0.471   5.396   1.652
  888TIP3    H2 2629   0.359   5.498   1.653
  889TIP3   OH2 2630   0.467   0.695   5.698
  889TIP3    H1 2631   0.512   0.610   5.704
  889TIP3    H2 2632   0.527   0.751   5.649
  890TIP3   OH2 2633   0.711   4.196   0.010
  890TIP3    H1 2634   0.639   4.170   0.067
  890TIP3    H2 2635   0.698   4.290  -0.004
  891TIP3   OH2 2636   4.643   6.313   1.473
  891TIP3    H1 2637   4.670   6.244   1.412
  891TIP3    H2 2638   4.548   6.308   1.474
  892TIP3   OH2 2639   6.559   4.622   0.408
  892TIP3    H1 2640   6.561   4.600   0.315
  892TIP3    H2 2641   6.471   4.657   0.422
  893TIP3   OH2 2642   0.796   4.509   4.904
  893TIP3    H1 2643   0.871   4.533   4.849
  893TIP3    H2 2644   0.732   4.474   4.842
  894TIP3   OH2 2645   0.701   3.326   5.676
  894TIP3    H1 2646   0.607   3.310   5.677
  894TIP3    H2 2647   0.713   3.394   5.609
  895TIP3   OH2 2648   1.457   2.368   3.060
  895TIP3    H1 2649   1.465   2.286   3.011
  895TIP3    H2 2650   1.540   2.413   3.046
  896TIP3   OH2 2651   6.669   3.363   2.747
  896TIP3    H1 2652   6.654   3.440   2.802
  896TIP3    H2 2653   6.622   3.382   2.665
  897TIP3   OH2 2654   6.719   1.143   4.404
  897TIP3    H1 2655   6.655   1.147   4.475
  897TIP3    H2 2656   6.801   1.169   4.445
  898TIP3   OH2 2657   5.556   5.766   0.255
  898TIP3    H1 2658   5.523   5.699   0.315
  898TIP3    H2 2659   5.521   5.849   0.289
  899TIP3   OH2 2660   4.067   1.964   1.573
  899TIP3    H1 2661   4.147   1.914   1.560
  899TIP3    H2 2662   4.016   1.912   1.636
  900TIP3   OH2 2663   6.927   6.636   0.815
  900TIP3    H1 2664   6.970   6.576   0.754
  900TIP3    H2 2665   6.894   6.707   0.760
  901TIP3   OH2 2666   4.827   1.334   2.959
  901TIP3    H1 2667   4.916   1.302   2.976
  901TIP3    H2 2668   4.771   1.282   3.018
  902TIP3   OH2 2669   1.967   0.062   4.055
  902TIP3    H1 2670   2.048   0.112   4.045
  902TIP3    H2 2671   1.969  -0.002   3.983
  903TIP3   OH2 2672   0.365   2.273   0.696
  903TIP3    H1 2673   0.426   2.346   0.701
  903TIP3    H2 2674   0.296   2.295   0.759
  904TIP3   OH2 2675   3.884   4.606   5.889
  904TIP3    H1 2676   3.788   4.608   5.879
  904TIP3    H2 2677   3.915   4.672   5.827
  905TIP3   OH2 2678   2.183   3.719   4.087
  905TIP3    H1 2679   2.194   3.626   4.071
  905TIP3    H2 2680   2.089   3.731   4.098
  906TIP3   OH2 2681   2.428   6.147   0.976
  906TIP3    H1 2682   2.385   6.067   0.947
  906TIP3    H2 2683   2.519   6.122   0.989
  907TIP3   OH2 2684   3.994   1.623   0.400
  907TIP3    H1 2685   4.000   1.528   0.403
  907TIP3    H2 2686   4.077   1.654   0.435
  908TIP3   OH2 2687   5.029   5.715   3.605
  908TIP3    H1 2688   5.041   5.664   3.686
  908TIP3    H2 2689   5.060   5.657   3.536
  909TIP3   OH2 2690   6.678   5.877   3.481
  909TIP3    H1 2691   6.663   5.912   3.569
  909TIP3    H2 2692   6.766   5.907   3.458
  910TIP3   OH2 2693   5.970   0.812   4.073
  910TIP3    H1 2694   5.937   0.895   4.038
  910TIP3    H2 2695   6.020   0.838   4.151
  911TIP3   OH2 2696   7.006   4.362   4.044
  911TIP3    H1 2697   6.943   4.291   4.032
  911TIP3    H2 2698   7.064   4.330   4.113
  912TIP3   OH2 2699   0.515   0.122   2.836
  912TIP3    H1 2700   0.482   0.170   2.912
  912TIP3    H2 2701   0.497   0.180   2.762
  913TIP3   OH2 2702   6.260   2.161   2.437
  913TIP3    H1 2703   6.183   2.105   2.426
  913TIP3    H2 2704   6.333   2.107   2.409
  914TIP3   OH2 2705   6.604   1.812   1.472
  914TIP3    H1 2706   6.585   1.758   1.548
  914TIP3    H2 2707   6.698   1.829   1.476
  915TIP3   OH2 2708   6.824   1.593   3.247
  915TIP3    H1 2709   6.888   1.651   3.206
  915TIP3    H2 2710   6.780   1.550   3.174
  916TIP3   OH2 2711   2.566   0.438   1.317
  916TIP3    H1 2712   2.642   0.496   1.321
  916TIP3    H2 2713   2.568   0.401   1.229
  917TIP3   OH2 2714   2.902   6.782   4.034
  917TIP3    H1 2715   2.847   6.706   4.054
  917TIP3    H2 2716   2.911   6.828   4.118
  918TIP3   OH2 2717   2.116   1.677   0.178
  918TIP3    H1 2718   2.076   1.763   0.192
  918TIP3    H2 2719   2.180   1.691   0.108
  919TIP3   OH2 2720   5.305   6.151   4.055
  919TIP3    H1 2721   5.216   6.144   4.088
  919TIP3    H2 2722   5.346   6.068   4.081
  920TIP3   OH2 2723   0.018   3.183   4.874
  920TIP3    H1 2724  -0.075   3.199   4.861
  920TIP3    H2 2725   0.037   3.103   4.825
  921TIP3   OH2 2726   6.346   6.599   4.261
  921TIP3    H1 2727   6.430   6.555   4.266
  921TIP3    H2 2728   6.363   6.679   4.211
  922TIP3   OH2 2729   2.020   4.787   0.593
  922TIP3    H1 2730   2.115   4.787   0.597
  922TIP3    H2 2731   1.993   4.836   0.671
  923TIP3   OH2 2732   1.941   2.653   2.962
  923TIP3    H1 2733   1.848   2.677   2.963
  923TIP3    H2 2734   1.967   2.664   2.870
  924TIP3   OH2 2735   5.505   2.251   1.376
  924TIP3    H1 2736   5.538   2.290   1.295
  924TIP3    H2 2737   5.561   2.288   1.444
  925TIP3   OH2 2738   4.257   6.511   0.542
  925TIP3    H1 2739   4.257   6.568   0.465
  925TIP3    H2 2740   4.325   6.548   0.599
  926TIP3   OH2 2741   2.773   1.646   5.638
  926TIP3    H1 2742   2.778   1.551   5.629
  926TIP3    H2 2743   2.767   1.661   5.733
  927TIP3   OH2 2744   7.150   0.526   1.336
  927TIP3    H1 2745   7.231   0.572   1.355
  927TIP3    H2 2746   7.161   0.440   1.377
  928TIP3   OH2 2747   0.977   1.480   2.317
  928TIP3    H1 2748   0.925   1.450   2.242
  928TIP3    H2 2749   1.065   1.447   2.299
  929TIP3   OH2 2750   6.447   2.381   5.314
  929TIP3    H1 2751   6.502   2.352   5.387
  929TIP3    H2 2752   6.503   2.440   5.264
  930TIP3   OH2 2753   6.167   4.179   1.492
  930TIP3    H1 2754   6.212   4.115   1.547
  930TIP3    H2 2755   6.085   4.197   1.538
  931TIP3   OH2 2756   6.086   2.361   4.370
  931TIP3    H1 2757   6.091   2.457   4.374
  931TIP3    H2 2758   6.014   2.343   4.310
  932TIP3   OH2 2759   4.051   2.279   3.245
  932TIP3    H1 2760   3.973   2.323   3.279
  932TIP3    H2 2761   4.116   2.288   3.315
  933TIP3   OH2 2762   2.621   2.905   4.688
  933TIP3    H1 2763   2.549   2.865   4.638
  933TIP3    H2 2764   2.589   2.993   4.708
  934TIP3   OH2 2765   0.867   0.795   2.678
  934TIP3    H1 2766   0.772   0.800   2.677
  934TIP3    H2 2767   0.891   0.771   2.589
  935TIP3   OH2 2768   4.394   4.335   5.508
  935TIP3    H1 2769   4.419   4.244   5.491
  935TIP3    H2 2770   4.299   4.336   5.494
  936TIP3   OH2 2771   4.325   4.285   4.162
  936TIP3    H1 2772   4.328   4.257   4.253
  936TIP3    H2 2773   4.320   4.204   4.111
  937TIP3   OH2 2774   7.143   5.073   1.459
  937TIP3    H1 2775   7.196   5.148   1.486
  937TIP3    H2 2776   7.164   5.061   1.367
  938TIP3   OH2 2777   0.876   1.023   3.707
  938TIP3    H1 2778   0.805   1.079   3.675
  938TIP3    H2 2779   0.845   0.934   3.694
  939TIP3   OH2 2780   2.114   3.528   2.254
  939TIP3    H1 2781   2.199   3.486   2.242
  939TIP3    H2 2782   2.126   3.582   2.332
  940TIP3   OH2 2783   1.560   0.093   1.383
  940TIP3    H1 2784   1.587   0.073   1.473
  940TIP3    H2 2785   1.595   0.020   1.331
  941TIP3   OH2 2786   3.107   1.249   4.059
  941TIP3    H1 2787   3.034   1.306   4.083
  941TIP3    H2 2788   3.108   1.182   4.128
  942TIP3   OH2 2789   2.321   0.488   4.376
  942TIP3    H1 2790   2.344   0.484   4.469
  942TIP3    H2 2791   2.392   0.441   4.332
  943TIP3   OH2 2792   3.217   4.308   0.450
  943TIP3    H1 2793   3.311   4.324   0.450
  943TIP3    H2 2794   3.201   4.259   0.369
  944TIP3   OH2 2795   4.169   5.675   3.194
  944TIP3    H1 2796   4.208   5.753   3.156
  944TIP3    H2 2797   4.114   5.707   3.265
  945TIP3   OH2 2798   1.147   6.120   2.458
  945TIP3    H1 2799   1.075   6.080   2.507
  945TIP3    H2 2800   1.111   6.136   2.371
  946TIP3   OH2 2801   0.695   1.594   2.492
  946TIP3    H1 2802   0.752   1.626   2.562
  946TIP3    H2 2803   0.607   1.618   2.519
  947TIP3   OH2 2804   0.044   4.596   0.441
  947TIP3    H1 2805   0.101   4.608   0.518
  947TIP3    H2 2806   0.023   4.503   0.442
  948TIP3   OH2 2807   1.167   6.351   4.377
  948TIP3    H1 2808   1.121   6.397   4.307
  948TIP3    H2 2809   1.253   6.393   4.380
  949TIP3   OH2 2810   0.404   0.306   2.359
  949TIP3    H1 2811   0.449   0.283   2.278
  949TIP3    H2 2812   0.414   0.401   2.365
  950TIP3   OH2 2813   0.389   5.663   5.769
  950TIP3    H1 2814   0.396   5.759   5.768
  950TIP3    H2 2815   0.449   5.635   5.700
  951TIP3   OH2 2816   4.419   2.623   3.014
  951TIP3    H1 2817   4.410   2.572   2.934
  951TIP3    H2 2818   4.514   2.632   3.026
  952TIP3   OH2 2819   0.592   2.740   0.718
  952TIP3    H1 2820   0.669   2.727   0.773
  952TIP3    H2 2821   0.583   2.658   0.669
  953TIP3   OH2 2822   6.645   4.613   4.170
  953TIP3    H1 2823   6.654   4.525   4.133
  953TIP3    H2 2824   6.590   4.602   4.247
  954TIP3   OH2 2825   1.816   2.017   4.298
  954TIP3    H1 2826   1.842   2.080   4.230
  954TIP3    H2 2827   1.841   1.932   4.262
  955TIP3   OH2 2828   3.162   0.181   2.034
  955TIP3    H1 2829   3.256   0.166   2.042
  955TIP3    H2 2830   3.122   0.110   2.084
  956TIP3   OH2 2831   4.682   2.998   0.270
  956TIP3    H1 2832   4.596   2.996   0.227
  956TIP3    H2 2833   4.662   2.993   0.363
  957TIP3   OH2 2834   0.603   3.850   5.426
  957TIP3    H1 2835   0.522   3.803   5.405
  957TIP3    H2 2836   0.672   3.803   5.380
  958TIP3   OH2 2837   4.269   5.540   4.374
  958TIP3    H1 2838   4.199   5.481   4.345
  958TIP3    H2 2839   4.237   5.628   4.354
  959TIP3   OH2 2840   2.265   4.090   5.415
  959TIP3    H1 2841   2.249   4.057   5.327
  959TIP3    H2 2842   2.302   4.177   5.402
  960TIP3   OH2 2843   3.871   3.838   5.609
  960TIP3    H1 2844   3.827   3.765   5.654
  960TIP3    H2 2845   3.916   3.796   5.536
  961TIP3   OH2 2846   3.928   6.655   4.577
  961TIP3    H1 2847   3.978   6.733   4.599
  961TIP3    H2 2848   3.994   6.589   4.557
  962TIP3   OH2 2849   6.317   0.535   0.691
  962TIP3    H1 2850   6.284   0.461   0.741
  962TIP3    H2 2851   6.405   0.508   0.663
  963TIP3   OH2 2852   6.872   0.766   1.011
  963TIP3    H1 2853   6.842   0.680   0.981
  963TIP3    H2 2854   6.828   0.828   0.952
  964TIP3   OH2 2855   5.034   2.995   4.189
  964TIP3    H1 2856   5.107   2.974   4.246
  964TIP3    H2 2857   4.959   3.004   4.247
  965TIP3   OH2 2858   4.846   3.434   5.344
  965TIP3    H1 2859   4.755   3.465   5.348
  965TIP3    H2 2860   4.882   3.475   5.265
  966TIP3   OH2 2861   1.021   0.532   2.036
  966TIP3    H1 2862   1.114   0.522   2.055
  966TIP3    H2 2863   0.993   0.445   2.007
  967TIP3   OH2 2864   3.431   4.787   1.940
  967TIP3    H1 2865   3.523   4.761   1.938
  967TIP3    H2 2866   3.393   4.734   2.011
  968TIP3   OH2 2867   3.988   3.788   4.132
  968TIP3    H1 2868   3.925   3.851   4.165
  968TIP3    H2 2869   4.066   3.802   4.185
  969TIP3   OH2 2870   5.751   1.183   3.540
  969TIP3    H1 2871   5.721   1.119   3.476
  969TIP3    H2 2872   5.691   1.257   3.531
  970TIP3   OH2 2873   6.801   6.223   3.991
  970TIP3    H1 2874   6.760   6.265   3.916
  970TIP3    H2 2875   6.842   6.294   4.040
  971TIP3   OH2 2876   3.126   6.145   4.316
  971TIP3    H1 2877   3.070   6.219   4.341
  971TIP3    H2 2878   3.155   6.166   4.227
  972TIP3   OH2 2879   7.054   5.860   4.869
  972TIP3    H1 2880   7.050   5.771   4.903
  972TIP3    H2 2881   7.148   5.880   4.866
  973TIP3   OH2 2882   4.416   1.114   0.047
  973TIP3    H1 2883   4.484   1.104   0.114
  973TIP3    H2 2884   4.463   1.135  -0.033
  974TIP3   OH2 2885   4.928   3.845   2.432
  974TIP3    H1 2886   4.965   3.783   2.495
  974TIP3    H2 2887   4.853   3.799   2.395
  975TIP3   OH2 2888   0.469   2.601   3.076
  975TIP3    H1 2889   0.505   2.690   3.066
  975TIP3    H2 2890   0.412   2.590   3.000
  976TIP3   OH2 2891   4.349   4.139   2.628
  976TIP3    H1 2892   4.334   4.055   2.586
  976TIP3    H2 2893   4.262   4.177   2.637
  977TIP3   OH2 2894   0.894   3.754   4.630
  977TIP3    H1 2895   0.809   3.736   4.669
  977TIP3    H2 2896   0.874   3.774   4.538
  978TIP3   OH2 2897   0.439   0.234   3.066
  978TIP3    H1 2898   0.421   0.319   3.107
  978TIP3    H2 2899   0.361   0.182   3.082
  979TIP3   OH2 2900   1.363   4.118   0.023
  979TIP3    H1 2901   1.387   4.203  -0.014
  979TIP3    H2 2902   1.291   4.137   0.082
  980TIP3   OH2 2903   5.569   0.853   4.920
  980TIP3    H1 2904   5.648   0.805   4.895
  980TIP3    H2 2905   5.576   0.937   4.874
  981TIP3   OH2 2906   2.618   2.520   5.847
  981TIP3    H1 2907   2.575   2.600   5.880
  981TIP3    H2 2908   2.547   2.456   5.843
  982TIP3   OH2 2909   6.441   0.158   5.183
  982TIP3    H1 2910   6.516   0.205   5.144
  982TIP3    H2 2911   6.481   0.084   5.228
  983TIP3   OH2 2912   7.220   4.749   0.707
  983TIP3    H1 2913   7.147   4.720   0.652
  983TIP3    H2 2914   7.288   4.683   0.696
  984TIP3   OH2 2915   5.038   1.053   3.251
  984TIP3    H1 2916   4.993   0.973   3.223
  984TIP3    H2 2917   5.041   1.047   3.347
  985TIP3   OH2 2918   2.362   3.530   0.192
  985TIP3    H1 2919   2.301   3.512   0.120
  985TIP3    H2 2920   2.447   3.499   0.161
  986TIP3   OH2 2921   7.226   4.175   0.372
  986TIP3    H1 2922   7.199   4.130   0.452
  986TIP3    H2 2923   7.175   4.257   0.372
  987TIP3   OH2 2924   3.355   2.666   0.153
  987TIP3    H1 2925   3.274   2.625   0.123
  987TIP3    H2 2926   3.355   2.652   0.248
  988TIP3   OH2 2927   5.075   4.005   5.419
  988TIP3    H1 2928   5.110   4.093   5.436
  988TIP3    H2 2929   5.006   4.019   5.355
  989TIP3   OH2 2930   5.348   3.091   2.364
  989TIP3    H1 2931   5.315   3.034   2.433
  989TIP3    H2 2932   5.432   3.052   2.338
  990TIP3   OH2 2933   0.931   5.313   1.882
  990TIP3    H1 2934   0.847   5.267   1.891
  990TIP3    H2 2935   0.997   5.245   1.901
  991TIP3   OH2 2936   0.266   1.272   5.457
  991TIP3    H1 2937   0.341   1.299   5.510
  991TIP3    H2 2938   0.275   1.178   5.448
  992TIP3   OH2 2939   2.241   0.193   3.251
  992TIP3    H1 2940   2.222   0.253   3.323
  992TIP3    H2 2941   2.280   0.116   3.293
  993TIP3   OH2 2942   3.151   0.457   1.988
  993TIP3    H1 2943   3.221   0.493   1.934
  993TIP3    H2 2944   3.186   0.374   2.021
  994TIP3   OH2 2945   6.564   0.355   4.824
  994TIP3    H1 2946   6.610   0.342   4.907
  994TIP3    H2 2947   6.480   0.395   4.849
  995TIP3   OH2 2948   3.514   0.413   3.587
  995TIP3    H1 2949   3.518   0.478   3.657
  995TIP3    H2 2950   3.420   0.401   3.571
  996TIP3   OH2 2951   6.179   4.702   0.975
  996TIP3    H1 2952   6.131   4.620   0.986
  996TIP3    H2 2953   6.268   4.675   0.954
  997TIP3   OH2 2954   4.704   5.399   0.247
  997TIP3    H1 2955   4.760   5.321   0.251
  997TIP3    H2 2956   4.766   5.472   0.247
  998TIP3   OH2 2957   4.653   6.059   5.246
  998TIP3    H1 2958   4.613   6.116   5.181
  998TIP3    H2 2959   4.745   6.053   5.219
  999TIP3   OH2 2960   5.549   6.370   0.653
  999TIP3    H1 2961   5.562   6.443   0.713
  999TIP3    H2 2962   5.494   6.309   0.702
 1000TIP3   OH2 2963   2.475   1.835   1.696
 1000TIP3    H1 2964   2.462   1.741   1.680
 1000TIP3    H2 2965   2.440   1.878   1.618
 1001TIP3   OH2 2966   6.633   3.772   2.617
 1001TIP3    H1 2967   6.659   3.852   2.571
 1001TIP3    H2 2968   6.572   3.730   2.557
 1002TIP3   OH2 2969   7.024   0.376   5.308
 1002TIP3    H1 2970   7.067   0.391   5.392
 1002TIP3    H2 2971   7.061   0.444   5.251
 1003TIP3   OH2 2972   0.502   6.530   4.989
 1003TIP3    H1 2973   0.567   6.591   4.954
 1003TIP3    H2 2974   0.437   6.586   5.032
 1004TIP3   OH2 2975   6.135   4.603   0.238
 1004TIP3    H1 2976   6.181   4.683   0.266
 1004TIP3    H2 2977   6.135   4.547   0.316
 1005TIP3   OH2 2978   1.487   3.069   5.203
 1005TIP3    H1 2979   1.448   3.016   5.134
 1005TIP3    H2 2980   1.581   3.058   5.192
 1006TIP3   OH2 2981   5.176   6.703   0.048
 1006TIP3    H1 2982   5.134   6.730   0.130
 1006TIP3    H2 2983   5.207   6.614   0.065
 1007TIP3   OH2 2984   4.817   5.692   0.620
 1007TIP3    H1 2985   4.864   5.776   0.622
 1007TIP3    H2 2986   4.777   5.686   0.707
 1008TIP3   OH2 2987   3.560   1.112   1.089
 1008TIP3    H1 2988   3.569   1.041   1.026
 1008TIP3    H2 2989   3.639   1.166   1.076
 1009TIP3   OH2 2990   3.629   5.143   4.495
 1009TIP3    H1 2991   3.637   5.238   4.487
 1009TIP3    H2 2992   3.536   5.128   4.512
 1010TIP3   OH2 2993   6.594   6.463   4.721
 1010TIP3    H1 2994   6.621   6.524   4.653
 1010TIP3    H2 2995   6.596   6.514   4.802
 1011TIP3   OH2 2996   4.538   2.858   0.025
 1011TIP3    H1 2997   4.629   2.835   0.004
 1011TIP3    H2 2998   4.505   2.782   0.073
 1012TIP3   OH2 2999   7.107   4.832   2.571
 1012TIP3    H1 3000   7.147   4.917   2.556
 1012TIP3    H2 3001   7.113   4.788   2.486
 1013TIP3   OH2 3002   1.154   0.883   4.252
 1013TIP3    H1 3003   1.156   0.879   4.156
 1013TIP3    H2 3004   1.083   0.944   4.272
 1014TIP3   OH2 3005   6.531   4.949   1.048
 1014TIP3    H1 3006   6.606   4.931   1.104
 1014TIP3    H2 3007   6.460   4.895   1.083
 1015TIP3   OH2 3008   6.730   0.293   1.660
 1015TIP3    H1 3009   6.699   0.285   1.751
 1015TIP3    H2 3010   6.786   0.370   1.662
 1016TIP3   OH2 3011   3.313   1.613   2.226
 1016TIP3    H1 3012   3.362   1.642   2.303
 1016TIP3    H2 3013   3.269   1.533   2.255
 1017TIP3   OH2 3014   5.811   4.222   2.760
 1017TIP3    H1 3015   5.781   4.243   2.672
 1017TIP3    H2 3016   5.880   4.157   2.747
 1018TIP3   OH2 3017   2.339   5.623   1.598
 1018TIP3    H1 3018   2.331   5.639   1.504
 1018TIP3    H2 3019   2.375   5.704   1.634
 1019TIP3   OH2 3020   5.822   3.095   0.824
 1019TIP3    H1 3021   5.856   3.010   0.851
 1019TIP3    H2 3022   5.793   3.136   0.905
 1020TIP3   OH2 3023   2.712   5.930   5.453
 1020TIP3    H1 3024   2.677   6.000   5.397
 1020TIP3    H2 3025   2.644   5.862   5.449
 1021TIP3   OH2 3026   4.134   4.969   1.692
 1021TIP3    H1 3027   4.055   4.940   1.646
 1021TIP3    H2 3028   4.174   5.033   1.633
 1022TIP3   OH2 3029   4.114   1.646   2.309
 1022TIP3    H1 3030   4.018   1.644   2.300
 1022TIP3    H2 3031   4.147   1.613   2.226
 1023TIP3   OH2 3032   3.787   5.806   2.424
 1023TIP3    H1 3033   3.836   5.840   2.498
 1023TIP3    H2 3034   3.696   5.807   2.454
 1024TIP3   OH2 3035   4.590   4.584   0.344
 1024TIP3    H1 3036   4.650   4.655   0.320
 1024TIP3    H2 3037   4.640   4.529   0.404
 1025TIP3   OH2 3038   1.097   4.277   1.267
 1025TIP3    H1 3039   1.026   4.223   1.302
 1025TIP3    H2 3040   1.174   4.220   1.270
 1026TIP3   OH2 3041   2.340   0.895   3.291
 1026TIP3    H1 3042   2.286   0.959   3.244
 1026TIP3    H2 3043   2.427   0.934   3.292
 1027TIP3   OH2 3044   1.000   2.882   0.786
 1027TIP3    H1 3045   1.030   2.838   0.866
 1027TIP3    H2 3046   0.913   2.845   0.770
 1028TIP3   OH2 3047   3.143   1.823   5.114
 1028TIP3    H1 3048   3.145   1.752   5.178
 1028TIP3    H2 3049   3.118   1.900   5.165
 1029TIP3   OH2 3050   1.787   5.288   2.054
 1029TIP3    H1 3051   1.848   5.355   2.025
 1029TIP3    H2 3052   1.717   5.290   1.989
 1030TIP3   OH2 3053   6.946   2.060   2.803
 1030TIP3    H1 3054   7.038   2.034   2.800
 1030TIP3    H2 3055   6.932   2.109   2.722
 1031TIP3   OH2 3056   0.950   5.378   2.791
 1031TIP3    H1 3057   0.879   5.385   2.727
 1031TIP3    H2 3058   0.969   5.469   2.815
 1032TIP3   OH2 3059   3.561   4.415   1.709
 1032TIP3    H1 3060   3.481   4.399   1.659
 1032TIP3    H2 3061   3.536   4.404   1.800
 1033TIP3   OH2 3062   0.863   5.495   4.160
 1033TIP3    H1 3063   0.806   5.544   4.100
 1033TIP3    H2 3064   0.907   5.563   4.212
 1034TIP3   OH2 3065   1.898   3.900   1.153
 1034TIP3    H1 3066   1.851   3.983   1.156
 1034TIP3    H2 3067   1.970   3.910   1.216
 1035TIP3   OH2 3068   5.191   2.317   1.452
 1035TIP3    H1 3069   5.171   2.350   1.539
 1035TIP3    H2 3070   5.282   2.342   1.436
 1036TIP3   OH2 3071   1.544   3.040   4.562
 1036TIP3    H1 3072   1.511   3.066   4.476
 1036TIP3    H2 3073   1.623   2.989   4.544
 1037TIP3   OH2 3074   1.164   1.961   0.400
 1037TIP3    H1 3075   1.091   1.993   0.346
 1037TIP3    H2 3076   1.122   1.917   0.474
 1038TIP3   OH2 3077   1.165   3.304   3.854
 1038TIP3    H1 3078   1.236   3.337   3.909
 1038TIP3    H2 3079   1.112   3.381   3.834
 1039TIP3   OH2 3080   4.833   2.651   2.630
 1039TIP3    H1 3081   4.800   2.693   2.710
 1039TIP3    H2 3082   4.769   2.582   2.612
 1040TIP3   OH2 3083   6.712   0.069   5.461
 1040TIP3    H1 3084   6.760   0.107   5.534
 1040TIP3    H2 3085   6.762   0.094   5.383
 1041TIP3   OH2 3086   3.632   4.167   1.530
 1041TIP3    H1 3087   3.546   4.166   1.572
 1041TIP3    H2 3088   3.655   4.260   1.526
 1042TIP3   OH2 3089   1.232   4.315   0.851
 1042TIP3    H1 3090   1.223   4.288   0.760
 1042TIP3    H2 3091   1.303   4.260   0.885
 1043TIP3   OH2 3092   6.281   6.721   2.971
 1043TIP3    H1 3093   6.341   6.746   3.041
 1043TIP3    H2 3094   6.216   6.666   3.014
 1044TIP3   OH2 3095   5.192   6.671   5.285
 1044TIP3    H1 3096   5.190   6.613   5.209
 1044TIP3    H2 3097   5.235   6.619   5.353
 1045TIP3   OH2 3098   5.959   3.472   0.624
 1045TIP3    H1 3099   6.034   3.464   0.684
 1045TIP3    H2 3100   5.913   3.551   0.654
 1046TIP3   OH2 3101   0.526   0.713   0.920
 1046TIP3    H1 3102   0.438   0.702   0.885
 1046TIP3    H2 3103   0.565   0.781   0.866
 1047TIP3   OH2 3104   0.140   4.367   3.018
 1047TIP3    H1 3105   0.074   4.311   3.061
 1047TIP3    H2 3106   0.120   4.455   3.049
 1048TIP3   OH2 3107   6.320   2.084   4.516
 1048TIP3    H1 3108   6.320   2.090   4.420
 1048TIP3    H2 3109   6.285   2.168   4.545
 1049TIP3   OH2 3110   3.041   5.185   2.288
 1049TIP3    H1 3111   3.041   5.092   2.266
 1049TIP3    H2 3112   3.105   5.224   2.229
 1050TIP3   OH2 3113   1.066   2.228   1.681
 1050TIP3    H1 3114   1.160   2.247   1.678
 1050TIP3    H2 3115   1.060   2.133   1.667
 1051TIP3   OH2 3116   3.902   3.461   0.965
 1051TIP3    H1 3117   3.861   3.492   0.885
 1051TIP3    H2 3118   3.991   3.437   0.939
 1052TIP3   OH2 3119   6.442   5.704   3.733
 1052TIP3    H1 3120   6.423   5.782   3.680
 1052TIP3    H2 3121   6.376   5.706   3.802
 1053TIP3   OH2 3122   7.153   0.568   3.876
 1053TIP3    H1 3123   7.163   0.498   3.940
 1053TIP3    H2 3124   7.060   0.569   3.855
 1054TIP3   OH2 3125   4.255   3.554   1.928
 1054TIP3    H1 3126   4.166   3.568   1.959
 1054TIP3    H2 3127   4.288   3.641   1.906
 1055TIP3   OH2 3128   0.083   6.715   4.567
 1055TIP3    H1 3129   0.114   6.660   4.640
 1055TIP3    H2 3130   0.027   6.780   4.609
 1056TIP3   OH2 3131   2.190   1.712   2.500
 1056TIP3    H1 3132   2.102   1.734   2.531
 1056TIP3    H2 3133   2.241   1.700   2.581
 1057TIP3   OH2 3134   6.217   3.673   2.380
 1057TIP3    H1 3135   6.206   3.749   2.323
 1057TIP3    H2 3136   6.165   3.604   2.339
 1058TIP3   OH2 3137   2.743   6.481   0.874
 1058TIP3    H1 3138   2.729   6.424   0.799
 1058TIP3    H2 3139   2.658   6.486   0.917
 1059TIP3   OH2 3140   6.933   0.227   0.880
 1059TIP3    H1 3141   6.972   0.235   0.967
 1059TIP3    H2 3142   6.842   0.202   0.897
 1060TIP3   OH2 3143   1.982   6.238   1.884
 1060TIP3    H1 3144   1.970   6.324   1.925
 1060TIP3    H2 3145   1.893   6.209   1.863
 1061TIP3   OH2 3146   4.297   0.755   1.356
 1061TIP3    H1 3147   4.352   0.816   1.308
 1061TIP3    H2 3148   4.325   0.669   1.327
 1062TIP3   OH2 3149   4.957   6.603   0.762
 1062TIP3    H1 3150   5.005   6.574   0.840
 1062TIP3    H2 3151   4.913   6.524   0.730
 1063TIP3   OH2 3152   2.085   3.667   0.894
 1063TIP3    H1 3153   2.012   3.699   0.842
 1063TIP3    H2 3154   2.128   3.602   0.839
 1064TIP3   OH2 3155   1.055   2.508   0.852
 1064TIP3    H1 3156   1.114   2.571   0.810
 1064TIP3    H2 3157   1.114   2.447   0.897
 1065TIP3   OH2 3158   7.011   5.684   4.184
 1065TIP3    H1 3159   6.974   5.651   4.101
 1065TIP3    H2 3160   7.068   5.756   4.158
 1066TIP3   OH2 3161   6.683   4.063   3.690
 1066TIP3    H1 3162   6.656   4.131   3.628
 1066TIP3    H2 3163   6.605   4.049   3.744
 1067TIP3   OH2 3164   6.110   3.251   5.194
 1067TIP3    H1 3165   6.117   3.186   5.264
 1067TIP3    H2 3166   6.195   3.295   5.194
 1068TIP3   OH2 3167   1.181   5.700   2.298
 1068TIP3    H1 3168   1.215   5.615   2.324
 1068TIP3    H2 3169   1.106   5.715   2.357
 1069TIP3   OH2 3170   6.630   4.685   3.805
 1069TIP3    H1 3171   6.711   4.669   3.757
 1069TIP3    H2 3172   6.612   4.602   3.849
 1070TIP3   OH2 3173   2.716   1.090   3.665
 1070TIP3    H1 3174   2.673   1.045   3.593
 1070TIP3    H2 3175   2.810   1.074   3.651
 1071TIP3   OH2 3176   3.650   3.925   1.393
 1071TIP3    H1 3177   3.649   4.007   1.441
 1071TIP3    H2 3178   3.656   3.951   1.301
 1072TIP3   OH2 3179   3.489   5.374   3.065
 1072TIP3    H1 3180   3.507   5.467   3.079
 1072TIP3    H2 3181   3.436   5.372   2.985
 1073TIP3   OH2 3182   2.258   1.049   4.761
 1073TIP3    H1 3183   2.184   1.004   4.800
 1073TIP3    H2 3184   2.329   1.039   4.825
 1074TIP3   OH2 3185   6.958   6.257   0.047
 1074TIP3    H1 3186   6.997   6.242  -0.040
 1074TIP3    H2 3187   6.908   6.177   0.064
 1075TIP3   OH2 3188   7.228   4.194   4.177
 1075TIP3    H1 3189   7.233   4.158   4.088
 1075TIP3    H2 3190   7.224   4.117   4.234
 1076TIP3   OH2 3191   2.967   1.289   4.601
 1076TIP3    H1 3192   2.989   1.197   4.618
 1076TIP3    H2 3193   2.883   1.302   4.645
 1077TIP3   OH2 3194   7.031   3.041   3.327
 1077TIP3    H1 3195   6.984   2.958   3.328
 1077TIP3    H2 3196   7.124   3.017   3.329
 1078TIP3   OH2 3197   4.524   2.702   4.784
 1078TIP3    H1 3198   4.591   2.633   4.787
 1078TIP3    H2 3199   4.443   2.655   4.765
 1079TIP3   OH2 3200   1.551   1.893   5.220
 1079TIP3    H1 3201   1.592   1.969   5.261
 1079TIP3    H2 3202   1.510   1.928   5.140
 1080TIP3   OH2 3203   1.698   1.399   2.031
 1080TIP3    H1 3204   1.638   1.325   2.044
 1080TIP3    H2 3205   1.669   1.465   2.094
 1081TIP3   OH2 3206   2.881   0.404   2.739
 1081TIP3    H1 3207   2.921   0.491   2.728
 1081TIP3    H2 3208   2.828   0.412   2.819
 1082TIP3   OH2 3209   7.162   4.302   5.767
 1082TIP3    H1 3210   7.207   4.382   5.739
 1082TIP3    H2 3211   7.231   4.236   5.772
 1083TIP3   OH2 3212   1.832   0.910   1.626
 1083TIP3    H1 3213   1.925   0.931   1.629
 1083TIP3    H2 3214   1.789   0.987   1.663
 1084TIP3   OH2 3215   4.163   4.717   2.344
 1084TIP3    H1 3216   4.070   4.704   2.328
 1084TIP3    H2 3217   4.187   4.649   2.407
 1085TIP3   OH2 3218   1.911   6.657   5.173
 1085TIP3    H1 3219   1.976   6.704   5.121
 1085TIP3    H2 3220   1.931   6.564   5.159
 1086TIP3   OH2 3221   5.591   5.904   1.886
 1086TIP3    H1 3222   5.672   5.853   1.886
 1086TIP3    H2 3223   5.533   5.857   1.826
 1087TIP3   OH2 3224   1.743   0.621   4.083
 1087TIP3    H1 3225   1.747   0.589   4.174
 1087TIP3    H2 3226   1.694   0.554   4.036
 1088TIP3   OH2 3227   1.942   4.769   1.400
 1088TIP3    H1 3228   2.005   4.697   1.407
 1088TIP3    H2 3229   1.909   4.781   1.489
 1089TIP3   OH2 3230   0.399   4.117   2.484
 1089TIP3    H1 3231   0.309   4.124   2.516
 1089TIP3    H2 3232   0.436   4.204   2.496
 1090TIP3   OH2 3233   3.647   2.337   0.283
 1090TIP3    H1 3234   3.670   2.247   0.304
 1090TIP3    H2 3235   3.649   2.340   0.187
 1091TIP3   OH2 3236   5.342   2.480   2.899
 1091TIP3    H1 3237   5.282   2.530   2.843
 1091TIP3    H2 3238   5.405   2.443   2.838
 1092TIP3   OH2 3239   1.164   3.233   3.586
 1092TIP3    H1 3240   1.094   3.285   3.546
 1092TIP3    H2 3241   1.135   3.220   3.677
 1093TIP3   OH2 3242   5.636   2.634   4.105
 1093TIP3    H1 3243   5.598   2.708   4.057
 1093TIP3    H2 3244   5.597   2.557   4.063
 1094TIP3   OH2 3245   2.202   5.468   3.082
 1094TIP3    H1 3246   2.110   5.473   3.055
 1094TIP3    H2 3247   2.237   5.393   3.034
 1095TIP3   OH2 3248   0.538   3.856   5.702
 1095TIP3    H1 3249   0.522   3.765   5.727
 1095TIP3    H2 3250   0.546   3.854   5.607
 1096TIP3   OH2 3251   3.553   0.261   5.065
 1096TIP3    H1 3252   3.609   0.209   5.123
 1096TIP3    H2 3253   3.496   0.310   5.124
 1097TIP3   OH2 3254   4.403   4.093   0.698
 1097TIP3    H1 3255   4.360   4.114   0.781
 1097TIP3    H2 3256   4.331   4.066   0.640
 1098TIP3   OH2 3257   5.982   6.216   1.754
 1098TIP3    H1 3258   5.942   6.283   1.809
 1098TIP3    H2 3259   5.962   6.134   1.798
 1099TIP3   OH2 3260   5.911   0.361   2.007
 1099TIP3    H1 3261   5.931   0.439   1.953
 1099TIP3    H2 3262   5.993   0.311   2.007
 1100TIP3   OH2 3263   0.660   5.779   1.150
 1100TIP3    H1 3264   0.621   5.822   1.226
 1100TIP3    H2 3265   0.745   5.748   1.181
 1101TIP3   OH2 3266   4.827   3.623   4.598
 1101TIP3    H1 3267   4.829   3.713   4.565
 1101TIP3    H2 3268   4.862   3.570   4.527
 1102TIP3   OH2 3269   0.222   0.398   3.719
 1102TIP3    H1 3270   0.160   0.350   3.663
 1102TIP3    H2 3271   0.205   0.365   3.807
 1103TIP3   OH2 3272   3.952   3.761   1.879
 1103TIP3    H1 3273   3.927   3.683   1.929
 1103TIP3    H2 3274   3.880   3.823   1.895
 1104TIP3   OH2 3275   6.089   0.337   0.173
 1104TIP3    H1 3276   6.014   0.282   0.198
 1104TIP3    H2 3277   6.052   0.401   0.112
 1105TIP3   OH2 3278   2.116   5.481   4.695
 1105TIP3    H1 3279   2.107   5.393   4.732
 1105TIP3    H2 3280   2.038   5.491   4.640
 1106TIP3   OH2 3281   2.038   1.176   2.218
 1106TIP3    H1 3282   1.971   1.109   2.203
 1106TIP3    H2 3283   2.042   1.225   2.136
 1107TIP3   OH2 3284   0.323   5.839   1.490
 1107TIP3    H1 3285   0.306   5.930   1.468
 1107TIP3    H2 3286   0.412   5.823   1.458
 1108TIP3   OH2 3287   6.783   4.355   5.162
 1108TIP3    H1 3288   6.786   4.446   5.191
 1108TIP3    H2 3289   6.838   4.353   5.084
 1109TIP3   OH2 3290   1.334   3.295   0.553
 1109TIP3    H1 3291   1.382   3.309   0.472
 1109TIP3    H2 3292   1.250   3.259   0.526
 1110TIP3   OH2 3293   2.320   0.745   5.768
 1110TIP3    H1 3294   2.228   0.758   5.793
 1110TIP3    H2 3295   2.370   0.775   5.844
 1111TIP3   OH2 3296   4.313   0.089   1.632
 1111TIP3    H1 3297   4.365   0.139   1.694
 1111TIP3    H2 3298   4.283   0.013   1.681
 1112TIP3   OH2 3299   6.825   5.046   3.303
 1112TIP3    H1 3300   6.763   5.119   3.298
 1112TIP3    H2 3301   6.786   4.976   3.252
 1113TIP3   OH2 3302   6.176   6.617   5.629
 1113TIP3    H1 3303   6.083   6.621   5.650
 1113TIP3    H2 3304   6.213   6.558   5.695
 1114TIP3   OH2 3305   1.958   5.701   3.578
 1114TIP3    H1 3306   1.874   5.699   3.623
 1114TIP3    H2 3307   1.985   5.793   3.581
 1115TIP3   OH2 3308   3.887   3.552   0.361
 1115TIP3    H1 3309   3.917   3.464   0.380
 1115TIP3    H2 3310   3.930   3.607   0.427
 1116TIP3   OH2 3311   0.182   5.187   0.318
 1116TIP3    H1 3312   0.147   5.106   0.279
 1116TIP3    H2 3313   0.179   5.171   0.412
 1117TIP3   OH2 3314   4.821   0.338   0.498
 1117TIP3    H1 3315   4.817   0.243   0.511
 1117TIP3    H2 3316   4.914   0.357   0.491
 1118TIP3   OH2 3317   5.157   0.389   4.867
 1118TIP3    H1 3318   5.124   0.394   4.957
 1118TIP3    H2 3319   5.251   0.403   4.876
 1119TIP3   OH2 3320   5.081   3.243   2.317
 1119TIP3    H1 3321   4.993   3.276   2.333
 1119TIP3    H2 3322   5.138   3.304   2.364
 1120TIP3   OH2 3323   6.353   1.416   5.103
 1120TIP3    H1 3324   6.361   1.333   5.150
 1120TIP3    H2 3325   6.419   1.473   5.142
 1121TIP3   OH2 3326   7.032   3.901   5.350
 1121TIP3    H1 3327   7.103   3.925   5.409
 1121TIP3    H2 3328   7.020   3.807   5.363
 1122TIP3   OH2 3329   7.199   3.330   3.930
 1122TIP3    H1 3330   7.176   3.239   3.914
 1122TIP3    H2 3331   7.128   3.380   3.889
 1123TIP3   OH2 3332   4.180   6.630   3.638
 1123TIP3    H1 3333   4.188   6.650   3.731
 1123TIP3    H2 3334   4.087   6.616   3.624
 1124TIP3   OH2 3335   5.805   2.852   5.849
 1124TIP3    H1 3336   5.720   2.807   5.846
 1124TIP3    H2 3337   5.867   2.787   5.816
 1125TIP3   OH2 3338   0.837   6.298   0.275
 1125TIP3    H1 3339   0.765   6.354   0.246
 1125TIP3    H2 3340   0.801   6.209   0.271
 1126TIP3   OH2 3341   4.864   0.451   4.527
 1126TIP3    H1 3342   4.865   0.361   4.494
 1126TIP3    H2 3343   4.948   0.461   4.571
 1127TIP3   OH2 3344   3.993   6.189   0.187
 1127TIP3    H1 3345   4.004   6.094   0.184
 1127TIP3    H2 3346   3.994   6.210   0.280
 1128TIP3   OH2 3347   5.671   1.874   1.565
 1128TIP3    H1 3348   5.581   1.853   1.539
 1128TIP3    H2 3349   5.702   1.795   1.609
 1129TIP3   OH2 3350   5.900   4.672   0.149
 1129TIP3    H1 3351   5.870   4.619   0.223
 1129TIP3    H2 3352   5.996   4.667   0.153
 1130TIP3   OH2 3353   4.597   0.210   0.152
 1130TIP3    H1 3354   4.510   0.235   0.121
 1130TIP3    H2 3355   4.656   0.233   0.080
 1131TIP3   OH2 3356   3.270   0.937   4.077
 1131TIP3    H1 3357   3.187   0.956   4.035
 1131TIP3    H2 3358   3.331   1.003   4.043
 1132TIP3   OH2 3359   7.017   3.469   3.768
 1132TIP3    H1 3360   6.949   3.508   3.823
 1132TIP3    H2 3361   6.994   3.497   3.679
 1133TIP3   OH2 3362   0.822   1.747   5.457
 1133TIP3    H1 3363   0.828   1.720   5.365
 1133TIP3    H2 3364   0.788   1.670   5.502
 1134TIP3   OH2 3365   3.694   3.153   1.978
 1134TIP3    H1 3366   3.710   3.088   1.910
 1134TIP3    H2 3367   3.773   3.151   2.032
 1135TIP3   OH2 3368   0.563   0.559   2.477
 1135TIP3    H1 3369   0.478   0.579   2.516
 1135TIP3    H2 3370   0.600   0.644   2.454
 1136TIP3   OH2 3371   6.914   2.568   1.880
 1136TIP3    H1 3372   6.929   2.474   1.874
 1136TIP3    H2 3373   6.819   2.578   1.873
 1137TIP3   OH2 3374   4.408   3.141   5.820
 1137TIP3    H1 3375   4.340   3.082   5.853
 1137TIP3    H2 3376   4.483   3.084   5.803
 1138TIP3   OH2 3377   1.305   4.227   0.422
 1138TIP3    H1 3378   1.255   4.278   0.486
 1138TIP3    H2 3379   1.326   4.145   0.467
 1139TIP3   OH2 3380   2.460   4.142   2.615
 1139TIP3    H1 3381   2.538   4.154   2.561
 1139TIP3    H2 3382   2.490   4.088   2.689
 1140TIP3   OH2 3383   0.020   0.749   5.027
 1140TIP3    H1 3384   0.019   0.787   5.115
 1140TIP3    H2 3385   0.029   0.824   4.968
 1141TIP3   OH2 3386   1.332   0.042   4.387
 1141TIP3    H1 3387   1.363   0.111   4.445
 1141TIP3    H2 3388   1.409   0.014   4.339
 1142TIP3   OH2 3389   3.878   6.539   5.610
 1142TIP3    H1 3390   3.816   6.613   5.615
 1142TIP3    H2 3391   3.822   6.463   5.591
 1143TIP3   OH2 3392   0.722   2.559   4.306
 1143TIP3    H1 3393   0.737   2.571   4.400
 1143TIP3    H2 3394   0.644   2.504   4.301
 1144TIP3   OH2 3395   5.054   3.571   3.146
 1144TIP3    H1 3396   4.973   3.581   3.194
 1144TIP3    H2 3397   5.044   3.628   3.069
 1145TIP3   OH2 3398   2.577   6.752   5.182
 1145TIP3    H1 3399   2.626   6.700   5.246
 1145TIP3    H2 3400   2.499   6.780   5.229
 1146TIP3   OH2 3401   7.124   4.560   0.032
 1146TIP3    H1 3402   7.117   4.465   0.042
 1146TIP3    H2 3403   7.090   4.577  -0.056
 1147TIP3   OH2 3404   6.452   1.644   2.221
 1147TIP3    H1 3405   6.390   1.623   2.291
 1147TIP3    H2 3406   6.535   1.608   2.251
 1148TIP3   OH2 3407   5.659   0.054   4.588
 1148TIP3    H1 3408   5.610   0.071   4.668
 1148TIP3    H2 3409   5.670  -0.041   4.586
 1149TIP3   OH2 3410   1.148   4.271   5.907
 1149TIP3    H1 3411   1.148   4.175   5.916
 1149TIP3    H2 3412   1.219   4.300   5.964
 1150TIP3   OH2 3413   4.630   0.828   3.462
 1150TIP3    H1 3414   4.596   0.778   3.388
 1150TIP3    H2 3415   4.724   0.835   3.446
 1151TIP3   OH2 3416   5.579   5.076   5.813
 1151TIP3    H1 3417   5.651   5.096   5.754
 1151TIP3    H2 3418   5.563   5.159   5.860
 1152TIP3   OH2 3419   1.921   4.858   5.510
 1152TIP3    H1 3420   1.861   4.924   5.474
 1152TIP3    H2 3421   1.920   4.874   5.605
 1153TIP3   OH2 3422   6.022   4.922   5.687
 1153TIP3    H1 3423   6.090   4.971   5.733
 1153TIP3    H2 3424   5.944   4.978   5.693
 1154TIP3   OH2 3425   1.548   2.982   2.953
 1154TIP3    H1 3426   1.481   2.953   3.016
 1154TIP3    H2 3427   1.629   2.984   3.003
 1155TIP3   OH2 3428   3.665   4.020   5.509
 1155TIP3    H1 3429   3.588   4.036   5.563
 1155TIP3    H2 3430   3.717   3.957   5.560
 1156TIP3   OH2 3431   0.809   6.219   3.172
 1156TIP3    H1 3432   0.787   6.252   3.260
 1156TIP3    H2 3433   0.876   6.153   3.188
 1157TIP3   OH2 3434   1.335   0.194   2.215
 1157TIP3    H1 3435   1.272   0.139   2.261
 1157TIP3    H2 3436   1.367   0.140   2.143
 1158TIP3   OH2 3437   0.730   0.902   0.540
 1158TIP3    H1 3438   0.821   0.871   0.532
 1158TIP3    H2 3439   0.725   0.938   0.629
 1159TIP3   OH2 3440   1.097   4.535   3.525
 1159TIP3    H1 3441   1.054   4.612   3.489
 1159TIP3    H2 3442   1.153   4.568   3.594
 1160TIP3   OH2 3443   6.073   0.911   4.775
 1160TIP3    H1 3444   6.104   0.929   4.686
 1160TIP3    H2 3445   6.125   0.970   4.831
 1161TIP3   OH2 3446   0.344   5.723   3.812
 1161TIP3    H1 3447   0.405   5.668   3.862
 1161TIP3    H2 3448   0.268   5.732   3.870
 1162TIP3   OH2 3449   4.545   0.035   5.788
 1162TIP3    H1 3450   4.541   0.053   5.881
 1162TIP3    H2 3451   4.546   0.122   5.747
 1163TIP3   OH2 3452   2.065   3.646   1.641
 1163TIP3    H1 3453   2.148   3.623   1.599
 1163TIP3    H2 3454   2.062   3.593   1.721
 1164TIP3   OH2 3455   3.708   6.181   0.393
 1164TIP3    H1 3456   3.633   6.142   0.439
 1164TIP3    H2 3457   3.709   6.137   0.308
 1165TIP3   OH2 3458   2.778   4.544   5.324
 1165TIP3    H1 3459   2.766   4.475   5.258
 1165TIP3    H2 3460   2.823   4.614   5.276
 1166TIP3   OH2 3461   5.732   6.035   0.738
 1166TIP3    H1 3462   5.757   6.022   0.830
 1166TIP3    H2 3463   5.653   5.982   0.727
 1167TIP3   OH2 3464   5.159   3.388   2.724
 1167TIP3    H1 3465   5.109   3.453   2.675
 1167TIP3    H2 3466   5.211   3.439   2.786
 1168TIP3   OH2 3467   0.053   3.652   5.297
 1168TIP3    H1 3468  -0.019   3.634   5.235
 1168TIP3    H2 3469   0.094   3.731   5.264
 1169TIP3   OH2 3470   6.849   2.748   4.705
 1169TIP3    H1 3471   6.778   2.798   4.745
 1169TIP3    H2 3472   6.820   2.733   4.615
 1170TIP3   OH2 3473   1.532   5.672   1.691
 1170TIP3    H1 3474   1.448   5.677   1.737
 1170TIP3    H2 3475   1.515   5.614   1.617
 1171TIP3   OH2 3476   1.211   3.072   2.291
 1171TIP3    H1 3477   1.260   3.109   2.366
 1171TIP3    H2 3478   1.225   3.135   2.221
 1172TIP3   OH2 3479   5.237   0.246   3.477
 1172TIP3    H1 3480   5.226   0.313   3.544
 1172TIP3    H2 3481   5.149   0.216   3.457
 1173TIP3   OH2 3482   5.483   5.423   5.304
 1173TIP3    H1 3483   5.499   5.365   5.379
 1173TIP3    H2 3484   5.459   5.364   5.232
 1174TIP3   OH2 3485   1.050   5.038   2.669
 1174TIP3    H1 3486   1.041   4.944   2.684
 1174TIP3    H2 3487   0.970   5.076   2.708
 1175TIP3   OH2 3488   1.692   0.508   3.800
 1175TIP3    H1 3489   1.708   0.435   3.861
 1175TIP3    H2 3490   1.621   0.476   3.744
 1176TIP3   OH2 3491   1.322   6.072   4.272
 1176TIP3    H1 3492   1.258   6.050   4.340
 1176TIP3    H2 3493   1.378   6.139   4.312
 1177TIP3   OH2 3494   1.194   3.686   1.703
 1177TIP3    H1 3495   1.237   3.603   1.680
 1177TIP3    H2 3496   1.249   3.753   1.663
 1178TIP3   OH2 3497   6.967   0.176   4.590
 1178TIP3    H1 3498   7.063   0.175   4.598
 1178TIP3    H2 3499   6.937   0.238   4.656
 1179TIP3   OH2 3500   1.805   1.918   3.662
 1179TIP3    H1 3501   1.812   2.002   3.616
 1179TIP3    H2 3502   1.895   1.885   3.665
 1180TIP3   OH2 3503   6.928   6.707   2.420
 1180TIP3    H1 3504   6.921   6.660   2.503
 1180TIP3    H2 3505   7.009   6.757   2.428
 1181TIP3   OH2 3506   4.444   3.831   3.962
 1181TIP3    H1 3507   4.380   3.762   3.976
 1181TIP3    H2 3508   4.506   3.795   3.899
 1182TIP3   OH2 3509   4.064   6.262   0.466
 1182TIP3    H1 3510   4.136   6.317   0.435
 1182TIP3    H2 3511   4.001   6.324   0.503
 1183TIP3   OH2 3512   0.702   3.362   3.252
 1183TIP3    H1 3513   0.611   3.334   3.249
 1183TIP3    H2 3514   0.727   3.374   3.161
 1184TIP3   OH2 3515   1.636   2.940   4.834
 1184TIP3    H1 3516   1.608   2.988   4.756
 1184TIP3    H2 3517   1.555   2.922   4.882
 1185TIP3   OH2 3518   6.878   6.787   0.556
 1185TIP3    H1 3519   6.794   6.826   0.578
 1185TIP3    H2 3520   6.900   6.821   0.470
 1186TIP3   OH2 3521   1.052   0.109   2.670
 1186TIP3    H1 3522   1.010   0.024   2.684
 1186TIP3    H2 3523   1.135   0.102   2.716
 1187TIP3   OH2 3524   5.327   1.028   0.094
 1187TIP3    H1 3525   5.386   1.099   0.118
 1187TIP3    H2 3526   5.272   1.015   0.171
 1188TIP3   OH2 3527   0.085   6.830   0.718
 1188TIP3    H1 3528   0.065   6.740   0.691
 1188TIP3    H2 3529   0.051   6.884   0.647
 1189TIP3   OH2 3530   1.284   0.084   3.197
 1189TIP3    H1 3531   1.307   0.116   3.285
 1189TIP3    H2 3532   1.284   0.163   3.143
 1190TIP3   OH2 3533   4.999   5.880   4.844
 1190TIP3    H1 3534   4.975   5.918   4.760
 1190TIP3    H2 3535   5.043   5.951   4.891
 1191TIP3   OH2 3536   1.145   3.151   1.877
 1191TIP3    H1 3537   1.159   3.179   1.787
 1191TIP3    H2 3538   1.058   3.111   1.877
 1192TIP3   OH2 3539   0.309   4.566   0.350
 1192TIP3    H1 3540   0.290   4.588   0.259
 1192TIP3    H2 3541   0.236   4.604   0.400
 1193TIP3   OH2 3542   4.547   6.838   1.590
 1193TIP3    H1 3543   4.583   6.878   1.669
 1193TIP3    H2 3544   4.558   6.744   1.603
 1194TIP3   OH2 3545   2.443   6.392   0.893
 1194TIP3    H1 3546   2.480   6.391   0.804
 1194TIP3    H2 3547   2.428   6.300   0.913
 1195TIP3   OH2 3548   6.436   3.272   1.400
 1195TIP3    H1 3549   6.399   3.212   1.465
 1195TIP3    H2 3550   6.471   3.344   1.452
 1196TIP3   OH2 3551   0.213   4.601   4.708
 1196TIP3    H1 3552   0.149   4.599   4.780
 1196TIP3    H2 3553   0.162   4.581   4.630
 1197TIP3   OH2 3554   4.033   2.251   1.356
 1197TIP3    H1 3555   4.059   2.227   1.444
 1197TIP3    H2 3556   3.947   2.293   1.366
 1198TIP3   OH2 3557   0.290   0.941   0.336
 1198TIP3    H1 3558   0.203   0.958   0.373
 1198TIP3    H2 3559   0.333   0.885   0.401
 1199TIP3   OH2 3560   5.139   2.965   0.821
 1199TIP3    H1 3561   5.076   2.988   0.890
 1199TIP3    H2 3562   5.158   2.872   0.836
 1200TIP3   OH2 3563   3.297   4.280   5.603
 1200TIP3    H1 3564   3.255   4.366   5.606
 1200TIP3    H2 3565   3.385   4.295   5.638
 1201TIP3   OH2 3566   4.006   5.226   1.609
 1201TIP3    H1 3567   4.008   5.207   1.515
 1201TIP3    H2 3568   4.088   5.273   1.625
 1202TIP3   OH2 3569   6.025   2.716   0.339
 1202TIP3    H1 3570   6.026   2.745   0.430
 1202TIP3    H2 3571   6.041   2.622   0.343
 1203TIP3   OH2 3572   4.118   1.398   1.229
 1203TIP3    H1 3573   4.120   1.465   1.298
 1203TIP3    H2 3574   4.173   1.434   1.160
 1204TIP3   OH2 3575   0.731   1.883   1.460
 1204TIP3    H1 3576   0.716   1.829   1.538
 1204TIP3    H2 3577   0.764   1.966   1.495
 1205TIP3   OH2 3578   3.785   0.915   0.393
 1205TIP3    H1 3579   3.754   0.863   0.319
 1205TIP3    H2 3580   3.713   0.912   0.456
 1206TIP3   OH2 3581   2.335   6.408   2.909
 1206TIP3    H1 3582   2.310   6.498   2.886
 1206TIP3    H2 3583   2.401   6.385   2.843
 1207TIP3   OH2 3584   2.257   1.791   4.568
 1207TIP3    H1 3585   2.197   1.740   4.623
 1207TIP3    H2 3586   2.330   1.731   4.552
 1208TIP3   OH2 3587   6.654   1.905   1.776
 1208TIP3    H1 3588   6.660   1.889   1.870
 1208TIP3    H2 3589   6.561   1.894   1.756
 1209TIP3   OH2 3590   2.473   5.801   4.170
 1209TIP3    H1 3591   2.429   5.845   4.097
 1209TIP3    H2 3592   2.566   5.807   4.150
 1210TIP3   OH2 3593   4.110   4.740   2.055
 1210TIP3    H1 3594   4.017   4.717   2.062
 1210TIP3    H2 3595   4.138   4.753   2.145
 1211TIP3   OH2 3596   6.266   5.283   1.382
 1211TIP3    H1 3597   6.349   5.321   1.350
 1211TIP3    H2 3598   6.208   5.359   1.393
 1212TIP3   OH2 3599   6.461   0.580   4.442
 1212TIP3    H1 3600   6.390   0.593   4.504
 1212TIP3    H2 3601   6.539   0.571   4.496
 1213TIP3   OH2 3602   5.054   6.721   3.069
 1213TIP3    H1 3603   5.131   6.670   3.045
 1213TIP3    H2 3604   5.031   6.689   3.157
 1214TIP3   OH2 3605   7.141   1.526   5.339
 1214TIP3    H1 3606   7.142   1.621   5.348
 1214TIP3    H2 3607   7.221   1.505   5.291
 1215TIP3   OH2 3608   4.916   6.595   1.152
 1215TIP3    H1 3609   4.917   6.500   1.140
 1215TIP3    H2 3610   4.969   6.609   1.231
 1216TIP3   OH2 3611   2.297   4.645   0.563
 1216TIP3    H1 3612   2.373   4.604   0.521
 1216TIP3    H2 3613   2.314   4.635   0.657
 1217TIP3   OH2 3614   6.687   6.199   3.040
 1217TIP3    H1 3615   6.628   6.275   3.038
 1217TIP3    H2 3616   6.634   6.129   3.076
 1218TIP3   OH2 3617   1.834   2.007   2.105
 1218TIP3    H1 3618   1.894   2.068   2.063
 1218TIP3    H2 3619   1.800   2.055   2.181
 1219TIP3   OH2 3620   6.860   3.515   5.699
 1219TIP3    H1 3621   6.869   3.562   5.616
 1219TIP3    H2 3622   6.783   3.461   5.688
 1220TIP3   OH2 3623   1.281   1.663   0.783
 1220TIP3    H1 3624   1.208   1.602   0.773
 1220TIP3    H2 3625   1.284   1.682   0.877
 1221TIP3   OH2 3626   6.067   1.510   2.958
 1221TIP3    H1 3627   6.161   1.521   2.944
 1221TIP3    H2 3628   6.049   1.423   2.923
 1222TIP3   OH2 3629   3.025   1.725   2.295
 1222TIP3    H1 3630   3.101   1.690   2.341
 1222TIP3    H2 3631   2.950   1.694   2.346
 1223TIP3   OH2 3632   5.773   2.762   5.069
 1223TIP3    H1 3633   5.682   2.733   5.080
 1223TIP3    H2 3634   5.788   2.823   5.142
 1224TIP3   OH2 3635   2.459   5.244   3.596
 1224TIP3    H1 3636   2.453   5.340   3.591
 1224TIP3    H2 3637   2.372   5.214   3.571
 1225TIP3   OH2 3638   5.585   3.407   1.268
 1225TIP3    H1 3639   5.581   3.329   1.323
 1225TIP3    H2 3640   5.679   3.425   1.259
 1226TIP3   OH2 3641   5.545   1.813   3.581
 1226TIP3    H1 3642   5.619   1.866   3.612
 1226TIP3    H2 3643   5.469   1.871   3.589
 1227TIP3   OH2 3644   4.187   6.341   0.028
 1227TIP3    H1 3645   4.208   6.323  -0.064
 1227TIP3    H2 3646   4.097   6.309   0.039
 1228TIP3   OH2 3647   1.177   0.289   5.098
 1228TIP3    H1 3648   1.252   0.242   5.062
 1228TIP3    H2 3649   1.102   0.258   5.046
 1229TIP3   OH2 3650   3.489   0.107   0.362
 1229TIP3    H1 3651   3.467   0.066   0.278
 1229TIP3    H2 3652   3.476   0.200   0.348
 1230TIP3   OH2 3653   3.125   0.870   5.181
 1230TIP3    H1 3654   3.123   0.862   5.276
 1230TIP3    H2 3655   3.059   0.936   5.161
 1231TIP3   OH2 3656   5.818   1.562   2.843
 1231TIP3    H1 3657   5.856   1.646   2.815
 1231TIP3    H2 3658   5.886   1.522   2.897
 1232TIP3   OH2 3659   3.905   0.509   1.529
 1232TIP3    H1 3660   3.858   0.566   1.468
 1232TIP3    H2 3661   3.962   0.456   1.474
 1233TIP3   OH2 3662   2.857   6.141   4.621
 1233TIP3    H1 3663   2.918   6.077   4.657
 1233TIP3    H2 3664   2.828   6.191   4.697
 1234TIP3   OH2 3665   0.452   0.586   4.134
 1234TIP3    H1 3666   0.466   0.674   4.168
 1234TIP3    H2 3667   0.416   0.599   4.047
 1235TIP3   OH2 3668   1.398   0.972   1.842
 1235TIP3    H1 3669   1.352   0.991   1.760
 1235TIP3    H2 3670   1.339   1.002   1.911
 1236TIP3   OH2 3671   3.372   6.478   5.704
 1236TIP3    H1 3672   3.432   6.503   5.774
 1236TIP3    H2 3673   3.318   6.556   5.689
 1237TIP3   OH2 3674   1.590   0.078   4.242
 1237TIP3    H1 3675   1.619   0.155   4.291
 1237TIP3    H2 3676   1.658   0.012   4.258
 1238TIP3   OH2 3677   0.942   1.555   4.634
 1238TIP3    H1 3678   1.015   1.546   4.696
 1238TIP3    H2 3679   0.932   1.650   4.624
 1239TIP3   OH2 3680   3.696   3.857   1.930
 1239TIP3    H1 3681   3.725   3.946   1.910
 1239TIP3    H2 3682   3.603   3.865   1.949
 1240TIP3   OH2 3683   3.947   5.403   1.954
 1240TIP3    H1 3684   3.902   5.405   1.869
 1240TIP3    H2 3685   3.974   5.312   1.965
 1241TIP3   OH2 3686   0.528   3.092   1.156
 1241TIP3    H1 3687   0.573   3.172   1.184
 1241TIP3    H2 3688   0.489   3.114   1.072
 1242TIP3   OH2 3689   6.519   4.867   4.082
 1242TIP3    H1 3690   6.602   4.909   4.058
 1242TIP3    H2 3691   6.533   4.774   4.061
 1243TIP3   OH2 3692   4.465   2.172   2.482
 1243TIP3    H1 3693   4.425   2.259   2.479
 1243TIP3    H2 3694   4.516   2.167   2.401
 1244TIP3   OH2 3695   6.674   1.588   1.680
 1244TIP3    H1 3696   6.751   1.627   1.639
 1244TIP3    H2 3697   6.706   1.507   1.720
 1245TIP3   OH2 3698   3.302   2.900   0.014
 1245TIP3    H1 3699   3.309   2.816   0.058
 1245TIP3    H2 3700   3.280   2.963   0.083
 1246TIP3   OH2 3701   3.525   4.614   1.505
 1246TIP3    H1 3702   3.573   4.566   1.573
 1246TIP3    H2 3703   3.530   4.706   1.533
 1247TIP3   OH2 3704   3.986   5.210   1.324
 1247TIP3    H1 3705   3.941   5.133   1.288
 1247TIP3    H2 3706   4.066   5.217   1.273
 1248TIP3   OH2 3707   3.499   2.055   5.139
 1248TIP3    H1 3708   3.581   2.034   5.095
 1248TIP3    H2 3709   3.503   2.007   5.221
 1249TIP3   OH2 3710   6.169   1.714   1.579
 1249TIP3    H1 3711   6.128   1.628   1.574
 1249TIP3    H2 3712   6.158   1.752   1.491
 1250TIP3   OH2 3713   2.154   0.729   2.054
 1250TIP3    H1 3714   2.202   0.807   2.029
 1250TIP3    H2 3715   2.068   0.761   2.082
 1251TIP3   OH2 3716   0.081   3.079   0.065
 1251TIP3    H1 3717  -0.009   3.050   0.082
 1251TIP3    H2 3718   0.073   3.145  -0.004
 1252TIP3   OH2 3719   1.742   1.658   4.545
 1252TIP3    H1 3720   1.743   1.587   4.480
 1252TIP3    H2 3721   1.663   1.643   4.596
 1253TIP3   OH2 3722   3.805   1.455   5.187
 1253TIP3    H1 3723   3.878   1.421   5.136
 1253TIP3    H2 3724   3.728   1.444   5.130
 1254TIP3   OH2 3725   2.134   3.852   2.269
 1254TIP3    H1 3726   2.045   3.828   2.297
 1254TIP3    H2 3727   2.189   3.832   2.344
 1255TIP3   OH2 3728   5.969   4.787   0.563
 1255TIP3    H1 3729   5.949   4.848   0.635
 1255TIP3    H2 3730   6.007   4.711   0.607
 1256TIP3   OH2 3731   2.245   3.541   1.287
 1256TIP3    H1 3732   2.309   3.470   1.294
 1256TIP3    H2 3733   2.187   3.514   1.216
 1257TIP3   OH2 3734   2.027   5.764   0.161
 1257TIP3    H1 3735   2.018   5.699   0.091
 1257TIP3    H2 3736   1.941   5.768   0.202
 1258TIP3   OH2 3737   5.359   5.437   4.978
 1258TIP3    H1 3738   5.294   5.480   5.033
 1258TIP3    H2 3739   5.341   5.344   4.988
 1259TIP3   OH2 3740   6.685   5.290   3.424
 1259TIP3    H1 3741   6.656   5.281   3.333
 1259TIP3    H2 3742   6.746   5.364   3.422
 1260TIP3   OH2 3743   7.192   6.481   2.411
 1260TIP3    H1 3744   7.128   6.519   2.472
 1260TIP3    H2 3745   7.222   6.401   2.455
 1261TIP3   OH2 3746   5.385   0.983   0.866
 1261TIP3    H1 3747   5.341   1.053   0.817
 1261TIP3    H2 3748   5.426   1.028   0.940
 1262TIP3   OH2 3749   3.578   1.777   3.157
 1262TIP3    H1 3750   3.500   1.768   3.212
 1262TIP3    H2 3751   3.548   1.827   3.081
 1263TIP3   OH2 3752   3.987   5.746   1.883
 1263TIP3    H1 3753   3.935   5.794   1.947
 1263TIP3    H2 3754   4.076   5.749   1.918
 1264TIP3   OH2 3755   5.609   1.417   5.725
 1264TIP3    H1 3756   5.588   1.324   5.716
 1264TIP3    H2 3757   5.694   1.418   5.769
 1265TIP3   OH2 3758   7.176   2.721   2.566
 1265TIP3    H1 3759   7.117   2.795   2.581
 1265TIP3    H2 3760   7.143   2.680   2.487
 1266TIP3   OH2 3761   3.228   0.240   1.110
 1266TIP3    H1 3762   3.249   0.235   1.204
 1266TIP3    H2 3763   3.300   0.194   1.068
 1267TIP3   OH2 3764   0.655   6.424   2.105
 1267TIP3    H1 3765   0.617   6.512   2.108
 1267TIP3    H2 3766   0.599   6.372   2.162
 1268TIP3   OH2 3767   6.868   2.949   3.916
 1268TIP3    H1 3768   6.851   2.870   3.967
 1268TIP3    H2 3769   6.803   2.947   3.846
 1269TIP3   OH2 3770   3.497   1.319   4.509
 1269TIP3    H1 3771   3.478   1.352   4.596
 1269TIP3    H2 3772   3.560   1.381   4.473
 1270TIP3   OH2 3773   2.168   5.263   2.835
 1270TIP3    H1 3774   2.129   5.350   2.827
 1270TIP3    H2 3775   2.094   5.203   2.839
 1271TIP3   OH2 3776   4.275   4.161   1.748
 1271TIP3    H1 3777   4.214   4.221   1.791
 1271TIP3    H2 3778   4.225   4.081   1.734
 1272TIP3   OH2 3779   5.720   6.005   4.294
 1272TIP3    H1 3780   5.800   6.044   4.329
 1272TIP3    H2 3781   5.715   5.918   4.334
 1273TIP3   OH2 3782   6.477   1.825   0.159
 1273TIP3    H1 3783   6.444   1.896   0.104
 1273TIP3    H2 3784   6.571   1.827   0.146
 1274TIP3   OH2 3785   6.115   1.623   2.041
 1274TIP3    H1 3786   6.099   1.553   1.978
 1274TIP3    H2 3787   6.069   1.595   2.121
 1275TIP3   OH2 3788   1.630   0.901   5.745
 1275TIP3    H1 3789   1.613   0.993   5.761
 1275TIP3    H2 3790   1.565   0.875   5.679
 1276TIP3   OH2 3791   4.255   0.358   2.329
 1276TIP3    H1 3792   4.181   0.302   2.306
 1276TIP3    H2 3793   4.301   0.371   2.246
 1277TIP3   OH2 3794   5.631   5.991   1.445
 1277TIP3    H1 3795   5.626   6.043   1.364
 1277TIP3    H2 3796   5.624   6.055   1.515
 1278TIP3   OH2 3797   1.098   6.311   5.040
 1278TIP3    H1 3798   1.096   6.399   5.003
 1278TIP3    H2 3799   1.032   6.312   5.108
 1279TIP3   OH2 3800   1.006   1.839   4.492
 1279TIP3    H1 3801   1.088   1.888   4.500
 1279TIP3    H2 3802   1.032   1.754   4.456
 1280TIP3   OH2 3803   1.086  -0.007   4.253
 1280TIP3    H1 3804   1.158   0.029   4.305
 1280TIP3    H2 3805   1.101   0.029   4.165
 1281TIP3   OH2 3806   1.537   5.081   3.825
 1281TIP3    H1 3807   1.533   4.987   3.810
 1281TIP3    H2 3808   1.492   5.094   3.908
 1282TIP3   OH2 3809   4.696   3.284   5.603
 1282TIP3    H1 3810   4.789   3.282   5.584
 1282TIP3    H2 3811   4.656   3.320   5.524
 1283TIP3   OH2 3812   2.505   0.169   5.125
 1283TIP3    H1 3813   2.509   0.102   5.193
 1283TIP3    H2 3814   2.561   0.136   5.055
 1284TIP3   OH2 3815   0.557   3.465   1.821
 1284TIP3    H1 3816   0.481   3.523   1.815
 1284TIP3    H2 3817   0.541   3.398   1.754
 1285TIP3   OH2 3818   5.519   3.635   1.907
 1285TIP3    H1 3819   5.570   3.570   1.859
 1285TIP3    H2 3820   5.458   3.583   1.960
 1286TIP3   OH2 3821   2.862   6.045   4.343
 1286TIP3    H1 3822   2.817   5.971   4.384
 1286TIP3    H2 3823   2.955   6.029   4.361
 1287TIP3   OH2 3824   1.091   6.738   3.618
 1287TIP3    H1 3825   1.006   6.748   3.660
 1287TIP3    H2 3826   1.154   6.770   3.683
 1288TIP3   OH2 3827   4.647   3.169   2.887
 1288TIP3    H1 3828   4.667   3.083   2.923
 1288TIP3    H2 3829   4.651   3.228   2.962
 1289TIP3   OH2 3830   0.806   0.587   1.493
 1289TIP3    H1 3831   0.712   0.587   1.475
 1289TIP3    H2 3832   0.843   0.647   1.427
 1290TIP3   OH2 3833   1.735   1.371   4.011
 1290TIP3    H1 3834   1.781   1.453   3.996
 1290TIP3    H2 3835   1.707   1.343   3.924
 1291TIP3   OH2 3836   5.700   0.695   0.308
 1291TIP3    H1 3837   5.674   0.659   0.223
 1291TIP3    H2 3838   5.664   0.783   0.310
 1292TIP3   OH2 3839   2.438   2.343   2.653
 1292TIP3    H1 3840   2.408   2.252   2.658
 1292TIP3    H2 3841   2.432   2.375   2.742
 1293TIP3   OH2 3842   0.888   6.151   2.294
 1293TIP3    H1 3843   0.796   6.144   2.268
 1293TIP3    H2 3844   0.935   6.173   2.214
 1294TIP3   OH2 3845   4.387   4.560   4.581
 1294TIP3    H1 3846   4.304   4.540   4.537
 1294TIP3    H2 3847   4.406   4.650   4.558
 1295TIP3   OH2 3848   6.497   5.049   5.189
 1295TIP3    H1 3849   6.573   4.992   5.180
 1295TIP3    H2 3850   6.455   5.020   5.270
 1296TIP3   OH2 3851   6.430   6.345   3.035
 1296TIP3    H1 3852   6.341   6.316   3.051
 1296TIP3    H2 3853   6.441   6.339   2.940
 1297TIP3   OH2 3854   3.877   6.317   1.928
 1297TIP3    H1 3855   3.834   6.243   1.885
 1297TIP3    H2 3856   3.832   6.394   1.894
 1298TIP3   OH2 3857   5.004   4.453   5.433
 1298TIP3    H1 3858   5.034   4.530   5.481
 1298TIP3    H2 3859   4.948   4.489   5.364
 1299TIP3   OH2 3860   4.751   4.803   5.613
 1299TIP3    H1 3861   4.724   4.717   5.644
 1299TIP3    H2 3862   4.670   4.846   5.588
 1300TIP3   OH2 3863   3.833   0.278   0.773
 1300TIP3    H1 3864   3.786   0.267   0.855
 1300TIP3    H2 3865   3.861   0.370   0.774
 1301TIP3   OH2 3866   1.823   4.888   4.482
 1301TIP3    H1 3867   1.910   4.879   4.520
 1301TIP3    H2 3868   1.825   4.833   4.403
 1302TIP3   OH2 3869   1.559   1.955   2.005
 1302TIP3    H1 3870   1.514   1.951   2.090
 1302TIP3    H2 3871   1.638   2.005   2.023
 1303TIP3   OH2 3872   5.381   1.259   2.171
 1303TIP3    H1 3873   5.363   1.170   2.141
 1303TIP3    H2 3874   5.471   1.256   2.203
 1304TIP3   OH2 3875   4.874   1.970   4.006
 1304TIP3    H1 3876   4.811   2.037   4.030
 1304TIP3    H2 3877   4.925   2.010   3.935
 1305TIP3   OH2 3878   0.343   3.697   2.822
 1305TIP3    H1 3879   0.308   3.643   2.751
 1305TIP3    H2 3880   0.391   3.766   2.776
 1306TIP3   OH2 3881   1.703   4.182   4.268
 1306TIP3    H1 3882   1.741   4.138   4.343
 1306TIP3    H2 3883   1.623   4.133   4.249
 1307TIP3   OH2 3884   2.914   6.580   2.076
 1307TIP3    H1 3885   2.923   6.493   2.114
 1307TIP3    H2 3886   2.992   6.627   2.107
 1308TIP3   OH2 3887   5.790   2.397   0.819
 1308TIP3    H1 3888   5.731   2.452   0.768
 1308TIP3    H2 3889   5.733   2.331   0.859
 1309TIP3   OH2 3890   0.759   2.777   5.811
 1309TIP3    H1 3891   0.779   2.721   5.736
 1309TIP3    H2 3892   0.665   2.764   5.826
 1310TIP3   OH2 3893   0.509   5.743   3.196
 1310TIP3    H1 3894   0.593   5.697   3.207
 1310TIP3    H2 3895   0.498   5.793   3.277
 1311TIP3   OH2 3896   6.289   4.869   0.710
 1311TIP3    H1 3897   6.305   4.787   0.756
 1311TIP3    H2 3898   6.230   4.918   0.767
 1312TIP3   OH2 3899   5.160   2.581   0.373
 1312TIP3    H1 3900   5.256   2.575   0.376
 1312TIP3    H2 3901   5.138   2.572   0.281
 1313TIP3   OH2 3902   3.402   2.847   5.273
 1313TIP3    H1 3903   3.420   2.900   5.351
 1313TIP3    H2 3904   3.484   2.851   5.222
 1314TIP3   OH2 3905   5.668   4.932   3.585
 1314TIP3    H1 3906   5.754   4.968   3.565
 1314TIP3    H2 3907   5.661   4.938   3.680
 1315TIP3   OH2 3908   1.327   4.118   5.727
 1315TIP3    H1 3909   1.296   4.204   5.754
 1315TIP3    H2 3910   1.415   4.111   5.764
 1316TIP3   OH2 3911   2.726   6.716   5.682
 1316TIP3    H1 3912   2.642   6.703   5.637
 1316TIP3    H2 3913   2.704   6.757   5.765
 1317TIP3   OH2 3914   2.335   4.153   1.522
 1317TIP3    H1 3915   2.410   4.210   1.504
 1317TIP3    H2 3916   2.359   4.069   1.482
 1318TIP3   OH2 3917   0.696   0.277   4.471
 1318TIP3    H1 3918   0.701   0.361   4.425
 1318TIP3    H2 3919   0.602   0.257   4.475
 1319TIP3   OH2 3920   0.001   3.771   1.343
 1319TIP3    H1 3921   0.027   3.786   1.433
 1319TIP3    H2 3922   0.076   3.799   1.291
 1320TIP3   OH2 3923   1.927   1.854   0.433
 1320TIP3    H1 3924   1.930   1.950   0.430
 1320TIP3    H2 3925   1.883   1.834   0.516
 1321TIP3   OH2 3926   3.875   0.551   3.571
 1321TIP3    H1 3927   3.902   0.577   3.659
 1321TIP3    H2 3928   3.919   0.613   3.513
 1322TIP3   OH2 3929   4.428   3.566   3.854
 1322TIP3    H1 3930   4.355   3.513   3.823
 1322TIP3    H2 3931   4.440   3.540   3.945
 1323TIP3   OH2 3932   5.384   5.015   2.431
 1323TIP3    H1 3933   5.472   4.986   2.453
 1323TIP3    H2 3934   5.334   5.004   2.512
 1324TIP3   OH2 3935   2.136   5.837   2.259
 1324TIP3    H1 3936   2.169   5.838   2.169
 1324TIP3    H2 3937   2.040   5.834   2.249
 1325TIP3   OH2 3938   1.589   4.111   5.412
 1325TIP3    H1 3939   1.529   4.153   5.350
 1325TIP3    H2 3940   1.639   4.049   5.358
 1326TIP3   OH2 3941   2.129   5.393   0.710
 1326TIP3    H1 3942   2.180   5.313   0.723
 1326TIP3    H2 3943   2.126   5.434   0.796
 1327TIP3   OH2 3944   1.297   1.132   4.741
 1327TIP3    H1 3945   1.267   1.044   4.717
 1327TIP3    H2 3946   1.389   1.121   4.762
 1328TIP3   OH2 3947   5.665   2.679   3.749
 1328TIP3    H1 3948   5.705   2.744   3.691
 1328TIP3    H2 3949   5.724   2.674   3.824
 1329TIP3   OH2 3950   7.230   2.068   4.190
 1329TIP3    H1 3951   7.153   2.083   4.246
 1329TIP3    H2 3952   7.220   1.977   4.161
 1330TIP3   OH2 3953   3.686   6.349   3.299
 1330TIP3    H1 3954   3.649   6.337   3.386
 1330TIP3    H2 3955   3.747   6.422   3.308
 1331TIP3   OH2 3956   2.210   5.931   5.709
 1331TIP3    H1 3957   2.297   5.967   5.725
 1331TIP3    H2 3958   2.211   5.905   5.617
 1332TIP3   OH2 3959   2.998   5.027   1.417
 1332TIP3    H1 3960   3.059   5.007   1.346
 1332TIP3    H2 3961   2.915   4.987   1.390
 1333TIP3   OH2 3962   4.878   3.079   5.379
 1333TIP3    H1 3963   4.854   3.140   5.309
 1333TIP3    H2 3964   4.859   2.992   5.343
 1334TIP3   OH2 3965   2.104   2.513   3.695
 1334TIP3    H1 3966   2.038   2.495   3.628
 1334TIP3    H2 3967   2.081   2.600   3.728
 1335TIP3   OH2 3968   4.050   5.516   5.811
 1335TIP3    H1 3969   4.009   5.482   5.891
 1335TIP3    H2 3970   4.102   5.443   5.779
 1336TIP3   OH2 3971   2.884   5.341   3.462
 1336TIP3    H1 3972   2.851   5.347   3.551
 1336TIP3    H2 3973   2.929   5.425   3.447
 1337TIP3   OH2 3974   1.275   4.143   2.750
 1337TIP3    H1 3975   1.355   4.091   2.756
 1337TIP3    H2 3976   1.267   4.185   2.835
 1338TIP3   OH2 3977   3.121   4.768   2.712
 1338TIP3    H1 3978   3.183   4.789   2.782
 1338TIP3    H2 3979   3.160   4.806   2.633
 1339TIP3   OH2 3980   2.252   3.775   3.736
 1339TIP3    H1 3981   2.224   3.811   3.820
 1339TIP3    H2 3982   2.185   3.710   3.714
 1340TIP3   OH2 3983   0.903   0.472   3.262
 1340TIP3    H1 3984   0.932   0.520   3.340
 1340TIP3    H2 3985   0.943   0.386   3.271
 1341TIP3   OH2 3986   1.786   4.177   5.134
 1341TIP3    H1 3987   1.753   4.092   5.163
 1341TIP3    H2 3988   1.875   4.159   5.104
 1342TIP3   OH2 3989   1.326   6.811   2.543
 1342TIP3    H1 3990   1.308   6.764   2.624
 1342TIP3    H2 3991   1.388   6.880   2.568
 1343TIP3   OH2 3992   4.108  -0.009   0.556
 1343TIP3    H1 3993   4.113   0.037   0.640
 1343TIP3    H2 3994   4.070   0.054   0.496
 1344TIP3   OH2 3995   4.677   3.827   1.006
 1344TIP3    H1 3996   4.727   3.908   1.017
 1344TIP3    H2 3997   4.707   3.791   0.922
 1345TIP3   OH2 3998   0.543   4.395   3.946
 1345TIP3    H1 3999   0.578   4.320   3.896
 1345TIP3    H2 4000   0.552   4.368   4.038
 1346TIP3   OH2 4001   0.534   1.793   4.926
 1346TIP3    H1 4002   0.606   1.834   4.878
 1346TIP3    H2 4003   0.460   1.852   4.914
 1347TIP3   OH2 4004   4.804   6.706   0.504
 1347TIP3    H1 4005   4.755   6.627   0.480
 1347TIP3    H2 4006   4.820   6.750   0.420
 1348TIP3   OH2 4007   2.580   3.484   3.991
 1348TIP3    H1 4008   2.667   3.467   4.027
 1348TIP3    H2 4009   2.592   3.481   3.896
 1349TIP3   OH2 4010   1.682   6.609   2.888
 1349TIP3    H1 4011   1.711   6.648   2.806
 1349TIP3    H2 4012   1.587   6.621   2.888
 1350TIP3   OH2 4013   2.479   2.644   3.028
 1350TIP3    H1 4014   2.453   2.730   3.059
 1350TIP3    H2 4015   2.491   2.655   2.933
 1351TIP3   OH2 4016   1.618   3.799   5.747
 1351TIP3    H1 4017   1.652   3.727   5.799
 1351TIP3    H2 4018   1.684   3.813   5.679
 1352TIP3   OH2 4019   5.217   5.302   5.480
 1352TIP3    H1 4020   5.195   5.389   5.513
 1352TIP3    H2 4021   5.309   5.290   5.503
 1353TIP3   OH2 4022   0.416   5.828   2.089
 1353TIP3    H1 4023   0.324   5.831   2.062
 1353TIP3    H2 4024   0.465   5.815   2.008
 1354TIP3   OH2 4025   6.113   0.907   0.568
 1354TIP3    H1 4026   6.053   0.963   0.518
 1354TIP3    H2 4027   6.062   0.827   0.586
 1355TIP3   OH2 4028   4.076   0.975   1.710
 1355TIP3    H1 4029   3.988   0.998   1.682
 1355TIP3    H2 4030   4.096   0.893   1.664
 1356TIP3   OH2 4031   1.085   6.486   2.628
 1356TIP3    H1 4032   1.056   6.447   2.546
 1356TIP3    H2 4033   1.154   6.427   2.659
 1357TIP3   OH2 4034   0.648   2.281   4.563
 1357TIP3    H1 4035   0.671   2.317   4.477
 1357TIP3    H2 4036   0.718   2.218   4.582
 1358TIP3   OH2 4037   6.837   3.843   4.102
 1358TIP3    H1 4038   6.911   3.874   4.050
 1358TIP3    H2 4039   6.873   3.771   4.154
 1359TIP3   OH2 4040   3.410   0.759   2.692
 1359TIP3    H1 4041   3.317   0.777   2.683
 1359TIP3    H2 4042   3.453   0.843   2.680
 1360TIP3   OH2 4043   2.215   0.630   2.307
 1360TIP3    H1 4044   2.296   0.602   2.265
 1360TIP3    H2 4045   2.156   0.652   2.234
 1361TIP3   OH2 4046   3.369   2.037   2.075
 1361TIP3    H1 4047   3.398   1.980   2.146
 1361TIP3    H2 4048   3.277   2.014   2.060
 1362TIP3   OH2 4049   4.258   4.528   3.220
 1362TIP3    H1 4050   4.230   4.472   3.148
 1362TIP3    H2 4051   4.340   4.568   3.190
 1363TIP3   OH2 4052   5.719   6.672   3.476
 1363TIP3    H1 4053   5.729   6.624   3.558
 1363TIP3    H2 4054   5.724   6.764   3.502
 1364TIP3   OH2 4055   2.605   6.357   1.355
 1364TIP3    H1 4056   2.522   6.393   1.323
 1364TIP3    H2 4057   2.596   6.262   1.345
 1365TIP3   OH2 4058   7.097   1.121   1.086
 1365TIP3    H1 4059   7.106   1.216   1.072
 1365TIP3    H2 4060   7.004   1.104   1.069
 1366TIP3   OH2 4061   4.169   5.641   5.615
 1366TIP3    H1 4062   4.122   5.594   5.684
 1366TIP3    H2 4063   4.186   5.574   5.549
 1367TIP3   OH2 4064   7.021   0.471   2.598
 1367TIP3    H1 4065   7.112   0.441   2.607
 1367TIP3    H2 4066   6.993   0.439   2.513
 1368TIP3   OH2 4067   3.781   0.801   0.106
 1368TIP3    H1 4068   3.718   0.783   0.036
 1368TIP3    H2 4069   3.865   0.771   0.072
 1369TIP3   OH2 4070   3.056   3.852   1.908
 1369TIP3    H1 4071   2.983   3.903   1.943
 1369TIP3    H2 4072   3.070   3.783   1.973
 1370TIP3   OH2 4073   6.509   4.012   2.249
 1370TIP3    H1 4074   6.455   4.028   2.326
 1370TIP3    H2 4075   6.597   3.997   2.284
 1371TIP3   OH2 4076   4.613   3.849   1.884
 1371TIP3    H1 4077   4.536   3.810   1.844
 1371TIP3    H2 4078   4.586   3.939   1.904
 1372TIP3   OH2 4079   2.822   1.124   2.624
 1372TIP3    H1 4080   2.832   1.035   2.659
 1372TIP3    H2 4081   2.776   1.111   2.540
 1373TIP3   OH2 4082   2.602   0.184   5.454
 1373TIP3    H1 4083   2.538   0.250   5.480
 1373TIP3    H2 4084   2.666   0.232   5.401
 1374TIP3   OH2 4085   0.801   5.653   0.211
 1374TIP3    H1 4086   0.849   5.716   0.265
 1374TIP3    H2 4087   0.751   5.707   0.150
 1375TIP3   OH2 4088   2.057   3.995   3.159
 1375TIP3    H1 4089   2.135   4.040   3.128
 1375TIP3    H2 4090   2.087   3.944   3.234
 1376TIP3   OH2 4091   3.625   1.611   4.224
 1376TIP3    H1 4092   3.549   1.643   4.175
 1376TIP3    H2 4093   3.693   1.601   4.158
 1377TIP3   OH2 4094   2.922   5.008   3.484
 1377TIP3    H1 4095   2.840   4.991   3.439
 1377TIP3    H2 4096   2.896   5.046   3.568
 1378TIP3   OH2 4097   0.766   2.121   1.632
 1378TIP3    H1 4098   0.712   2.174   1.691
 1378TIP3    H2 4099   0.837   2.179   1.606
 1379TIP3   OH2 4100   3.678   2.022   5.876
 1379TIP3    H1 4101   3.673   2.045   5.969
 1379TIP3    H2 4102   3.758   2.064   5.845
 1380TIP3   OH2 4103   6.798   6.509   4.092
 1380TIP3    H1 4104   6.873   6.546   4.138
 1380TIP3    H2 4105   6.796   6.556   4.008
 1381TIP3   OH2 4106   5.998   2.100   5.191
 1381TIP3    H1 4107   6.071   2.146   5.231
 1381TIP3    H2 4108   5.920   2.136   5.233
 1382TIP3   OH2 4109   5.887   3.139   2.569
 1382TIP3    H1 4110   5.807   3.172   2.528
 1382TIP3    H2 4111   5.858   3.066   2.623
 1383TIP3   OH2 4112   2.961   5.241   2.560
 1383TIP3    H1 4113   2.992   5.181   2.628
 1383TIP3    H2 4114   3.002   5.208   2.479
 1384TIP3   OH2 4115   0.270   0.012   0.587
 1384TIP3    H1 4116   0.336  -0.043   0.630
 1384TIP3    H2 4117   0.315   0.095   0.571
 1385TIP3   OH2 4118   1.681   3.680   0.364
 1385TIP3    H1 4119   1.695   3.775   0.370
 1385TIP3    H2 4120   1.754   3.649   0.310
 1386TIP3   OH2 4121   3.607   2.352   0.778
 1386TIP3    H1 4122   3.603   2.277   0.838
 1386TIP3    H2 4123   3.650   2.318   0.700
 1387TIP3   OH2 4124   0.395   2.340   2.757
 1387TIP3    H1 4125   0.375   2.352   2.665
 1387TIP3    H2 4126   0.475   2.392   2.771
 1388TIP3   OH2 4127   2.990   0.072   3.471
 1388TIP3    H1 4128   2.904   0.089   3.510
 1388TIP3    H2 4129   2.970   0.036   3.384
 1389TIP3   OH2 4130   1.900   3.014   0.631
 1389TIP3    H1 4131   1.920   3.050   0.717
 1389TIP3    H2 4132   1.883   3.090   0.576
 1390TIP3   OH2 4133   5.187   4.665   4.774
 1390TIP3    H1 4134   5.101   4.706   4.776
 1390TIP3    H2 4135   5.176   4.582   4.821
 1391TIP3   OH2 4136   4.054   5.018   3.110
 1391TIP3    H1 4137   4.075   4.995   3.200
 1391TIP3    H2 4138   4.138   5.043   3.071
 1392TIP3   OH2 4139   0.428   4.813   1.372
 1392TIP3    H1 4140   0.503   4.760   1.344
 1392TIP3    H2 4141   0.375   4.754   1.425
 1393TIP3   OH2 4142   1.916   4.100   0.640
 1393TIP3    H1 4143   1.902   4.125   0.731
 1393TIP3    H2 4144   1.977   4.166   0.606
 1394TIP3   OH2 4145   5.699   1.319   3.013
 1394TIP3    H1 4146   5.727   1.239   2.968
 1394TIP3    H2 4147   5.690   1.384   2.943
 1395TIP3   OH2 4148   5.600   2.920   4.044
 1395TIP3    H1 4149   5.667   2.952   3.983
 1395TIP3    H2 4150   5.518   2.928   3.996
 1396TIP3   OH2 4151   2.507   3.419   1.273
 1396TIP3    H1 4152   2.532   3.453   1.187
 1396TIP3    H2 4153   2.548   3.479   1.336
 1397TIP3   OH2 4154   5.194   0.956   0.307
 1397TIP3    H1 4155   5.144   0.875   0.303
 1397TIP3    H2 4156   5.222   0.964   0.398
 1398TIP3   OH2 4157   7.181   2.423   2.168
 1398TIP3    H1 4158   7.239   2.484   2.122
 1398TIP3    H2 4159   7.121   2.480   2.217
 1399TIP3   OH2 4160   5.941   2.389   2.267
 1399TIP3    H1 4161   5.886   2.415   2.193
 1399TIP3    H2 4162   5.905   2.304   2.294
 1400TIP3   OH2 4163   4.754   6.236   2.405
 1400TIP3    H1 4164   4.668   6.230   2.364
 1400TIP3    H2 4165   4.815   6.247   2.332
 1401TIP3   OH2 4166   7.217   5.727   2.867
 1401TIP3    H1 4167   7.158   5.669   2.820
 1401TIP3    H2 4168   7.196   5.815   2.834
 1402TIP3   OH2 4169   2.097   6.539   1.462
 1402TIP3    H1 4170   2.079   6.467   1.523
 1402TIP3    H2 4171   2.175   6.581   1.497
 1403TIP3   OH2 4172   6.317   4.041   0.389
 1403TIP3    H1 4173   6.362   4.109   0.439
 1403TIP3    H2 4174   6.269   3.991   0.454
 1404TIP3   OH2 4175   5.356   0.928   5.073
 1404TIP3    H1 4176   5.293   0.863   5.041
 1404TIP3    H2 4177   5.441   0.894   5.048
 1405TIP3   OH2 4178   2.809   0.501   1.034
 1405TIP3    H1 4179   2.760   0.582   1.026
 1405TIP3    H2 4180   2.899   0.528   1.052
 1406TIP3   OH2 4181   4.590   2.442   2.186
 1406TIP3    H1 4182   4.500   2.430   2.154
 1406TIP3    H2 4183   4.626   2.511   2.132
 1407TIP3   OH2 4184   7.192   2.832   1.384
 1407TIP3    H1 4185   7.242   2.812   1.463
 1407TIP3    H2 4186   7.132   2.758   1.375
 1408TIP3   OH2 4187   0.567   6.038   0.578
 1408TIP3    H1 4188   0.552   5.956   0.530
 1408TIP3    H2 4189   0.504   6.035   0.650
 1409TIP3   OH2 4190   1.511   5.597   4.879
 1409TIP3    H1 4191   1.595   5.623   4.916
 1409TIP3    H2 4192   1.447   5.652   4.924
 1410TIP3   OH2 4193   2.915   5.290   2.851
 1410TIP3    H1 4194   2.958   5.331   2.926
 1410TIP3    H2 4195   2.977   5.222   2.823
 1411TIP3   OH2 4196   3.383   2.236   4.529
 1411TIP3    H1 4197   3.440   2.312   4.540
 1411TIP3    H2 4198   3.442   2.162   4.517
 1412TIP3   OH2 4199   7.183   5.246   1.814
 1412TIP3    H1 4200   7.125   5.314   1.780
 1412TIP3    H2 4201   7.146   5.164   1.780
 1413TIP3   OH2 4202   2.395   6.696   4.471
 1413TIP3    H1 4203   2.378   6.619   4.417
 1413TIP3    H2 4204   2.331   6.690   4.543
 1414TIP3   OH2 4205   3.365   1.263   3.769
 1414TIP3    H1 4206   3.427   1.210   3.820
 1414TIP3    H2 4207   3.336   1.331   3.831
 1415TIP3   OH2 4208   6.737   1.107   1.420
 1415TIP3    H1 4209   6.728   1.020   1.380
 1415TIP3    H2 4210   6.680   1.164   1.368
 1416TIP3   OH2 4211   4.916   4.908   2.441
 1416TIP3    H1 4212   4.905   4.840   2.507
 1416TIP3    H2 4213   4.949   4.861   2.364
 1417TIP3   OH2 4214   0.882   2.091   4.562
 1417TIP3    H1 4215   0.951   2.025   4.567
 1417TIP3    H2 4216   0.922   2.165   4.516
 1418TIP3   OH2 4217   2.639   5.944   4.826
 1418TIP3    H1 4218   2.597   6.030   4.832
 1418TIP3    H2 4219   2.704   5.944   4.897
 1419TIP3   OH2 4220   2.729   3.279   2.119
 1419TIP3    H1 4221   2.659   3.316   2.066
 1419TIP3    H2 4222   2.701   3.293   2.209
 1420TIP3   OH2 4223   6.514   0.932   4.066
 1420TIP3    H1 4224   6.427   0.894   4.081
 1420TIP3    H2 4225   6.533   0.981   4.146
 1421TIP3   OH2 4226   2.220   6.532   0.855
 1421TIP3    H1 4227   2.257   6.588   0.786
 1421TIP3    H2 4228   2.289   6.469   0.875
 1422TIP3   OH2 4229   1.324   4.593   4.529
 1422TIP3    H1 4230   1.320   4.658   4.458
 1422TIP3    H2 4231   1.267   4.522   4.498
 1423TIP3   OH2 4232   2.843   0.584   4.830
 1423TIP3    H1 4233   2.935   0.561   4.842
 1423TIP3    H2 4234   2.843   0.646   4.756
 1424TIP3   OH2 4235   6.297   0.210   3.424
 1424TIP3    H1 4236   6.324   0.249   3.340
 1424TIP3    H2 4237   6.203   0.196   3.414
 1425TIP3   OH2 4238   6.029   2.154   3.415
 1425TIP3    H1 4239   5.934   2.149   3.413
 1425TIP3    H2 4240   6.058   2.091   3.350
 1426TIP3   OH2 4241   7.032   6.330   0.839
 1426TIP3    H1 4242   7.018   6.341   0.745
 1426TIP3    H2 4243   6.947   6.304   0.873
 1427TIP3   OH2 4244   5.098   0.879   4.193
 1427TIP3    H1 4245   5.102   0.819   4.268
 1427TIP3    H2 4246   5.189   0.886   4.163
 1428TIP3   OH2 4247   5.940   3.761   2.996
 1428TIP3    H1 4248   5.949   3.856   2.990
 1428TIP3    H2 4249   5.900   3.746   3.081
 1429TIP3   OH2 4250   7.062   5.887   0.249
 1429TIP3    H1 4251   7.080   5.918   0.160
 1429TIP3    H2 4252   7.107   5.950   0.306
 1430TIP3   OH2 4253   2.435   5.205   5.240
 1430TIP3    H1 4254   2.345   5.180   5.261
 1430TIP3    H2 4255   2.488   5.134   5.274
 1431TIP3   OH2 4256   5.537   1.919   0.048
 1431TIP3    H1 4257   5.454   1.933   0.003
 1431TIP3    H2 4258   5.571   1.838   0.010
 1432TIP3   OH2 4259   6.309   1.853   2.740
 1432TIP3    H1 4260   6.346   1.785   2.684
 1432TIP3    H2 4261   6.226   1.875   2.699
 1433TIP3   OH2 4262   5.927   4.234   1.635
 1433TIP3    H1 4263   5.854   4.172   1.629
 1433TIP3    H2 4264   5.885   4.319   1.644
 1434TIP3   OH2 4265   5.033   3.772   2.973
 1434TIP3    H1 4266   5.025   3.856   3.020
 1434TIP3    H2 4267   5.005   3.792   2.884
 1435TIP3   OH2 4268   3.554   0.231   3.783
 1435TIP3    H1 4269   3.539   0.296   3.714
 1435TIP3    H2 4270   3.649   0.215   3.779
 1436TIP3   OH2 4271   1.578   1.676   1.047
 1436TIP3    H1 4272   1.612   1.650   0.961
 1436TIP3    H2 4273   1.614   1.763   1.062
 1437TIP3   OH2 4274   5.057   1.465   3.055
 1437TIP3    H1 4275   5.002   1.489   3.129
 1437TIP3    H2 4276   5.031   1.524   2.984
 1438TIP3   OH2 4277   3.131   6.251   0.224
 1438TIP3    H1 4278   3.111   6.300   0.145
 1438TIP3    H2 4279   3.110   6.311   0.296
 1439TIP3   OH2 4280   5.368   6.471   0.118
 1439TIP3    H1 4281   5.421   6.539   0.160
 1439TIP3    H2 4282   5.432   6.404   0.092
 1440TIP3   OH2 4283   4.389   6.351   4.186
 1440TIP3    H1 4284   4.365   6.443   4.185
 1440TIP3    H2 4285   4.482   6.350   4.209
 1441TIP3   OH2 4286   6.119   2.882   0.593
 1441TIP3    H1 4287   6.208   2.875   0.556
 1441TIP3    H2 4288   6.108   2.802   0.644
 1442TIP3   OH2 4289   0.950   5.259   0.796
 1442TIP3    H1 4290   0.931   5.252   0.702
 1442TIP3    H2 4291   1.044   5.273   0.800
 1443TIP3   OH2 4292   1.602   6.720   1.316
 1443TIP3    H1 4293   1.691   6.727   1.281
 1443TIP3    H2 4294   1.551   6.685   1.244
 1444TIP3   OH2 4295   1.349   0.758   3.798
 1444TIP3    H1 4296   1.423   0.815   3.778
 1444TIP3    H2 4297   1.390   0.674   3.822
 1445TIP3   OH2 4298   7.171   4.795   5.443
 1445TIP3    H1 4299   7.138   4.728   5.503
 1445TIP3    H2 4300   7.130   4.776   5.359
 1446TIP3   OH2 4301   5.822   5.766   0.849
 1446TIP3    H1 4302   5.817   5.671   0.860
 1446TIP3    H2 4303   5.752   5.787   0.788
 1447TIP3   OH2 4304   0.730   3.311   0.463
 1447TIP3    H1 4305   0.638   3.335   0.470
 1447TIP3    H2 4306   0.730   3.218   0.441
 1448TIP3   OH2 4307   3.165   4.225   5.370
 1448TIP3    H1 4308   3.202   4.270   5.294
 1448TIP3    H2 4309   3.212   4.260   5.445
 1449TIP3   OH2 4310   2.569   1.509   1.883
 1449TIP3    H1 4311   2.498   1.498   1.819
 1449TIP3    H2 4312   2.639   1.453   1.849
 1450TIP3   OH2 4313   0.814   2.660   4.551
 1450TIP3    H1 4314   0.750   2.674   4.622
 1450TIP3    H2 4315   0.847   2.747   4.531
 1451TIP3   OH2 4316  -0.001   6.621   3.088
 1451TIP3    H1 4317   0.000   6.682   3.014
 1451TIP3    H2 4318  -0.094   6.608   3.107
 1452TIP3   OH2 4319   6.341   6.641   1.906
 1452TIP3    H1 4320   6.289   6.711   1.945
 1452TIP3    H2 4321   6.293   6.616   1.828
 1453TIP3   OH2 4322   5.587   5.905   2.582
 1453TIP3    H1 4323   5.507   5.954   2.562
 1453TIP3    H2 4324   5.586   5.895   2.677
 1454TIP3   OH2 4325   5.622   6.391   5.424
 1454TIP3    H1 4326   5.654   6.480   5.415
 1454TIP3    H2 4327   5.555   6.396   5.493
 1455TIP3   OH2 4328   5.360   3.119   3.412
 1455TIP3    H1 4329   5.426   3.180   3.380
 1455TIP3    H2 4330   5.329   3.158   3.494
 1456TIP3   OH2 4331   0.629   1.381   4.048
 1456TIP3    H1 4332   0.702   1.337   4.005
 1456TIP3    H2 4333   0.650   1.474   4.043
 1457TIP3   OH2 4334   1.057   4.446   2.785
 1457TIP3    H1 4335   1.025   4.404   2.865
 1457TIP3    H2 4336   1.117   4.513   2.816
 1458TIP3   OH2 4337   0.925   3.390   5.812
 1458TIP3    H1 4338   0.982   3.338   5.755
 1458TIP3    H2 4339   0.837   3.376   5.777
 1459TIP3   OH2 4340   6.379   6.584   2.767
 1459TIP3    H1 4341   6.367   6.643   2.841
 1459TIP3    H2 4342   6.291   6.552   2.748
 1460TIP3   OH2 4343   6.081   4.922   1.779
 1460TIP3    H1 4344   6.148   4.889   1.718
 1460TIP3    H2 4345   6.023   4.975   1.724
 1461TIP3   OH2 4346   5.992   4.955   2.962
 1461TIP3    H1 4347   6.031   5.035   2.995
 1461TIP3    H2 4348   5.923   4.984   2.903
 1462TIP3   OH2 4349   5.672   3.219   3.968
 1462TIP3    H1 4350   5.759   3.239   4.002
 1462TIP3    H2 4351   5.661   3.125   3.982
 1463TIP3   OH2 4352   6.721   0.682   3.489
 1463TIP3    H1 4353   6.700   0.657   3.579
 1463TIP3    H2 4354   6.703   0.776   3.486
 1464TIP3   OH2 4355   0.201   3.719   1.982
 1464TIP3    H1 4356   0.117   3.762   1.965
 1464TIP3    H2 4357   0.258   3.789   2.015
 1465TIP3   OH2 4358   6.728   0.069   3.855
 1465TIP3    H1 4359   6.783   0.059   3.933
 1465TIP3    H2 4360   6.782   0.035   3.783
 1466TIP3   OH2 4361   3.511   3.069   3.040
 1466TIP3    H1 4362   3.580   3.055   3.104
 1466TIP3    H2 4363   3.467   3.149   3.069
 1467TIP3   OH2 4364   0.922   0.625   1.737
 1467TIP3    H1 4365   0.906   0.618   1.643
 1467TIP3    H2 4366   0.876   0.550   1.775
 1468TIP3   OH2 4367   5.348   3.211   2.722
 1468TIP3    H1 4368   5.279   3.277   2.718
 1468TIP3    H2 4369   5.303   3.130   2.744
 1469TIP3   OH2 4370   4.991   4.242   3.952
 1469TIP3    H1 4371   4.910   4.292   3.950
 1469TIP3    H2 4372   4.984   4.181   3.878
 1470TIP3   OH2 4373   4.055   0.661   0.609
 1470TIP3    H1 4374   4.045   0.739   0.556
 1470TIP3    H2 4375   4.067   0.590   0.546
 1471TIP3   OH2 4376   3.635   3.628   0.522
 1471TIP3    H1 4377   3.635   3.559   0.455
 1471TIP3    H2 4378   3.665   3.583   0.601
 1472TIP3   OH2 4379   2.569   0.028   4.321
 1472TIP3    H1 4380   2.539  -0.009   4.404
 1472TIP3    H2 4381   2.516  -0.016   4.254
 1473TIP3   OH2 4382   5.369   3.444   1.636
 1473TIP3    H1 4383   5.437   3.438   1.704
 1473TIP3    H2 4384   5.359   3.538   1.621
 1474TIP3   OH2 4385   4.523   4.465   5.746
 1474TIP3    H1 4386   4.480   4.436   5.666
 1474TIP3    H2 4387   4.525   4.388   5.802
 1475TIP3   OH2 4388   1.102   0.321   5.381
 1475TIP3    H1 4389   1.164   0.314   5.308
 1475TIP3    H2 4390   1.155   0.308   5.459
 1476TIP3   OH2 4391   5.549   6.780   0.616
 1476TIP3    H1 4392   5.618   6.724   0.580
 1476TIP3    H2 4393   5.559   6.863   0.568
 1477TIP3   OH2 4394   2.597   0.970   3.404
 1477TIP3    H1 4395   2.578   0.908   3.475
 1477TIP3    H2 4396   2.662   0.925   3.350
 1478TIP3   OH2 4397   6.114   0.845   1.952
 1478TIP3    H1 4398   6.150   0.758   1.970
 1478TIP3    H2 4399   6.106   0.848   1.857
 1479TIP3   OH2 4400   4.272   0.624   3.359
 1479TIP3    H1 4401   4.238   0.542   3.395
 1479TIP3    H2 4402   4.226   0.633   3.275
 1480TIP3   OH2 4403   0.955   3.621   5.647
 1480TIP3    H1 4404   0.865   3.614   5.615
 1480TIP3    H2 4405   0.959   3.557   5.719
 1481TIP3   OH2 4406   6.017   1.484   1.488
 1481TIP3    H1 4407   6.005   1.404   1.437
 1481TIP3    H2 4408   5.993   1.555   1.429
 1482TIP3   OH2 4409   2.671   6.217   3.602
 1482TIP3    H1 4410   2.687   6.295   3.549
 1482TIP3    H2 4411   2.637   6.152   3.541
 1483TIP3   OH2 4412   3.942   1.576   5.502
 1483TIP3    H1 4413   4.034   1.591   5.481
 1483TIP3    H2 4414   3.910   1.661   5.531
 1484TIP3   OH2 4415   4.039   6.635   5.008
 1484TIP3    H1 4416   4.038   6.593   5.094
 1484TIP3    H2 4417   4.026   6.564   4.945
 1485TIP3   OH2 4418   5.465   5.048   4.192
 1485TIP3    H1 4419   5.489   4.957   4.208
 1485TIP3    H2 4420   5.459   5.055   4.097
 1486TIP3   OH2 4421   5.790   5.459   1.440
 1486TIP3    H1 4422   5.738   5.379   1.429
 1486TIP3    H2 4423   5.726   5.525   1.467
 1487TIP3   OH2 4424   3.315   1.224   0.004
 1487TIP3    H1 4425   3.395   1.275  -0.009
 1487TIP3    H2 4426   3.339   1.158   0.069
 1488TIP3   OH2 4427   3.415   5.517   3.603
 1488TIP3    H1 4428   3.490   5.525   3.544
 1488TIP3    H2 4429   3.397   5.423   3.607
 1489TIP3   OH2 4430   4.518   2.116   1.550
 1489TIP3    H1 4431   4.583   2.098   1.618
 1489TIP3    H2 4432   4.523   2.040   1.491
 1490TIP3   OH2 4433   0.702   2.405   3.063
 1490TIP3    H1 4434   0.792   2.425   3.088
 1490TIP3    H2 4435   0.666   2.488   3.032
 1491TIP3   OH2 4436   4.884   3.412   2.439
 1491TIP3    H1 4437   4.875   3.371   2.525
 1491TIP3    H2 4438   4.796   3.444   2.418
 1492TIP3   OH2 4439   2.926   3.182   4.061
 1492TIP3    H1 4440   3.014   3.145   4.057
 1492TIP3    H2 4441   2.885   3.137   4.135
 1493TIP3   OH2 4442   4.214   0.205   5.803
 1493TIP3    H1 4443   4.175   0.151   5.735
 1493TIP3    H2 4444   4.218   0.147   5.880
 1494TIP3   OH2 4445   0.282   6.026   1.120
 1494TIP3    H1 4446   0.266   6.009   1.027
 1494TIP3    H2 4447   0.237   5.955   1.165
 1495TIP3   OH2 4448   5.067   5.522   1.206
 1495TIP3    H1 4449   5.086   5.596   1.148
 1495TIP3    H2 4450   5.089   5.445   1.154
 1496TIP3   OH2 4451   6.608   1.847   5.034
 1496TIP3    H1 4452   6.572   1.935   5.021
 1496TIP3    H2 4453   6.556   1.811   5.107
 1497TIP3   OH2 4454   3.335   6.219   5.736
 1497TIP3    H1 4455   3.241   6.207   5.717
 1497TIP3    H2 4456   3.353   6.310   5.710
 1498TIP3   OH2 4457   0.383   1.554   5.463
 1498TIP3    H1 4458   0.417   1.489   5.401
 1498TIP3    H2 4459   0.448   1.558   5.532
 1499TIP3   OH2 4460   2.729   1.123   1.680
 1499TIP3    H1 4461   2.711   1.121   1.586
 1499TIP3    H2 4462   2.734   1.216   1.702
 1500TIP3   OH2 4463   5.443   0.749   4.497
 1500TIP3    H1 4464   5.435   0.655   4.481
 1500TIP3    H2 4465   5.508   0.778   4.433
 1501TIP3   OH2 4466   0.195   1.534   4.814
 1501TIP3    H1 4467   0.271   1.562   4.763
 1501TIP3    H2 4468   0.125   1.524   4.750
 1502TIP3   OH2 4469   2.052   0.997   3.516
 1502TIP3    H1 4470   2.007   0.918   3.546
 1502TIP3    H2 4471   2.142   0.968   3.500
 1503TIP3   OH2 4472   2.325   4.067   1.783
 1503TIP3    H1 4473   2.251   4.007   1.792
 1503TIP3    H2 4474   2.321   4.098   1.692
 1504TIP3   OH2 4475   6.474   4.431   4.429
 1504TIP3    H1 4476   6.524   4.395   4.356
 1504TIP3    H2 4477   6.450   4.355   4.482
 1505TIP3   OH2 4478   3.869   5.894   4.766
 1505TIP3    H1 4479   3.910   5.822   4.718
 1505TIP3    H2 4480   3.895   5.973   4.718
 1506TIP3   OH2 4481   6.273   0.792   4.079
 1506TIP3    H1 4482   6.186   0.803   4.041
 1506TIP3    H2 4483   6.278   0.700   4.103
 1507TIP3   OH2 4484   4.564   3.068   2.634
 1507TIP3    H1 4485   4.599   3.108   2.714
 1507TIP3    H2 4486   4.516   2.991   2.665
 1508TIP3   OH2 4487   2.475   5.656   1.326
 1508TIP3    H1 4488   2.435   5.570   1.320
 1508TIP3    H2 4489   2.555   5.642   1.376
 1509TIP3   OH2 4490   3.692   1.170   2.543
 1509TIP3    H1 4491   3.704   1.153   2.450
 1509TIP3    H2 4492   3.686   1.266   2.549
 1510TIP3   OH2 4493   3.347   2.629   0.422
 1510TIP3    H1 4494   3.432   2.617   0.465
 1510TIP3    H2 4495   3.288   2.657   0.493
 1511TIP3   OH2 4496   4.572   4.005   2.919
 1511TIP3    H1 4497   4.491   3.960   2.897
 1511TIP3    H2 4498   4.578   4.000   3.014
 1512TIP3   OH2 4499   5.725   3.788   4.718
 1512TIP3    H1 4500   5.794   3.851   4.697
 1512TIP3    H2 4501   5.773   3.710   4.746
 1513TIP3   OH2 4502   0.733   0.311   3.567
 1513TIP3    H1 4503   0.693   0.277   3.487
 1513TIP3    H2 4504   0.659   0.327   3.626
 1514TIP3   OH2 4505   0.475   0.472   5.053
 1514TIP3    H1 4506   0.538   0.520   5.108
 1514TIP3    H2 4507   0.433   0.540   5.001
 1515TIP3   OH2 4508   0.149   1.847   4.718
 1515TIP3    H1 4509   0.165   1.867   4.810
 1515TIP3    H2 4510   0.072   1.899   4.695
 1516TIP3   OH2 4511   5.888   3.013   0.524
 1516TIP3    H1 4512   5.975   2.973   0.535
 1516TIP3    H2 4513   5.863   3.038   0.613
 1517TIP3   OH2 4514   5.969   4.620   5.554
 1517TIP3    H1 4515   5.984   4.560   5.481
 1517TIP3    H2 4516   5.887   4.665   5.533
 1518TIP3   OH2 4517   3.707   6.370   2.565
 1518TIP3    H1 4518   3.631   6.322   2.599
 1518TIP3    H2 4519   3.703   6.455   2.609
 1519TIP3   OH2 4520   0.328   3.128   0.200
 1519TIP3    H1 4521   0.363   3.208   0.162
 1519TIP3    H2 4522   0.242   3.118   0.159
 1520TIP3   OH2 4523   0.926   5.877   2.099
 1520TIP3    H1 4524   0.925   5.950   2.161
 1520TIP3    H2 4525   0.871   5.810   2.138
 1521TIP3   OH2 4526   1.549   0.990   3.773
 1521TIP3    H1 4527   1.544   1.067   3.830
 1521TIP3    H2 4528   1.641   0.966   3.773
 1522TIP3   OH2 4529   5.908   3.270   2.891
 1522TIP3    H1 4530   5.821   3.239   2.865
 1522TIP3    H2 4531   5.950   3.195   2.932
 1523TIP3   OH2 4532   1.562   2.116   4.167
 1523TIP3    H1 4533   1.569   2.096   4.074
 1523TIP3    H2 4534   1.601   2.040   4.211
 1524TIP3   OH2 4535   2.619   3.096   3.716
 1524TIP3    H1 4536   2.692   3.142   3.757
 1524TIP3    H2 4537   2.660   3.026   3.665
 1525TIP3   OH2 4538   1.072   4.997   5.658
 1525TIP3    H1 4539   1.071   5.070   5.596
 1525TIP3    H2 4540   1.151   4.947   5.635
 1526TIP3   OH2 4541   2.465   6.671   5.524
 1526TIP3    H1 4542   2.403   6.728   5.570
 1526TIP3    H2 4543   2.410   6.604   5.483
 1527TIP3   OH2 4544   6.646   3.468   0.149
 1527TIP3    H1 4545   6.738   3.442   0.156
 1527TIP3    H2 4546   6.605   3.433   0.228
 1528TIP3   OH2 4547   7.019   2.268   4.077
 1528TIP3    H1 4548   6.985   2.194   4.128
 1528TIP3    H2 4549   7.086   2.308   4.132
 1529TIP3   OH2 4550   2.002   5.086   1.485
 1529TIP3    H1 4551   1.981   5.108   1.576
 1529TIP3    H2 4552   1.916   5.078   1.443
 1530TIP3   OH2 4553   1.635   4.856   3.671
 1530TIP3    H1 4554   1.627   4.791   3.741
 1530TIP3    H2 4555   1.729   4.866   3.659
 1531TIP3   OH2 4556   2.644   3.617   2.487
 1531TIP3    H1 4557   2.716   3.600   2.426
 1531TIP3    H2 4558   2.683   3.672   2.555
 1532TIP3   OH2 4559   1.184   6.707   1.399
 1532TIP3    H1 4560   1.245   6.642   1.364
 1532TIP3    H2 4561   1.124   6.656   1.454
 1533TIP3   OH2 4562   1.146   3.100   1.582
 1533TIP3    H1 4563   1.216   3.111   1.518
 1533TIP3    H2 4564   1.094   3.027   1.549
 1534TIP3   OH2 4565   0.739   4.024   3.120
 1534TIP3    H1 4566   0.652   4.061   3.134
 1534TIP3    H2 4567   0.764   4.054   3.033
 1535TIP3   OH2 4568   0.300   0.359   2.794
 1535TIP3    H1 4569   0.358   0.372   2.719
 1535TIP3    H2 4570   0.357   0.360   2.870
 1536TIP3   OH2 4571   0.879   1.832   0.830
 1536TIP3    H1 4572   0.889   1.921   0.796
 1536TIP3    H2 4573   0.914   1.836   0.920
 1537TIP3   OH2 4574   5.971   2.820   3.187
 1537TIP3    H1 4575   6.038   2.789   3.126
 1537TIP3    H2 4576   5.911   2.746   3.196
 1538TIP3   OH2 4577   6.961   0.090   4.027
 1538TIP3    H1 4578   6.935   0.054   4.112
 1538TIP3    H2 4579   7.029   0.031   3.996
 1539TIP3   OH2 4580   2.083   6.170   0.528
 1539TIP3    H1 4581   2.076   6.152   0.622
 1539TIP3    H2 4582   2.080   6.084   0.486
 1540TIP3   OH2 4583   6.765   2.223   2.217
 1540TIP3    H1 4584   6.769   2.307   2.264
 1540TIP3    H2 4585   6.789   2.245   2.127
 1541TIP3   OH2 4586   3.220   4.127   2.640
 1541TIP3    H1 4587   3.295   4.170   2.680
 1541TIP3    H2 4588   3.176   4.196   2.590
 1542TIP3   OH2 4589   5.921   0.562   0.034
 1542TIP3    H1 4590   5.886   0.549  -0.054
 1542TIP3    H2 4591   5.867   0.506   0.090
 1543TIP3   OH2 4592   6.371   1.751   5.589
 1543TIP3    H1 4593   6.343   1.842   5.588
 1543TIP3    H2 4594   6.290   1.701   5.601
 1544TIP3   OH2 4595   0.312   1.002   1.616
 1544TIP3    H1 4596   0.325   1.011   1.711
 1544TIP3    H2 4597   0.217   0.996   1.606
 1545TIP3   OH2 4598   4.810   0.577   3.235
 1545TIP3    H1 4599   4.757   0.630   3.294
 1545TIP3    H2 4600   4.803   0.619   3.150
 1546TIP3   OH2 4601   4.537   0.240   4.754
 1546TIP3    H1 4602   4.577   0.222   4.669
 1546TIP3    H2 4603   4.455   0.284   4.733
 1547TIP3   OH2 4604   6.066   4.513   5.345
 1547TIP3    H1 4605   6.036   4.572   5.276
 1547TIP3    H2 4606   6.152   4.547   5.371
 1548TIP3   OH2 4607   2.986   6.120   0.691
 1548TIP3    H1 4608   2.974   6.030   0.722
 1548TIP3    H2 4609   2.964   6.175   0.767
 1549TIP3   OH2 4610   0.208   1.336   5.818
 1549TIP3    H1 4611   0.276   1.302   5.760
 1549TIP3    H2 4612   0.253   1.400   5.873
 1550TIP3   OH2 4613   6.982   0.273   1.136
 1550TIP3    H1 4614   6.897   0.273   1.180
 1550TIP3    H2 4615   7.039   0.225   1.196
 1551TIP3   OH2 4616   2.345   0.115   0.952
 1551TIP3    H1 4617   2.408   0.067   0.899
 1551TIP3    H2 4618   2.282   0.150   0.889
 1552TIP3   OH2 4619   2.902   4.601   2.755
 1552TIP3    H1 4620   2.963   4.675   2.748
 1552TIP3    H2 4621   2.831   4.634   2.810
 1553TIP3   OH2 4622   3.685   0.767   2.904
 1553TIP3    H1 4623   3.666   0.708   2.831
 1553TIP3    H2 4624   3.631   0.735   2.976
 1554TIP3   OH2 4625   5.149   0.269   3.121
 1554TIP3    H1 4626   5.194   0.351   3.142
 1554TIP3    H2 4627   5.059   0.296   3.101
 1555TIP3   OH2 4628   6.581   4.494   1.302
 1555TIP3    H1 4629   6.610   4.465   1.389
 1555TIP3    H2 4630   6.488   4.514   1.314
 1556TIP3   OH2 4631   2.790   2.129   5.566
 1556TIP3    H1 4632   2.763   2.218   5.585
 1556TIP3    H2 4633   2.858   2.110   5.630
 1557TIP3   OH2 4634   1.825   6.667   1.768
 1557TIP3    H1 4635   1.754   6.654   1.705
 1557TIP3    H2 4636   1.800   6.614   1.843
 1558TIP3   OH2 4637   3.385   4.720   0.572
 1558TIP3    H1 4638   3.392   4.696   0.480
 1558TIP3    H2 4639   3.473   4.751   0.596
 1559TIP3   OH2 4640   0.181   2.891   4.420
 1559TIP3    H1 4641   0.187   2.803   4.459
 1559TIP3    H2 4642   0.095   2.892   4.378
 1560TIP3   OH2 4643   5.435   4.442   2.484
 1560TIP3    H1 4644   5.376   4.423   2.557
 1560TIP3    H2 4645   5.455   4.536   2.494
 1561TIP3   OH2 4646   4.962   0.857   5.145
 1561TIP3    H1 4647   4.989   0.945   5.118
 1561TIP3    H2 4648   4.889   0.871   5.205
 1562TIP3   OH2 4649   3.561   3.154   2.790
 1562TIP3    H1 4650   3.559   3.117   2.878
 1562TIP3    H2 4651   3.643   3.122   2.752
 1563TIP3   OH2 4652   0.341   5.588   1.227
 1563TIP3    H1 4653   0.416   5.615   1.280
 1563TIP3    H2 4654   0.271   5.574   1.290
 1564TIP3   OH2 4655   4.153   0.398   5.407
 1564TIP3    H1 4656   4.153   0.396   5.502
 1564TIP3    H2 4657   4.115   0.484   5.384
 1565TIP3   OH2 4658   2.340   4.128   4.038
 1565TIP3    H1 4659   2.263   4.110   3.983
 1565TIP3    H2 4660   2.381   4.043   4.051
 1566TIP3   OH2 4661   5.552   4.212   4.264
 1566TIP3    H1 4662   5.534   4.120   4.247
 1566TIP3    H2 4663   5.600   4.242   4.186
 1567TIP3   OH2 4664   1.926   1.583   3.147
 1567TIP3    H1 4665   1.952   1.655   3.090
 1567TIP3    H2 4666   1.912   1.509   3.088
 1568TIP3   OH2 4667   3.533   5.923   4.726
 1568TIP3    H1 4668   3.563   5.961   4.644
 1568TIP3    H2 4669   3.578   5.973   4.794
 1569TIP3   OH2 4670   2.231   0.951   2.737
 1569TIP3    H1 4671   2.183   0.879   2.694
 1569TIP3    H2 4672   2.166   1.019   2.750
 1570TIP3   OH2 4673   4.148   2.110   2.555
 1570TIP3    H1 4674   4.210   2.056   2.508
 1570TIP3    H2 4675   4.108   2.165   2.488
 1571TIP3   OH2 4676   1.864   5.661   1.711
 1571TIP3    H1 4677   1.780   5.703   1.693
 1571TIP3    H2 4678   1.845   5.567   1.706
 1572TIP3   OH2 4679   1.096   1.832   4.145
 1572TIP3    H1 4680   1.065   1.920   4.166
 1572TIP3    H2 4681   1.145   1.805   4.223
 1573TIP3   OH2 4682   7.072   0.865   0.859
 1573TIP3    H1 4683   7.114   0.792   0.813
 1573TIP3    H2 4684   7.021   0.824   0.928
 1574TIP3   OH2 4685   5.239   2.938   4.376
 1574TIP3    H1 4686   5.243   2.872   4.306
 1574TIP3    H2 4687   5.330   2.966   4.388
 1575TIP3   OH2 4688   0.484   2.575   0.455
 1575TIP3    H1 4689   0.523   2.496   0.493
 1575TIP3    H2 4690   0.534   2.590   0.375
 1576TIP3   OH2 4691   6.489   5.779   5.665
 1576TIP3    H1 4692   6.579   5.777   5.697
 1576TIP3    H2 4693   6.435   5.778   5.744
 1577TIP3   OH2 4694   5.070   6.068   4.206
 1577TIP3    H1 4695   5.079   6.163   4.216
 1577TIP3    H2 4696   5.064   6.035   4.295
 1578TIP3   OH2 4697   6.479   5.194   1.572
 1578TIP3    H1 4698   6.488   5.248   1.494
 1578TIP3    H2 4699   6.403   5.231   1.618
 1579TIP3   OH2 4700   4.262   1.139   4.693
 1579TIP3    H1 4701   4.223   1.062   4.651
 1579TIP3    H2 4702   4.295   1.191   4.620
 1580TIP3   OH2 4703   6.148   4.590   1.733
 1580TIP3    H1 4704   6.211   4.649   1.692
 1580TIP3    H2 4705   6.091   4.562   1.662
 1581TIP3   OH2 4706   4.512   6.388   5.841
 1581TIP3    H1 4707   4.536   6.479   5.827
 1581TIP3    H2 4708   4.496   6.354   5.753
 1582TIP3   OH2 4709   2.411   3.760   0.947
 1582TIP3    H1 4710   2.390   3.747   0.855
 1582TIP3    H2 4711   2.327   3.759   0.992
 1583TIP3   OH2 4712   5.643   5.283   2.059
 1583TIP3    H1 4713   5.709   5.352   2.062
 1583TIP3    H2 4714   5.650   5.247   1.970
 1584TIP3   OH2 4715   5.110   5.987   3.182
 1584TIP3    H1 4716   5.031   6.016   3.136
 1584TIP3    H2 4717   5.171   6.061   3.172
 1585TIP3   OH2 4718   0.739   4.408   2.172
 1585TIP3    H1 4719   0.814   4.369   2.127
 1585TIP3    H2 4720   0.775   4.438   2.256
 1586TIP3   OH2 4721   5.082   6.667   3.640
 1586TIP3    H1 4722   5.152   6.726   3.610
 1586TIP3    H2 4723   5.127   6.604   3.696
 1587TIP3   OH2 4724   0.526   3.520   3.917
 1587TIP3    H1 4725   0.531   3.595   3.976
 1587TIP3    H2 4726   0.543   3.444   3.973
 1588TIP3   OH2 4727   5.293   6.193   3.149
 1588TIP3    H1 4728   5.290   6.281   3.186
 1588TIP3    H2 4729   5.374   6.155   3.182
 1589TIP3   OH2 4730   4.966   3.354   5.573
 1589TIP3    H1 4731   4.944   3.387   5.486
 1589TIP3    H2 4732   5.060   3.370   5.581
 1590TIP3   OH2 4733   5.902   0.297   5.164
 1590TIP3    H1 4734   5.935   0.299   5.253
 1590TIP3    H2 4735   5.938   0.375   5.123
 1591TIP3   OH2 4736   3.793   6.111   3.195
 1591TIP3    H1 4737   3.848   6.063   3.257
 1591TIP3    H2 4738   3.769   6.191   3.241
 1592TIP3   OH2 4739   6.106   0.140  -0.053
 1592TIP3    H1 4740   6.091   0.176  -0.140
 1592TIP3    H2 4741   6.059   0.199   0.006
 1593TIP3   OH2 4742   2.304   5.331   0.299
 1593TIP3    H1 4743   2.215   5.308   0.327
 1593TIP3    H2 4744   2.318   5.280   0.219
 1594TIP3   OH2 4745   6.416   2.562   1.325
 1594TIP3    H1 4746   6.391   2.535   1.237
 1594TIP3    H2 4747   6.437   2.655   1.317
 1595TIP3   OH2 4748   1.305   4.957   2.928
 1595TIP3    H1 4749   1.218   4.925   2.907
 1595TIP3    H2 4750   1.350   4.962   2.844
 1596TIP3   OH2 4751   0.363   3.039   5.338
 1596TIP3    H1 4752   0.317   3.102   5.393
 1596TIP3    H2 4753   0.321   2.955   5.356
 1597TIP3   OH2 4754   6.364   4.097   2.044
 1597TIP3    H1 4755   6.277   4.127   2.068
 1597TIP3    H2 4756   6.388   4.035   2.114
 1598TIP3   OH2 4757   1.560   3.192   5.857
 1598TIP3    H1 4758   1.548   3.101   5.830
 1598TIP3    H2 4759   1.599   3.186   5.944
 1599TIP3   OH2 4760   0.685   4.265   3.341
 1599TIP3    H1 4761   0.636   4.266   3.423
 1599TIP3    H2 4762   0.643   4.196   3.288
 1600TIP3   OH2 4763   5.008   5.424   1.464
 1600TIP3    H1 4764   5.077   5.461   1.520
 1600TIP3    H2 4765   5.024   5.463   1.378
 1601TIP3   OH2 4766   1.885   1.895   4.642
 1601TIP3    H1 4767   1.828   1.829   4.602
 1601TIP3    H2 4768   1.973   1.857   4.636
 1602TIP3   OH2 4769   5.864   0.826   4.979
 1602TIP3    H1 4770   5.943   0.820   4.924
 1602TIP3    H2 4771   5.829   0.912   4.960
 1603TIP3   OH2 4772   6.949   5.122   5.199
 1603TIP3    H1 4773   7.039   5.143   5.177
 1603TIP3    H2 4774   6.918   5.199   5.247
 1604TIP3   OH2 4775   4.213   3.355   4.167
 1604TIP3    H1 4776   4.187   3.263   4.165
 1604TIP3    H2 4777   4.132   3.403   4.150
 1605TIP3   OH2 4778   1.225   5.370   4.941
 1605TIP3    H1 4779   1.280   5.350   4.865
 1605TIP3    H2 4780   1.280   5.423   4.998
 1606TIP3   OH2 4781   3.987   2.763   1.587
 1606TIP3    H1 4782   3.988   2.803   1.674
 1606TIP3    H2 4783   4.058   2.807   1.539
 1607TIP3   OH2 4784   7.237   5.716   0.068
 1607TIP3    H1 4785   7.183   5.792   0.093
 1607TIP3    H2 4786   7.198   5.686  -0.014
 1608TIP3   OH2 4787   6.411   3.182   2.688
 1608TIP3    H1 4788   6.326   3.177   2.644
 1608TIP3    H2 4789   6.475   3.169   2.618
 1609TIP3   OH2 4790   4.646   2.129   0.446
 1609TIP3    H1 4791   4.655   2.046   0.493
 1609TIP3    H2 4792   4.611   2.104   0.360
 1610TIP3   OH2 4793   2.845   2.974   2.077
 1610TIP3    H1 4794   2.833   2.995   1.984
 1610TIP3    H2 4795   2.799   3.044   2.123
 1611TIP3   OH2 4796   3.110   2.612   1.154
 1611TIP3    H1 4797   3.145   2.532   1.116
 1611TIP3    H2 4798   3.107   2.674   1.082
 1612TIP3   OH2 4799   4.982   1.571   5.054
 1612TIP3    H1 4800   5.030   1.503   5.006
 1612TIP3    H2 4801   4.890   1.554   5.033
 1613TIP3   OH2 4802   0.490   1.989   2.468
 1613TIP3    H1 4803   0.435   2.068   2.474
 1613TIP3    H2 4804   0.431   1.921   2.438
 1614TIP3   OH2 4805   2.500   5.951   5.701
 1614TIP3    H1 4806   2.541   5.898   5.632
 1614TIP3    H2 4807   2.565   5.950   5.772
 1615TIP3   OH2 4808   2.759   0.195   3.567
 1615TIP3    H1 4809   2.697   0.122   3.571
 1615TIP3    H2 4810   2.706   0.272   3.588
 1616TIP3   OH2 4811   0.705   0.457   0.673
 1616TIP3    H1 4812   0.771   0.500   0.618
 1616TIP3    H2 4813   0.622   0.474   0.628
 1617TIP3   OH2 4814   3.249   1.001   2.092
 1617TIP3    H1 4815   3.262   0.949   2.013
 1617TIP3    H2 4816   3.322   0.978   2.149
 1618TIP3   OH2 4817   5.975   3.732   4.289
 1618TIP3    H1 4818   6.010   3.751   4.376
 1618TIP3    H2 4819   6.026   3.789   4.230
 1619TIP3   OH2 4820   1.210   5.199   3.418
 1619TIP3    H1 4821   1.212   5.269   3.483
 1619TIP3    H2 4822   1.175   5.124   3.465
 1620TIP3   OH2 4823   4.082   5.664   1.125
 1620TIP3    H1 4824   4.163   5.630   1.085
 1620TIP3    H2 4825   4.103   5.754   1.149
 1621TIP3   OH2 4826   5.116   2.211   3.150
 1621TIP3    H1 4827   5.190   2.153   3.169
 1621TIP3    H2 4828   5.149   2.299   3.169
 1622TIP3   OH2 4829   5.038   3.595   2.593
 1622TIP3    H1 4830   4.970   3.642   2.642
 1622TIP3    H2 4831   4.990   3.544   2.528
 1623TIP3   OH2 4832   3.595   4.304   3.699
 1623TIP3    H1 4833   3.638   4.273   3.619
 1623TIP3    H2 4834   3.520   4.245   3.710
 1624TIP3   OH2 4835   5.313   0.983   2.063
 1624TIP3    H1 4836   5.337   0.904   2.112
 1624TIP3    H2 4837   5.217   0.987   2.070
 1625TIP3   OH2 4838   4.156   3.428   0.858
 1625TIP3    H1 4839   4.225   3.494   0.850
 1625TIP3    H2 4840   4.191   3.350   0.816
 1626TIP3   OH2 4841   6.757   6.696   1.331
 1626TIP3    H1 4842   6.752   6.614   1.381
 1626TIP3    H2 4843   6.791   6.760   1.393
 1627TIP3   OH2 4844   1.822   2.780   0.971
 1627TIP3    H1 4845   1.848   2.689   0.955
 1627TIP3    H2 4846   1.871   2.831   0.907
 1628TIP3   OH2 4847   4.026   5.538   2.219
 1628TIP3    H1 4848   4.059   5.549   2.130
 1628TIP3    H2 4849   3.963   5.609   2.230
 1629TIP3   OH2 4850   5.557   6.519   1.716
 1629TIP3    H1 4851   5.624   6.504   1.649
 1629TIP3    H2 4852   5.566   6.445   1.777
 1630TIP3   OH2 4853   6.143   3.154   4.947
 1630TIP3    H1 4854   6.159   3.202   5.028
 1630TIP3    H2 4855   6.153   3.062   4.971
 1631TIP3   OH2 4856   6.087   4.797   1.440
 1631TIP3    H1 4857   6.030   4.759   1.507
 1631TIP3    H2 4858   6.073   4.741   1.363
 1632TIP3   OH2 4859   6.983   0.505   2.898
 1632TIP3    H1 4860   7.032   0.425   2.916
 1632TIP3    H2 4861   7.020   0.538   2.816
 1633TIP3   OH2 4862   3.384   5.643   1.718
 1633TIP3    H1 4863   3.459   5.647   1.658
 1633TIP3    H2 4864   3.423   5.631   1.805
 1634TIP3   OH2 4865   2.232   2.343   5.356
 1634TIP3    H1 4866   2.302   2.278   5.346
 1634TIP3    H2 4867   2.232   2.391   5.273
 1635TIP3   OH2 4868   5.441   5.642   3.837
 1635TIP3    H1 4869   5.391   5.640   3.918
 1635TIP3    H2 4870   5.528   5.609   3.861
 1636TIP3   OH2 4871   0.777   0.262   2.332
 1636TIP3    H1 4872   0.709   0.200   2.357
 1636TIP3    H2 4873   0.730   0.338   2.299
 1637TIP3   OH2 4874   2.992   4.289   3.102
 1637TIP3    H1 4875   3.080   4.269   3.071
 1637TIP3    H2 4876   2.991   4.384   3.113
 1638TIP3   OH2 4877   1.941   0.867   0.452
 1638TIP3    H1 4878   1.894   0.808   0.510
 1638TIP3    H2 4879   1.953   0.818   0.371
 1639TIP3   OH2 4880   3.427   1.048   4.305
 1639TIP3    H1 4881   3.391   0.998   4.232
 1639TIP3    H2 4882   3.379   1.131   4.304
 1640TIP3   OH2 4883   1.454   6.458   3.347
 1640TIP3    H1 4884   1.376   6.422   3.304
 1640TIP3    H2 4885   1.524   6.446   3.283
 1641TIP3   OH2 4886   7.159   0.381   4.726
 1641TIP3    H1 4887   7.129   0.338   4.806
 1641TIP3    H2 4888   7.127   0.471   4.733
 1642TIP3   OH2 4889   4.844   6.686   4.606
 1642TIP3    H1 4890   4.886   6.620   4.661
 1642TIP3    H2 4891   4.751   6.678   4.627
 1643TIP3   OH2 4892   0.195   2.119   1.622
 1643TIP3    H1 4893   0.256   2.074   1.564
 1643TIP3    H2 4894   0.245   2.193   1.657
 1644TIP3   OH2 4895   4.266   6.392   2.432
 1644TIP3    H1 4896   4.239   6.348   2.513
 1644TIP3    H2 4897   4.208   6.468   2.426
 1645TIP3   OH2 4898   0.166   4.575   2.554
 1645TIP3    H1 4899   0.133   4.499   2.602
 1645TIP3    H2 4900   0.241   4.543   2.506
 1646TIP3   OH2 4901   3.528   1.737   4.840
 1646TIP3    H1 4902   3.496   1.687   4.915
 1646TIP3    H2 4903   3.449   1.776   4.802
 1647TIP3   OH2 4904   3.338   0.392   2.645
 1647TIP3    H1 4905   3.294   0.332   2.584
 1647TIP3    H2 4906   3.425   0.354   2.657
 1648TIP3   OH2 4907   5.825   1.455   4.245
 1648TIP3    H1 4908   5.827   1.360   4.255
 1648TIP3    H2 4909   5.752   1.483   4.301
 1649TIP3   OH2 4910   1.445   5.253   5.576
 1649TIP3    H1 4911   1.518   5.308   5.605
 1649TIP3    H2 4912   1.428   5.281   5.486
 1650TIP3   OH2 4913   5.126   6.732   5.637
 1650TIP3    H1 4914   5.145   6.652   5.688
 1650TIP3    H2 4915   5.062   6.704   5.572
 1651TIP3   OH2 4916   6.350   4.025   4.535
 1651TIP3    H1 4917   6.285   3.989   4.474
 1651TIP3    H2 4918   6.389   3.947   4.576
 1652TIP3   OH2 4919   0.943   5.540   5.354
 1652TIP3    H1 4920   1.021   5.486   5.372
 1652TIP3    H2 4921   0.870   5.485   5.382
 1653TIP3   OH2 4922   3.002   1.142   5.146
 1653TIP3    H1 4923   3.068   1.185   5.200
 1653TIP3    H2 4924   2.945   1.213   5.116
 1654TIP3   OH2 4925   3.309   1.505   0.091
 1654TIP3    H1 4926   3.253   1.532   0.019
 1654TIP3    H2 4927   3.321   1.411   0.079
 1655TIP3   OH2 4928   4.057   5.658   2.720
 1655TIP3    H1 4929   3.972   5.636   2.759
 1655TIP3    H2 4930   4.047   5.748   2.690
 1656TIP3   OH2 4931   1.257   5.633   3.384
 1656TIP3    H1 4932   1.265   5.571   3.311
 1656TIP3    H2 4933   1.347   5.661   3.401
 1657TIP3   OH2 4934   3.872   0.851   4.141
 1657TIP3    H1 4935   3.833   0.882   4.059
 1657TIP3    H2 4936   3.799   0.846   4.202
 1658TIP3   OH2 4937   5.152   2.466   4.634
 1658TIP3    H1 4938   5.227   2.519   4.606
 1658TIP3    H2 4939   5.092   2.529   4.675
 1659TIP3   OH2 4940   4.714   2.633   1.183
 1659TIP3    H1 4941   4.720   2.560   1.244
 1659TIP3    H2 4942   4.624   2.629   1.150
 1660TIP3   OH2 4943   0.119   2.368   2.405
 1660TIP3    H1 4944   0.162   2.454   2.411
 1660TIP3    H2 4945   0.082   2.366   2.317
 1661TIP3   OH2 4946   1.707   1.111   2.529
 1661TIP3    H1 4947   1.743   1.183   2.477
 1661TIP3    H2 4948   1.676   1.048   2.464
 1662TIP3   OH2 4949   0.183   3.828   1.570
 1662TIP3    H1 4950   0.126   3.786   1.635
 1662TIP3    H2 4951   0.272   3.804   1.597
 1663TIP3   OH2 4952   1.330   0.184   3.465
 1663TIP3    H1 4953   1.332   0.143   3.552
 1663TIP3    H2 4954   1.294   0.271   3.482
 1664TIP3   OH2 4955   3.646   3.300   2.451
 1664TIP3    H1 4956   3.621   3.258   2.369
 1664TIP3    H2 4957   3.571   3.287   2.509
 1665TIP3   OH2 4958   6.172   3.366   3.768
 1665TIP3    H1 4959   6.209   3.389   3.853
 1665TIP3    H2 4960   6.173   3.447   3.717
 1666TIP3   OH2 4961   0.489   2.510   1.896
 1666TIP3    H1 4962   0.576   2.544   1.915
 1666TIP3    H2 4963   0.429   2.567   1.945
 1667TIP3   OH2 4964   4.491   1.434   5.165
 1667TIP3    H1 4965   4.522   1.344   5.165
 1667TIP3    H2 4966   4.518   1.469   5.251
 1668TIP3   OH2 4967   5.352   4.587   4.575
 1668TIP3    H1 4968   5.286   4.600   4.643
 1668TIP3    H2 4969   5.318   4.513   4.523
 1669TIP3   OH2 4970   1.849   2.407   1.785
 1669TIP3    H1 4971   1.913   2.472   1.754
 1669TIP3    H2 4972   1.874   2.391   1.876
 1670TIP3   OH2 4973   4.531   2.770   4.006
 1670TIP3    H1 4974   4.485   2.852   4.023
 1670TIP3    H2 4975   4.471   2.721   3.949
 1671TIP3   OH2 4976   6.428   3.950   5.063
 1671TIP3    H1 4977   6.498   4.016   5.056
 1671TIP3    H2 4978   6.354   3.989   5.018
 1672TIP3   OH2 4979   2.016   4.260   1.655
 1672TIP3    H1 4980   1.957   4.232   1.726
 1672TIP3    H2 4981   2.091   4.299   1.700
 1673TIP3   OH2 4982   1.851   4.558   2.241
 1673TIP3    H1 4983   1.848   4.625   2.173
 1673TIP3    H2 4984   1.791   4.490   2.209
 1674TIP3   OH2 4985   1.409   3.608   3.111
 1674TIP3    H1 4986   1.391   3.519   3.080
 1674TIP3    H2 4987   1.461   3.648   3.040
 1675TIP3   OH2 4988   3.091   5.494   3.320
 1675TIP3    H1 4989   3.089   5.526   3.411
 1675TIP3    H2 4990   3.156   5.424   3.321
 1676TIP3   OH2 4991   2.219   4.334   1.866
 1676TIP3    H1 4992   2.228   4.239   1.860
 1676TIP3    H2 4993   2.223   4.353   1.960
 1677TIP3   OH2 4994   6.001   1.611   4.638
 1677TIP3    H1 4995   6.085   1.614   4.683
 1677TIP3    H2 4996   5.996   1.523   4.602
 1678TIP3   OH2 4997   3.060   1.564   3.279
 1678TIP3    H1 4998   2.973   1.543   3.245
 1678TIP3    H2 4999   3.087   1.486   3.328
 1679TIP3   OH2 5000   4.213   1.661   2.771
 1679TIP3    H1 5001   4.235   1.572   2.744
 1679TIP3    H2 5002   4.232   1.664   2.865
 1680TIP3   OH2 5003   0.110   3.161   5.433
 1680TIP3    H1 5004   0.045   3.174   5.503
 1680TIP3    H2 5005   0.107   3.067   5.414
 1681TIP3   OH2 5006   5.612   0.103   0.574
 1681TIP3    H1 5007   5.589   0.068   0.660
 1681TIP3    H2 5008   5.585   0.195   0.578
 1682TIP3   OH2 5009   7.231   0.902   0.312
 1682TIP3    H1 5010   7.175   0.934   0.240
 1682TIP3    H2 5011   7.175   0.843   0.361
 1683TIP3   OH2 5012   4.074   2.181   4.894
 1683TIP3    H1 5013   4.094   2.261   4.943
 1683TIP3    H2 5014   4.146   2.171   4.832
 1684TIP3   OH2 5015   0.051   0.538   5.697
 1684TIP3    H1 5016   0.128   0.483   5.683
 1684TIP3    H2 5017   0.082   0.627   5.681
 1685TIP3   OH2 5018   1.970   2.432   2.578
 1685TIP3    H1 5019   2.033   2.492   2.537
 1685TIP3    H2 5020   1.886   2.454   2.537
 1686TIP3   OH2 5021   6.345   3.586   2.957
 1686TIP3    H1 5022   6.268   3.613   2.906
 1686TIP3    H2 5023   6.339   3.491   2.960
 1687TIP3   OH2 5024   0.123   4.915   3.126
 1687TIP3    H1 5025   0.060   4.951   3.064
 1687TIP3    H2 5026   0.104   4.958   3.209
 1688TIP3   OH2 5027   6.233   3.155   2.142
 1688TIP3    H1 5028   6.143   3.162   2.111
 1688TIP3    H2 5029   6.232   3.084   2.206
 1689TIP3   OH2 5030   3.082   1.400   2.959
 1689TIP3    H1 5031   3.162   1.452   2.960
 1689TIP3    H2 5032   3.018   1.453   3.008
 1690TIP3   OH2 5033   6.087   1.956   2.327
 1690TIP3    H1 5034   6.035   1.881   2.355
 1690TIP3    H2 5035   6.157   1.920   2.273
 1691TIP3   OH2 5036   6.216   2.427   3.023
 1691TIP3    H1 5037   6.265   2.352   2.990
 1691TIP3    H2 5038   6.162   2.390   3.094
 1692TIP3   OH2 5039   3.394   6.301   4.483
 1692TIP3    H1 5040   3.343   6.242   4.539
 1692TIP3    H2 5041   3.329   6.363   4.449
 1693TIP3   OH2 5042   6.520   1.221   0.545
 1693TIP3    H1 5043   6.463   1.150   0.518
 1693TIP3    H2 5044   6.463   1.283   0.590
 1694TIP3   OH2 5045   0.989   6.200   0.582
 1694TIP3    H1 5046   1.067   6.169   0.628
 1694TIP3    H2 5047   0.924   6.131   0.596
 1695TIP3   OH2 5048   5.264   0.004   3.177
 1695TIP3    H1 5049   5.216   0.082   3.151
 1695TIP3    H2 5050   5.289   0.021   3.268
 1696TIP3   OH2 5051   0.461   4.556   4.860
 1696TIP3    H1 5052   0.374   4.553   4.819
 1696TIP3    H2 5053   0.456   4.490   4.930
 1697TIP3   OH2 5054   0.810   1.888   0.351
 1697TIP3    H1 5055   0.819   1.801   0.312
 1697TIP3    H2 5056   0.760   1.874   0.431
 1698TIP3   OH2 5057   0.482   6.516   4.016
 1698TIP3    H1 5058   0.478   6.420   4.023
 1698TIP3    H2 5059   0.506   6.533   3.925
 1699TIP3   OH2 5060   0.301   0.647   2.449
 1699TIP3    H1 5061   0.211   0.648   2.480
 1699TIP3    H2 5062   0.295   0.633   2.355
 1700TIP3   OH2 5063   0.965   0.693   5.536
 1700TIP3    H1 5064   0.930   0.695   5.447
 1700TIP3    H2 5065   0.894   0.723   5.591
 1701TIP3   OH2 5066   2.958   4.445   0.034
 1701TIP3    H1 5067   2.947   4.360   0.077
 1701TIP3    H2 5068   2.970   4.506   0.106
 1702TIP3   OH2 5069   4.552   5.422  -0.015
 1702TIP3    H1 5070   4.598   5.404   0.067
 1702TIP3    H2 5071   4.566   5.343  -0.068
 1703TIP3   OH2 5072   6.014   5.953   0.218
 1703TIP3    H1 5073   5.973   5.867   0.228
 1703TIP3    H2 5074   5.973   6.007   0.286
 1704TIP3   OH2 5075   0.090   0.526   2.782
 1704TIP3    H1 5076   0.102   0.577   2.862
 1704TIP3    H2 5077   0.173   0.478   2.772
 1705TIP3   OH2 5078   3.956   3.252   0.251
 1705TIP3    H1 5079   4.012   3.220   0.179
 1705TIP3    H2 5080   3.953   3.179   0.313
 1706TIP3   OH2 5081   4.060   1.122   5.678
 1706TIP3    H1 5082   4.010   1.196   5.715
 1706TIP3    H2 5083   4.110   1.160   5.607
 1707TIP3   OH2 5084   1.528   3.728   0.076
 1707TIP3    H1 5085   1.528   3.731   0.172
 1707TIP3    H2 5086   1.501   3.639   0.055
 1708TIP3   OH2 5087   1.833   3.167   4.782
 1708TIP3    H1 5088   1.787   3.205   4.708
 1708TIP3    H2 5089   1.780   3.091   4.808
 1709TIP3   OH2 5090   5.070   4.012   3.122
 1709TIP3    H1 5091   5.032   4.099   3.109
 1709TIP3    H2 5092   5.026   3.978   3.200
 1710TIP3   OH2 5093   1.750   1.572  -0.041
 1710TIP3    H1 5094   1.659   1.600  -0.028
 1710TIP3    H2 5095   1.787   1.568   0.047
 1711TIP3   OH2 5096   0.562   1.335   1.482
 1711TIP3    H1 5097   0.507   1.278   1.428
 1711TIP3    H2 5098   0.623   1.375   1.420
 1712TIP3   OH2 5099   3.768   2.142   3.539
 1712TIP3    H1 5100   3.843   2.191   3.573
 1712TIP3    H2 5101   3.698   2.159   3.601
 1713TIP3   OH2 5102   0.428   3.328   5.921
 1713TIP3    H1 5103   0.360   3.364   5.977
 1713TIP3    H2 5104   0.441   3.239   5.953
 1714TIP3   OH2 5105   2.735   3.914   1.801
 1714TIP3    H1 5106   2.692   3.834   1.771
 1714TIP3    H2 5107   2.726   3.912   1.896
 1715TIP3   OH2 5108   5.123   0.691   3.053
 1715TIP3    H1 5109   5.210   0.653   3.056
 1715TIP3    H2 5110   5.138   0.784   3.035
 1716TIP3   OH2 5111   2.516   2.613   2.753
 1716TIP3    H1 5112   2.492   2.703   2.732
 1716TIP3    H2 5113   2.435   2.563   2.742
 1717TIP3   OH2 5114   6.771   0.977   3.787
 1717TIP3    H1 5115   6.808   0.933   3.863
 1717TIP3    H2 5116   6.756   1.067   3.816
 1718TIP3   OH2 5117   3.729   4.127   1.953
 1718TIP3    H1 5118   3.716   4.091   2.041
 1718TIP3    H2 5119   3.750   4.219   1.967
 1719TIP3   OH2 5120   3.358   6.654   2.505
 1719TIP3    H1 5121   3.296   6.722   2.479
 1719TIP3    H2 5122   3.324   6.622   2.589
 1720TIP3   OH2 5123   1.460   0.109   5.705
 1720TIP3    H1 5124   1.528   0.080   5.766
 1720TIP3    H2 5125   1.425   0.028   5.668
 1721TIP3   OH2 5126   2.314   5.938   3.296
 1721TIP3    H1 5127   2.249   6.007   3.280
 1721TIP3    H2 5128   2.306   5.919   3.389
 1722TIP3   OH2 5129   6.894   3.110   3.644
 1722TIP3    H1 5130   6.866   3.101   3.553
 1722TIP3    H2 5131   6.987   3.130   3.639
 1723TIP3   OH2 5132   2.777   4.824   2.477
 1723TIP3    H1 5133   2.762   4.774   2.558
 1723TIP3    H2 5134   2.739   4.910   2.496
 1724TIP3   OH2 5135   4.869   2.466   4.535
 1724TIP3    H1 5136   4.934   2.420   4.481
 1724TIP3    H2 5137   4.892   2.558   4.526
 1725TIP3   OH2 5138   5.509   2.080   1.701
 1725TIP3    H1 5139   5.518   1.991   1.667
 1725TIP3    H2 5140   5.504   2.068   1.796
 1726TIP3   OH2 5141   3.546   0.749   1.684
 1726TIP3    H1 5142   3.628   0.712   1.716
 1726TIP3    H2 5143   3.513   0.685   1.621
 1727TIP3   OH2 5144   7.213   0.090   0.736
 1727TIP3    H1 5145   7.125   0.104   0.702
 1727TIP3    H2 5146   7.221   0.152   0.809
 1728TIP3   OH2 5147   3.359   2.061   3.514
 1728TIP3    H1 5148   3.306   2.120   3.568
 1728TIP3    H2 5149   3.411   2.119   3.458
 1729TIP3   OH2 5150   0.778   0.169   3.085
 1729TIP3    H1 5151   0.765   0.203   2.997
 1729TIP3    H2 5152   0.691   0.137   3.111
 1730TIP3   OH2 5153   7.070   2.390   3.191
 1730TIP3    H1 5154   7.106   2.469   3.151
 1730TIP3    H2 5155   7.016   2.350   3.122
 1731TIP3   OH2 5156   5.428   2.550   0.402
 1731TIP3    H1 5157   5.448   2.516   0.489
 1731TIP3    H2 5158   5.489   2.623   0.390
 1732TIP3   OH2 5159   3.782   1.208   0.441
 1732TIP3    H1 5160   3.761   1.147   0.512
 1732TIP3    H2 5161   3.757   1.161   0.361
 1733TIP3   OH2 5162   6.261   2.366   0.118
 1733TIP3    H1 5163   6.221   2.345   0.034
 1733TIP3    H2 5164   6.279   2.460   0.113
 1734TIP3   OH2 5165   6.202   2.755   5.368
 1734TIP3    H1 5166   6.219   2.701   5.445
 1734TIP3    H2 5167   6.195   2.844   5.402
 1735TIP3   OH2 5168   1.084   6.283   0.209
 1735TIP3    H1 5169   1.063   6.279   0.116
 1735TIP3    H2 5170   0.999   6.284   0.253
 1736TIP3   OH2 5171   0.456   1.231   5.749
 1736TIP3    H1 5172   0.501   1.155   5.787
 1736TIP3    H2 5173   0.522   1.272   5.693
 1737TIP3   OH2 5174   6.706   6.254   3.567
 1737TIP3    H1 5175   6.652   6.181   3.597
 1737TIP3    H2 5176   6.704   6.248   3.471
 1738TIP3   OH2 5177   2.921   4.239   4.932
 1738TIP3    H1 5178   2.900   4.287   4.852
 1738TIP3    H2 5179   3.008   4.269   4.956
 1739TIP3   OH2 5180   5.946   5.617   5.545
 1739TIP3    H1 5181   5.931   5.585   5.456
 1739TIP3    H2 5182   5.863   5.658   5.570
 1740TIP3   OH2 5183   1.719   0.288   4.365
 1740TIP3    H1 5184   1.718   0.381   4.343
 1740TIP3    H2 5185   1.812   0.263   4.359
 1741TIP3   OH2 5186   6.348   0.564   3.313
 1741TIP3    H1 5187   6.324   0.645   3.267
 1741TIP3    H2 5188   6.331   0.494   3.249
 1742TIP3   OH2 5189   1.156   0.696   3.600
 1742TIP3    H1 5190   1.231   0.747   3.629
 1742TIP3    H2 5191   1.093   0.704   3.671
 1743TIP3   OH2 5192   7.174   2.232   2.564
 1743TIP3    H1 5193   7.128   2.177   2.500
 1743TIP3    H2 5194   7.220   2.297   2.511
 1744TIP3   OH2 5195   1.134   5.423   0.349
 1744TIP3    H1 5196   1.051   5.444   0.392
 1744TIP3    H2 5197   1.191   5.496   0.371
 1745TIP3   OH2 5198   4.108   2.660   0.653
 1745TIP3    H1 5199   4.056   2.699   0.722
 1745TIP3    H2 5200   4.064   2.685   0.572
 1746TIP3   OH2 5201   2.417   3.736   0.664
 1746TIP3    H1 5202   2.386   3.823   0.639
 1746TIP3    H2 5203   2.361   3.676   0.615
 1747TIP3   OH2 5204   1.559   2.436   0.981
 1747TIP3    H1 5205   1.519   2.450   1.067
 1747TIP3    H2 5206   1.534   2.513   0.930
 1748TIP3   OH2 5207   5.938   0.741   3.145
 1748TIP3    H1 5208   5.932   0.670   3.081
 1748TIP3    H2 5209   5.959   0.819   3.093
 1749TIP3   OH2 5210   1.298   4.280   1.618
 1749TIP3    H1 5211   1.352   4.360   1.619
 1749TIP3    H2 5212   1.208   4.312   1.621
 1750TIP3   OH2 5213   5.396   2.019   2.175
 1750TIP3    H1 5214   5.349   2.059   2.101
 1750TIP3    H2 5215   5.330   1.966   2.220
 1751TIP3   OH2 5216   2.139   2.931   0.560
 1751TIP3    H1 5217   2.146   2.989   0.485
 1751TIP3    H2 5218   2.045   2.925   0.577
 1752TIP3   OH2 5219   6.211   6.091   0.798
 1752TIP3    H1 5220   6.164   6.103   0.880
 1752TIP3    H2 5221   6.223   6.179   0.763
 1753TIP3   OH2 5222   1.488   1.544   4.373
 1753TIP3    H1 5223   1.446   1.468   4.413
 1753TIP3    H2 5224   1.577   1.515   4.353
 1754TIP3   OH2 5225   4.311   4.662   4.912
 1754TIP3    H1 5226   4.245   4.626   4.853
 1754TIP3    H2 5227   4.346   4.739   4.866
 1755TIP3   OH2 5228   1.005   0.828   0.582
 1755TIP3    H1 5229   1.064   0.805   0.653
 1755TIP3    H2 5230   1.040   0.910   0.547
 1756TIP3   OH2 5231   3.982   1.423   5.832
 1756TIP3    H1 5232   4.067   1.443   5.794
 1756TIP3    H2 5233   3.922   1.488   5.794
 1757TIP3   OH2 5234   1.369   5.114   1.704
 1757TIP3    H1 5235   1.356   5.204   1.733
 1757TIP3    H2 5236   1.322   5.060   1.768
 1758TIP3   OH2 5237   5.059   2.509   0.135
 1758TIP3    H1 5238   5.025   2.429   0.094
 1758TIP3    H2 5239   5.115   2.548   0.068
 1759TIP3   OH2 5240   1.900   0.875   2.920
 1759TIP3    H1 5241   1.875   0.959   2.881
 1759TIP3    H2 5242   1.831   0.814   2.892
 1760TIP3   OH2 5243   6.714   5.548   2.936
 1760TIP3    H1 5244   6.651   5.476   2.939
 1760TIP3    H2 5245   6.729   5.564   2.843
 1761TIP3   OH2 5246   6.206   4.259   4.562
 1761TIP3    H1 5247   6.248   4.176   4.540
 1761TIP3    H2 5248   6.256   4.293   4.637
 1762TIP3   OH2 5249   2.830   6.364   1.195
 1762TIP3    H1 5250   2.765   6.338   1.261
 1762TIP3    H2 5251   2.852   6.454   1.217
 1763TIP3   OH2 5252   4.734   0.930   5.345
 1763TIP3    H1 5253   4.739   0.900   5.436
 1763TIP3    H2 5254   4.725   1.025   5.352
 1764TIP3   OH2 5255   1.078   3.551   3.750
 1764TIP3    H1 5256   1.004   3.505   3.711
 1764TIP3    H2 5257   1.137   3.569   3.677
 1765TIP3   OH2 5258   6.039   0.633   5.216
 1765TIP3    H1 5259   6.074   0.559   5.167
 1765TIP3    H2 5260   5.950   0.645   5.183
 1766TIP3   OH2 5261   6.803   3.291   4.345
 1766TIP3    H1 5262   6.811   3.386   4.335
 1766TIP3    H2 5263   6.809   3.257   4.255
 1767TIP3   OH2 5264   4.175   3.335   3.111
 1767TIP3    H1 5265   4.217   3.421   3.112
 1767TIP3    H2 5266   4.210   3.292   3.033
 1768TIP3   OH2 5267   7.196   3.506   5.577
 1768TIP3    H1 5268   7.119   3.525   5.522
 1768TIP3    H2 5269   7.269   3.505   5.516
 1769TIP3   OH2 5270   5.011   4.679   5.204
 1769TIP3    H1 5271   5.020   4.755   5.262
 1769TIP3    H2 5272   4.917   4.661   5.204
 1770TIP3   OH2 5273   5.604   3.508   0.456
 1770TIP3    H1 5274   5.530   3.562   0.481
 1770TIP3    H2 5275   5.578   3.419   0.479
 1771TIP3   OH2 5276   1.297   1.358   0.513
 1771TIP3    H1 5277   1.315   1.345   0.606
 1771TIP3    H2 5278   1.307   1.271   0.474
 1772TIP3   OH2 5279   2.117   5.324   5.298
 1772TIP3    H1 5280   2.021   5.324   5.303
 1772TIP3    H2 5281   2.144   5.390   5.363
 1773TIP3   OH2 5282   5.695   2.000   3.694
 1773TIP3    H1 5283   5.779   1.983   3.735
 1773TIP3    H2 5284   5.630   1.984   3.763
 1774TIP3   OH2 5285   6.048   5.202   5.355
 1774TIP3    H1 5286   6.130   5.210   5.403
 1774TIP3    H2 5287   6.014   5.117   5.380
 1775TIP3   OH2 5288   2.566   3.411   5.687
 1775TIP3    H1 5289   2.659   3.419   5.710
 1775TIP3    H2 5290   2.536   3.501   5.676
 1776TIP3   OH2 5291   0.015   3.155   0.379
 1776TIP3    H1 5292   0.002   3.135   0.472
 1776TIP3    H2 5293   0.071   3.084   0.347
 1777TIP3   OH2 5294   3.925   0.624   4.273
 1777TIP3    H1 5295   3.932   0.677   4.194
 1777TIP3    H2 5296   3.934   0.533   4.243
 1778TIP3   OH2 5297   3.467   1.897   5.772
 1778TIP3    H1 5298   3.553   1.938   5.783
 1778TIP3    H2 5299   3.471   1.818   5.826
 1779TIP3   OH2 5300   4.407   4.639   2.240
 1779TIP3    H1 5301   4.367   4.626   2.154
 1779TIP3    H2 5302   4.335   4.669   2.296
 1780TIP3   OH2 5303   0.448   5.588   4.140
 1780TIP3    H1 5304   0.526   5.639   4.159
 1780TIP3    H2 5305   0.474   5.529   4.069
 1781TIP3   OH2 5306   5.896   2.674   4.571
 1781TIP3    H1 5307   5.882   2.639   4.483
 1781TIP3    H2 5308   5.976   2.726   4.563
 1782TIP3   OH2 5309   3.680   4.662   0.627
 1782TIP3    H1 5310   3.736   4.734   0.654
 1782TIP3    H2 5311   3.674   4.606   0.704
 1783TIP3   OH2 5312   4.435   0.562   3.755
 1783TIP3    H1 5313   4.507   0.531   3.809
 1783TIP3    H2 5314   4.397   0.482   3.718
 1784TIP3   OH2 5315   6.291   5.137   1.969
 1784TIP3    H1 5316   6.241   5.121   2.049
 1784TIP3    H2 5317   6.302   5.050   1.929
 1785TIP3   OH2 5318   3.798   6.261   4.791
 1785TIP3    H1 5319   3.750   6.344   4.795
 1785TIP3    H2 5320   3.747   6.202   4.847
 1786TIP3   OH2 5321   3.071   3.591   4.046
 1786TIP3    H1 5322   3.011   3.640   3.990
 1786TIP3    H2 5323   3.141   3.562   3.988
 1787TIP3   OH2 5324   5.275   3.854   4.358
 1787TIP3    H1 5325   5.361   3.893   4.343
 1787TIP3    H2 5326   5.276   3.772   4.309
 1788TIP3   OH2 5327   2.583   1.126   2.895
 1788TIP3    H1 5328   2.677   1.135   2.916
 1788TIP3    H2 5329   2.559   1.212   2.861
 1789TIP3   OH2 5330   4.001   1.683   4.480
 1789TIP3    H1 5331   4.093   1.681   4.507
 1789TIP3    H2 5332   3.999   1.639   4.395
 1790TIP3   OH2 5333   4.756   5.360   3.154
 1790TIP3    H1 5334   4.700   5.433   3.128
 1790TIP3    H2 5335   4.715   5.325   3.233
 1791TIP3   OH2 5336   6.364   6.202   3.957
 1791TIP3    H1 5337   6.410   6.279   3.989
 1791TIP3    H2 5338   6.352   6.218   3.863
 1792TIP3   OH2 5339   5.067   6.336   4.206
 1792TIP3    H1 5340   5.016   6.416   4.199
 1792TIP3    H2 5341   5.155   6.366   4.231
 1793TIP3   OH2 5342   3.485   1.026   0.399
 1793TIP3    H1 5343   3.518   1.050   0.486
 1793TIP3    H2 5344   3.461   1.109   0.359
 1794TIP3   OH2 5345   4.095   3.153   4.433
 1794TIP3    H1 5346   4.005   3.154   4.465
 1794TIP3    H2 5347   4.139   3.222   4.483
 1795TIP3   OH2 5348   6.993   0.739   3.528
 1795TIP3    H1 5349   6.970   0.823   3.568
 1795TIP3    H2 5350   6.914   0.712   3.482
 1796TIP3   OH2 5351   4.777  -0.030   3.562
 1796TIP3    H1 5352   4.722   0.043   3.532
 1796TIP3    H2 5353   4.859  -0.020   3.514
 1797TIP3   OH2 5354   5.902   6.631   1.871
 1797TIP3    H1 5355   5.867   6.589   1.793
 1797TIP3    H2 5356   5.930   6.559   1.927
 1798TIP3   OH2 5357   5.048   2.820   1.450
 1798TIP3    H1 5358   4.975   2.836   1.390
 1798TIP3    H2 5359   5.032   2.880   1.523
 1799TIP3   OH2 5360   5.578   0.795   4.271
 1799TIP3    H1 5361   5.493   0.821   4.235
 1799TIP3    H2 5362   5.642   0.832   4.211
 1800TIP3   OH2 5363   5.250   2.163   2.863
 1800TIP3    H1 5364   5.295   2.239   2.825
 1800TIP3    H2 5365   5.175   2.200   2.910
 1801TIP3   OH2 5366   5.062   2.147   3.837
 1801TIP3    H1 5367   5.044   2.130   3.745
 1801TIP3    H2 5368   5.117   2.225   3.837
 1802TIP3   OH2 5369   1.159   2.062   4.929
 1802TIP3    H1 5370   1.215   2.125   4.975
 1802TIP3    H2 5371   1.090   2.041   4.992
 1803TIP3   OH2 5372   6.670   3.036   0.618
 1803TIP3    H1 5373   6.587   2.994   0.640
 1803TIP3    H2 5374   6.700   3.074   0.700
 1804TIP3   OH2 5375   0.108   6.704   2.465
 1804TIP3    H1 5376   0.146   6.681   2.550
 1804TIP3    H2 5377   0.058   6.627   2.439
 1805TIP3   OH2 5378   4.362   3.811   2.206
 1805TIP3    H1 5379   4.456   3.827   2.213
 1805TIP3    H2 5380   4.347   3.734   2.260
 1806TIP3   OH2 5381   4.980   6.298   2.992
 1806TIP3    H1 5382   5.026   6.342   2.920
 1806TIP3    H2 5383   4.897   6.346   3.001
 1807TIP3   OH2 5384   4.199   0.603   4.404
 1807TIP3    H1 5385   4.144   0.642   4.472
 1807TIP3    H2 5386   4.279   0.576   4.450
 1808TIP3   OH2 5387   5.812   4.770   1.685
 1808TIP3    H1 5388   5.754   4.756   1.611
 1808TIP3    H2 5389   5.860   4.850   1.663
 1809TIP3   OH2 5390   0.565   4.834   1.758
 1809TIP3    H1 5391   0.588   4.741   1.754
 1809TIP3    H2 5392   0.564   4.855   1.851
 1810TIP3   OH2 5393   1.233   0.624   4.074
 1810TIP3    H1 5394   1.153   0.576   4.097
 1810TIP3    H2 5395   1.235   0.624   3.979
 1811TIP3   OH2 5396   0.919   5.592   4.732
 1811TIP3    H1 5397   0.880   5.654   4.670
 1811TIP3    H2 5398   0.919   5.509   4.686
 1812TIP3   OH2 5399   4.093   4.705   0.248
 1812TIP3    H1 5400   4.053   4.761   0.314
 1812TIP3    H2 5401   4.164   4.660   0.293
 1813TIP3   OH2 5402   2.480   4.692   5.007
 1813TIP3    H1 5403   2.478   4.602   4.974
 1813TIP3    H2 5404   2.403   4.733   4.968
 1814TIP3   OH2 5405   0.724   4.812   3.013
 1814TIP3    H1 5406   0.687   4.727   3.033
 1814TIP3    H2 5407   0.650   4.873   3.017
 1815TIP3   OH2 5408   0.753   4.935   3.297
 1815TIP3    H1 5409   0.810   4.986   3.356
 1815TIP3    H2 5410   0.801   4.853   3.284
 1816TIP3   OH2 5411   1.402   3.879   2.906
 1816TIP3    H1 5412   1.496   3.869   2.922
 1816TIP3    H2 5413   1.371   3.930   2.981
 1817TIP3   OH2 5414   1.840   2.975   0.002
 1817TIP3    H1 5415   1.829   2.921   0.081
 1817TIP3    H2 5416   1.935   2.975  -0.014
 1818TIP3   OH2 5417   6.582   6.767   1.852
 1818TIP3    H1 5418   6.502   6.717   1.870
 1818TIP3    H2 5419   6.602   6.810   1.935
 1819TIP3   OH2 5420   6.253   2.642   5.074
 1819TIP3    H1 5421   6.290   2.646   5.162
 1819TIP3    H2 5422   6.226   2.551   5.064
 1820TIP3   OH2 5423   6.162   3.418   2.554
 1820TIP3    H1 5424   6.115   3.456   2.628
 1820TIP3    H2 5425   6.158   3.324   2.568
 1821TIP3   OH2 5426   0.240   5.677   2.779
 1821TIP3    H1 5427   0.265   5.728   2.856
 1821TIP3    H2 5428   0.145   5.685   2.774
 1822TIP3   OH2 5429   5.498   1.670   2.234
 1822TIP3    H1 5430   5.462   1.757   2.252
 1822TIP3    H2 5431   5.432   1.609   2.267
 1823TIP3   OH2 5432   2.675   5.845   2.694
 1823TIP3    H1 5433   2.589   5.822   2.659
 1823TIP3    H2 5434   2.704   5.766   2.740
 1824TIP3   OH2 5435   3.338   3.542   3.051
 1824TIP3    H1 5436   3.279   3.546   3.126
 1824TIP3    H2 5437   3.342   3.448   3.029
 1825TIP3   OH2 5438   4.796   5.854   3.654
 1825TIP3    H1 5439   4.824   5.945   3.664
 1825TIP3    H2 5440   4.861   5.815   3.596
 1826TIP3   OH2 5441   5.633   5.632   5.568
 1826TIP3    H1 5442   5.563   5.585   5.613
 1826TIP3    H2 5443   5.638   5.591   5.482
 1827TIP3   OH2 5444   0.454   6.581   5.409
 1827TIP3    H1 5445   0.438   6.514   5.343
 1827TIP3    H2 5446   0.427   6.542   5.492
 1828TIP3   OH2 5447   5.930   3.624   2.160
 1828TIP3    H1 5448   5.976   3.556   2.209
 1828TIP3    H2 5449   5.873   3.576   2.099
 1829TIP3   OH2 5450   6.092   4.789   4.033
 1829TIP3    H1 5451   6.126   4.751   3.952
 1829TIP3    H2 5452   6.156   4.857   4.056
 1830TIP3   OH2 5453   3.224   6.070   1.066
 1830TIP3    H1 5454   3.257   5.980   1.060
 1830TIP3    H2 5455   3.302   6.123   1.082
 1831TIP3   OH2 5456   3.981   4.691   4.125
 1831TIP3    H1 5457   3.962   4.781   4.153
 1831TIP3    H2 5458   3.961   4.690   4.032
 1832TIP3   OH2 5459   2.381   4.127   2.180
 1832TIP3    H1 5460   2.344   4.179   2.250
 1832TIP3    H2 5461   2.476   4.131   2.194
 1833TIP3   OH2 5462   1.724   2.201   0.941
 1833TIP3    H1 5463   1.815   2.205   0.969
 1833TIP3    H2 5464   1.684   2.280   0.979
 1834TIP3   OH2 5465   5.331   4.900   1.777
 1834TIP3    H1 5466   5.395   4.833   1.803
 1834TIP3    H2 5467   5.288   4.925   1.859
 1835TIP3   OH2 5468   2.878   2.829   4.916
 1835TIP3    H1 5469   2.929   2.869   4.986
 1835TIP3    H2 5470   2.811   2.777   4.961
 1836TIP3   OH2 5471   3.790   5.705   4.968
 1836TIP3    H1 5472   3.785   5.743   4.880
 1836TIP3    H2 5473   3.883   5.704   4.988
 1837TIP3   OH2 5474   3.853   5.202   0.721
 1837TIP3    H1 5475   3.780   5.229   0.666
 1837TIP3    H2 5476   3.817   5.203   0.810
 1838TIP3   OH2 5477   0.617   4.382   0.952
 1838TIP3    H1 5478   0.583   4.471   0.944
 1838TIP3    H2 5479   0.593   4.339   0.870
 1839TIP3   OH2 5480   5.180   3.959   5.906
 1839TIP3    H1 5481   5.213   4.048   5.922
 1839TIP3    H2 5482   5.256   3.912   5.870
 1840TIP3   OH2 5483   2.584   6.181   4.911
 1840TIP3    H1 5484   2.670   6.220   4.902
 1840TIP3    H2 5485   2.525   6.241   4.865
 1841TIP3   OH2 5486   5.480   1.236   0.192
 1841TIP3    H1 5487   5.395   1.277   0.207
 1841TIP3    H2 5488   5.510   1.210   0.280
 1842TIP3   OH2 5489   5.422   5.967   4.962
 1842TIP3    H1 5490   5.477   5.961   5.040
 1842TIP3    H2 5491   5.455   5.898   4.904
 1843TIP3   OH2 5492   5.493   0.192   2.910
 1843TIP3    H1 5493   5.525   0.131   2.976
 1843TIP3    H2 5494   5.401   0.171   2.899
 1844TIP3   OH2 5495   3.970   1.115   0.900
 1844TIP3    H1 5496   4.047   1.102   0.955
 1844TIP3    H2 5497   3.998   1.176   0.832
 1845TIP3   OH2 5498   7.004   3.606   0.733
 1845TIP3    H1 5499   6.997   3.660   0.812
 1845TIP3    H2 5500   6.936   3.540   0.743
 1846TIP3   OH2 5501   4.749   1.903   0.584
 1846TIP3    H1 5502   4.725   1.900   0.677
 1846TIP3    H2 5503   4.758   1.811   0.559
 1847TIP3   OH2 5504   4.961   0.223   4.785
 1847TIP3    H1 5505   5.028   0.288   4.805
 1847TIP3    H2 5506   4.902   0.226   4.860
 1848TIP3   OH2 5507   2.022   0.870   2.305
 1848TIP3    H1 5508   2.117   0.864   2.314
 1848TIP3    H2 5509   1.989   0.860   2.395
 1849TIP3   OH2 5510   3.460   2.816   1.624
 1849TIP3    H1 5511   3.504   2.742   1.666
 1849TIP3    H2 5512   3.524   2.887   1.626
 1850TIP3   OH2 5513   1.090   5.159   2.401
 1850TIP3    H1 5514   1.011   5.196   2.361
 1850TIP3    H2 5515   1.060   5.121   2.483
 1851TIP3   OH2 5516   0.699   3.096   2.125
 1851TIP3    H1 5517   0.768   3.156   2.153
 1851TIP3    H2 5518   0.695   3.106   2.030
 1852TIP3   OH2 5519   4.486   0.524   5.110
 1852TIP3    H1 5520   4.476   0.562   5.023
 1852TIP3    H2 5521   4.526   0.593   5.162
 1853TIP3   OH2 5522   2.935   5.668   4.518
 1853TIP3    H1 5523   2.871   5.731   4.485
 1853TIP3    H2 5524   2.894   5.630   4.596
 1854TIP3   OH2 5525   0.145   5.731   5.239
 1854TIP3    H1 5526   0.193   5.650   5.225
 1854TIP3    H2 5527   0.056   5.712   5.208
 1855TIP3   OH2 5528   1.876   3.322   5.209
 1855TIP3    H1 5529   1.792   3.351   5.172
 1855TIP3    H2 5530   1.866   3.334   5.303
 1856TIP3   OH2 5531   0.752   1.128   2.574
 1856TIP3    H1 5532   0.803   1.070   2.517
 1856TIP3    H2 5533   0.757   1.213   2.532
 1857TIP3   OH2 5534   4.081   3.152  -0.010
 1857TIP3    H1 5535   4.064   3.243  -0.037
 1857TIP3    H2 5536   4.161   3.158   0.042
 1858TIP3   OH2 5537   1.448   5.643   3.037
 1858TIP3    H1 5538   1.452   5.598   2.953
 1858TIP3    H2 5539   1.464   5.574   3.102
 1859TIP3   OH2 5540   5.040   4.928   0.285
 1859TIP3    H1 5541   5.054   4.911   0.192
 1859TIP3    H2 5542   5.124   4.963   0.316
 1860TIP3   OH2 5543   3.844   2.011   4.147
 1860TIP3    H1 5544   3.789   2.017   4.225
 1860TIP3    H2 5545   3.934   2.012   4.181
 1861TIP3   OH2 5546   0.791   4.324   1.175
 1861TIP3    H1 5547   0.749   4.366   1.100
 1861TIP3    H2 5548   0.782   4.230   1.159
 1862TIP3   OH2 5549   0.363   3.957   0.836
 1862TIP3    H1 5550   0.304   4.031   0.821
 1862TIP3    H2 5551   0.316   3.881   0.804
 1863TIP3   OH2 5552   1.103   5.085   4.007
 1863TIP3    H1 5553   1.095   5.159   3.947
 1863TIP3    H2 5554   1.057   5.113   4.086
 1864TIP3   OH2 5555   0.446   4.710   3.839
 1864TIP3    H1 5556   0.378   4.656   3.799
 1864TIP3    H2 5557   0.519   4.708   3.777
 1865TIP3   OH2 5558   4.571   6.116   0.639
 1865TIP3    H1 5559   4.638   6.051   0.663
 1865TIP3    H2 5560   4.497   6.095   0.695
 1866TIP3   OH2 5561   5.377   2.219   5.934
 1866TIP3    H1 5562   5.284   2.244   5.928
 1866TIP3    H2 5563   5.375   2.134   5.977
 1867TIP3   OH2 5564   4.070   2.128   0.736
 1867TIP3    H1 5565   4.060   2.066   0.663
 1867TIP3    H2 5566   4.056   2.214   0.697
 1868TIP3   OH2 5567   1.976   2.209   5.782
 1868TIP3    H1 5568   1.998   2.201   5.689
 1868TIP3    H2 5569   2.038   2.150   5.827
 1869TIP3   OH2 5570   5.969   1.217   3.702
 1869TIP3    H1 5571   5.926   1.190   3.621
 1869TIP3    H2 5572   6.029   1.287   3.674
 1870TIP3   OH2 5573   5.719   6.186   5.560
 1870TIP3    H1 5574   5.683   6.257   5.506
 1870TIP3    H2 5575   5.772   6.231   5.626
 1871TIP3   OH2 5576   0.886   3.728   4.326
 1871TIP3    H1 5577   0.918   3.639   4.337
 1871TIP3    H2 5578   0.919   3.756   4.241
 1872TIP3   OH2 5579   2.636   4.594   1.384
 1872TIP3    H1 5580   2.720   4.605   1.340
 1872TIP3    H2 5581   2.658   4.567   1.473
 1873TIP3   OH2 5582   6.286   6.005   2.552
 1873TIP3    H1 5583   6.206   5.956   2.569
 1873TIP3    H2 5584   6.341   5.988   2.629
 1874TIP3   OH2 5585   2.197   1.591   1.223
 1874TIP3    H1 5586   2.231   1.594   1.313
 1874TIP3    H2 5587   2.103   1.576   1.233
 1875TIP3   OH2 5588   1.796   1.787   0.203
 1875TIP3    H1 5589   1.795   1.694   0.178
 1875TIP3    H2 5590   1.832   1.788   0.291
 1876TIP3   OH2 5591   1.720   5.319   2.897
 1876TIP3    H1 5592   1.745   5.280   2.813
 1876TIP3    H2 5593   1.631   5.287   2.913
 1877TIP3   OH2 5594   4.694   0.583   5.476
 1877TIP3    H1 5595   4.748   0.529   5.534
 1877TIP3    H2 5596   4.644   0.638   5.537
 1878TIP3   OH2 5597   6.028   3.746   0.989
 1878TIP3    H1 5598   5.989   3.807   0.926
 1878TIP3    H2 5599   6.075   3.683   0.935
 1879TIP3   OH2 5600   2.963   4.363   3.818
 1879TIP3    H1 5601   2.918   4.317   3.746
 1879TIP3    H2 5602   2.892   4.392   3.875
 1880TIP3   OH2 5603   2.513   3.565   4.605
 1880TIP3    H1 5604   2.499   3.512   4.683
 1880TIP3    H2 5605   2.584   3.521   4.558
 1881TIP3   OH2 5606   5.775   4.887   0.351
 1881TIP3    H1 5607   5.791   4.981   0.341
 1881TIP3    H2 5608   5.855   4.853   0.392
 1882TIP3   OH2 5609   4.559   6.374   5.524
 1882TIP3    H1 5610   4.570   6.412   5.437
 1882TIP3    H2 5611   4.563   6.279   5.509
 1883TIP3   OH2 5612   4.284   2.771   2.439
 1883TIP3    H1 5613   4.241   2.692   2.470
 1883TIP3    H2 5614   4.234   2.797   2.362
 1884TIP3   OH2 5615   2.735   2.511   3.133
 1884TIP3    H1 5616   2.649   2.486   3.167
 1884TIP3    H2 5617   2.716   2.550   3.047
 1885TIP3   OH2 5618   4.782   1.922   2.936
 1885TIP3    H1 5619   4.862   1.917   2.989
 1885TIP3    H2 5620   4.737   2.000   2.970
 1886TIP3   OH2 5621   0.534   6.754   3.229
 1886TIP3    H1 5622   0.440   6.736   3.227
 1886TIP3    H2 5623   0.560   6.756   3.136
 1887TIP3   OH2 5624   6.776   2.866   0.943
 1887TIP3    H1 5625   6.816   2.940   0.898
 1887TIP3    H2 5626   6.797   2.880   1.035
 1888TIP3   OH2 5627   4.519   1.319   4.505
 1888TIP3    H1 5628   4.441   1.267   4.487
 1888TIP3    H2 5629   4.576   1.259   4.554
 1889TIP3   OH2 5630   6.351   2.264   3.469
 1889TIP3    H1 5631   6.293   2.188   3.477
 1889TIP3    H2 5632   6.384   2.278   3.558
 1890TIP3   OH2 5633   0.272   4.859   1.152
 1890TIP3    H1 5634   0.324   4.815   1.085
 1890TIP3    H2 5635   0.322   4.846   1.233
 1891TIP3   OH2 5636   5.193   1.869   0.201
 1891TIP3    H1 5637   5.253   1.806   0.160
 1891TIP3    H2 5638   5.155   1.822   0.275
 1892TIP3   OH2 5639   5.073   4.674   1.959
 1892TIP3    H1 5640   5.165   4.651   1.946
 1892TIP3    H2 5641   5.034   4.670   1.872
 1893TIP3   OH2 5642   6.841   3.359   5.937
 1893TIP3    H1 5643   6.876   3.427   5.879
 1893TIP3    H2 5644   6.847   3.279   5.886
 1894TIP3   OH2 5645   2.016   2.602   1.723
 1894TIP3    H1 5646   2.032   2.678   1.668
 1894TIP3    H2 5647   2.092   2.597   1.780
 1895TIP3   OH2 5648   6.804   4.081   5.137
 1895TIP3    H1 5649   6.792   4.167   5.178
 1895TIP3    H2 5650   6.846   4.100   5.053
 1896TIP3   OH2 5651   2.398   2.072   2.643
 1896TIP3    H1 5652   2.429   1.999   2.696
 1896TIP3    H2 5653   2.452   2.070   2.564
 1897TIP3   OH2 5654   6.914   4.063   5.784
 1897TIP3    H1 5655   7.008   4.045   5.796
 1897TIP3    H2 5656   6.909   4.104   5.698
 1898TIP3   OH2 5657   3.465   1.169   5.798
 1898TIP3    H1 5658   3.498   1.251   5.764
 1898TIP3    H2 5659   3.447   1.187   5.890
 1899TIP3   OH2 5660   2.013   4.268   5.374
 1899TIP3    H1 5661   1.939   4.243   5.430
 1899TIP3    H2 5662   2.084   4.286   5.434
 1900TIP3   OH2 5663   6.834   1.882   5.544
 1900TIP3    H1 5664   6.854   1.793   5.515
 1900TIP3    H2 5665   6.826   1.875   5.639
 1901TIP3   OH2 5666   3.986   3.500   4.089
 1901TIP3    H1 5667   3.962   3.590   4.113
 1901TIP3    H2 5668   3.904   3.451   4.097
 1902TIP3   OH2 5669   3.770   0.599   1.759
 1902TIP3    H1 5670   3.855   0.599   1.715
 1902TIP3    H2 5671   3.787   0.558   1.843
 1903TIP3   OH2 5672   7.054   0.046   2.171
 1903TIP3    H1 5673   7.102   0.125   2.147
 1903TIP3    H2 5674   6.974   0.049   2.119
 1904TIP3   OH2 5675   6.089   5.716   1.941
 1904TIP3    H1 5676   6.124   5.637   1.983
 1904TIP3    H2 5677   6.138   5.722   1.858
 1905TIP3   OH2 5678   0.751   0.518   4.335
 1905TIP3    H1 5679   0.772   0.502   4.243
 1905TIP3    H2 5680   0.759   0.613   4.344
 1906TIP3   OH2 5681   5.110   1.070   5.650
 1906TIP3    H1 5682   5.127   1.064   5.744
 1906TIP3    H2 5683   5.136   0.984   5.615
 1907TIP3   OH2 5684   0.722   0.685   4.823
 1907TIP3    H1 5685   0.733   0.717   4.913
 1907TIP3    H2 5686   0.633   0.710   4.800
 1908TIP3   OH2 5687   1.292   3.434   4.044
 1908TIP3    H1 5688   1.240   3.425   4.124
 1908TIP3    H2 5689   1.381   3.408   4.069
 1909TIP3   OH2 5690   6.682   5.083   3.618
 1909TIP3    H1 5691   6.680   4.999   3.571
 1909TIP3    H2 5692   6.642   5.145   3.558
 1910TIP3   OH2 5693   1.373   6.252   2.423
 1910TIP3    H1 5694   1.292   6.200   2.428
 1910TIP3    H2 5695   1.393   6.275   2.513
 1911TIP3   OH2 5696   2.024   1.192   5.312
 1911TIP3    H1 5697   1.963   1.211   5.239
 1911TIP3    H2 5698   2.108   1.228   5.282
 1912TIP3   OH2 5699   6.125   1.103   0.055
 1912TIP3    H1 5700   6.180   1.105  -0.023
 1912TIP3    H2 5701   6.163   1.033   0.109
 1913TIP3   OH2 5702   0.989   6.505   0.567
 1913TIP3    H1 5703   1.034   6.424   0.542
 1913TIP3    H2 5704   0.904   6.476   0.602
 1914TIP3   OH2 5705   0.652   5.109   4.825
 1914TIP3    H1 5706   0.669   5.203   4.828
 1914TIP3    H2 5707   0.557   5.101   4.823
 1915TIP3   OH2 5708   5.553   3.278   3.309
 1915TIP3    H1 5709   5.596   3.194   3.289
 1915TIP3    H2 5710   5.580   3.336   3.238
 1916TIP3   OH2 5711   6.450   6.168   5.218
 1916TIP3    H1 5712   6.381   6.219   5.261
 1916TIP3    H2 5713   6.531   6.216   5.236
 1917TIP3   OH2 5714   0.761   5.460   2.612
 1917TIP3    H1 5715   0.677   5.435   2.651
 1917TIP3    H2 5716   0.761   5.556   2.614
 1918TIP3   OH2 5717   6.586   4.406   3.847
 1918TIP3    H1 5718   6.606   4.343   3.778
 1918TIP3    H2 5719   6.515   4.365   3.897
 1919TIP3   OH2 5720   2.661   3.538   1.086
 1919TIP3    H1 5721   2.752   3.549   1.113
 1919TIP3    H2 5722   2.638   3.623   1.047
 1920TIP3   OH2 5723   1.321   6.516   1.291
 1920TIP3    H1 5724   1.406   6.481   1.317
 1920TIP3    H2 5725   1.300   6.471   1.210
 1921TIP3   OH2 5726   4.513   5.041   0.798
 1921TIP3    H1 5727   4.557   5.031   0.713
 1921TIP3    H2 5728   4.528   4.957   0.842
 1922TIP3   OH2 5729   3.564   5.548   0.759
 1922TIP3    H1 5730   3.605   5.525   0.842
 1922TIP3    H2 5731   3.609   5.628   0.731
 1923TIP3   OH2 5732   0.097   5.923   5.701
 1923TIP3    H1 5733   0.145   5.908   5.619
 1923TIP3    H2 5734   0.060   6.011   5.691
 1924TIP3   OH2 5735   4.554   0.439   1.481
 1924TIP3    H1 5736   4.527   0.502   1.548
 1924TIP3    H2 5737   4.561   0.492   1.401
 1925TIP3   OH2 5738   2.041   1.702   3.466
 1925TIP3    H1 5739   2.004   1.750   3.392
 1925TIP3    H2 5740   2.069   1.618   3.429
 1926TIP3   OH2 5741   4.543   2.517   0.778
 1926TIP3    H1 5742   4.527   2.517   0.684
 1926TIP3    H2 5743   4.620   2.461   0.789
 1927TIP3   OH2 5744   4.417   0.876   4.331
 1927TIP3    H1 5745   4.433   0.819   4.257
 1927TIP3    H2 5746   4.332   0.847   4.366
 1928TIP3   OH2 5747   4.216   1.416   5.168
 1928TIP3    H1 5748   4.312   1.418   5.178
 1928TIP3    H2 5749   4.200   1.342   5.110
 1929TIP3   OH2 5750   0.169   5.895   1.998
 1929TIP3    H1 5751   0.194   5.874   1.908
 1929TIP3    H2 5752   0.095   5.955   1.990
 1930TIP3   OH2 5753   2.107   2.075   2.638
 1930TIP3    H1 5754   2.201   2.059   2.635
 1930TIP3    H2 5755   2.099   2.166   2.666
 1931TIP3   OH2 5756   5.120   2.040   0.988
 1931TIP3    H1 5757   5.030   2.046   0.955
 1931TIP3    H2 5758   5.114   2.075   1.077
 1932TIP3   OH2 5759   1.091   1.120   5.433
 1932TIP3    H1 5760   1.053   1.046   5.387
 1932TIP3    H2 5761   1.104   1.187   5.366
 1933TIP3   OH2 5762   1.741   6.292   1.272
 1933TIP3    H1 5763   1.678   6.306   1.201
 1933TIP3    H2 5764   1.707   6.343   1.345
 1934TIP3   OH2 5765   5.129   6.267   5.277
 1934TIP3    H1 5766   5.194   6.272   5.207
 1934TIP3    H2 5767   5.168   6.210   5.343
 1935TIP3   OH2 5768   0.748   5.099   1.417
 1935TIP3    H1 5769   0.802   5.020   1.428
 1935TIP3    H2 5770   0.663   5.075   1.454
 1936TIP3   OH2 5771   0.510   4.555   2.119
 1936TIP3    H1 5772   0.464   4.524   2.041
 1936TIP3    H2 5773   0.586   4.498   2.127
 1937TIP3   OH2 5774   5.634   5.967   3.050
 1937TIP3    H1 5775   5.628   5.889   2.995
 1937TIP3    H2 5776   5.711   6.013   3.018
 1938TIP3   OH2 5777   6.445   1.725   3.491
 1938TIP3    H1 5778   6.395   1.678   3.558
 1938TIP3    H2 5779   6.381   1.745   3.423
 1939TIP3   OH2 5780   1.977   0.595   1.213
 1939TIP3    H1 5781   1.891   0.631   1.191
 1939TIP3    H2 5782   1.970   0.502   1.192
 1940TIP3   OH2 5783   6.582   6.284   4.420
 1940TIP3    H1 5784   6.595   6.377   4.403
 1940TIP3    H2 5785   6.498   6.279   4.465
 1941TIP3   OH2 5786   0.820   3.615   0.751
 1941TIP3    H1 5787   0.762   3.548   0.714
 1941TIP3    H2 5788   0.889   3.565   0.793
 1942TIP3   OH2 5789   7.053   0.770   1.233
 1942TIP3    H1 5790   7.065   0.683   1.269
 1942TIP3    H2 5791   6.974   0.764   1.179
 1943TIP3   OH2 5792   1.317   4.161   1.371
 1943TIP3    H1 5793   1.334   4.222   1.443
 1943TIP3    H2 5794   1.291   4.080   1.415
 1944TIP3   OH2 5795   1.642   5.189   0.289
 1944TIP3    H1 5796   1.684   5.204   0.374
 1944TIP3    H2 5797   1.706   5.140   0.238
 1945TIP3   OH2 5798   0.217   6.070   3.475
 1945TIP3    H1 5799   0.272   6.105   3.545
 1945TIP3    H2 5800   0.268   6.080   3.396
 1946TIP3   OH2 5801   3.662   6.463   0.256
 1946TIP3    H1 5802   3.670   6.515   0.176
 1946TIP3    H2 5803   3.568   6.445   0.263
 1947TIP3   OH2 5804   0.735   1.885   3.710
 1947TIP3    H1 5805   0.757   1.792   3.716
 1947TIP3    H2 5806   0.800   1.920   3.650
 1948TIP3   OH2 5807   6.279   1.085   3.723
 1948TIP3    H1 5808   6.212   1.102   3.790
 1948TIP3    H2 5809   6.362   1.096   3.769
 1949TIP3   OH2 5810   0.108   6.374   5.202
 1949TIP3    H1 5811   0.110   6.319   5.124
 1949TIP3    H2 5812   0.019   6.409   5.204
 1950TIP3   OH2 5813   3.364   5.019   3.397
 1950TIP3    H1 5814   3.439   4.961   3.410
 1950TIP3    H2 5815   3.309   5.006   3.474
 1951TIP3   OH2 5816   3.566   1.696   5.545
 1951TIP3    H1 5817   3.499   1.756   5.576
 1951TIP3    H2 5818   3.645   1.749   5.538
 1952TIP3   OH2 5819   6.909   2.621   2.971
 1952TIP3    H1 5820   6.951   2.691   2.922
 1952TIP3    H2 5821   6.900   2.549   2.909
 1953TIP3   OH2 5822   6.620   1.189   5.560
 1953TIP3    H1 5823   6.604   1.136   5.482
 1953TIP3    H2 5824   6.536   1.231   5.578
 1954TIP3   OH2 5825   4.964   4.819   4.526
 1954TIP3    H1 5826   5.008   4.782   4.603
 1954TIP3    H2 5827   4.910   4.890   4.561
 1955TIP3   OH2 5828   6.264   2.352   2.658
 1955TIP3    H1 5829   6.249   2.280   2.597
 1955TIP3    H2 5830   6.228   2.322   2.741
 1956TIP3   OH2 5831   4.854   6.127   2.063
 1956TIP3    H1 5832   4.915   6.139   2.135
 1956TIP3    H2 5833   4.830   6.035   2.066
 1957TIP3   OH2 5834   4.987   4.628   0.951
 1957TIP3    H1 5835   4.916   4.690   0.966
 1957TIP3    H2 5836   4.943   4.544   0.940
 1958TIP3   OH2 5837   2.153   4.988   3.327
 1958TIP3    H1 5838   2.117   5.076   3.323
 1958TIP3    H2 5839   2.248   5.001   3.328
 1959TIP3   OH2 5840   6.788   6.178   2.063
 1959TIP3    H1 5841   6.797   6.191   1.969
 1959TIP3    H2 5842   6.825   6.257   2.102
 1960TIP3   OH2 5843   3.494   4.810   3.729
 1960TIP3    H1 5844   3.512   4.734   3.785
 1960TIP3    H2 5845   3.553   4.878   3.760
 1961TIP3   OH2 5846   6.011   0.572   2.952
 1961TIP3    H1 5847   5.972   0.568   2.864
 1961TIP3    H2 5848   5.999   0.485   2.988
 1962TIP3   OH2 5849   6.583   5.049   0.292
 1962TIP3    H1 5850   6.663   4.997   0.282
 1962TIP3    H2 5851   6.536   5.007   0.364
 1963TIP3   OH2 5852   0.416   6.666   1.191
 1963TIP3    H1 5853   0.508   6.689   1.201
 1963TIP3    H2 5854   0.374   6.703   1.269
 1964TIP3   OH2 5855   0.425   5.616   0.669
 1964TIP3    H1 5856   0.402   5.684   0.733
 1964TIP3    H2 5857   0.377   5.539   0.698
 1965TIP3   OH2 5858   1.028   4.058   3.214
 1965TIP3    H1 5859   0.935   4.068   3.197
 1965TIP3    H2 5860   1.037   4.065   3.309
 1966TIP3   OH2 5861   1.856   4.618   5.364
 1966TIP3    H1 5862   1.869   4.612   5.269
 1966TIP3    H2 5863   1.830   4.709   5.379
 1967TIP3   OH2 5864   2.365   3.913   2.924
 1967TIP3    H1 5865   2.344   3.988   2.979
 1967TIP3    H2 5866   2.305   3.920   2.850
 1968TIP3   OH2 5867   3.004   6.497   0.938
 1968TIP3    H1 5868   2.918   6.494   0.896
 1968TIP3    H2 5869   2.988   6.464   1.027
 1969TIP3   OH2 5870   1.144   4.594   0.276
 1969TIP3    H1 5871   1.195   4.636   0.346
 1969TIP3    H2 5872   1.055   4.627   0.288
 1970TIP3   OH2 5873   4.302   2.740   1.811
 1970TIP3    H1 5874   4.339   2.799   1.877
 1970TIP3    H2 5875   4.371   2.734   1.744
 1971TIP3   OH2 5876   5.502   5.645   0.903
 1971TIP3    H1 5877   5.432   5.613   0.847
 1971TIP3    H2 5878   5.579   5.594   0.877
 1972TIP3   OH2 5879   4.604   5.773   0.846
 1972TIP3    H1 5880   4.512   5.763   0.820
 1972TIP3    H2 5881   4.607   5.742   0.936
 1973TIP3   OH2 5882   3.238   0.659   2.892
 1973TIP3    H1 5883   3.294   0.634   2.818
 1973TIP3    H2 5884   3.151   0.670   2.853
 1974TIP3   OH2 5885   2.553   1.707   3.423
 1974TIP3    H1 5886   2.510   1.793   3.426
 1974TIP3    H2 5887   2.569   1.692   3.330
 1975TIP3   OH2 5888   3.359   4.882   4.313
 1975TIP3    H1 5889   3.283   4.826   4.299
 1975TIP3    H2 5890   3.325   4.971   4.309
 1976TIP3   OH2 5891   6.811   0.638   5.042
 1976TIP3    H1 5892   6.742   0.652   5.107
 1976TIP3    H2 5893   6.887   0.611   5.093
 1977TIP3   OH2 5894   3.444   6.799   3.619
 1977TIP3    H1 5895   3.349   6.797   3.633
 1977TIP3    H2 5896   3.476   6.866   3.680
 1978TIP3   OH2 5897   6.663   2.371   5.505
 1978TIP3    H1 5898   6.662   2.315   5.583
 1978TIP3    H2 5899   6.736   2.431   5.519
 1979TIP3   OH2 5900   3.352   2.268   5.082
 1979TIP3    H1 5901   3.397   2.192   5.118
 1979TIP3    H2 5902   3.329   2.243   4.992
 1980TIP3   OH2 5903   3.190   2.490   1.600
 1980TIP3    H1 5904   3.221   2.425   1.663
 1980TIP3    H2 5905   3.243   2.475   1.522
 1981TIP3   OH2 5906   6.577   5.637   5.054
 1981TIP3    H1 5907   6.536   5.710   5.100
 1981TIP3    H2 5908   6.504   5.583   5.025
 1982TIP3   OH2 5909   2.432  -0.015   2.872
 1982TIP3    H1 5910   2.514   0.007   2.827
 1982TIP3    H2 5911   2.407   0.065   2.918
 1983TIP3   OH2 5912   0.903   2.856   2.550
 1983TIP3    H1 5913   0.912   2.923   2.482
 1983TIP3    H2 5914   0.827   2.805   2.523
 1984TIP3   OH2 5915   3.936   2.856   3.255
 1984TIP3    H1 5916   3.998   2.884   3.188
 1984TIP3    H2 5917   3.973   2.888   3.337
 1985TIP3   OH2 5918   5.562   4.482   5.423
 1985TIP3    H1 5919   5.647   4.502   5.385
 1985TIP3    H2 5920   5.580   4.466   5.516
 1986TIP3   OH2 5921   0.175   6.281   4.269
 1986TIP3    H1 5922   0.264   6.245   4.266
 1986TIP3    H2 5923   0.142   6.255   4.354
 1987TIP3   OH2 5924   1.083   3.081   4.795
 1987TIP3    H1 5925   1.079   3.068   4.700
 1987TIP3    H2 5926   1.069   2.994   4.832
 1988TIP3   OH2 5927   6.657   1.701   4.791
 1988TIP3    H1 5928   6.720   1.658   4.848
 1988TIP3    H2 5929   6.616   1.767   4.848
 1989TIP3   OH2 5930   3.585   1.367   5.677
 1989TIP3    H1 5931   3.672   1.332   5.656
 1989TIP3    H2 5932   3.577   1.445   5.623
 1990TIP3   OH2 5933   6.569   3.260   5.831
 1990TIP3    H1 5934   6.604   3.313   5.903
 1990TIP3    H2 5935   6.637   3.195   5.814
 1991TIP3   OH2 5936   4.905   3.448   1.801
 1991TIP3    H1 5937   4.822   3.496   1.811
 1991TIP3    H2 5938   4.901   3.379   1.867
 1992TIP3   OH2 5939   4.690   6.143   1.003
 1992TIP3    H1 5940   4.699   6.231   1.040
 1992TIP3    H2 5941   4.618   6.104   1.051
 1993TIP3   OH2 5942   5.336   4.077   1.863
 1993TIP3    H1 5943   5.302   4.061   1.951
 1993TIP3    H2 5944   5.346   3.989   1.824
 1994TIP3   OH2 5945   3.757   3.212   5.015
 1994TIP3    H1 5946   3.753   3.307   5.029
 1994TIP3    H2 5947   3.832   3.199   4.957
 1995TIP3   OH2 5948   3.589   4.331   2.202
 1995TIP3    H1 5949   3.609   4.388   2.277
 1995TIP3    H2 5950   3.629   4.247   2.224
 1996TIP3   OH2 5951   1.671   2.735   2.629
 1996TIP3    H1 5952   1.584   2.774   2.635
 1996TIP3    H2 5953   1.671   2.666   2.695
 1997TIP3   OH2 5954   3.768   0.397   0.093
 1997TIP3    H1 5955   3.693   0.339   0.110
 1997TIP3    H2 5956   3.740   0.452   0.020
 1998TIP3   OH2 5957   3.936   5.736   3.878
 1998TIP3    H1 5958   3.951   5.658   3.933
 1998TIP3    H2 5959   3.841   5.747   3.879
 1999TIP3   OH2 5960   4.204   5.108   4.920
 1999TIP3    H1 5961   4.269   5.049   4.883
 1999TIP3    H2 5962   4.123   5.056   4.923
 2000TIP3   OH2 5963   2.487   4.641   2.288
 2000TIP3    H1 5964   2.559   4.578   2.282
 2000TIP3    H2 5965   2.455   4.632   2.378
 2001TIP3   OH2 5966   2.563   0.028   2.219
 2001TIP3    H1 5967   2.539   0.117   2.246
 2001TIP3    H2 5968   2.569  -0.020   2.302
 2002TIP3   OH2 5969   4.331   3.399   1.357
 2002TIP3    H1 5970   4.319   3.327   1.419
 2002TIP3    H2 5971   4.262   3.386   1.292
 2003TIP3   OH2 5972   2.946   1.412   5.828
 2003TIP3    H1 5973   2.961   1.437   5.919
 2003TIP3    H2 5974   2.941   1.316   5.831
 2004TIP3   OH2 5975   2.361   1.298   4.275
 2004TIP3    H1 5976   2.378   1.214   4.318
 2004TIP3    H2 5977   2.356   1.276   4.182
 2005TIP3   OH2 5978   0.672   0.622   1.977
 2005TIP3    H1 5979   0.750   0.571   1.954
 2005TIP3    H2 5980   0.623   0.629   1.895
 2006TIP3   OH2 5981   0.757   0.786   3.627
 2006TIP3    H1 5982   0.690   0.755   3.688
 2006TIP3    H2 5983   0.796   0.706   3.592
 2007TIP3   OH2 5984   6.688   0.288   4.060
 2007TIP3    H1 5985   6.710   0.261   3.971
 2007TIP3    H2 5986   6.767   0.334   4.091
 2008TIP3   OH2 5987   3.562   3.985   0.141
 2008TIP3    H1 5988   3.520   3.921   0.084
 2008TIP3    H2 5989   3.655   3.967   0.133
 2009TIP3   OH2 5990   6.023   4.057   0.032
 2009TIP3    H1 5991   6.019   4.007   0.114
 2009TIP3    H2 5992   6.116   4.067   0.014
 2010TIP3   OH2 5993   6.879   1.659   1.534
 2010TIP3    H1 5994   6.924   1.731   1.491
 2010TIP3    H2 5995   6.934   1.583   1.518
 2011TIP3   OH2 5996   1.210   4.982   1.882
 2011TIP3    H1 5997   1.132   5.021   1.921
 2011TIP3    H2 5998   1.176   4.918   1.819
 2012TIP3   OH2 5999   5.042   2.866   5.004
 2012TIP3    H1 6000   5.077   2.935   4.948
 2012TIP3    H2 6001   5.071   2.889   5.092
 2013TIP3   OH2 6002   1.919   5.850   5.658
 2013TIP3    H1 6003   2.011   5.862   5.637
 2013TIP3    H2 6004   1.882   5.804   5.582
 2014TIP3   OH2 6005   6.936   0.469   1.598
 2014TIP3    H1 6006   6.894   0.532   1.539
 2014TIP3    H2 6007   7.005   0.519   1.642
 2015TIP3   OH2 6008   0.708   0.979   0.263
 2015TIP3    H1 6009   0.705   0.950   0.354
 2015TIP3    H2 6010   0.799   0.965   0.237
 2016TIP3   OH2 6011   1.027   4.699   5.571
 2016TIP3    H1 6012   1.118   4.715   5.598
 2016TIP3    H2 6013   1.012   4.762   5.500
 2017TIP3   OH2 6014   1.075   5.530   5.884
 2017TIP3    H1 6015   1.013   5.530   5.811
 2017TIP3    H2 6016   1.154   5.491   5.849
 2018TIP3   OH2 6017   4.011   6.217   5.036
 2018TIP3    H1 6018   3.920   6.188   5.030
 2018TIP3    H2 6019   4.061   6.137   5.051
 2019TIP3   OH2 6020   4.145   0.459   3.849
 2019TIP3    H1 6021   4.203   0.533   3.831
 2019TIP3    H2 6022   4.155   0.443   3.943
 2020TIP3   OH2 6023   5.093   0.358   0.741
 2020TIP3    H1 6024   5.175   0.348   0.790
 2020TIP3    H2 6025   5.119   0.347   0.649
 2021TIP3   OH2 6026   6.501   1.731   4.329
 2021TIP3    H1 6027   6.581   1.781   4.342
 2021TIP3    H2 6028   6.461   1.727   4.416
 2022TIP3   OH2 6029   6.371   2.919   2.240
 2022TIP3    H1 6030   6.281   2.886   2.243
 2022TIP3    H2 6031   6.409   2.894   2.325
 2023TIP3   OH2 6032   6.364   5.469   5.585
 2023TIP3    H1 6033   6.402   5.502   5.504
 2023TIP3    H2 6034   6.291   5.528   5.604
 2024TIP3   OH2 6035   1.518   3.100   3.365
 2024TIP3    H1 6036   1.605   3.135   3.348
 2024TIP3    H2 6037   1.522   3.068   3.455
 2025TIP3   OH2 6038   4.459   6.769   1.022
 2025TIP3    H1 6039   4.462   6.700   1.089
 2025TIP3    H2 6040   4.392   6.829   1.054
 2026TIP3   OH2 6041   4.778   0.512   4.878
 2026TIP3    H1 6042   4.854   0.562   4.908
 2026TIP3    H2 6043   4.788   0.426   4.920
 2027TIP3   OH2 6044   4.057   5.339   0.616
 2027TIP3    H1 6045   3.968   5.340   0.651
 2027TIP3    H2 6046   4.067   5.252   0.578
 2028TIP3   OH2 6047   4.009   0.769   3.475
 2028TIP3    H1 6048   4.005   0.809   3.388
 2028TIP3    H2 6049   4.102   0.773   3.499
 2029TIP3   OH2 6050   1.954   5.757   0.617
 2029TIP3    H1 6051   2.046   5.734   0.606
 2029TIP3    H2 6052   1.955   5.828   0.682
 2030TIP3   OH2 6053   0.679   5.410   4.991
 2030TIP3    H1 6054   0.600   5.447   4.951
 2030TIP3    H2 6055   0.741   5.482   4.992
 2031TIP3   OH2 6056   1.053   5.103   0.389
 2031TIP3    H1 6057   1.088   5.029   0.439
 2031TIP3    H2 6058   1.128   5.138   0.342
 2032TIP3   OH2 6059   1.843   3.671   4.325
 2032TIP3    H1 6060   1.787   3.745   4.300
 2032TIP3    H2 6061   1.881   3.697   4.408
 2033TIP3   OH2 6062   7.118   5.073   0.754
 2033TIP3    H1 6063   7.098   5.166   0.745
 2033TIP3    H2 6064   7.203   5.062   0.712
 2034TIP3   OH2 6065   5.510   0.355   0.598
 2034TIP3    H1 6066   5.513   0.392   0.510
 2034TIP3    H2 6067   5.585   0.394   0.644
 2035TIP3   OH2 6068   0.932   4.078   0.311
 2035TIP3    H1 6069   0.906   4.160   0.354
 2035TIP3    H2 6070   0.879   4.011   0.354
 2036TIP3   OH2 6071   5.511   3.255   0.507
 2036TIP3    H1 6072   5.459   3.207   0.572
 2036TIP3    H2 6073   5.495   3.208   0.425
 2037TIP3   OH2 6074   4.234   5.317   5.828
 2037TIP3    H1 6075   4.293   5.388   5.855
 2037TIP3    H2 6076   4.241   5.252   5.898
 2038TIP3   OH2 6077   0.592   1.462   4.303
 2038TIP3    H1 6078   0.637   1.546   4.301
 2038TIP3    H2 6079   0.590   1.433   4.212
 2039TIP3   OH2 6080   0.390   6.118   4.241
 2039TIP3    H1 6081   0.453   6.092   4.308
 2039TIP3    H2 6082   0.444   6.144   4.166
 2040TIP3   OH2 6083   4.791   1.556   4.422
 2040TIP3    H1 6084   4.822   1.641   4.454
 2040TIP3    H2 6085   4.811   1.496   4.494
 2041TIP3   OH2 6086   2.264   0.464   0.875
 2041TIP3    H1 6087   2.331   0.492   0.813
 2041TIP3    H2 6088   2.258   0.369   0.863
 2042TIP3   OH2 6089   1.284   0.883   0.379
 2042TIP3    H1 6090   1.274   0.911   0.288
 2042TIP3    H2 6091   1.235   0.800   0.385
 2043TIP3   OH2 6092  -0.002   2.354   5.103
 2043TIP3    H1 6093   0.009   2.263   5.078
 2043TIP3    H2 6094   0.085   2.392   5.096
 2044TIP3   OH2 6095   0.312   6.575   3.519
 2044TIP3    H1 6096   0.376   6.525   3.469
 2044TIP3    H2 6097   0.230   6.566   3.469
 2045TIP3   OH2 6098   0.159   5.603   1.444
 2045TIP3    H1 6099   0.144   5.566   1.532
 2045TIP3    H2 6100   0.196   5.690   1.461
 2046TIP3   OH2 6101   2.130   3.081   4.855
 2046TIP3    H1 6102   2.103   3.171   4.875
 2046TIP3    H2 6103   2.059   3.026   4.886
 2047TIP3   OH2 6104   0.386   4.115   4.722
 2047TIP3    H1 6105   0.456   4.081   4.666
 2047TIP3    H2 6106   0.426   4.125   4.808
 2048TIP3   OH2 6107   2.968   5.693   1.818
 2048TIP3    H1 6108   3.048   5.728   1.779
 2048TIP3    H2 6109   2.909   5.768   1.823
 2049TIP3   OH2 6110   1.823   0.329   5.748
 2049TIP3    H1 6111   1.911   0.368   5.753
 2049TIP3    H2 6112   1.817   0.295   5.659
 2050TIP3   OH2 6113   6.391   2.022   0.383
 2050TIP3    H1 6114   6.412   1.944   0.331
 2050TIP3    H2 6115   6.419   2.095   0.327
 2051TIP3   OH2 6116   4.372   3.137   5.424
 2051TIP3    H1 6117   4.432   3.210   5.438
 2051TIP3    H2 6118   4.368   3.127   5.329
 2052TIP3   OH2 6119   2.997   4.011   4.593
 2052TIP3    H1 6120   2.902   4.002   4.582
 2052TIP3    H2 6121   3.021   3.940   4.652
 2053TIP3   OH2 6122   3.777   2.902   5.636
 2053TIP3    H1 6123   3.798   2.916   5.543
 2053TIP3    H2 6124   3.858   2.923   5.682
 2054TIP3   OH2 6125   1.498   4.053   2.047
 2054TIP3    H1 6126   1.457   4.098   2.121
 2054TIP3    H2 6127   1.445   4.078   1.971
 2055TIP3   OH2 6128   1.123   1.431   3.408
 2055TIP3    H1 6129   1.175   1.377   3.349
 2055TIP3    H2 6130   1.036   1.431   3.370
 2056TIP3   OH2 6131   4.795   1.985   5.276
 2056TIP3    H1 6132   4.789   2.052   5.208
 2056TIP3    H2 6133   4.888   1.964   5.281
 2057TIP3   OH2 6134   5.974   0.938   2.952
 2057TIP3    H1 6135   5.959   0.953   2.859
 2057TIP3    H2 6136   6.014   1.020   2.983
 2058TIP3   OH2 6137   2.088   4.343   3.907
 2058TIP3    H1 6138   2.155   4.410   3.892
 2058TIP3    H2 6139   2.029   4.352   3.831
 2059TIP3   OH2 6140   5.737   0.998   2.199
 2059TIP3    H1 6141   5.715   0.928   2.137
 2059TIP3    H2 6142   5.826   1.024   2.175
 2060TIP3   OH2 6143   5.538   1.354   4.718
 2060TIP3    H1 6144   5.600   1.427   4.711
 2060TIP3    H2 6145   5.520   1.347   4.812
 2061TIP3   OH2 6146   6.091   3.930   3.240
 2061TIP3    H1 6147   6.180   3.910   3.210
 2061TIP3    H2 6148   6.044   3.955   3.160
 2062TIP3   OH2 6149   5.239   0.436   0.154
 2062TIP3    H1 6150   5.201   0.348   0.149
 2062TIP3    H2 6151   5.194   0.485   0.085
 2063TIP3   OH2 6152   2.541   5.327   5.599
 2063TIP3    H1 6153   2.572   5.276   5.524
 2063TIP3    H2 6154   2.448   5.305   5.606
 2064TIP3   OH2 6155   0.357   1.905   5.887
 2064TIP3    H1 6156   0.273   1.944   5.912
 2064TIP3    H2 6157   0.380   1.950   5.806
 2065TIP3   OH2 6158   4.972   6.079   1.143
 2065TIP3    H1 6159   5.057   6.124   1.144
 2065TIP3    H2 6160   4.976   6.023   1.065
 2066TIP3   OH2 6161   6.821   4.396   4.810
 2066TIP3    H1 6162   6.768   4.420   4.734
 2066TIP3    H2 6163   6.781   4.443   4.883
 2067TIP3   OH2 6164   1.737   6.557   0.368
 2067TIP3    H1 6165   1.727   6.625   0.435
 2067TIP3    H2 6166   1.656   6.507   0.372
 2068TIP3   OH2 6167   5.123   0.259   2.504
 2068TIP3    H1 6168   5.136   0.330   2.441
 2068TIP3    H2 6169   5.194   0.270   2.567
 2069TIP3   OH2 6170   2.884   4.037   2.562
 2069TIP3    H1 6171   2.809   4.074   2.606
 2069TIP3    H2 6172   2.897   4.092   2.485
 2070TIP3   OH2 6173   1.968   2.289   1.563
 2070TIP3    H1 6174   1.907   2.351   1.605
 2070TIP3    H2 6175   1.985   2.327   1.477
 2071TIP3   OH2 6176   0.426   2.582   4.289
 2071TIP3    H1 6177   0.333   2.558   4.284
 2071TIP3    H2 6178   0.451   2.601   4.199
 2072TIP3   OH2 6179   2.830   1.225   2.102
 2072TIP3    H1 6180   2.787   1.301   2.063
 2072TIP3    H2 6181   2.877   1.184   2.029
 2073TIP3   OH2 6182   1.861   6.564   5.773
 2073TIP3    H1 6183   1.895   6.611   5.696
 2073TIP3    H2 6184   1.934   6.562   5.834
 2074TIP3   OH2 6185   5.030   0.880   2.691
 2074TIP3    H1 6186   4.940   0.904   2.715
 2074TIP3    H2 6187   5.080   0.962   2.702
 2075TIP3   OH2 6188   7.221   4.880   0.973
 2075TIP3    H1 6189   7.194   4.791   0.950
 2075TIP3    H2 6190   7.183   4.935   0.906
 2076TIP3   OH2 6191   7.171   2.414   2.782
 2076TIP3    H1 6192   7.185   2.358   2.705
 2076TIP3    H2 6193   7.080   2.442   2.775
 2077TIP3   OH2 6194   1.978   4.885   5.024
 2077TIP3    H1 6195   2.014   4.883   5.112
 2077TIP3    H2 6196   1.988   4.976   4.995
 2078TIP3   OH2 6197   1.336   2.787   2.063
 2078TIP3    H1 6198   1.350   2.875   2.028
 2078TIP3    H2 6199   1.254   2.794   2.112
 2079TIP3   OH2 6200   7.174   3.492   2.054
 2079TIP3    H1 6201   7.249   3.432   2.054
 2079TIP3    H2 6202   7.149   3.500   1.962
 2080TIP3   OH2 6203   6.498   6.143   1.934
 2080TIP3    H1 6204   6.499   6.232   1.898
 2080TIP3    H2 6205   6.407   6.115   1.926
 2081TIP3   OH2 6206   2.843   2.474   1.418
 2081TIP3    H1 6207   2.800   2.547   1.463
 2081TIP3    H2 6208   2.794   2.463   1.337
 2082TIP3   OH2 6209   1.627   3.442   5.173
 2082TIP3    H1 6210   1.574   3.434   5.253
 2082TIP3    H2 6211   1.567   3.417   5.103
 2083TIP3   OH2 6212   5.267   0.122   2.257
 2083TIP3    H1 6213   5.305   0.155   2.338
 2083TIP3    H2 6214   5.219   0.043   2.283
 2084TIP3   OH2 6215   0.332   2.861   2.059
 2084TIP3    H1 6216   0.422   2.867   2.028
 2084TIP3    H2 6217   0.280   2.900   1.988
 2085TIP3   OH2 6218   0.248   6.353   3.067
 2085TIP3    H1 6219   0.265   6.398   2.985
 2085TIP3    H2 6220   0.157   6.324   3.061
 2086TIP3   OH2 6221   4.251   5.359   1.626
 2086TIP3    H1 6222   4.329   5.304   1.629
 2086TIP3    H2 6223   4.267   5.419   1.553
 2087TIP3   OH2 6224   0.428   3.321   2.031
 2087TIP3    H1 6225   0.489   3.349   1.963
 2087TIP3    H2 6226   0.414   3.400   2.084
 2088TIP3   OH2 6227   1.630   0.612   5.201
 2088TIP3    H1 6228   1.601   0.524   5.180
 2088TIP3    H2 6229   1.621   0.661   5.119
 2089TIP3   OH2 6230   5.570   6.441   1.366
 2089TIP3    H1 6231   5.639   6.482   1.315
 2089TIP3    H2 6232   5.565   6.352   1.332
 2090TIP3   OH2 6233   2.147   2.875   0.204
 2090TIP3    H1 6234   2.242   2.879   0.220
 2090TIP3    H2 6235   2.137   2.897   0.112
 2091TIP3   OH2 6236   3.196   4.764   0.779
 2091TIP3    H1 6237   3.235   4.698   0.837
 2091TIP3    H2 6238   3.253   4.766   0.703
 2092TIP3   OH2 6239   3.118   5.237   5.076
 2092TIP3    H1 6240   3.125   5.183   4.997
 2092TIP3    H2 6241   3.114   5.327   5.044
 2093TIP3   OH2 6242   5.928   1.707   3.945
 2093TIP3    H1 6243   5.919   1.800   3.921
 2093TIP3    H2 6244   5.943   1.663   3.861
 2094TIP3   OH2 6245   3.684   3.413   0.724
 2094TIP3    H1 6246   3.606   3.358   0.729
 2094TIP3    H2 6247   3.753   3.355   0.694
 2095TIP3   OH2 6248   2.401   0.428   5.226
 2095TIP3    H1 6249   2.435   0.465   5.307
 2095TIP3    H2 6250   2.465   0.362   5.202
 2096TIP3   OH2 6251   5.313   3.950   0.011
 2096TIP3    H1 6252   5.291   3.925   0.101
 2096TIP3    H2 6253   5.276   3.881  -0.043
 2097TIP3   OH2 6254   4.794   2.023   0.132
 2097TIP3    H1 6255   4.707   2.057   0.149
 2097TIP3    H2 6256   4.817   2.057   0.046
 2098TIP3   OH2 6257   3.158   0.031   0.808
 2098TIP3    H1 6258   3.238   0.084   0.815
 2098TIP3    H2 6259   3.189  -0.059   0.820
 2099TIP3   OH2 6260   4.005   2.220   1.653
 2099TIP3    H1 6261   3.928   2.203   1.599
 2099TIP3    H2 6262   4.040   2.133   1.672
 2100TIP3   OH2 6263   2.500   1.650   3.121
 2100TIP3    H1 6264   2.511   1.702   3.041
 2100TIP3    H2 6265   2.546   1.568   3.103
 2101TIP3   OH2 6266   2.859   4.473   2.519
 2101TIP3    H1 6267   2.947   4.435   2.517
 2101TIP3    H2 6268   2.853   4.515   2.605
 2102TIP3   OH2 6269   3.914   1.964   1.315
 2102TIP3    H1 6270   3.859   2.040   1.296
 2102TIP3    H2 6271   3.988   2.000   1.364
 2103TIP3   OH2 6272   0.916   3.512   1.012
 2103TIP3    H1 6273   0.959   3.591   1.043
 2103TIP3    H2 6274   0.827   3.518   1.046
 2104TIP3   OH2 6275   3.167   2.870   1.602
 2104TIP3    H1 6276   3.147   2.960   1.575
 2104TIP3    H2 6277   3.261   2.860   1.585
 2105TIP3   OH2 6278   1.618   0.706   3.516
 2105TIP3    H1 6279   1.653   0.622   3.485
 2105TIP3    H2 6280   1.644   0.709   3.608
 2106TIP3   OH2 6281   1.312   0.306   4.556
 2106TIP3    H1 6282   1.313   0.345   4.644
 2106TIP3    H2 6283   1.227   0.331   4.520
 2107TIP3   OH2 6284   6.072   2.414   5.068
 2107TIP3    H1 6285   6.124   2.376   5.139
 2107TIP3    H2 6286   6.057   2.341   5.007
 2108TIP3   OH2 6287   4.062   3.710   3.124
 2108TIP3    H1 6288   4.024   3.708   3.036
 2108TIP3    H2 6289   4.152   3.740   3.111
 2109TIP3   OH2 6290   3.958   4.740   4.958
 2109TIP3    H1 6291   3.940   4.742   5.052
 2109TIP3    H2 6292   4.021   4.811   4.943
 2110TIP3   OH2 6293   4.741   3.174   5.132
 2110TIP3    H1 6294   4.713   3.261   5.161
 2110TIP3    H2 6295   4.776   3.189   5.044
 2111TIP3   OH2 6296   5.064   3.788   1.160
 2111TIP3    H1 6297   5.106   3.855   1.106
 2111TIP3    H2 6298   4.978   3.776   1.120
 2112TIP3   OH2 6299   3.690   3.254   1.380
 2112TIP3    H1 6300   3.711   3.346   1.369
 2112TIP3    H2 6301   3.674   3.223   1.290
 2113TIP3   OH2 6302   2.748   5.592   1.437
 2113TIP3    H1 6303   2.734   5.511   1.487
 2113TIP3    H2 6304   2.825   5.573   1.383
 2114TIP3   OH2 6305   5.257   4.315   2.662
 2114TIP3    H1 6306   5.293   4.241   2.711
 2114TIP3    H2 6307   5.190   4.351   2.719
 2115TIP3   OH2 6308   2.701   2.159   2.955
 2115TIP3    H1 6309   2.656   2.244   2.962
 2115TIP3    H2 6310   2.656   2.103   3.018
 2116TIP3   OH2 6311   1.003   1.841   1.081
 2116TIP3    H1 6312   1.068   1.770   1.080
 2116TIP3    H2 6313   1.054   1.921   1.089
 2117TIP3   OH2 6314   1.061   0.379   5.877
 2117TIP3    H1 6315   1.076   0.385   5.783
 2117TIP3    H2 6316   1.094   0.292   5.901
 2118TIP3   OH2 6317   5.349   3.467   2.046
 2118TIP3    H1 6318   5.325   3.494   2.134
 2118TIP3    H2 6319   5.273   3.418   2.014
 2119TIP3   OH2 6320   4.649   2.449   2.617
 2119TIP3    H1 6321   4.624   2.373   2.670
 2119TIP3    H2 6322   4.676   2.412   2.533
 2120TIP3   OH2 6323   2.807   2.912   4.182
 2120TIP3    H1 6324   2.736   2.912   4.247
 2120TIP3    H2 6325   2.766   2.878   4.102
 2121TIP3   OH2 6326   5.526   1.910   1.963
 2121TIP3    H1 6327   5.514   1.946   2.051
 2121TIP3    H2 6328   5.620   1.896   1.955
 2122TIP3   OH2 6329   4.563   1.785   4.955
 2122TIP3    H1 6330   4.502   1.734   4.903
 2122TIP3    H2 6331   4.511   1.813   5.031
 2123TIP3   OH2 6332   4.782   4.794   0.311
 2123TIP3    H1 6333   4.753   4.791   0.403
 2123TIP3    H2 6334   4.853   4.858   0.311
 2124TIP3   OH2 6335   7.090   4.269   0.090
 2124TIP3    H1 6336   6.998   4.244   0.101
 2124TIP3    H2 6337   7.140   4.194   0.124
 2125TIP3   OH2 6338   5.916   0.347   4.421
 2125TIP3    H1 6339   5.923   0.303   4.505
 2125TIP3    H2 6340   5.828   0.325   4.389
 2126TIP3   OH2 6341   0.663   6.348   1.329
 2126TIP3    H1 6342   0.743   6.311   1.291
 2126TIP3    H2 6343   0.598   6.344   1.258
 2127TIP3   OH2 6344   0.989   4.031   1.231
 2127TIP3    H1 6345   0.994   3.997   1.320
 2127TIP3    H2 6346   1.074   4.009   1.192
 2128TIP3   OH2 6347   6.914   2.245   3.010
 2128TIP3    H1 6348   6.910   2.186   2.935
 2128TIP3    H2 6349   6.824   2.276   3.022
 2129TIP3   OH2 6350   2.570   4.759   5.244
 2129TIP3    H1 6351   2.519   4.748   5.163
 2129TIP3    H2 6352   2.661   4.753   5.216
 2130TIP3   OH2 6353   4.945   6.386   1.381
 2130TIP3    H1 6354   4.931   6.329   1.457
 2130TIP3    H2 6355   4.863   6.382   1.333
 2131TIP3   OH2 6356   4.040   1.046   2.480
 2131TIP3    H1 6357   4.031   1.118   2.418
 2131TIP3    H2 6358   4.006   1.080   2.562
 2132TIP3   OH2 6359   0.437   6.638   0.070
 2132TIP3    H1 6360   0.512   6.582   0.089
 2132TIP3    H2 6361   0.376   6.620   0.141
 2133TIP3   OH2 6362   3.331   5.495   0.905
 2133TIP3    H1 6363   3.320   5.404   0.880
 2133TIP3    H2 6364   3.406   5.526   0.855
 2134TIP3   OH2 6365   4.297   1.336   1.471
 2134TIP3    H1 6366   4.239   1.411   1.486
 2134TIP3    H2 6367   4.242   1.272   1.426
 2135TIP3   OH2 6368   5.418   6.533   2.598
 2135TIP3    H1 6369   5.339   6.481   2.584
 2135TIP3    H2 6370   5.419   6.549   2.692
 2136TIP3   OH2 6371   0.013   1.477   4.333
 2136TIP3    H1 6372  -0.066   1.530   4.324
 2136TIP3    H2 6373   0.080   1.527   4.287
 2137TIP3   OH2 6374   2.572   4.672   5.512
 2137TIP3    H1 6375   2.620   4.752   5.534
 2137TIP3    H2 6376   2.574   4.669   5.416
 2138TIP3   OH2 6377   4.526   3.253   3.384
 2138TIP3    H1 6378   4.593   3.253   3.452
 2138TIP3    H2 6379   4.450   3.295   3.425
 2139TIP3   OH2 6380   4.202   1.222   0.249
 2139TIP3    H1 6381   4.273   1.256   0.303
 2139TIP3    H2 6382   4.245   1.190   0.170
 2140TIP3   OH2 6383   2.201   1.000   5.383
 2140TIP3    H1 6384   2.161   0.913   5.372
 2140TIP3    H2 6385   2.128   1.061   5.371
 2141TIP3   OH2 6386   1.796   2.395   5.800
 2141TIP3    H1 6387   1.865   2.329   5.790
 2141TIP3    H2 6388   1.720   2.347   5.833
 2142TIP3   OH2 6389   4.071   6.712   2.176
 2142TIP3    H1 6390   4.008   6.641   2.184
 2142TIP3    H2 6391   4.131   6.683   2.107
 2143TIP3   OH2 6392   3.533   6.380   4.747
 2143TIP3    H1 6393   3.479   6.323   4.802
 2143TIP3    H2 6394   3.525   6.342   4.659
 2144TIP3   OH2 6395   1.149   5.647   4.834
 2144TIP3    H1 6396   1.060   5.633   4.802
 2144TIP3    H2 6397   1.180   5.560   4.859
 2145TIP3   OH2 6398   0.984   6.740   0.157
 2145TIP3    H1 6399   0.929   6.747   0.080
 2145TIP3    H2 6400   1.074   6.746   0.124
 2146TIP3   OH2 6401   6.119   2.701   2.090
 2146TIP3    H1 6402   6.200   2.659   2.119
 2146TIP3    H2 6403   6.083   2.640   2.026
 2147TIP3   OH2 6404   0.546   4.715   0.147
 2147TIP3    H1 6405   0.539   4.809   0.164
 2147TIP3    H2 6406   0.460   4.690   0.113
 2148TIP3   OH2 6407   5.664   5.476   3.890
 2148TIP3    H1 6408   5.693   5.402   3.943
 2148TIP3    H2 6409   5.727   5.479   3.818
 2149TIP3   OH2 6410   0.558   4.953   4.370
 2149TIP3    H1 6411   0.551   4.859   4.382
 2149TIP3    H2 6412   0.643   4.967   4.329
 2150TIP3   OH2 6413   4.312   6.389   3.582
 2150TIP3    H1 6414   4.370   6.416   3.510
 2150TIP3    H2 6415   4.256   6.465   3.598
 2151TIP3   OH2 6416   5.755   2.190   5.852
 2151TIP3    H1 6417   5.676   2.164   5.899
 2151TIP3    H2 6418   5.818   2.121   5.870
 2152TIP3   OH2 6419   6.031   1.245   1.315
 2152TIP3    H1 6420   5.971   1.282   1.251
 2152TIP3    H2 6421   6.110   1.223   1.265
 2153TIP3   OH2 6422   3.228   4.249   4.293
 2153TIP3    H1 6423   3.240   4.162   4.331
 2153TIP3    H2 6424   3.304   4.299   4.323
 2154TIP3   OH2 6425   3.432   3.507   2.764
 2154TIP3    H1 6426   3.449   3.559   2.842
 2154TIP3    H2 6427   3.416   3.572   2.695
 2155TIP3   OH2 6428   5.326   0.472   1.605
 2155TIP3    H1 6429   5.317   0.458   1.699
 2155TIP3    H2 6430   5.381   0.550   1.598
 2156TIP3   OH2 6431   3.141   6.363   3.803
 2156TIP3    H1 6432   3.130   6.439   3.860
 2156TIP3    H2 6433   3.174   6.294   3.860
 2157TIP3   OH2 6434   1.695   0.499   4.694
 2157TIP3    H1 6435   1.661   0.419   4.653
 2157TIP3    H2 6436   1.630   0.566   4.673
 2158TIP3   OH2 6437   0.540   6.267   2.309
 2158TIP3    H1 6438   0.520   6.254   2.402
 2158TIP3    H2 6439   0.487   6.201   2.264
 2159TIP3   OH2 6440   7.044   4.548   4.781
 2159TIP3    H1 6441   6.960   4.502   4.781
 2159TIP3    H2 6442   7.110   4.478   4.784
 2160TIP3   OH2 6443   2.522   4.757   2.742
 2160TIP3    H1 6444   2.498   4.735   2.652
 2160TIP3    H2 6445   2.500   4.849   2.751
 2161TIP3   OH2 6446   2.704   0.755   0.810
 2161TIP3    H1 6447   2.629   0.755   0.751
 2161TIP3    H2 6448   2.712   0.846   0.838
 2162TIP3   OH2 6449   4.734   4.311   5.434
 2162TIP3    H1 6450   4.661   4.253   5.456
 2162TIP3    H2 6451   4.782   4.322   5.516
 2163TIP3   OH2 6452   1.600   1.250   4.222
 2163TIP3    H1 6453   1.575   1.176   4.167
 2163TIP3    H2 6454   1.643   1.311   4.162
 2164TIP3   OH2 6455   0.569   0.965   0.798
 2164TIP3    H1 6456   0.657   1.002   0.797
 2164TIP3    H2 6457   0.511   1.038   0.776
 2165TIP3   OH2 6458   5.458   0.671   0.610
 2165TIP3    H1 6459   5.450   0.590   0.559
 2165TIP3    H2 6460   5.369   0.690   0.639
 2166TIP3   OH2 6461   0.927   2.300   1.255
 2166TIP3    H1 6462   0.873   2.373   1.225
 2166TIP3    H2 6463   0.995   2.341   1.309
 2167TIP3   OH2 6464   6.110   5.439   2.984
 2167TIP3    H1 6465   6.093   5.531   3.003
 2167TIP3    H2 6466   6.027   5.395   3.003
 2168TIP3   OH2 6467   5.624   4.411   5.782
 2168TIP3    H1 6468   5.714   4.381   5.781
 2168TIP3    H2 6469   5.630   4.501   5.815
 2169TIP3   OH2 6470   6.492   0.943   2.332
 2169TIP3    H1 6471   6.544   1.017   2.301
 2169TIP3    H2 6472   6.444   0.914   2.254
 2170TIP3   OH2 6473   1.873   4.033   1.997
 2170TIP3    H1 6474   1.824   4.045   2.078
 2170TIP3    H2 6475   1.965   4.041   2.024
 2171TIP3   OH2 6476   3.811   2.629   1.995
 2171TIP3    H1 6477   3.742   2.567   2.017
 2171TIP3    H2 6478   3.852   2.650   2.079
 2172TIP3   OH2 6479   0.042   0.903   1.119
 2172TIP3    H1 6480  -0.012   0.953   1.058
 2172TIP3    H2 6481  -0.019   0.872   1.186
 2173TIP3   OH2 6482   6.110   5.779   1.047
 2173TIP3    H1 6483   6.202   5.805   1.039
 2173TIP3    H2 6484   6.075   5.791   0.959
 2174TIP3   OH2 6485   1.034   2.839   3.087
 2174TIP3    H1 6486   1.004   2.869   3.173
 2174TIP3    H2 6487   0.968   2.871   3.026
 2175TIP3   OH2 6488   6.319   6.521   0.353
 2175TIP3    H1 6489   6.334   6.597   0.297
 2175TIP3    H2 6490   6.239   6.541   0.400
 2176TIP3   OH2 6491   1.710   1.468   5.115
 2176TIP3    H1 6492   1.721   1.403   5.184
 2176TIP3    H2 6493   1.687   1.549   5.161
 2177TIP3   OH2 6494   2.761   5.241   5.222
 2177TIP3    H1 6495   2.755   5.332   5.193
 2177TIP3    H2 6496   2.671   5.216   5.243
 2178TIP3   OH2 6497   4.039   3.523   5.065
 2178TIP3    H1 6498   4.099   3.509   5.139
 2178TIP3    H2 6499   4.095   3.551   4.993
 2179TIP3   OH2 6500   3.791   1.315   1.558
 2179TIP3    H1 6501   3.761   1.315   1.467
 2179TIP3    H2 6502   3.815   1.406   1.576
 2180TIP3   OH2 6503   0.312   3.579   2.183
 2180TIP3    H1 6504   0.253   3.503   2.187
 2180TIP3    H2 6505   0.274   3.635   2.115
 2181TIP3   OH2 6506   0.526   4.582   0.768
 2181TIP3    H1 6507   0.608   4.553   0.728
 2181TIP3    H2 6508   0.554   4.643   0.837
 2182TIP3   OH2 6509   1.226   5.647   5.128
 2182TIP3    H1 6510   1.229   5.658   5.033
 2182TIP3    H2 6511   1.253   5.732   5.163
 2183TIP3   OH2 6512   5.717   5.359   0.095
 2183TIP3    H1 6513   5.651   5.304   0.052
 2183TIP3    H2 6514   5.767   5.397   0.022
 2184TIP3   OH2 6515   0.495   3.581   5.750
 2184TIP3    H1 6516   0.491   3.489   5.779
 2184TIP3    H2 6517   0.403   3.604   5.733
 2185TIP3   OH2 6518   1.078   5.452   3.931
 2185TIP3    H1 6519   1.054   5.360   3.921
 2185TIP3    H2 6520   0.999   5.493   3.967
 2186TIP3   OH2 6521   0.812   6.471   2.740
 2186TIP3    H1 6522   0.792   6.564   2.731
 2186TIP3    H2 6523   0.892   6.458   2.690
 2187TIP3   OH2 6524   4.776   4.225   0.130
 2187TIP3    H1 6525   4.821   4.188   0.206
 2187TIP3    H2 6526   4.787   4.319   0.139
 2188TIP3   OH2 6527   3.979   1.882   0.579
 2188TIP3    H1 6528   4.013   1.822   0.645
 2188TIP3    H2 6529   3.960   1.826   0.504
 2189TIP3   OH2 6530   2.716   1.587   4.573
 2189TIP3    H1 6531   2.742   1.553   4.487
 2189TIP3    H2 6532   2.775   1.660   4.589
 2190TIP3   OH2 6533   0.514   3.182   2.693
 2190TIP3    H1 6534   0.522   3.090   2.668
 2190TIP3    H2 6535   0.438   3.185   2.752
 2191TIP3   OH2 6536   3.834   4.889   0.684
 2191TIP3    H1 6537   3.800   4.953   0.621
 2191TIP3    H2 6538   3.847   4.940   0.764
 2192TIP3   OH2 6539   5.330   6.099   1.790
 2192TIP3    H1 6540   5.344   6.140   1.875
 2192TIP3    H2 6541   5.346   6.168   1.727
 2193TIP3   OH2 6542   3.759   2.342   5.496
 2193TIP3    H1 6543   3.779   2.325   5.588
 2193TIP3    H2 6544   3.727   2.432   5.495
 2194TIP3   OH2 6545   6.163   5.213   2.822
 2194TIP3    H1 6546   6.182   5.269   2.897
 2194TIP3    H2 6547   6.080   5.246   2.788
 2195TIP3   OH2 6548   0.505   5.818   5.420
 2195TIP3    H1 6549   0.419   5.859   5.430
 2195TIP3    H2 6550   0.497   5.763   5.342
 2196TIP3   OH2 6551   6.790   0.100   0.232
 2196TIP3    H1 6552   6.862   0.140   0.280
 2196TIP3    H2 6553   6.766   0.165   0.166
 2197TIP3   OH2 6554   0.090   3.113   2.665
 2197TIP3    H1 6555   0.162   3.120   2.602
 2197TIP3    H2 6556   0.036   3.042   2.631
 2198TIP3   OH2 6557   1.754   4.016   2.651
 2198TIP3    H1 6558   1.734   3.996   2.743
 2198TIP3    H2 6559   1.722   3.940   2.603
 2199TIP3   OH2 6560   2.882   5.350   1.185
 2199TIP3    H1 6561   2.927   5.277   1.142
 2199TIP3    H2 6562   2.801   5.312   1.218
 2200TIP3   OH2 6563   6.580   3.114   3.400
 2200TIP3    H1 6564   6.672   3.141   3.411
 2200TIP3    H2 6565   6.531   3.196   3.402
 2201TIP3   OH2 6566   6.984   0.791   2.159
 2201TIP3    H1 6567   6.919   0.767   2.225
 2201TIP3    H2 6568   6.934   0.805   2.079
 2202TIP3   OH2 6569   3.493   6.051   0.526
 2202TIP3    H1 6570   3.473   6.138   0.560
 2202TIP3    H2 6571   3.421   5.996   0.559
 2203TIP3   OH2 6572   3.869   2.212   5.293
 2203TIP3    H1 6573   3.818   2.244   5.368
 2203TIP3    H2 6574   3.960   2.233   5.316
 2204TIP3   OH2 6575   3.220   1.637   0.759
 2204TIP3    H1 6576   3.141   1.661   0.807
 2204TIP3    H2 6577   3.212   1.683   0.676
 2205TIP3   OH2 6578   0.515   4.168   3.144
 2205TIP3    H1 6579   0.473   4.251   3.119
 2205TIP3    H2 6580   0.443   4.113   3.173
 2206TIP3   OH2 6581   3.621   4.828   1.618
 2206TIP3    H1 6582   3.680   4.797   1.686
 2206TIP3    H2 6583   3.580   4.906   1.656
 2207TIP3   OH2 6584   3.543   1.479   0.906
 2207TIP3    H1 6585   3.534   1.401   0.961
 2207TIP3    H2 6586   3.455   1.518   0.906
 2208TIP3   OH2 6587   2.195   4.634   2.842
 2208TIP3    H1 6588   2.161   4.593   2.762
 2208TIP3    H2 6589   2.256   4.570   2.878
 2209TIP3   OH2 6590   6.382   1.396   4.814
 2209TIP3    H1 6591   6.468   1.359   4.791
 2209TIP3    H2 6592   6.381   1.396   4.910
 2210TIP3   OH2 6593   3.550   3.069   3.685
 2210TIP3    H1 6594   3.547   3.096   3.593
 2210TIP3    H2 6595   3.519   2.979   3.685
 2211TIP3   OH2 6596   7.033   1.932   3.913
 2211TIP3    H1 6597   7.017   1.941   4.007
 2211TIP3    H2 6598   6.953   1.964   3.872
 2212TIP3   OH2 6599   3.771   3.328   4.085
 2212TIP3    H1 6600   3.713   3.292   4.153
 2212TIP3    H2 6601   3.725   3.309   4.003
 2213TIP3   OH2 6602   2.387   5.795   4.879
 2213TIP3    H1 6603   2.445   5.855   4.926
 2213TIP3    H2 6604   2.439   5.763   4.805
 2214TIP3   OH2 6605   2.307   4.870   1.867
 2214TIP3    H1 6606   2.362   4.915   1.931
 2214TIP3    H2 6607   2.363   4.861   1.789
 2215TIP3   OH2 6608   4.307   1.819   2.071
 2215TIP3    H1 6609   4.260   1.895   2.107
 2215TIP3    H2 6610   4.243   1.748   2.074
 2216TIP3   OH2 6611   1.950   0.556   0.101
 2216TIP3    H1 6612   1.959   0.477   0.154
 2216TIP3    H2 6613   1.983   0.627   0.157
 2217TIP3   OH2 6614   5.752   6.571   0.089
 2217TIP3    H1 6615   5.730   6.662   0.110
 2217TIP3    H2 6616   5.846   6.573   0.069
 2218TIP3   OH2 6617   4.410   4.165   4.395
 2218TIP3    H1 6618   4.337   4.118   4.435
 2218TIP3    H2 6619   4.436   4.230   4.460
 2219TIP3   OH2 6620   2.112   1.942   1.898
 2219TIP3    H1 6621   2.194   1.975   1.861
 2219TIP3    H2 6622   2.111   1.977   1.987
 2220TIP3   OH2 6623   2.438   3.443   2.512
 2220TIP3    H1 6624   2.443   3.418   2.604
 2220TIP3    H2 6625   2.516   3.496   2.496
 2221TIP3   OH2 6626   5.790   4.804   4.517
 2221TIP3    H1 6627   5.883   4.784   4.521
 2221TIP3    H2 6628   5.746   4.719   4.513
 2222TIP3   OH2 6629   5.306   2.188   4.554
 2222TIP3    H1 6630   5.224   2.180   4.602
 2222TIP3    H2 6631   5.298   2.124   4.483
 2223TIP3   OH2 6632   0.946   0.512   4.999
 2223TIP3    H1 6633   0.939   0.417   4.986
 2223TIP3    H2 6634   0.864   0.547   4.964
 2224TIP3   OH2 6635   6.829   3.937   3.173
 2224TIP3    H1 6636   6.910   3.979   3.202
 2224TIP3    H2 6637   6.759   3.990   3.212
 2225TIP3   OH2 6638   1.701   2.831   0.635
 2225TIP3    H1 6639   1.624   2.888   0.640
 2225TIP3    H2 6640   1.774   2.888   0.660
 2226TIP3   OH2 6641   6.913   5.163   0.448
 2226TIP3    H1 6642   6.881   5.251   0.429
 2226TIP3    H2 6643   6.927   5.162   0.543
 2227TIP3   OH2 6644   0.830   4.895   4.721
 2227TIP3    H1 6645   0.763   4.829   4.707
 2227TIP3    H2 6646   0.788   4.961   4.776
 2228TIP3   OH2 6647   0.951   5.861   5.054
 2228TIP3    H1 6648   0.905   5.943   5.068
 2228TIP3    H2 6649   1.043   5.886   5.043
 2229TIP3   OH2 6650   5.553  -0.023   1.331
 2229TIP3    H1 6651   5.626  -0.083   1.344
 2229TIP3    H2 6652   5.584   0.061   1.363
 2230TIP3   OH2 6653   3.846   5.590   5.426
 2230TIP3    H1 6654   3.801   5.582   5.342
 2230TIP3    H2 6655   3.860   5.500   5.455
 2231TIP3   OH2 6656   5.132   2.620   1.287
 2231TIP3    H1 6657   5.070   2.585   1.351
 2231TIP3    H2 6658   5.137   2.714   1.308
 2232TIP3   OH2 6659   2.488   0.064   3.949
 2232TIP3    H1 6660   2.553   0.134   3.948
 2232TIP3    H2 6661   2.529  -0.006   4.001
 2233TIP3   OH2 6662   3.322   2.877   3.053
 2233TIP3    H1 6663   3.314   2.876   3.148
 2233TIP3    H2 6664   3.378   2.952   3.034
 2234TIP3   OH2 6665   5.508   1.492   2.771
 2234TIP3    H1 6666   5.598   1.523   2.780
 2234TIP3    H2 6667   5.461   1.534   2.844
 2235TIP3   OH2 6668   0.239   4.289   1.508
 2235TIP3    H1 6669   0.146   4.266   1.512
 2235TIP3    H2 6670   0.284   4.214   1.547
 2236TIP3   OH2 6671   1.783   0.884   3.673
 2236TIP3    H1 6672   1.819   0.972   3.681
 2236TIP3    H2 6673   1.732   0.886   3.592
 2237TIP3   OH2 6674   6.795   0.341   2.723
 2237TIP3    H1 6675   6.883   0.366   2.695
 2237TIP3    H2 6676   6.758   0.296   2.648
 2238TIP3   OH2 6677   6.435   5.882   5.220
 2238TIP3    H1 6678   6.450   5.975   5.234
 2238TIP3    H2 6679   6.347   5.877   5.183
 2239TIP3   OH2 6680   6.520   0.808   1.826
 2239TIP3    H1 6681   6.459   0.765   1.766
 2239TIP3    H2 6682   6.517   0.900   1.801
 2240TIP3   OH2 6683   4.866   0.854   4.056
 2240TIP3    H1 6684   4.797   0.871   4.121
 2240TIP3    H2 6685   4.947   0.857   4.107
 2241TIP3   OH2 6686   2.286   4.144   4.320
 2241TIP3    H1 6687   2.217   4.209   4.310
 2241TIP3    H2 6688   2.320   4.131   4.232
 2242TIP3   OH2 6689   5.156   4.271   4.634
 2242TIP3    H1 6690   5.108   4.350   4.607
 2242TIP3    H2 6691   5.103   4.199   4.601
 2243TIP3   OH2 6692   7.098   4.190   2.387
 2243TIP3    H1 6693   7.160   4.136   2.436
 2243TIP3    H2 6694   7.019   4.192   2.441
 2244TIP3   OH2 6695   2.180   6.576   1.854
 2244TIP3    H1 6696   2.148   6.500   1.806
 2244TIP3    H2 6697   2.161   6.650   1.797
 2245TIP3   OH2 6698   2.000   0.489   2.437
 2245TIP3    H1 6699   2.030   0.435   2.510
 2245TIP3    H2 6700   2.077   0.539   2.411
 2246TIP3   OH2 6701   4.642   3.589   3.457
 2246TIP3    H1 6702   4.552   3.570   3.481
 2246TIP3    H2 6703   4.694   3.560   3.533
 2247TIP3   OH2 6704   5.927   1.279   3.291
 2247TIP3    H1 6705   5.962   1.361   3.326
 2247TIP3    H2 6706   5.837   1.275   3.323
 2248TIP3   OH2 6707   0.567   2.841   1.934
 2248TIP3    H1 6708   0.631   2.771   1.923
 2248TIP3    H2 6709   0.573   2.891   1.852
 2249TIP3   OH2 6710   3.928   5.026   4.918
 2249TIP3    H1 6711   3.910   5.039   5.011
 2249TIP3    H2 6712   3.845   4.993   4.883
 2250TIP3   OH2 6713   2.127   4.788   4.758
 2250TIP3    H1 6714   2.180   4.709   4.757
 2250TIP3    H2 6715   2.069   4.777   4.834
 2251TIP3   OH2 6716   5.997   1.250   2.997
 2251TIP3    H1 6717   5.939   1.263   3.072
 2251TIP3    H2 6718   6.084   1.243   3.035
 2252TIP3   OH2 6719   2.049   1.345   0.059
 2252TIP3    H1 6720   2.021   1.421   0.008
 2252TIP3    H2 6721   1.968   1.302   0.085
 2253TIP3   OH2 6722   1.442   3.314   2.293
 2253TIP3    H1 6723   1.493   3.234   2.281
 2253TIP3    H2 6724   1.389   3.321   2.214
 2254TIP3   OH2 6725   0.884   0.028   0.165
 2254TIP3    H1 6726   0.859   0.067   0.081
 2254TIP3    H2 6727   0.919   0.101   0.216
 2255TIP3   OH2 6728   7.036   2.920   4.654
 2255TIP3    H1 6729   6.993   2.964   4.582
 2255TIP3    H2 6730   6.971   2.857   4.686
 2256TIP3   OH2 6731   5.970   1.613   3.706
 2256TIP3    H1 6732   5.927   1.637   3.624
 2256TIP3    H2 6733   6.063   1.627   3.689
 2257TIP3   OH2 6734   1.524   3.555   5.605
 2257TIP3    H1 6735   1.434   3.547   5.573
 2257TIP3    H2 6736   1.527   3.640   5.648
 2258TIP3   OH2 6737   5.336   3.535   4.491
 2258TIP3    H1 6738   5.274   3.533   4.564
 2258TIP3    H2 6739   5.407   3.592   4.522
 2259TIP3   OH2 6740   6.698   2.584   2.560
 2259TIP3    H1 6741   6.625   2.523   2.554
 2259TIP3    H2 6742   6.662   2.661   2.603
 2260TIP3   OH2 6743  -0.018   6.493   1.265
 2260TIP3    H1 6744  -0.005   6.583   1.296
 2260TIP3    H2 6745  -0.063   6.504   1.181
 2261TIP3   OH2 6746   3.869   1.522   3.367
 2261TIP3    H1 6747   3.894   1.493   3.279
 2261TIP3    H2 6748   3.846   1.614   3.357
 2262TIP3   OH2 6749   7.182   0.526   3.264
 2262TIP3    H1 6750   7.114   0.579   3.221
 2262TIP3    H2 6751   7.140   0.441   3.278
 2263TIP3   OH2 6752   3.060   1.428   1.392
 2263TIP3    H1 6753   3.025   1.513   1.420
 2263TIP3    H2 6754   3.120   1.402   1.461
 2264TIP3   OH2 6755   2.615   4.058   0.224
 2264TIP3    H1 6756   2.573   4.010   0.152
 2264TIP3    H2 6757   2.554   4.052   0.297
 2265TIP3   OH2 6758   6.089   1.245   0.785
 2265TIP3    H1 6759   6.075   1.209   0.698
 2265TIP3    H2 6760   6.064   1.174   0.844
 2266TIP3   OH2 6761   3.454   4.080   3.783
 2266TIP3    H1 6762   3.404   4.001   3.765
 2266TIP3    H2 6763   3.545   4.051   3.788
 2267TIP3   OH2 6764   6.218   4.697   3.811
 2267TIP3    H1 6765   6.302   4.743   3.811
 2267TIP3    H2 6766   6.170   4.735   3.737
 2268TIP3   OH2 6767   1.381   4.693   0.385
 2268TIP3    H1 6768   1.417   4.611   0.351
 2268TIP3    H2 6769   1.451   4.757   0.372
 2269TIP3   OH2 6770   7.018   5.441   1.704
 2269TIP3    H1 6771   7.046   5.533   1.711
 2269TIP3    H2 6772   6.923   5.445   1.703
 2270TIP3   OH2 6773   5.318   3.030   1.844
 2270TIP3    H1 6774   5.254   3.018   1.914
 2270TIP3    H2 6775   5.292   3.112   1.801
 2271TIP3   OH2 6776   6.084   3.794   1.279
 2271TIP3    H1 6777   6.118   3.729   1.341
 2271TIP3    H2 6778   6.113   3.763   1.194
 2272TIP3   OH2 6779   6.865   4.387   2.027
 2272TIP3    H1 6780   6.795   4.401   1.963
 2272TIP3    H2 6781   6.880   4.293   2.026
 2273TIP3   OH2 6782   1.324   1.036   4.448
 2273TIP3    H1 6783   1.274   1.018   4.369
 2273TIP3    H2 6784   1.263   1.018   4.520
 2274TIP3   OH2 6785   6.871   4.871   3.783
 2274TIP3    H1 6786   6.954   4.918   3.779
 2274TIP3    H2 6787   6.852   4.847   3.692
 2275TIP3   OH2 6788   3.057   3.375   5.222
 2275TIP3    H1 6789   3.095   3.389   5.135
 2275TIP3    H2 6790   2.975   3.424   5.220
 2276TIP3   OH2 6791   1.348   3.452   5.278
 2276TIP3    H1 6792   1.340   3.364   5.315
 2276TIP3    H2 6793   1.344   3.439   5.184
 2277TIP3   OH2 6794   7.224   4.679   2.347
 2277TIP3    H1 6795   7.281   4.637   2.411
 2277TIP3    H2 6796   7.172   4.608   2.310
 2278TIP3   OH2 6797   2.610   3.751   3.159
 2278TIP3    H1 6798   2.675   3.789   3.217
 2278TIP3    H2 6799   2.562   3.826   3.123
 2279TIP3   OH2 6800   7.199   2.129   4.813
 2279TIP3    H1 6801   7.135   2.069   4.852
 2279TIP3    H2 6802   7.146   2.203   4.783
 2280TIP3   OH2 6803   2.757   1.850   4.876
 2280TIP3    H1 6804   2.837   1.818   4.834
 2280TIP3    H2 6805   2.767   1.826   4.968
 2281TIP3   OH2 6806   1.388   4.533   0.046
 2281TIP3    H1 6807   1.418   4.463  -0.011
 2281TIP3    H2 6808   1.410   4.502   0.134
 2282TIP3   OH2 6809   5.279   2.139   1.960
 2282TIP3    H1 6810   5.226   2.207   1.918
 2282TIP3    H2 6811   5.221   2.063   1.964
 2283TIP3   OH2 6812   3.238   5.143   5.557
 2283TIP3    H1 6813   3.234   5.232   5.593
 2283TIP3    H2 6814   3.152   5.130   5.518
 2284TIP3   OH2 6815   4.220   3.266   2.033
 2284TIP3    H1 6816   4.212   3.285   2.126
 2284TIP3    H2 6817   4.223   3.352   1.991
 2285TIP3   OH2 6818   1.659   4.554   3.398
 2285TIP3    H1 6819   1.654   4.462   3.370
 2285TIP3    H2 6820   1.733   4.556   3.459
 2286TIP3   OH2 6821   4.221   0.730   4.141
 2286TIP3    H1 6822   4.242   0.653   4.089
 2286TIP3    H2 6823   4.199   0.696   4.227
 2287TIP3   OH2 6824   5.011   0.879   0.586
 2287TIP3    H1 6825   5.006   0.805   0.646
 2287TIP3    H2 6826   5.099   0.915   0.599
 2288TIP3   OH2 6827   5.347   5.336   4.716
 2288TIP3    H1 6828   5.403   5.265   4.746
 2288TIP3    H2 6829   5.341   5.395   4.791
 2289TIP3   OH2 6830   0.084   5.030   2.491
 2289TIP3    H1 6831   0.158   4.987   2.532
 2289TIP3    H2 6832   0.062   5.102   2.551
 2290TIP3   OH2 6833   1.369   5.488   1.988
 2290TIP3    H1 6834   1.336   5.455   1.904
 2290TIP3    H2 6835   1.369   5.412   2.046
 2291TIP3   OH2 6836   3.842   6.613   4.317
 2291TIP3    H1 6837   3.844   6.517   4.320
 2291TIP3    H2 6838   3.843   6.640   4.409
 2292TIP3   OH2 6839   3.457   1.477   4.729
 2292TIP3    H1 6840   3.376   1.459   4.776
 2292TIP3    H2 6841   3.507   1.533   4.789
 2293TIP3   OH2 6842   4.729   2.989   3.857
 2293TIP3    H1 6843   4.648   2.983   3.807
 2293TIP3    H2 6844   4.733   2.907   3.907
 2294TIP3   OH2 6845   4.387   3.333   0.420
 2294TIP3    H1 6846   4.311   3.368   0.466
 2294TIP3    H2 6847   4.456   3.328   0.487
 2295TIP3   OH2 6848   6.985   1.170   4.499
 2295TIP3    H1 6849   6.958   1.082   4.528
 2295TIP3    H2 6850   7.051   1.197   4.564
 2296TIP3   OH2 6851   6.998   6.051   3.999
 2296TIP3    H1 6852   6.912   6.093   3.999
 2296TIP3    H2 6853   7.024   6.050   4.091
 2297TIP3   OH2 6854   4.852   6.224   4.461
 2297TIP3    H1 6855   4.917   6.162   4.494
 2297TIP3    H2 6856   4.899   6.275   4.395
 2298TIP3   OH2 6857   4.546   0.321   3.244
 2298TIP3    H1 6858   4.640   0.327   3.263
 2298TIP3    H2 6859   4.504   0.364   3.319
 2299TIP3   OH2 6860   6.117   2.977   2.340
 2299TIP3    H1 6861   6.134   3.052   2.398
 2299TIP3    H2 6862   6.039   3.002   2.291
 2300TIP3   OH2 6863   5.182   6.065   5.022
 2300TIP3    H1 6864   5.273   6.040   5.012
 2300TIP3    H2 6865   5.184   6.160   5.032
 2301TIP3   OH2 6866   6.065   3.414   5.444
 2301TIP3    H1 6867   6.110   3.496   5.422
 2301TIP3    H2 6868   6.090   3.354   5.373
 2302TIP3   OH2 6869   3.036   2.699   4.481
 2302TIP3    H1 6870   3.069   2.767   4.424
 2302TIP3    H2 6871   2.949   2.678   4.446
 2303TIP3   OH2 6872   0.884   1.575   5.676
 2303TIP3    H1 6873   0.886   1.637   5.748
 2303TIP3    H2 6874   0.964   1.594   5.625
 2304TIP3   OH2 6875   0.891   3.052   5.467
 2304TIP3    H1 6876   0.817   3.067   5.524
 2304TIP3    H2 6877   0.858   2.994   5.398
 2305TIP3   OH2 6878   2.068   1.605   4.716
 2305TIP3    H1 6879   2.129   1.609   4.790
 2305TIP3    H2 6880   1.988   1.568   4.753
 2306TIP3   OH2 6881   1.429   4.250   4.596
 2306TIP3    H1 6882   1.371   4.219   4.666
 2306TIP3    H2 6883   1.372   4.297   4.536
 2307TIP3   OH2 6884   4.599   1.784   5.334
 2307TIP3    H1 6885   4.671   1.847   5.333
 2307TIP3    H2 6886   4.528   1.828   5.288
 2308TIP3   OH2 6887   5.920   5.322   3.220
 2308TIP3    H1 6888   5.979   5.248   3.205
 2308TIP3    H2 6889   5.975   5.389   3.261
 2309TIP3   OH2 6890   6.277   4.507   4.033
 2309TIP3    H1 6891   6.268   4.558   3.952
 2309TIP3    H2 6892   6.280   4.416   4.003
 2310TIP3   OH2 6893   0.569   3.698   2.234
 2310TIP3    H1 6894   0.484   3.664   2.261
 2310TIP3    H2 6895   0.630   3.625   2.250
 2311TIP3   OH2 6896   3.467   1.276   0.293
 2311TIP3    H1 6897   3.496   1.327   0.369
 2311TIP3    H2 6898   3.509   1.317   0.218
 2312TIP3   OH2 6899   3.157   0.201   5.197
 2312TIP3    H1 6900   3.183   0.177   5.108
 2312TIP3    H2 6901   3.086   0.141   5.219
 2313TIP3   OH2 6902   6.552   3.608   5.227
 2313TIP3    H1 6903   6.595   3.638   5.147
 2313TIP3    H2 6904   6.565   3.681   5.289
 2314TIP3   OH2 6905   4.723   2.654   3.348
 2314TIP3    H1 6906   4.818   2.663   3.354
 2314TIP3    H2 6907   4.705   2.571   3.391
 2315TIP3   OH2 6908   6.847   5.726   0.097
 2315TIP3    H1 6909   6.772   5.692   0.146
 2315TIP3    H2 6910   6.917   5.733   0.162
 2316TIP3   OH2 6911   2.988   3.287   1.339
 2316TIP3    H1 6912   2.941   3.211   1.373
 2316TIP3    H2 6913   2.932   3.322   1.271
 2317TIP3   OH2 6914   4.456   1.929   1.061
 2317TIP3    H1 6915   4.419   1.843   1.082
 2317TIP3    H2 6916   4.397   1.965   0.994
 2318TIP3   OH2 6917   1.573   5.675   2.054
 2318TIP3    H1 6918   1.533   5.761   2.067
 2318TIP3    H2 6919   1.500   5.618   2.028
 2319TIP3   OH2 6920   0.285   0.952   2.327
 2319TIP3    H1 6921   0.260   0.972   2.417
 2319TIP3    H2 6922   0.380   0.937   2.331
 2320TIP3   OH2 6923   1.900   1.547   1.235
 2320TIP3    H1 6924   1.879   1.609   1.166
 2320TIP3    H2 6925   1.817   1.534   1.282
 2321TIP3   OH2 6926   2.591   0.770   4.261
 2321TIP3    H1 6927   2.503   0.790   4.230
 2321TIP3    H2 6928   2.578   0.728   4.346
 2322TIP3   OH2 6929   0.200   1.950   1.881
 2322TIP3    H1 6930   0.133   1.924   1.818
 2322TIP3    H2 6931   0.271   1.986   1.827
 2323TIP3   OH2 6932   4.314   3.718   4.482
 2323TIP3    H1 6933   4.393   3.672   4.511
 2323TIP3    H2 6934   4.242   3.664   4.514
 2324TIP3   OH2 6935   5.203   6.733   2.703
 2324TIP3    H1 6936   5.166   6.668   2.763
 2324TIP3    H2 6937   5.240   6.801   2.760
 2325TIP3   OH2 6938   5.039   1.527   0.668
 2325TIP3    H1 6939   4.992   1.553   0.588
 2325TIP3    H2 6940   5.128   1.507   0.638
 2326TIP3   OH2 6941   2.392   5.704   3.773
 2326TIP3    H1 6942   2.478   5.708   3.814
 2326TIP3    H2 6943   2.351   5.787   3.796
 2327TIP3   OH2 6944   7.091   3.516   1.329
 2327TIP3    H1 6945   7.169   3.463   1.311
 2327TIP3    H2 6946   7.124   3.606   1.332
 2328TIP3   OH2 6947   5.571   3.126   4.824
 2328TIP3    H1 6948   5.624   3.047   4.818
 2328TIP3    H2 6949   5.486   3.102   4.786
 2329TIP3   OH2 6950   4.060   4.033   5.587
 2329TIP3    H1 6951   4.133   3.972   5.594
 2329TIP3    H2 6952   3.982   3.981   5.609
 2330TIP3   OH2 6953   4.559   6.604   1.260
 2330TIP3    H1 6954   4.616   6.646   1.324
 2330TIP3    H2 6955   4.505   6.543   1.311
 2331TIP3   OH2 6956   0.053   4.656   1.130
 2331TIP3    H1 6957   0.053   4.748   1.105
 2331TIP3    H2 6958  -0.036   4.640   1.162
 2332TIP3   OH2 6959   1.546   3.849   1.001
 2332TIP3    H1 6960   1.599   3.788   1.052
 2332TIP3    H2 6961   1.608   3.886   0.938
 2333TIP3   OH2 6962   1.082   6.515   3.435
 2333TIP3    H1 6963   1.114   6.567   3.509
 2333TIP3    H2 6964   1.132   6.546   3.360
 2334TIP3   OH2 6965   0.852   3.902   0.832
 2334TIP3    H1 6966   0.820   3.820   0.795
 2334TIP3    H2 6967   0.943   3.885   0.856
 2335TIP3   OH2 6968   1.707   1.615   3.347
 2335TIP3    H1 6969   1.771   1.609   3.276
 2335TIP3    H2 6970   1.672   1.526   3.354
 2336TIP3   OH2 6971   5.219   2.443   5.332
 2336TIP3    H1 6972   5.188   2.358   5.363
 2336TIP3    H2 6973   5.297   2.421   5.280
 2337TIP3   OH2 6974   6.143   4.349   3.797
 2337TIP3    H1 6975   6.084   4.305   3.735
 2337TIP3    H2 6976   6.091   4.422   3.831
 2338TIP3   OH2 6977   5.197   5.923   3.693
 2338TIP3    H1 6978   5.208   5.952   3.602
 2338TIP3    H2 6979   5.136   5.849   3.687
 2339TIP3   OH2 6980   5.272   3.250   1.480
 2339TIP3    H1 6981   5.311   3.318   1.535
 2339TIP3    H2 6982   5.219   3.298   1.416
 2340TIP3   OH2 6983   2.977   1.756   4.213
 2340TIP3    H1 6984   3.060   1.731   4.252
 2340TIP3    H2 6985   3.000   1.789   4.126
 2341TIP3   OH2 6986   6.561   1.596   0.863
 2341TIP3    H1 6987   6.472   1.621   0.842
 2341TIP3    H2 6988   6.605   1.588   0.778
 2342TIP3   OH2 6989   3.590   6.318   3.556
 2342TIP3    H1 6990   3.521   6.253   3.543
 2342TIP3    H2 6991   3.565   6.364   3.636
 2343TIP3   OH2 6992   0.733   5.917   5.761
 2343TIP3    H1 6993   0.796   5.922   5.689
 2343TIP3    H2 6994   0.727   5.823   5.780
 2344TIP3   OH2 6995   7.085   5.438   5.172
 2344TIP3    H1 6996   6.990   5.439   5.173
 2344TIP3    H2 6997   7.108   5.354   5.132
 2345TIP3   OH2 6998   4.381   2.090   4.865
 2345TIP3    H1 6999   4.305   2.049   4.825
 2345TIP3    H2 7000   4.406   2.031   4.937
 2346TIP3   OH2 7001   4.814   3.722   1.589
 2346TIP3    H1 7002   4.885   3.726   1.653
 2346TIP3    H2 7003   4.826   3.799   1.534
 2347TIP3   OH2 7004   3.026   6.681   3.804
 2347TIP3    H1 7005   2.959   6.684   3.736
 2347TIP3    H2 7006   2.980   6.708   3.884
 2348TIP3   OH2 7007   0.996   0.738   3.828
 2348TIP3    H1 7008   1.048   0.804   3.873
 2348TIP3    H2 7009   0.908   0.747   3.866
 2349TIP3   OH2 7010   0.181   5.316   3.897
 2349TIP3    H1 7011   0.107   5.365   3.933
 2349TIP3    H2 7012   0.257   5.350   3.943
 2350TIP3   OH2 7013   2.906   0.785   4.655
 2350TIP3    H1 7014   2.874   0.866   4.696
 2350TIP3    H2 7015   2.991   0.810   4.618
 2351TIP3   OH2 7016   4.911   3.860   4.476
 2351TIP3    H1 7017   5.000   3.890   4.460
 2351TIP3    H2 7018   4.870   3.931   4.525
 2352TIP3   OH2 7019   6.105   3.218   0.546
 2352TIP3    H1 7020   6.058   3.170   0.479
 2352TIP3    H2 7021   6.050   3.294   0.566
 2353TIP3   OH2 7022   6.878   6.449   4.628
 2353TIP3    H1 7023   6.861   6.528   4.575
 2353TIP3    H2 7024   6.878   6.481   4.718
 2354TIP3   OH2 7025   5.651   6.195   1.611
 2354TIP3    H1 7026   5.560   6.228   1.611
 2354TIP3    H2 7027   5.692   6.241   1.685
 2355TIP3   OH2 7028   6.506   3.070   2.027
 2355TIP3    H1 7029   6.468   2.995   2.074
 2355TIP3    H2 7030   6.493   3.144   2.087
 2356TIP3   OH2 7031   3.207   4.365   1.316
 2356TIP3    H1 7032   3.174   4.451   1.290
 2356TIP3    H2 7033   3.228   4.322   1.233
 2357TIP3   OH2 7034   2.413   2.152   5.363
 2357TIP3    H1 7035   2.384   2.069   5.400
 2357TIP3    H2 7036   2.488   2.129   5.308
 2358TIP3   OH2 7037   5.624   6.484   2.407
 2358TIP3    H1 7038   5.561   6.498   2.478
 2358TIP3    H2 7039   5.630   6.569   2.363
 2359TIP3   OH2 7040   4.664   0.220   1.606
 2359TIP3    H1 7041   4.734   0.262   1.657
 2359TIP3    H2 7042   4.622   0.292   1.559
 2360TIP3   OH2 7043   1.435   4.978   0.394
 2360TIP3    H1 7044   1.394   5.064   0.383
 2360TIP3    H2 7045   1.517   4.984   0.346
 2361TIP3   OH2 7046   6.781   5.621   3.183
 2361TIP3    H1 7047   6.755   5.607   3.092
 2361TIP3    H2 7048   6.700   5.648   3.227
 2362TIP3   OH2 7049   4.766   6.394   2.010
 2362TIP3    H1 7050   4.743   6.381   1.918
 2362TIP3    H2 7051   4.813   6.314   2.034
 2363TIP3   OH2 7052   0.155   2.183   0.489
 2363TIP3    H1 7053   0.234   2.230   0.517
 2363TIP3    H2 7054   0.092   2.252   0.469
 2364TIP3   OH2 7055   5.399   6.835   5.386
 2364TIP3    H1 7056   5.400   6.771   5.315
 2364TIP3    H2 7057   5.316   6.821   5.430
 2365TIP3   OH2 7058   2.918   1.939   1.158
 2365TIP3    H1 7059   2.978   1.865   1.172
 2365TIP3    H2 7060   2.975   2.016   1.161
 2366TIP3   OH2 7061   0.505   1.411   1.850
 2366TIP3    H1 7062   0.506   1.316   1.861
 2366TIP3    H2 7063   0.569   1.427   1.780
 2367TIP3   OH2 7064   4.809   0.587   5.229
 2367TIP3    H1 7065   4.756   0.651   5.182
 2367TIP3    H2 7066   4.780   0.595   5.320
 2368TIP3   OH2 7067   4.660   4.759   0.584
 2368TIP3    H1 7068   4.671   4.664   0.581
 2368TIP3    H2 7069   4.746   4.792   0.610
 2369TIP3   OH2 7070   0.181   2.860   5.668
 2369TIP3    H1 7071   0.131   2.826   5.741
 2369TIP3    H2 7072   0.149   2.811   5.592
 2370TIP3   OH2 7073   6.659   1.426   0.654
 2370TIP3    H1 7074   6.752   1.410   0.671
 2370TIP3    H2 7075   6.626   1.343   0.621
 2371TIP3   OH2 7076   2.090   3.560   2.738
 2371TIP3    H1 7077   2.000   3.547   2.709
 2371TIP3    H2 7078   2.081   3.592   2.828
 2372TIP3   OH2 7079   3.518   0.971   5.534
 2372TIP3    H1 7080   3.519   0.884   5.493
 2372TIP3    H2 7081   3.509   1.032   5.461
 2373TIP3   OH2 7082   4.252   2.445   1.388
 2373TIP3    H1 7083   4.270   2.524   1.336
 2373TIP3    H2 7084   4.170   2.411   1.352
 2374TIP3   OH2 7085   5.297   1.462   5.801
 2374TIP3    H1 7086   5.385   1.427   5.812
 2374TIP3    H2 7087   5.240   1.385   5.810
 2375TIP3   OH2 7088   4.540   4.097   5.495
 2375TIP3    H1 7089   4.590   4.061   5.568
 2375TIP3    H2 7090   4.523   4.021   5.439
 2376TIP3   OH2 7091   0.998   4.915  -0.015
 2376TIP3    H1 7092   0.953   4.974   0.045
 2376TIP3    H2 7093   1.069   4.878   0.037
 2377TIP3   OH2 7094   2.829   2.353   5.791
 2377TIP3    H1 7095   2.784   2.282   5.837
 2377TIP3    H2 7096   2.762   2.419   5.776
 2378TIP3   OH2 7097   4.722   3.783   4.263
 2378TIP3    H1 7098   4.791   3.807   4.326
 2378TIP3    H2 7099   4.666   3.860   4.259
 2379TIP3   OH2 7100   6.163   3.345   0.051
 2379TIP3    H1 7101   6.163   3.334   0.146
 2379TIP3    H2 7102   6.087   3.400   0.033
 2380TIP3   OH2 7103   3.581   2.518   4.308
 2380TIP3    H1 7104   3.593   2.548   4.218
 2380TIP3    H2 7105   3.510   2.573   4.342
 2381TIP3   OH2 7106   7.098   0.305   5.594
 2381TIP3    H1 7107   7.170   0.367   5.598
 2381TIP3    H2 7108   7.139   0.219   5.600
 2382TIP3   OH2 7109   6.286   4.969   2.560
 2382TIP3    H1 7110   6.315   4.882   2.589
 2382TIP3    H2 7111   6.362   5.025   2.575
 2383TIP3   OH2 7112   5.027   3.202   5.825
 2383TIP3    H1 7113   5.025   3.222   5.731
 2383TIP3    H2 7114   5.111   3.236   5.854
 2384TIP3   OH2 7115   6.056   5.986   0.578
 2384TIP3    H1 7116   6.041   5.901   0.619
 2384TIP3    H2 7117   6.107   6.035   0.643
 2385TIP3   OH2 7118   7.218   5.644   1.948
 2385TIP3    H1 7119   7.132   5.668   1.912
 2385TIP3    H2 7120   7.251   5.726   1.985
 2386TIP3   OH2 7121   0.133   2.002   2.337
 2386TIP3    H1 7122   0.039   2.019   2.338
 2386TIP3    H2 7123   0.152   1.965   2.423
 2387TIP3   OH2 7124   0.761   4.952   1.190
 2387TIP3    H1 7125   0.697   4.956   1.118
 2387TIP3    H2 7126   0.740   5.028   1.245
 2388TIP3   OH2 7127   3.892   0.663   3.874
 2388TIP3    H1 7128   3.844   0.743   3.853
 2388TIP3    H2 7129   3.979   0.693   3.899
 2389TIP3   OH2 7130   2.664   5.846   3.859
 2389TIP3    H1 7131   2.703   5.826   3.944
 2389TIP3    H2 7132   2.628   5.934   3.870
 2390TIP3   OH2 7133   5.126   2.123   0.271
 2390TIP3    H1 7134   5.149   2.030   0.264
 2390TIP3    H2 7135   5.206   2.164   0.305
 2391TIP3   OH2 7136   4.784   4.071   4.563
 2391TIP3    H1 7137   4.712   4.093   4.621
 2391TIP3    H2 7138   4.781   4.138   4.495
 2392TIP3   OH2 7139   4.499   5.850   3.343
 2392TIP3    H1 7140   4.542   5.777   3.298
 2392TIP3    H2 7141   4.555   5.925   3.324
 2393TIP3   OH2 7142   4.438   6.303   3.118
 2393TIP3    H1 7143   4.398   6.216   3.116
 2393TIP3    H2 7144   4.371   6.361   3.082
 2394TIP3   OH2 7145   2.758   5.493   1.878
 2394TIP3    H1 7146   2.839   5.513   1.830
 2394TIP3    H2 7147   2.762   5.548   1.955
 2395TIP3   OH2 7148   3.933   4.079   5.842
 2395TIP3    H1 7149   3.914   4.159   5.890
 2395TIP3    H2 7150   3.974   4.109   5.761
 2396TIP3   OH2 7151   2.199   3.373   3.782
 2396TIP3    H1 7152   2.207   3.386   3.877
 2396TIP3    H2 7153   2.263   3.432   3.744
 2397TIP3   OH2 7154   3.354   5.363   3.920
 2397TIP3    H1 7155   3.289   5.340   3.853
 2397TIP3    H2 7156   3.375   5.280   3.962
 2398TIP3   OH2 7157   4.864   5.743   4.268
 2398TIP3    H1 7158   4.794   5.802   4.297
 2398TIP3    H2 7159   4.918   5.730   4.346
 2399TIP3   OH2 7160   5.714   4.932   1.932
 2399TIP3    H1 7161   5.697   4.876   2.007
 2399TIP3    H2 7162   5.743   4.872   1.863
 2400TIP3   OH2 7163   7.111   5.967   0.755
 2400TIP3    H1 7164   7.029   5.933   0.791
 2400TIP3    H2 7165   7.084   6.021   0.681
 2401TIP3   OH2 7166   1.440   2.727   3.434
 2401TIP3    H1 7167   1.376   2.774   3.488
 2401TIP3    H2 7168   1.391   2.651   3.401
 2402TIP3   OH2 7169   1.969   3.347   0.764
 2402TIP3    H1 7170   1.964   3.371   0.671
 2402TIP3    H2 7171   1.896   3.392   0.805
 2403TIP3   OH2 7172  -0.063   6.611   2.171
 2403TIP3    H1 7173   0.010   6.645   2.119
 2403TIP3    H2 7174  -0.022   6.553   2.236
 2404TIP3   OH2 7175   3.993   4.523   4.338
 2404TIP3    H1 7176   3.912   4.474   4.322
 2404TIP3    H2 7177   4.006   4.575   4.259
 2405TIP3   OH2 7178   4.286   2.318   2.065
 2405TIP3    H1 7179   4.303   2.309   2.159
 2405TIP3    H2 7180   4.284   2.228   2.033
 2406TIP3   OH2 7181   1.094   2.880   1.269
 2406TIP3    H1 7182   1.120   2.813   1.333
 2406TIP3    H2 7183   1.023   2.928   1.312
 2407TIP3   OH2 7184   1.183   2.589   4.464
 2407TIP3    H1 7185   1.155   2.504   4.499
 2407TIP3    H2 7186   1.243   2.567   4.393
 2408TIP3   OH2 7187   7.036   6.047   4.309
 2408TIP3    H1 7188   6.984   6.124   4.333
 2408TIP3    H2 7189   7.022   5.986   4.382
 2409TIP3   OH2 7190   7.140   0.159   0.038
 2409TIP3    H1 7191   7.066   0.215   0.014
 2409TIP3    H2 7192   7.211   0.186  -0.020
 2410TIP3   OH2 7193   7.225   1.516   4.630
 2410TIP3    H1 7194   7.215   1.486   4.539
 2410TIP3    H2 7195   7.141   1.557   4.651
 2411TIP3   OH2 7196   0.492   1.646   0.302
 2411TIP3    H1 7197   0.413   1.611   0.342
 2411TIP3    H2 7198   0.481   1.741   0.309
 2412TIP3   OH2 7199   4.535   4.382   2.109
 2412TIP3    H1 7200   4.451   4.348   2.080
 2412TIP3    H2 7201   4.515   4.467   2.149
 2413TIP3   OH2 7202   1.409   4.253   3.452
 2413TIP3    H1 7203   1.430   4.320   3.387
 2413TIP3    H2 7204   1.488   4.247   3.506
 2414TIP3   OH2 7205   3.621   1.435   2.571
 2414TIP3    H1 7206   3.525   1.438   2.577
 2414TIP3    H2 7207   3.647   1.525   2.554
 2415TIP3   OH2 7208  -0.004   3.354   3.061
 2415TIP3    H1 7209  -0.055   3.434   3.076
 2415TIP3    H2 7210   0.072   3.384   3.011
 2416TIP3   OH2 7211   7.159   3.905   0.198
 2416TIP3    H1 7212   7.155   3.945   0.285
 2416TIP3    H2 7213   7.208   3.823   0.212
 2417TIP3   OH2 7214   6.882   5.907   3.781
 2417TIP3    H1 7215   6.918   5.979   3.832
 2417TIP3    H2 7216   6.848   5.948   3.702
 2418TIP3   OH2 7217   4.862   5.676   2.483
 2418TIP3    H1 7218   4.840   5.632   2.401
 2418TIP3    H2 7219   4.915   5.612   2.532
 2419TIP3   OH2 7220   3.780   1.713   1.845
 2419TIP3    H1 7221   3.812   1.804   1.851
 2419TIP3    H2 7222   3.746   1.695   1.933
 2420TIP3   OH2 7223   7.035   6.098   1.195
 2420TIP3    H1 7224   7.096   6.167   1.170
 2420TIP3    H2 7225   6.956   6.144   1.223
 2421TIP3   OH2 7226   4.618   2.403   5.053
 2421TIP3    H1 7227   4.667   2.438   4.978
 2421TIP3    H2 7228   4.652   2.453   5.128
 2422TIP3   OH2 7229   0.291   6.538   4.342
 2422TIP3    H1 7230   0.278   6.616   4.289
 2422TIP3    H2 7231   0.245   6.469   4.295
 2423TIP3   OH2 7232   3.221   2.742   5.739
 2423TIP3    H1 7233   3.210   2.812   5.803
 2423TIP3    H2 7234   3.215   2.661   5.790
 2424TIP3   OH2 7235   5.076   2.769   2.562
 2424TIP3    H1 7236   4.995   2.739   2.604
 2424TIP3    H2 7237   5.061   2.753   2.468
 2425TIP3   OH2 7238   3.460   1.082   2.688
 2425TIP3    H1 7239   3.412   1.066   2.606
 2425TIP3    H2 7240   3.531   1.141   2.662
 2426TIP3   OH2 7241   6.576   6.623   2.460
 2426TIP3    H1 7242   6.483   6.623   2.437
 2426TIP3    H2 7243   6.620   6.592   2.381
 2427TIP3   OH2 7244   2.740   6.371   1.637
 2427TIP3    H1 7245   2.693   6.362   1.554
 2427TIP3    H2 7246   2.832   6.358   1.614
 2428TIP3   OH2 7247   2.387   5.984   3.982
 2428TIP3    H1 7248   2.303   6.030   3.982
 2428TIP3    H2 7249   2.432   6.017   3.904
 2429TIP3   OH2 7250   1.137   4.722   2.496
 2429TIP3    H1 7251   1.127   4.761   2.583
 2429TIP3    H2 7252   1.225   4.747   2.468
 2430TIP3   OH2 7253   6.651   2.977   5.662
 2430TIP3    H1 7254   6.636   2.980   5.567
 2430TIP3    H2 7255   6.564   2.991   5.699
 2431TIP3   OH2 7256   5.418   5.003   2.035
 2431TIP3    H1 7257   5.405   5.087   1.991
 2431TIP3    H2 7258   5.500   5.014   2.083
 2432TIP3   OH2 7259   1.201   3.332   2.442
 2432TIP3    H1 7260   1.161   3.366   2.362
 2432TIP3    H2 7261   1.295   3.330   2.423
 2433TIP3   OH2 7262   4.350   2.673   3.780
 2433TIP3    H1 7263   4.278   2.611   3.783
 2433TIP3    H2 7264   4.406   2.642   3.708
 2434TIP3   OH2 7265   5.954   1.030   3.895
 2434TIP3    H1 7266   5.865   1.005   3.871
 2434TIP3    H2 7267   5.984   1.085   3.823
 2435TIP3   OH2 7268   2.826   1.460   3.212
 2435TIP3    H1 7269   2.747   1.444   3.161
 2435TIP3    H2 7270   2.833   1.384   3.270
 2436TIP3   OH2 7271   6.964   1.275   4.012
 2436TIP3    H1 7272   6.990   1.283   4.104
 2436TIP3    H2 7273   7.047   1.269   3.965
 2437TIP3   OH2 7274   3.084   3.417   2.811
 2437TIP3    H1 7275   3.141   3.418   2.889
 2437TIP3    H2 7276   3.081   3.509   2.784
 2438TIP3   OH2 7277   3.120   5.836   3.918
 2438TIP3    H1 7278   3.144   5.844   4.011
 2438TIP3    H2 7279   3.187   5.781   3.880
 2439TIP3   OH2 7280   2.953   1.894   5.434
 2439TIP3    H1 7281   3.041   1.926   5.412
 2439TIP3    H2 7282   2.895   1.967   5.414
 2440TIP3   OH2 7283   5.709   3.123   5.795
 2440TIP3    H1 7284   5.735   3.171   5.717
 2440TIP3    H2 7285   5.778   3.058   5.808
 2441TIP3   OH2 7286   0.590   2.285   5.052
 2441TIP3    H1 7287   0.568   2.368   5.010
 2441TIP3    H2 7288   0.627   2.310   5.137
 2442TIP3   OH2 7289   4.171   5.389   0.939
 2442TIP3    H1 7290   4.210   5.344   0.864
 2442TIP3    H2 7291   4.242   5.442   0.975
 2443TIP3   OH2 7292   1.318   2.518   4.840
 2443TIP3    H1 7293   1.308   2.613   4.832
 2443TIP3    H2 7294   1.345   2.504   4.931
 2444TIP3   OH2 7295   0.205   0.758   5.682
 2444TIP3    H1 7296   0.288   0.712   5.672
 2444TIP3    H2 7297   0.230   0.849   5.698
 2445TIP3   OH2 7298   5.136   2.750  -0.064
 2445TIP3    H1 7299   5.149   2.774  -0.156
 2445TIP3    H2 7300   5.041   2.757  -0.051
 2446TIP3   OH2 7301   3.657   5.614   5.214
 2446TIP3    H1 7302   3.683   5.618   5.122
 2446TIP3    H2 7303   3.583   5.675   5.220
 2447TIP3   OH2 7304   5.527   3.560   2.481
 2447TIP3    H1 7305   5.590   3.503   2.525
 2447TIP3    H2 7306   5.580   3.626   2.438
 2448TIP3   OH2 7307   1.758   5.180   3.665
 2448TIP3    H1 7308   1.682   5.136   3.703
 2448TIP3    H2 7309   1.772   5.256   3.721
 2449TIP3   OH2 7310   1.121   4.797   2.785
 2449TIP3    H1 7311   1.201   4.744   2.782
 2449TIP3    H2 7312   1.073   4.764   2.862
 2450TIP3   OH2 7313   3.399   6.553   3.910
 2450TIP3    H1 7314   3.430   6.478   3.959
 2450TIP3    H2 7315   3.456   6.625   3.937
 2451TIP3   OH2 7316   1.504   4.577   4.099
 2451TIP3    H1 7317   1.448   4.499   4.105
 2451TIP3    H2 7318   1.553   4.578   4.182
 2452TIP3   OH2 7319   4.117   2.890   2.132
 2452TIP3    H1 7320   4.158   2.803   2.126
 2452TIP3    H2 7321   4.078   2.904   2.046
 2453TIP3   OH2 7322   0.496   2.570   3.649
 2453TIP3    H1 7323   0.449   2.487   3.654
 2453TIP3    H2 7324   0.514   2.583   3.556
 2454TIP3   OH2 7325   1.450   4.747   4.727
 2454TIP3    H1 7326   1.488   4.726   4.813
 2454TIP3    H2 7327   1.409   4.665   4.699
 2455TIP3   OH2 7328   3.117   2.748   5.488
 2455TIP3    H1 7329   3.146   2.733   5.578
 2455TIP3    H2 7330   3.115   2.843   5.479
 2456TIP3   OH2 7331   6.706   4.798   3.184
 2456TIP3    H1 7332   6.638   4.821   3.247
 2456TIP3    H2 7333   6.700   4.702   3.176
 2457TIP3   OH2 7334   6.903   0.952   4.619
 2457TIP3    H1 7335   6.926   0.952   4.712
 2457TIP3    H2 7336   6.840   0.881   4.610
 2458TIP3   OH2 7337   0.765   5.166   0.947
 2458TIP3    H1 7338   0.778   5.083   0.902
 2458TIP3    H2 7339   0.839   5.220   0.920
 2459TIP3   OH2 7340   1.866   3.751   0.756
 2459TIP3    H1 7341   1.804   3.679   0.768
 2459TIP3    H2 7342   1.818   3.816   0.705
 2460TIP3   OH2 7343   5.506   2.632   5.119
 2460TIP3    H1 7344   5.438   2.650   5.054
 2460TIP3    H2 7345   5.477   2.678   5.197
 2461TIP3   OH2 7346   2.986   0.744   0.282
 2461TIP3    H1 7347   3.052   0.804   0.317
 2461TIP3    H2 7348   2.905   0.796   0.280
 2462TIP3   OH2 7349   1.102   3.008   3.393
 2462TIP3    H1 7350   1.080   3.087   3.443
 2462TIP3    H2 7351   1.155   2.956   3.453
 2463TIP3   OH2 7352   2.225   1.352   5.215
 2463TIP3    H1 7353   2.316   1.369   5.191
 2463TIP3    H2 7354   2.179   1.344   5.131
 2464TIP3   OH2 7355   3.437   3.839   1.131
 2464TIP3    H1 7356   3.512   3.889   1.101
 2464TIP3    H2 7357   3.467   3.748   1.130
 2465TIP3   OH2 7358   5.018   6.272   4.851
 2465TIP3    H1 7359   4.924   6.252   4.859
 2465TIP3    H2 7360   5.022   6.367   4.845
 2466TIP3   OH2 7361   0.740   5.622   3.289
 2466TIP3    H1 7362   0.715   5.530   3.282
 2466TIP3    H2 7363   0.836   5.620   3.294
 2467TIP3   OH2 7364   2.946   2.561   5.101
 2467TIP3    H1 7365   3.032   2.604   5.099
 2467TIP3    H2 7366   2.931   2.541   5.193
 2468TIP3   OH2 7367   3.251   5.182   1.485
 2468TIP3    H1 7368   3.245   5.204   1.577
 2468TIP3    H2 7369   3.180   5.119   1.470
 2469TIP3   OH2 7370   3.792   1.280   1.009
 2469TIP3    H1 7371   3.854   1.214   0.978
 2469TIP3    H2 7372   3.796   1.349   0.944
 2470TIP3   OH2 7373   7.081   4.602   1.721
 2470TIP3    H1 7374   7.123   4.607   1.635
 2470TIP3    H2 7375   7.003   4.548   1.707
 2471TIP3   OH2 7376   3.704   4.954   3.842
 2471TIP3    H1 7377   3.656   5.003   3.910
 2471TIP3    H2 7378   3.745   5.022   3.788
 2472TIP3   OH2 7379   3.746   6.669   5.858
 2472TIP3    H1 7380   3.707   6.588   5.890
 2472TIP3    H2 7381   3.838   6.646   5.842
 2473TIP3   OH2 7382   4.547   5.376   5.641
 2473TIP3    H1 7383   4.523   5.460   5.681
 2473TIP3    H2 7384   4.467   5.345   5.600
 2474TIP3   OH2 7385   2.503   0.469   4.665
 2474TIP3    H1 7386   2.581   0.512   4.629
 2474TIP3    H2 7387   2.497   0.501   4.755
 2475TIP3   OH2 7388   5.496   2.937   4.318
 2475TIP3    H1 7389   5.560   2.997   4.357
 2475TIP3    H2 7390   5.515   2.939   4.224
 2476TIP3   OH2 7391   1.559   5.875   5.635
 2476TIP3    H1 7392   1.615   5.903   5.563
 2476TIP3    H2 7393   1.568   5.946   5.700
 2477TIP3   OH2 7394   1.605   0.976   0.669
 2477TIP3    H1 7395   1.598   0.883   0.649
 2477TIP3    H2 7396   1.698   0.991   0.684
 2478TIP3   OH2 7397   6.595   3.976   4.154
 2478TIP3    H1 7398   6.557   3.992   4.067
 2478TIP3    H2 7399   6.672   3.922   4.137
 2479TIP3   OH2 7400   0.676   4.081   0.679
 2479TIP3    H1 7401   0.716   4.024   0.746
 2479TIP3    H2 7402   0.706   4.045   0.596
 2480TIP3   OH2 7403   3.039   5.951   5.817
 2480TIP3    H1 7404   2.951   5.977   5.844
 2480TIP3    H2 7405   3.028   5.914   5.730
 2481TIP3   OH2 7406   5.528   2.825   0.641
 2481TIP3    H1 7407   5.482   2.891   0.691
 2481TIP3    H2 7408   5.532   2.860   0.552
 2482TIP3   OH2 7409   6.041   1.150   1.815
 2482TIP3    H1 7410   5.948   1.130   1.803
 2482TIP3    H2 7411   6.054   1.147   1.910
 2483TIP3   OH2 7412   5.003   2.286   5.713
 2483TIP3    H1 7413   4.969   2.198   5.695
 2483TIP3    H2 7414   5.037   2.280   5.802
 2484TIP3   OH2 7415   0.949   5.726   4.322
 2484TIP3    H1 7416   0.989   5.754   4.240
 2484TIP3    H2 7417   1.019   5.681   4.369
 2485TIP3   OH2 7418   5.272   6.581   1.734
 2485TIP3    H1 7419   5.354   6.599   1.782
 2485TIP3    H2 7420   5.293   6.599   1.643
 2486TIP3   OH2 7421   2.142   5.695   4.960
 2486TIP3    H1 7422   2.125   5.771   4.905
 2486TIP3    H2 7423   2.236   5.682   4.955
 2487TIP3   OH2 7424   0.606   3.309   4.233
 2487TIP3    H1 7425   0.512   3.324   4.238
 2487TIP3    H2 7426   0.614   3.220   4.199
 2488TIP3   OH2 7427   6.739   4.997   2.206
 2488TIP3    H1 7428   6.734   5.071   2.146
 2488TIP3    H2 7429   6.829   4.996   2.236
 2489TIP3   OH2 7430   4.638   6.154   2.982
 2489TIP3    H1 7431   4.617   6.179   2.892
 2489TIP3    H2 7432   4.576   6.202   3.036
 2490TIP3   OH2 7433   6.813   5.708   4.668
 2490TIP3    H1 7434   6.875   5.699   4.740
 2490TIP3    H2 7435   6.730   5.733   4.710
 2491TIP3   OH2 7436   2.705   0.564   5.565
 2491TIP3    H1 7437   2.747   0.643   5.597
 2491TIP3    H2 7438   2.704   0.505   5.641
 2492TIP3   OH2 7439   0.843   6.251   1.134
 2492TIP3    H1 7440   0.864   6.312   1.064
 2492TIP3    H2 7441   0.788   6.184   1.092
 2493TIP3   OH2 7442   3.743   4.375   4.383
 2493TIP3    H1 7443   3.653   4.356   4.355
 2493TIP3    H2 7444   3.748   4.338   4.471
 2494TIP3   OH2 7445   4.638   3.429   0.063
 2494TIP3    H1 7446   4.653   3.341   0.029
 2494TIP3    H2 7447   4.543   3.433   0.075
 2495TIP3   OH2 7448   2.436   1.787   1.297
 2495TIP3    H1 7449   2.528   1.805   1.314
 2495TIP3    H2 7450   2.388   1.853   1.347
 2496TIP3   OH2 7451   6.707   6.412   3.787
 2496TIP3    H1 7452   6.705   6.367   3.702
 2496TIP3    H2 7453   6.624   6.390   3.829
 2497TIP3   OH2 7454   5.327   0.477   2.671
 2497TIP3    H1 7455   5.253   0.533   2.695
 2497TIP3    H2 7456   5.381   0.474   2.750
 2498TIP3   OH2 7457   5.415   5.207   5.163
 2498TIP3    H1 7458   5.336   5.171   5.203
 2498TIP3    H2 7459   5.425   5.158   5.081
 2499TIP3   OH2 7460   1.252   1.648   2.510
 2499TIP3    H1 7461   1.229   1.610   2.595
 2499TIP3    H2 7462   1.206   1.732   2.508
 2500TIP3   OH2 7463   6.967   0.672   1.892
 2500TIP3    H1 7464   6.882   0.691   1.932
 2500TIP3    H2 7465   6.998   0.594   1.939
 2501TIP3   OH2 7466   0.091   2.164   5.356
 2501TIP3    H1 7467   0.016   2.114   5.390
 2501TIP3    H2 7468   0.098   2.136   5.264
 2502TIP3   OH2 7469   3.657   6.206   0.967
 2502TIP3    H1 7470   3.738   6.245   1.001
 2502TIP3    H2 7471   3.687   6.142   0.902
 2503TIP3   OH2 7472   3.839   1.752   3.228
 2503TIP3    H1 7473   3.748   1.763   3.201
 2503TIP3    H2 7474   3.889   1.759   3.148
 2504TIP3   OH2 7475   4.473   6.649   5.601
 2504TIP3    H1 7476   4.449   6.561   5.571
 2504TIP3    H2 7477   4.417   6.708   5.550
 2505TIP3   OH2 7478   0.142   3.789   3.520
 2505TIP3    H1 7479   0.120   3.740   3.441
 2505TIP3    H2 7480   0.094   3.745   3.590
 2506TIP3   OH2 7481   4.796   5.590   1.966
 2506TIP3    H1 7482   4.728   5.523   1.971
 2506TIP3    H2 7483   4.875   5.547   2.001
 2507TIP3   OH2 7484   2.335   4.784   2.478
 2507TIP3    H1 7485   2.346   4.873   2.444
 2507TIP3    H2 7486   2.323   4.796   2.573
 2508TIP3   OH2 7487   6.902   4.189   1.378
 2508TIP3    H1 7488   6.945   4.269   1.408
 2508TIP3    H2 7489   6.937   4.174   1.291
 2509TIP3   OH2 7490   0.737  -0.014   4.657
 2509TIP3    H1 7491   0.750   0.079   4.642
 2509TIP3    H2 7492   0.671  -0.040   4.593
 2510TIP3   OH2 7493   0.515   5.916   3.686
 2510TIP3    H1 7494   0.438   5.973   3.687
 2510TIP3    H2 7495   0.492   5.845   3.746
 2511TIP3   OH2 7496   1.754   5.609   2.346
 2511TIP3    H1 7497   1.692   5.619   2.418
 2511TIP3    H2 7498   1.742   5.687   2.293
 2512TIP3   OH2 7499   2.485   2.952   4.311
 2512TIP3    H1 7500   2.513   2.871   4.269
 2512TIP3    H2 7501   2.432   2.997   4.245
 2513TIP3   OH2 7502   0.351   5.882   0.780
 2513TIP3    H1 7503   0.304   5.958   0.814
 2513TIP3    H2 7504   0.291   5.843   0.716
 2514TIP3   OH2 7505   1.995   6.460   0.334
 2514TIP3    H1 7506   1.917   6.406   0.321
 2514TIP3    H2 7507   1.962   6.540   0.375
 2515TIP3   OH2 7508   5.517   5.013   1.608
 2515TIP3    H1 7509   5.466   4.998   1.528
 2515TIP3    H2 7510   5.463   4.973   1.677
 2516TIP3   OH2 7511   1.653   5.394   4.037
 2516TIP3    H1 7512   1.678   5.332   4.106
 2516TIP3    H2 7513   1.562   5.373   4.017
 2517TIP3   OH2 7514   6.022   0.440   2.408
 2517TIP3    H1 7515   5.988   0.510   2.352
 2517TIP3    H2 7516   6.114   0.434   2.385
 2518TIP3   OH2 7517   4.296   3.573   5.372
 2518TIP3    H1 7518   4.234   3.504   5.348
 2518TIP3    H2 7519   4.254   3.619   5.445
 2519TIP3   OH2 7520   0.075   3.951   4.032
 2519TIP3    H1 7521   0.004   3.938   3.969
 2519TIP3    H2 7522   0.069   3.876   4.091
 2520TIP3   OH2 7523   3.228   3.569   4.736
 2520TIP3    H1 7524   3.309   3.524   4.762
 2520TIP3    H2 7525   3.256   3.632   4.670
 2521TIP3   OH2 7526   6.340   2.914   3.033
 2521TIP3    H1 7527   6.290   2.834   3.019
 2521TIP3    H2 7528   6.351   2.919   3.128
 2522TIP3   OH2 7529   4.575   6.078   5.512
 2522TIP3    H1 7530   4.578   6.076   5.416
 2522TIP3    H2 7531   4.498   6.027   5.535
 2523TIP3   OH2 7532   0.484   0.142   5.675
 2523TIP3    H1 7533   0.415   0.076   5.664
 2523TIP3    H2 7534   0.543   0.104   5.740
 2524TIP3   OH2 7535   3.837   2.573   1.674
 2524TIP3    H1 7536   3.885   2.540   1.750
 2524TIP3    H2 7537   3.883   2.654   1.650
 2525TIP3   OH2 7538   6.579   0.980   0.843
 2525TIP3    H1 7539   6.493   1.001   0.880
 2525TIP3    H2 7540   6.591   0.887   0.863
 2526TIP3   OH2 7541   2.668   5.576   4.397
 2526TIP3    H1 7542   2.692   5.534   4.315
 2526TIP3    H2 7543   2.700   5.517   4.465
 2527TIP3   OH2 7544   3.620   6.629   0.045
 2527TIP3    H1 7545   3.624   6.693   0.117
 2527TIP3    H2 7546   3.663   6.674  -0.028
 2528TIP3   OH2 7547   0.773   5.549   1.792
 2528TIP3    H1 7548   0.810   5.625   1.747
 2528TIP3    H2 7549   0.704   5.518   1.733
 2529TIP3   OH2 7550   3.068   6.253   2.891
 2529TIP3    H1 7551   3.005   6.223   2.825
 2529TIP3    H2 7552   3.093   6.173   2.938
 2530TIP3   OH2 7553   6.957   2.778   3.355
 2530TIP3    H1 7554   7.025   2.727   3.311
 2530TIP3    H2 7555   6.975   2.767   3.448
 2531TIP3   OH2 7556   4.589   5.818   5.071
 2531TIP3    H1 7557   4.593   5.792   4.979
 2531TIP3    H2 7558   4.580   5.735   5.118
 2532TIP3   OH2 7559   6.799   3.815   5.770
 2532TIP3    H1 7560   6.777   3.782   5.857
 2532TIP3    H2 7561   6.834   3.902   5.785
 2533TIP3   OH2 7562   0.756   0.220   5.334
 2533TIP3    H1 7563   0.814   0.200   5.261
 2533TIP3    H2 7564   0.716   0.136   5.357
 2534TIP3   OH2 7565   6.219   4.146   2.605
 2534TIP3    H1 7566   6.238   4.075   2.544
 2534TIP3    H2 7567   6.303   4.191   2.616
 2535TIP3   OH2 7568   4.587   6.108   3.311
 2535TIP3    H1 7569   4.601   6.182   3.252
 2535TIP3    H2 7570   4.616   6.141   3.396
 2536TIP3   OH2 7571   2.726   1.905   1.344
 2536TIP3    H1 7572   2.761   1.943   1.425
 2536TIP3    H2 7573   2.786   1.934   1.276
 2537TIP3   OH2 7574   4.355   3.626   1.564
 2537TIP3    H1 7575   4.325   3.588   1.481
 2537TIP3    H2 7576   4.321   3.567   1.631
 2538TIP3   OH2 7577   2.343   5.419   4.484
 2538TIP3    H1 7578   2.259   5.417   4.438
 2538TIP3    H2 7579   2.322   5.396   4.574
 2539TIP3   OH2 7580   2.709   5.118   2.794
 2539TIP3    H1 7581   2.629   5.128   2.845
 2539TIP3    H2 7582   2.767   5.187   2.827
 2540TIP3   OH2 7583   0.634   3.775   4.406
 2540TIP3    H1 7584   0.720   3.760   4.367
 2540TIP3    H2 7585   0.586   3.695   4.389
 2541TIP3   OH2 7586   1.143   3.360   4.278
 2541TIP3    H1 7587   1.073   3.385   4.338
 2541TIP3    H2 7588   1.128   3.267   4.260
 2542TIP3   OH2 7589   1.724   2.040   3.186
 2542TIP3    H1 7590   1.668   1.979   3.235
 2542TIP3    H2 7591   1.731   2.001   3.099
 2543TIP3   OH2 7592   1.684   4.706   3.145
 2543TIP3    H1 7593   1.658   4.796   3.161
 2543TIP3    H2 7594   1.658   4.659   3.224
 2544TIP3   OH2 7595   4.278   1.642   4.313
 2544TIP3    H1 7596   4.236   1.683   4.237
 2544TIP3    H2 7597   4.358   1.603   4.279
 2545TIP3   OH2 7598   1.933   3.459   5.763
 2545TIP3    H1 7599   1.984   3.383   5.737
 2545TIP3    H2 7600   1.978   3.492   5.842
 2546TIP3   OH2 7601   1.487   2.271   4.618
 2546TIP3    H1 7602   1.477   2.260   4.523
 2546TIP3    H2 7603   1.401   2.299   4.649
 2547TIP3   OH2 7604   5.270   0.011   0.772
 2547TIP3    H1 7605   5.322   0.088   0.795
 2547TIP3    H2 7606   5.189   0.020   0.823
 2548TIP3   OH2 7607   3.678   2.412   5.860
 2548TIP3    H1 7608   3.686   2.484   5.922
 2548TIP3    H2 7609   3.588   2.381   5.871
 2549TIP3   OH2 7610   3.634   4.804   4.292
 2549TIP3    H1 7611   3.550   4.832   4.327
 2549TIP3    H2 7612   3.688   4.786   4.370
 2550TIP3   OH2 7613   1.049   3.964   2.691
 2550TIP3    H1 7614   0.983   3.977   2.759
 2550TIP3    H2 7615   1.111   4.035   2.704
 2551TIP3   OH2 7616   4.081   4.397   2.777
 2551TIP3    H1 7617   4.164   4.434   2.807
 2551TIP3    H2 7618   4.018   4.421   2.844
 2552TIP3   OH2 7619   1.289   0.458   2.083
 2552TIP3    H1 7620   1.344   0.397   2.132
 2552TIP3    H2 7621   1.289   0.424   1.993
 2553TIP3   OH2 7622   1.585   6.410   4.834
 2553TIP3    H1 7623   1.605   6.421   4.927
 2553TIP3    H2 7624   1.498   6.449   4.823
 2554TIP3   OH2 7625   1.962   4.919   0.845
 2554TIP3    H1 7626   1.876   4.962   0.835
 2554TIP3    H2 7627   1.948   4.854   0.914
 2555TIP3   OH2 7628   1.285   0.334   3.049
 2555TIP3    H1 7629   1.208   0.321   2.994
 2555TIP3    H2 7630   1.256   0.396   3.116
 2556TIP3   OH2 7631   0.997   4.184  -0.033
 2556TIP3    H1 7632   1.027   4.229   0.046
 2556TIP3    H2 7633   0.905   4.163  -0.015
 2557TIP3   OH2 7634   1.133   0.694   1.003
 2557TIP3    H1 7635   1.062   0.643   0.964
 2557TIP3    H2 7636   1.156   0.646   1.083
 2558TIP3   OH2 7637   1.414   4.639   2.164
 2558TIP3    H1 7638   1.468   4.709   2.201
 2558TIP3    H2 7639   1.372   4.598   2.240
 2559TIP3   OH2 7640   5.194   6.452   3.754
 2559TIP3    H1 7641   5.195   6.356   3.753
 2559TIP3    H2 7642   5.183   6.475   3.846
 2560TIP3   OH2 7643   1.470   5.056   0.683
 2560TIP3    H1 7644   1.452   5.146   0.655
 2560TIP3    H2 7645   1.461   5.004   0.603
 2561TIP3   OH2 7646   2.370   5.880   0.248
 2561TIP3    H1 7647   2.419   5.927   0.181
 2561TIP3    H2 7648   2.382   5.932   0.328
 2562TIP3   OH2 7649   2.446   6.219   0.514
 2562TIP3    H1 7650   2.437   6.242   0.421
 2562TIP3    H2 7651   2.413   6.130   0.520
 2563TIP3   OH2 7652   3.385   2.981   2.678
 2563TIP3    H1 7653   3.418   2.975   2.588
 2563TIP3    H2 7654   3.427   3.059   2.714
 2564TIP3   OH2 7655   0.053   4.317   5.476
 2564TIP3    H1 7656   0.122   4.371   5.515
 2564TIP3    H2 7657   0.095   4.272   5.403
 2565TIP3   OH2 7658   2.228   5.795   0.713
 2565TIP3    H1 7659   2.222   5.856   0.786
 2565TIP3    H2 7660   2.286   5.725   0.744
 2566TIP3   OH2 7661   0.704   0.526   0.288
 2566TIP3    H1 7662   0.680   0.602   0.235
 2566TIP3    H2 7663   0.628   0.511   0.345
 2567TIP3   OH2 7664   0.131   1.701   2.864
 2567TIP3    H1 7665   0.214   1.687   2.910
 2567TIP3    H2 7666   0.155   1.750   2.785
 2568TIP3   OH2 7667   6.210   0.857   0.152
 2568TIP3    H1 7668   6.191   0.766   0.174
 2568TIP3    H2 7669   6.303   0.869   0.171
 2569TIP3   OH2 7670   2.004   3.011   2.251
 2569TIP3    H1 7671   1.922   2.962   2.240
 2569TIP3    H2 7672   1.976   3.098   2.278
 2570TIP3   OH2 7673   4.381   0.299   3.717
 2570TIP3    H1 7674   4.314   0.273   3.654
 2570TIP3    H2 7675   4.347   0.269   3.801
 2571TIP3   OH2 7676   4.015   0.153   5.339
 2571TIP3    H1 7677   4.105   0.138   5.307
 2571TIP3    H2 7678   4.021   0.234   5.388
 2572TIP3   OH2 7679   4.268   4.850   3.740
 2572TIP3    H1 7680   4.334   4.900   3.692
 2572TIP3    H2 7681   4.195   4.912   3.750
 2573TIP3   OH2 7682   3.216   6.705   5.181
 2573TIP3    H1 7683   3.262   6.664   5.108
 2573TIP3    H2 7684   3.146   6.756   5.141
 2574TIP3   OH2 7685   0.936   2.652   3.731
 2574TIP3    H1 7686   1.031   2.656   3.747
 2574TIP3    H2 7687   0.924   2.574   3.678
 2575TIP3   OH2 7688   4.924   2.685   4.194
 2575TIP3    H1 7689   4.913   2.750   4.125
 2575TIP3    H2 7690   4.911   2.601   4.150
 2576TIP3   OH2 7691   3.231   4.142   0.256
 2576TIP3    H1 7692   3.290   4.165   0.184
 2576TIP3    H2 7693   3.270   4.063   0.294
 2577TIP3   OH2 7694   3.151   0.087   3.045
 2577TIP3    H1 7695   3.223   0.056   2.990
 2577TIP3    H2 7696   3.192   0.110   3.128
 2578TIP3   OH2 7697   3.319   5.634   5.489
 2578TIP3    H1 7698   3.346   5.544   5.508
 2578TIP3    H2 7699   3.315   5.676   5.574
 2579TIP3   OH2 7700   2.291   4.618   3.148
 2579TIP3    H1 7701   2.351   4.556   3.188
 2579TIP3    H2 7702   2.347   4.688   3.114
 2580TIP3   OH2 7703   6.800   4.812   3.505
 2580TIP3    H1 7704   6.785   4.737   3.448
 2580TIP3    H2 7705   6.823   4.884   3.446
 2581TIP3   OH2 7706   1.368   0.724   3.386
 2581TIP3    H1 7707   1.332   0.810   3.407
 2581TIP3    H2 7708   1.459   0.728   3.413
 2582TIP3   OH2 7709   6.138   5.525   3.726
 2582TIP3    H1 7710   6.186   5.460   3.675
 2582TIP3    H2 7711   6.135   5.490   3.815
 2583TIP3   OH2 7712   6.962   3.557   5.442
 2583TIP3    H1 7713   6.933   3.493   5.377
 2583TIP3    H2 7714   6.897   3.627   5.437
 2584TIP3   OH2 7715   2.858   3.432   4.100
 2584TIP3    H1 7716   2.944   3.473   4.089
 2584TIP3    H2 7717   2.876   3.339   4.107
 2585TIP3   OH2 7718   0.068   4.036   2.857
 2585TIP3    H1 7719   0.160   4.052   2.877
 2585TIP3    H2 7720   0.069   3.968   2.790
 2586TIP3   OH2 7721   4.636   6.580   1.534
 2586TIP3    H1 7722   4.642   6.497   1.488
 2586TIP3    H2 7723   4.722   6.621   1.522
 2587TIP3   OH2 7724   4.761   1.500   1.136
 2587TIP3    H1 7725   4.678   1.496   1.089
 2587TIP3    H2 7726   4.819   1.549   1.078
 2588TIP3   OH2 7727   1.596   0.122   2.296
 2588TIP3    H1 7728   1.505   0.143   2.272
 2588TIP3    H2 7729   1.588   0.050   2.358
 2589TIP3   OH2 7730   6.592   4.449   2.748
 2589TIP3    H1 7731   6.663   4.486   2.695
 2589TIP3    H2 7732   6.588   4.505   2.825
 2590TIP3   OH2 7733   5.370   1.547   3.013
 2590TIP3    H1 7734   5.287   1.500   3.024
 2590TIP3    H2 7735   5.346   1.639   3.013
 2591TIP3   OH2 7736   7.228   6.716   4.948
 2591TIP3    H1 7737   7.193   6.716   5.037
 2591TIP3    H2 7738   7.163   6.763   4.896
 2592TIP3   OH2 7739   1.092   1.134   3.822
 2592TIP3    H1 7740   1.083   1.223   3.856
 2592TIP3    H2 7741   1.003   1.099   3.821
 2593TIP3   OH2 7742   0.428   1.984   0.933
 2593TIP3    H1 7743   0.351   2.039   0.917
 2593TIP3    H2 7744   0.427   1.921   0.861
 2594TIP3   OH2 7745   6.288   4.989   1.431
 2594TIP3    H1 7746   6.194   4.970   1.433
 2594TIP3    H2 7747   6.294   5.082   1.452
 2595TIP3   OH2 7748   2.899   5.226   4.085
 2595TIP3    H1 7749   2.921   5.163   4.017
 2595TIP3    H2 7750   2.806   5.213   4.100
 2596TIP3   OH2 7751   2.548   0.744   2.126
 2596TIP3    H1 7752   2.530   0.831   2.161
 2596TIP3    H2 7753   2.608   0.704   2.189
 2597TIP3   OH2 7754   5.601   0.140   1.600
 2597TIP3    H1 7755   5.577   0.149   1.693
 2597TIP3    H2 7756   5.518   0.141   1.554
 2598TIP3   OH2 7757   3.793   2.326   4.083
 2598TIP3    H1 7758   3.790   2.244   4.034
 2598TIP3    H2 7759   3.857   2.310   4.152
 2599TIP3   OH2 7760   0.246   4.204   0.234
 2599TIP3    H1 7761   0.168   4.196   0.289
 2599TIP3    H2 7762   0.272   4.114   0.216
 2600TIP3   OH2 7763   5.690   1.054   0.785
 2600TIP3    H1 7764   5.668   1.077   0.875
 2600TIP3    H2 7765   5.721   0.963   0.790
 2601TIP3   OH2 7766   0.298   3.272   4.513
 2601TIP3    H1 7767   0.302   3.177   4.526
 2601TIP3    H2 7768   0.355   3.308   4.582
 2602TIP3   OH2 7769   2.406   1.079   1.458
 2602TIP3    H1 7770   2.479   1.104   1.401
 2602TIP3    H2 7771   2.430   0.992   1.492
 2603TIP3   OH2 7772   2.730   1.707   0.632
 2603TIP3    H1 7773   2.657   1.764   0.610
 2603TIP3    H2 7774   2.721   1.633   0.572
 2604TIP3   OH2 7775   4.976   4.962   1.326
 2604TIP3    H1 7776   4.998   4.965   1.233
 2604TIP3    H2 7777   5.031   4.893   1.362
 2605TIP3   OH2 7778   5.521   6.786   2.648
 2605TIP3    H1 7779   5.481   6.720   2.591
 2605TIP3    H2 7780   5.450   6.812   2.707
 2606TIP3   OH2 7781   3.523   3.231   0.069
 2606TIP3    H1 7782   3.556   3.192   0.150
 2606TIP3    H2 7783   3.599   3.273   0.031
 2607TIP3   OH2 7784   1.351   3.130   1.400
 2607TIP3    H1 7785   1.378   3.070   1.330
 2607TIP3    H2 7786   1.375   3.217   1.368
 2608TIP3   OH2 7787   2.495   4.072   0.550
 2608TIP3    H1 7788   2.513   4.056   0.642
 2608TIP3    H2 7789   2.545   4.151   0.529
 2609TIP3   OH2 7790   0.275   3.062   0.868
 2609TIP3    H1 7791   0.353   3.030   0.822
 2609TIP3    H2 7792   0.209   2.994   0.852
 2610TIP3   OH2 7793   2.959   1.668   3.717
 2610TIP3    H1 7794   2.959   1.573   3.705
 2610TIP3    H2 7795   3.044   1.696   3.684
 2611TIP3   OH2 7796   4.613   4.505   0.071
 2611TIP3    H1 7797   4.581   4.558   0.144
 2611TIP3    H2 7798   4.702   4.482   0.096
 2612TIP3   OH2 7799   1.224   3.313   2.095
 2612TIP3    H1 7800   1.243   3.389   2.040
 2612TIP3    H2 7801   1.197   3.245   2.033
 2613TIP3   OH2 7802   0.530   2.988   5.124
 2613TIP3    H1 7803   0.487   2.969   5.207
 2613TIP3    H2 7804   0.480   3.059   5.085
 2614TIP3   OH2 7805   0.625   2.329   1.754
 2614TIP3    H1 7806   0.631   2.356   1.663
 2614TIP3    H2 7807   0.567   2.394   1.794
 2615TIP3   OH2 7808   7.107   1.650   0.417
 2615TIP3    H1 7809   7.189   1.663   0.369
 2615TIP3    H2 7810   7.039   1.679   0.356
 2616TIP3   OH2 7811   0.205   4.809   5.301
 2616TIP3    H1 7812   0.211   4.904   5.312
 2616TIP3    H2 7813   0.114   4.789   5.321
 2617TIP3   OH2 7814   6.369   0.029   3.136
 2617TIP3    H1 7815   6.434   0.100   3.133
 2617TIP3    H2 7816   6.323   0.041   3.219
 2618TIP3   OH2 7817   4.320   3.207   0.971
 2618TIP3    H1 7818   4.347   3.148   1.041
 2618TIP3    H2 7819   4.314   3.293   1.012
 2619TIP3   OH2 7820   5.429   2.187   3.436
 2619TIP3    H1 7821   5.406   2.112   3.490
 2619TIP3    H2 7822   5.364   2.253   3.458
 2620TIP3   OH2 7823   0.217   1.670   1.017
 2620TIP3    H1 7824   0.308   1.687   0.991
 2620TIP3    H2 7825   0.187   1.600   0.959
 2621TIP3   OH2 7826   6.638   3.639   4.964
 2621TIP3    H1 7827   6.706   3.694   5.003
 2621TIP3    H2 7828   6.626   3.676   4.876
 2622TIP3   OH2 7829   0.211   2.888   1.268
 2622TIP3    H1 7830   0.124   2.883   1.307
 2622TIP3    H2 7831   0.196   2.880   1.173
 2623TIP3   OH2 7832   2.787   2.907   1.782
 2623TIP3    H1 7833   2.707   2.868   1.747
 2623TIP3    H2 7834   2.858   2.850   1.751
 2624TIP3   OH2 7835   4.404   0.271   2.127
 2624TIP3    H1 7836   4.332   0.210   2.108
 2624TIP3    H2 7837   4.397   0.338   2.059
 2625TIP3   OH2 7838   5.861   5.583   4.502
 2625TIP3    H1 7839   5.913   5.661   4.519
 2625TIP3    H2 7840   5.779   5.616   4.466
 2626TIP3   OH2 7841   2.161   0.470   2.881
 2626TIP3    H1 7842   2.113   0.453   2.962
 2626TIP3    H2 7843   2.240   0.515   2.909
 2627TIP3   OH2 7844   7.054   5.657   2.659
 2627TIP3    H1 7845   7.119   5.670   2.590
 2627TIP3    H2 7846   7.034   5.564   2.657
 2628TIP3   OH2 7847   5.567   1.059   4.424
 2628TIP3    H1 7848   5.592   1.026   4.338
 2628TIP3    H2 7849   5.630   1.021   4.485
 2629TIP3   OH2 7850   1.946   6.184   0.818
 2629TIP3    H1 7851   1.890   6.247   0.773
 2629TIP3    H2 7852   1.964   6.224   0.903
 2630TIP3   OH2 7853   1.553   3.237   4.731
 2630TIP3    H1 7854   1.468   3.280   4.740
 2630TIP3    H2 7855   1.534   3.158   4.681
 2631TIP3   OH2 7856   1.394   5.769   0.672
 2631TIP3    H1 7857   1.302   5.776   0.648
 2631TIP3    H2 7858   1.432   5.854   0.648
 2632TIP3   OH2 7859   6.440   2.672   3.767
 2632TIP3    H1 7860   6.387   2.601   3.804
 2632TIP3    H2 7861   6.444   2.651   3.673
 2633TIP3   OH2 7862   4.361   6.054   3.964
 2633TIP3    H1 7863   4.317   6.056   4.049
 2633TIP3    H2 7864   4.380   5.962   3.949
 2634TIP3   OH2 7865   1.584   1.029   1.196
 2634TIP3    H1 7866   1.532   1.026   1.276
 2634TIP3    H2 7867   1.673   1.012   1.224
 2635TIP3   OH2 7868   5.212   6.435   5.769
 2635TIP3    H1 7869   5.259   6.358   5.737
 2635TIP3    H2 7870   5.275   6.478   5.828
 2636TIP3   OH2 7871   6.667   1.939   3.931
 2636TIP3    H1 7872   6.719   1.992   3.992
 2636TIP3    H2 7873   6.680   1.849   3.960
 2637TIP3   OH2 7874   0.877   6.514   3.074
 2637TIP3    H1 7875   0.940   6.545   3.009
 2637TIP3    H2 7876   0.872   6.419   3.059
 2638TIP3   OH2 7877   1.306   0.804   5.815
 2638TIP3    H1 7878   1.318   0.734   5.751
 2638TIP3    H2 7879   1.379   0.794   5.876
 2639TIP3   OH2 7880   3.001   2.203   3.985
 2639TIP3    H1 7881   2.958   2.119   4.000
 2639TIP3    H2 7882   2.941   2.250   3.927
 2640TIP3   OH2 7883   5.956   0.038   5.767
 2640TIP3    H1 7884   5.896   0.054   5.840
 2640TIP3    H2 7885   6.008  -0.037   5.795
 2641TIP3   OH2 7886   4.933   4.766   0.657
 2641TIP3    H1 7887   5.027   4.764   0.641
 2641TIP3    H2 7888   4.905   4.675   0.651
 2642TIP3   OH2 7889   1.562   3.574   2.620
 2642TIP3    H1 7890   1.468   3.594   2.628
 2642TIP3    H2 7891   1.576   3.564   2.525
 2643TIP3   OH2 7892   3.932   0.789   2.443
 2643TIP3    H1 7893   4.018   0.752   2.423
 2643TIP3    H2 7894   3.950   0.881   2.462
 2644TIP3   OH2 7895   0.121   5.826   0.629
 2644TIP3    H1 7896   0.080   5.762   0.571
 2644TIP3    H2 7897   0.050   5.856   0.685
 2645TIP3   OH2 7898   4.358   1.911   2.723
 2645TIP3    H1 7899   4.293   1.840   2.727
 2645TIP3    H2 7900   4.388   1.911   2.632
 2646TIP3   OH2 7901   4.089   1.143   1.427
 2646TIP3    H1 7902   4.065   1.083   1.498
 2646TIP3    H2 7903   4.005   1.165   1.385
 2647TIP3   OH2 7904   3.979   4.084   1.124
 2647TIP3    H1 7905   3.888   4.057   1.134
 2647TIP3    H2 7906   4.030   4.007   1.152
 2648TIP3   OH2 7907   5.708   5.751   0.537
 2648TIP3    H1 7908   5.644   5.684   0.516
 2648TIP3    H2 7909   5.660   5.812   0.594
 2649TIP3   OH2 7910   5.164   6.785   2.434
 2649TIP3    H1 7911   5.114   6.866   2.444
 2649TIP3    H2 7912   5.193   6.764   2.523
 2650TIP3   OH2 7913   4.361   4.081   0.141
 2650TIP3    H1 7914   4.297   4.079   0.213
 2650TIP3    H2 7915   4.445   4.071   0.185
 2651TIP3   OH2 7916   1.922   0.716   3.852
 2651TIP3    H1 7917   1.875   0.759   3.781
 2651TIP3    H2 7918   1.855   0.702   3.920
 2652TIP3   OH2 7919   6.128   5.103   3.136
 2652TIP3    H1 7920   6.139   5.035   3.202
 2652TIP3    H2 7921   6.196   5.167   3.155
 2653TIP3   OH2 7922   5.040   3.239   5.139
 2653TIP3    H1 7923   4.975   3.299   5.177
 2653TIP3    H2 7924   5.018   3.234   5.047
 2654TIP3   OH2 7925   2.564   5.433   0.347
 2654TIP3    H1 7926   2.610   5.379   0.411
 2654TIP3    H2 7927   2.633   5.480   0.301
 2655TIP3   OH2 7928   6.653   4.041   1.781
 2655TIP3    H1 7929   6.720   4.051   1.713
 2655TIP3    H2 7930   6.624   3.950   1.772
 2656TIP3   OH2 7931   1.640   3.803   4.735
 2656TIP3    H1 7932   1.721   3.804   4.785
 2656TIP3    H2 7933   1.616   3.895   4.725
 2657TIP3   OH2 7934   5.498   0.358   5.546
 2657TIP3    H1 7935   5.441   0.406   5.606
 2657TIP3    H2 7936   5.578   0.341   5.597
 2658TIP3   OH2 7937   5.032   4.440   0.703
 2658TIP3    H1 7938   4.973   4.422   0.777
 2658TIP3    H2 7939   4.974   4.440   0.626
 2659TIP3   OH2 7940   3.967   5.331   2.791
 2659TIP3    H1 7941   3.978   5.296   2.703
 2659TIP3    H2 7942   3.920   5.262   2.838
 2660TIP3   OH2 7943   1.218   2.369   1.082
 2660TIP3    H1 7944   1.276   2.408   1.147
 2660TIP3    H2 7945   1.206   2.279   1.112
 2661TIP3   OH2 7946   7.107   0.076   5.165
 2661TIP3    H1 7947   7.185   0.122   5.196
 2661TIP3    H2 7948   7.108  -0.007   5.213
 2662TIP3   OH2 7949   6.479   3.496   4.403
 2662TIP3    H1 7950   6.514   3.422   4.452
 2662TIP3    H2 7951   6.414   3.457   4.345
 2663TIP3   OH2 7952   4.950   4.256   3.132
 2663TIP3    H1 7953   4.916   4.205   3.205
 2663TIP3    H2 7954   4.971   4.341   3.171
 2664TIP3   OH2 7955   5.260   1.612   0.426
 2664TIP3    H1 7956   5.350   1.644   0.437
 2664TIP3    H2 7957   5.205   1.689   0.434
 2665TIP3   OH2 7958   6.376   3.028   1.031
 2665TIP3    H1 7959   6.313   3.068   0.970
 2665TIP3    H2 7960   6.423   3.102   1.068
 2666TIP3   OH2 7961   1.041   4.409   1.036
 2666TIP3    H1 7962   1.088   4.358   0.971
 2666TIP3    H2 7963   1.030   4.349   1.110
 2667TIP3   OH2 7964   5.476   0.405   3.809
 2667TIP3    H1 7965   5.419   0.442   3.877
 2667TIP3    H2 7966   5.563   0.436   3.831
 2668TIP3   OH2 7967   0.134   2.537   4.775
 2668TIP3    H1 7968   0.158   2.448   4.797
 2668TIP3    H2 7969   0.048   2.550   4.814
 2669TIP3   OH2 7970   0.812   5.327   1.194
 2669TIP3    H1 7971   0.744   5.312   1.260
 2669TIP3    H2 7972   0.794   5.261   1.127
 2670TIP3   OH2 7973   2.439   0.271   2.292
 2670TIP3    H1 7974   2.440   0.346   2.233
 2670TIP3    H2 7975   2.479   0.303   2.372
 2671TIP3   OH2 7976   5.429   0.237   5.316
 2671TIP3    H1 7977   5.517   0.230   5.279
 2671TIP3    H2 7978   5.443   0.278   5.402
 2672TIP3   OH2 7979   0.791   5.104   4.320
 2672TIP3    H1 7980   0.852   5.063   4.382
 2672TIP3    H2 7981   0.847   5.138   4.251
 2673TIP3   OH2 7982   4.411   1.879   1.813
 2673TIP3    H1 7983   4.414   1.975   1.813
 2673TIP3    H2 7984   4.403   1.855   1.905
 2674TIP3   OH2 7985   3.979   1.074   3.938
 2674TIP3    H1 7986   3.885   1.055   3.948
 2674TIP3    H2 7987   3.997   1.053   3.846
 2675TIP3   OH2 7988   6.406   4.717   5.750
 2675TIP3    H1 7989   6.359   4.724   5.666
 2675TIP3    H2 7990   6.479   4.659   5.731
 2676TIP3   OH2 7991   1.683   0.385   2.387
 2676TIP3    H1 7992   1.599   0.401   2.430
 2676TIP3    H2 7993   1.689   0.290   2.380
 2677TIP3   OH2 7994   6.768   5.838   1.319
 2677TIP3    H1 7995   6.746   5.857   1.228
 2677TIP3    H2 7996   6.841   5.776   1.314
 2678TIP3   OH2 7997   2.297   5.748   3.077
 2678TIP3    H1 7998   2.259   5.663   3.099
 2678TIP3    H2 7999   2.301   5.795   3.161
 2679TIP3   OH2 8000   5.320   0.185   4.626
 2679TIP3    H1 8001   5.381   0.146   4.689
 2679TIP3    H2 8002   5.292   0.112   4.571
 2680TIP3   OH2 8003   4.835   3.582   0.508
 2680TIP3    H1 8004   4.772   3.553   0.442
 2680TIP3    H2 8005   4.841   3.509   0.570
 2681TIP3   OH2 8006   3.552   5.866   0.768
 2681TIP3    H1 8007   3.468   5.878   0.723
 2681TIP3    H2 8008   3.605   5.939   0.738
 2682TIP3   OH2 8009   2.262   3.116   3.919
 2682TIP3    H1 8010   2.227   3.186   3.863
 2682TIP3    H2 8011   2.323   3.069   3.863
 2683TIP3   OH2 8012   2.223   0.108   1.258
 2683TIP3    H1 8013   2.203   0.076   1.346
 2683TIP3    H2 8014   2.236   0.202   1.269
 2684TIP3   OH2 8015   4.894   0.776   5.626
 2684TIP3    H1 8016   4.876   0.846   5.689
 2684TIP3    H2 8017   4.989   0.780   5.613
 2685TIP3   OH2 8018   4.330   5.323   3.873
 2685TIP3    H1 8019   4.320   5.235   3.909
 2685TIP3    H2 8020   4.425   5.338   3.872
 2686TIP3   OH2 8021   0.686   1.792   0.608
 2686TIP3    H1 8022   0.726   1.787   0.695
 2686TIP3    H2 8023   0.593   1.809   0.625
 2687TIP3   OH2 8024   0.762   6.574   3.298
 2687TIP3    H1 8025   0.803   6.526   3.226
 2687TIP3    H2 8026   0.706   6.638   3.255
 2688TIP3   OH2 8027   0.099   2.809   3.037
 2688TIP3    H1 8028   0.067   2.775   2.954
 2688TIP3    H2 8029   0.185   2.845   3.017
 2689TIP3   OH2 8030   5.085   0.183   4.212
 2689TIP3    H1 8031   5.144   0.245   4.255
 2689TIP3    H2 8032   4.998   0.205   4.246
 2690TIP3   OH2 8033   3.496   5.321   4.278
 2690TIP3    H1 8034   3.531   5.278   4.200
 2690TIP3    H2 8035   3.426   5.264   4.309
 2691TIP3   OH2 8036   4.838   1.783   4.621
 2691TIP3    H1 8037   4.767   1.741   4.670
 2691TIP3    H2 8038   4.914   1.777   4.678
 2692TIP3   OH2 8039   5.095   5.918   5.720
 2692TIP3    H1 8040   5.161   5.858   5.753
 2692TIP3    H2 8041   5.078   5.889   5.631
 2693TIP3   OH2 8042   3.872   1.951   5.194
 2693TIP3    H1 8043   3.807   1.940   5.125
 2693TIP3    H2 8044   3.851   2.035   5.234
 2694TIP3   OH2 8045   5.250   4.399   4.923
 2694TIP3    H1 8046   5.255   4.468   4.989
 2694TIP3    H2 8047   5.333   4.352   4.930
 2695TIP3   OH2 8048   1.956   0.472   4.708
 2695TIP3    H1 8049   1.864   0.476   4.684
 2695TIP3    H2 8050   1.976   0.559   4.742
 2696TIP3   OH2 8051   3.188   2.132   0.737
 2696TIP3    H1 8052   3.197   2.117   0.831
 2696TIP3    H2 8053   3.218   2.222   0.724
 2697TIP3   OH2 8054   2.403   5.658   2.581
 2697TIP3    H1 8055   2.381   5.662   2.488
 2697TIP3    H2 8056   2.337   5.600   2.619
 2698TIP3   OH2 8057   1.370   1.825   5.705
 2698TIP3    H1 8058   1.298   1.869   5.658
 2698TIP3    H2 8059   1.448   1.876   5.681
 2699TIP3   OH2 8060   5.726   4.117   5.133
 2699TIP3    H1 8061   5.665   4.055   5.173
 2699TIP3    H2 8062   5.813   4.081   5.151
 2700TIP3   OH2 8063   0.572   0.279   0.208
 2700TIP3    H1 8064   0.614   0.359   0.241
 2700TIP3    H2 8065   0.490   0.308   0.170
 2701TIP3   OH2 8066   2.512   3.845   3.847
 2701TIP3    H1 8067   2.574   3.837   3.774
 2701TIP3    H2 8068   2.427   3.852   3.805
 2702TIP3   OH2 8069   6.786   3.424   0.471
 2702TIP3    H1 8070   6.808   3.513   0.442
 2702TIP3    H2 8071   6.802   3.424   0.565
 2703TIP3   OH2 8072   4.290   1.742   3.026
 2703TIP3    H1 8073   4.382   1.744   3.001
 2703TIP3    H2 8074   4.283   1.804   3.098
 2704TIP3   OH2 8075   6.976   2.289   0.290
 2704TIP3    H1 8076   7.017   2.207   0.318
 2704TIP3    H2 8077   6.883   2.276   0.307
 2705TIP3   OH2 8078   6.942   4.161   4.910
 2705TIP3    H1 8079   6.934   4.256   4.898
 2705TIP3    H2 8080   7.034   4.147   4.932
 2706TIP3   OH2 8081   0.287   2.827   3.321
 2706TIP3    H1 8082   0.307   2.805   3.230
 2706TIP3    H2 8083   0.372   2.823   3.365
 2707TIP3   OH2 8084   4.984   4.980   4.147
 2707TIP3    H1 8085   5.014   5.049   4.088
 2707TIP3    H2 8086   4.978   4.902   4.091
 2708TIP3   OH2 8087   0.020   1.790   3.096
 2708TIP3    H1 8088   0.088   1.829   3.150
 2708TIP3    H2 8089   0.066   1.762   3.017
 2709TIP3   OH2 8090   3.709   5.514   4.290
 2709TIP3    H1 8091   3.720   5.568   4.369
 2709TIP3    H2 8092   3.641   5.451   4.314
 2710TIP3   OH2 8093   1.532   0.374   3.628
 2710TIP3    H1 8094   1.474   0.392   3.554
 2710TIP3    H2 8095   1.585   0.300   3.598
 2711TIP3   OH2 8096   1.968   6.327   3.079
 2711TIP3    H1 8097   2.035   6.373   3.131
 2711TIP3    H2 8098   2.014   6.303   2.998
 2712TIP3   OH2 8099   4.420   5.776   3.929
 2712TIP3    H1 8100   4.361   5.713   3.970
 2712TIP3    H2 8101   4.508   5.744   3.950
 2713TIP3   OH2 8102   0.763   5.114   2.721
 2713TIP3    H1 8103   0.671   5.122   2.697
 2713TIP3    H2 8104   0.776   5.020   2.735
 2714TIP3   OH2 8105   0.325   4.953   2.938
 2714TIP3    H1 8106   0.392   5.000   2.987
 2714TIP3    H2 8107   0.248   4.955   2.995
 2715TIP3   OH2 8108   5.617   4.770   2.164
 2715TIP3    H1 8109   5.600   4.860   2.190
 2715TIP3    H2 8110   5.609   4.719   2.245
 2716TIP3   OH2 8111   2.206   3.146   1.033
 2716TIP3    H1 8112   2.247   3.158   1.119
 2716TIP3    H2 8113   2.239   3.062   1.002
 2717TIP3   OH2 8114   4.199   4.035   3.227
 2717TIP3    H1 8115   4.250   4.088   3.165
 2717TIP3    H2 8116   4.117   4.017   3.181
 2718TIP3   OH2 8117   4.241   5.782   3.543
 2718TIP3    H1 8118   4.294   5.861   3.554
 2718TIP3    H2 8119   4.240   5.766   3.449
 2719TIP3   OH2 8120   5.468   0.112   3.348
 2719TIP3    H1 8121   5.429   0.181   3.294
 2719TIP3    H2 8122   5.464   0.147   3.437
 2720TIP3   OH2 8123   1.292   2.072   1.148
 2720TIP3    H1 8124   1.229   2.049   1.216
 2720TIP3    H2 8125   1.248   2.048   1.066
 2721TIP3   OH2 8126   3.604   0.382   1.406
 2721TIP3    H1 8127   3.626   0.293   1.432
 2721TIP3    H2 8128   3.523   0.401   1.454
 2722TIP3   OH2 8129   2.129   4.053   2.076
 2722TIP3    H1 8130   2.212   4.098   2.093
 2722TIP3    H2 8131   2.133   3.975   2.131
 2723TIP3   OH2 8132   6.237   6.615   1.642
 2723TIP3    H1 8133   6.190   6.544   1.598
 2723TIP3    H2 8134   6.174   6.687   1.646
 2724TIP3   OH2 8135   5.661   4.764   2.723
 2724TIP3    H1 8136   5.720   4.690   2.714
 2724TIP3    H2 8137   5.665   4.787   2.816
 2725TIP3   OH2 8138   0.120   0.953   3.060
 2725TIP3    H1 8139   0.048   0.924   3.116
 2725TIP3    H2 8140   0.094   1.040   3.029
 2726TIP3   OH2 8141   3.771   2.593   2.986
 2726TIP3    H1 8142   3.784   2.683   3.015
 2726TIP3    H2 8143   3.859   2.559   2.971
 2727TIP3   OH2 8144   1.921   5.268   5.713
 2727TIP3    H1 8145   2.009   5.279   5.677
 2727TIP3    H2 8146   1.922   5.180   5.751
 2728TIP3   OH2 8147   3.742   3.659   3.486
 2728TIP3    H1 8148   3.765   3.740   3.440
 2728TIP3    H2 8149   3.775   3.673   3.575
 2729TIP3   OH2 8150   4.712   2.809   2.835
 2729TIP3    H1 8151   4.704   2.764   2.919
 2729TIP3    H2 8152   4.623   2.817   2.803
 2730TIP3   OH2 8153   1.802   0.095   2.111
 2730TIP3    H1 8154   1.861   0.053   2.174
 2730TIP3    H2 8155   1.722   0.112   2.161
 2731TIP3   OH2 8156   6.377   1.446   3.035
 2731TIP3    H1 8157   6.426   1.426   2.955
 2731TIP3    H2 8158   6.341   1.361   3.063
 2732TIP3   OH2 8159   1.779   6.028   1.183
 2732TIP3    H1 8160   1.783   6.122   1.203
 2732TIP3    H2 8161   1.778   5.985   1.268
 2733TIP3   OH2 8162   6.538   6.247   2.196
 2733TIP3    H1 8163   6.517   6.331   2.155
 2733TIP3    H2 8164   6.512   6.258   2.287
 2734TIP3   OH2 8165   0.411   4.393   3.013
 2734TIP3    H1 8166   0.437   4.482   3.038
 2734TIP3    H2 8167   0.316   4.399   3.003
 2735TIP3   OH2 8168   5.740   1.656   3.274
 2735TIP3    H1 8169   5.824   1.674   3.234
 2735TIP3    H2 8170   5.675   1.690   3.212
 2736TIP3   OH2 8171   3.708   3.605   2.462
 2736TIP3    H1 8172   3.716   3.695   2.494
 2736TIP3    H2 8173   3.652   3.612   2.385
 2737TIP3   OH2 8174   3.253   1.915   0.085
 2737TIP3    H1 8175   3.314   1.880   0.149
 2737TIP3    H2 8176   3.232   2.003   0.117
 2738TIP3   OH2 8177   3.406   5.934   0.099
 2738TIP3    H1 8178   3.440   6.017   0.134
 2738TIP3    H2 8179   3.398   5.949   0.005
 2739TIP3   OH2 8180   5.221   2.351   3.476
 2739TIP3    H1 8181   5.263   2.429   3.439
 2739TIP3    H2 8182   5.131   2.355   3.444
 2740TIP3   OH2 8183   1.570   3.902   3.547
 2740TIP3    H1 8184   1.510   3.915   3.473
 2740TIP3    H2 8185   1.549   3.816   3.581
 2741TIP3   OH2 8186   5.695   6.072   2.379
 2741TIP3    H1 8187   5.613   6.066   2.330
 2741TIP3    H2 8188   5.690   5.999   2.441
 2742TIP3   OH2 8189   4.620   0.068   1.220
 2742TIP3    H1 8190   4.633   0.153   1.177
 2742TIP3    H2 8191   4.527   0.050   1.209
 2743TIP3   OH2 8192   0.921   4.672   1.761
 2743TIP3    H1 8193   0.869   4.677   1.841
 2743TIP3    H2 8194   1.003   4.631   1.788
 2744TIP3   OH2 8195   3.701   0.201   3.182
 2744TIP3    H1 8196   3.664   0.257   3.114
 2744TIP3    H2 8197   3.631   0.191   3.246
 2745TIP3   OH2 8198   1.990   5.407   4.969
 2745TIP3    H1 8199   2.031   5.455   5.041
 2745TIP3    H2 8200   1.999   5.465   4.893
 2746TIP3   OH2 8201   0.820   1.297   3.866
 2746TIP3    H1 8202   0.864   1.353   3.802
 2746TIP3    H2 8203   0.756   1.249   3.815
 2747TIP3   OH2 8204   4.745   4.762   1.064
 2747TIP3    H1 8205   4.680   4.754   1.133
 2747TIP3    H2 8206   4.694   4.782   0.985
 2748TIP3   OH2 8207   7.089   4.981   1.777
 2748TIP3    H1 8208   7.006   4.937   1.792
 2748TIP3    H2 8209   7.106   4.969   1.683
 2749TIP3   OH2 8210   0.151   1.978   0.262
 2749TIP3    H1 8211   0.143   1.883   0.269
 2749TIP3    H2 8212   0.186   2.006   0.347
 2750TIP3   OH2 8213   5.395   4.410   5.228
 2750TIP3    H1 8214   5.431   4.441   5.311
 2750TIP3    H2 8215   5.339   4.481   5.197
 2751TIP3   OH2 8216   5.919   6.391   2.030
 2751TIP3    H1 8217   5.862   6.384   2.106
 2751TIP3    H2 8218   5.967   6.308   2.027
 2752TIP3   OH2 8219   6.139   3.899   4.076
 2752TIP3    H1 8220   6.233   3.890   4.060
 2752TIP3    H2 8221   6.123   3.993   4.069
 2753TIP3   OH2 8222   7.052   0.180   2.611
 2753TIP3    H1 8223   7.056   0.141   2.524
 2753TIP3    H2 8224   7.046   0.106   2.671
 2754TIP3   OH2 8225   0.694   6.047   1.075
 2754TIP3    H1 8226   0.668   5.966   1.118
 2754TIP3    H2 8227   0.620   6.068   1.017
 2755TIP3   OH2 8228   4.668   4.717   3.379
 2755TIP3    H1 8229   4.697   4.717   3.288
 2755TIP3    H2 8230   4.607   4.791   3.385
 2756TIP3   OH2 8231   5.484   4.103   4.803
 2756TIP3    H1 8232   5.440   4.140   4.726
 2756TIP3    H2 8233   5.471   4.169   4.871
 2757TIP3   OH2 8234   6.441   6.497   3.690
 2757TIP3    H1 8235   6.504   6.479   3.620
 2757TIP3    H2 8236   6.453   6.590   3.709
 2758TIP3   OH2 8237   6.094   2.384   3.255
 2758TIP3    H1 8238   6.148   2.449   3.298
 2758TIP3    H2 8239   6.116   2.301   3.298
 2759TIP3   OH2 8240   3.182   0.933   0.358
 2759TIP3    H1 8241   3.152   0.944   0.449
 2759TIP3    H2 8242   3.276   0.919   0.366
 2760TIP3   OH2 8243   1.851   0.913   0.080
 2760TIP3    H1 8244   1.799   0.923   0.000
 2760TIP3    H2 8245   1.934   0.876   0.051
 2761TIP3   OH2 8246   3.495   0.102   3.307
 2761TIP3    H1 8247   3.502   0.085   3.401
 2761TIP3    H2 8248   3.401   0.116   3.293
 2762TIP3   OH2 8249   1.997   6.659   3.919
 2762TIP3    H1 8250   1.962   6.572   3.936
 2762TIP3    H2 8251   1.985   6.671   3.825
 2763TIP3   OH2 8252   3.788   1.290   4.779
 2763TIP3    H1 8253   3.856   1.258   4.838
 2763TIP3    H2 8254   3.826   1.367   4.737
 2764TIP3   OH2 8255   5.627   4.646   2.419
 2764TIP3    H1 8256   5.640   4.724   2.473
 2764TIP3    H2 8257   5.707   4.594   2.432
 2765TIP3   OH2 8258   2.370   0.609   1.401
 2765TIP3    H1 8259   2.344   0.652   1.320
 2765TIP3    H2 8260   2.437   0.546   1.375
 2766TIP3   OH2 8261   4.819   1.419   2.703
 2766TIP3    H1 8262   4.764   1.496   2.709
 2766TIP3    H2 8263   4.815   1.380   2.791
 2767TIP3   OH2 8264   2.610   4.404   2.856
 2767TIP3    H1 8265   2.674   4.340   2.887
 2767TIP3    H2 8266   2.642   4.488   2.890
 2768TIP3   OH2 8267   2.792   0.608   1.340
 2768TIP3    H1 8268   2.873   0.558   1.353
 2768TIP3    H2 8269   2.766   0.634   1.429
 2769TIP3   OH2 8270   0.894   6.247   1.624
 2769TIP3    H1 8271   0.836   6.183   1.583
 2769TIP3    H2 8272   0.837   6.319   1.649
 2770TIP3   OH2 8273   6.810   5.776   2.669
 2770TIP3    H1 8274   6.781   5.823   2.748
 2770TIP3    H2 8275   6.905   5.769   2.679
 2771TIP3   OH2 8276   6.170   0.241   0.549
 2771TIP3    H1 8277   6.078   0.254   0.527
 2771TIP3    H2 8278   6.218   0.276   0.473
 2772TIP3   OH2 8279   5.117   6.643   1.946
 2772TIP3    H1 8280   5.174   6.606   1.879
 2772TIP3    H2 8281   5.079   6.567   1.991
 2773TIP3   OH2 8282   2.572   4.929   4.360
 2773TIP3    H1 8283   2.636   4.859   4.373
 2773TIP3    H2 8284   2.604   5.002   4.413
 2774TIP3   OH2 8285   1.420   3.315   3.588
 2774TIP3    H1 8286   1.453   3.239   3.541
 2774TIP3    H2 8287   1.325   3.305   3.586
 2775TIP3   OH2 8288   4.613   5.157   1.038
 2775TIP3    H1 8289   4.543   5.119   0.985
 2775TIP3    H2 8290   4.595   5.127   1.127
 2776TIP3   OH2 8291   4.332   2.600   5.075
 2776TIP3    H1 8292   4.363   2.671   5.018
 2776TIP3    H2 8293   4.305   2.531   5.015
 2777TIP3   OH2 8294   5.550   2.957   2.266
 2777TIP3    H1 8295   5.603   2.995   2.196
 2777TIP3    H2 8296   5.512   2.878   2.228
 2778TIP3   OH2 8297   6.060   5.603   2.377
 2778TIP3    H1 8298   6.091   5.677   2.429
 2778TIP3    H2 8299   6.116   5.530   2.403
 2779TIP3   OH2 8300   0.346   0.885   5.125
 2779TIP3    H1 8301   0.279   0.833   5.169
 2779TIP3    H2 8302   0.310   0.974   5.123
 2780TIP3   OH2 8303   0.911   0.814   1.350
 2780TIP3    H1 8304   0.981   0.813   1.286
 2780TIP3    H2 8305   0.832   0.835   1.299
 2781TIP3   OH2 8306   7.147   4.904   4.184
 2781TIP3    H1 8307   7.110   4.817   4.194
 2781TIP3    H2 8308   7.196   4.900   4.101
 2782TIP3   OH2 8309   1.258   4.562   3.287
 2782TIP3    H1 8310   1.334   4.608   3.323
 2782TIP3    H2 8311   1.204   4.543   3.363
 2783TIP3   OH2 8312   2.119   4.284   1.408
 2783TIP3    H1 8313   2.058   4.277   1.482
 2783TIP3    H2 8314   2.200   4.246   1.440
 2784TIP3   OH2 8315   3.357   2.382   0.273
 2784TIP3    H1 8316   3.451   2.380   0.258
 2784TIP3    H2 8317   3.343   2.464   0.321
 2785TIP3   OH2 8318   1.556   2.638   2.063
 2785TIP3    H1 8319   1.635   2.641   2.118
 2785TIP3    H2 8320   1.502   2.709   2.095
 2786TIP3   OH2 8321   7.076   2.455   0.670
 2786TIP3    H1 8322   7.124   2.422   0.594
 2786TIP3    H2 8323   6.989   2.415   0.662
 2787TIP3   OH2 8324   5.519   0.969   0.513
 2787TIP3    H1 8325   5.533   0.927   0.429
 2787TIP3    H2 8326   5.555   0.908   0.577
 2788TIP3   OH2 8327   6.682   2.751   1.422
 2788TIP3    H1 8328   6.737   2.675   1.443
 2788TIP3    H2 8329   6.727   2.794   1.350
 2789TIP3   OH2 8330   1.659   5.141   3.393
 2789TIP3    H1 8331   1.684   5.168   3.481
 2789TIP3    H2 8332   1.721   5.071   3.371
 2790TIP3   OH2 8333   5.230   2.345   3.740
 2790TIP3    H1 8334   5.230   2.363   3.646
 2790TIP3    H2 8335   5.176   2.414   3.778
 2791TIP3   OH2 8336   3.562   6.543   5.384
 2791TIP3    H1 8337   3.477   6.572   5.417
 2791TIP3    H2 8338   3.622   6.612   5.409
 2792TIP3   OH2 8339   6.354   5.205   5.444
 2792TIP3    H1 8340   6.335   5.256   5.365
 2792TIP3    H2 8341   6.389   5.268   5.506
 2793TIP3   OH2 8342   5.889   1.786   4.464
 2793TIP3    H1 8343   5.978   1.771   4.432
 2793TIP3    H2 8344   5.882   1.732   4.543
 2794TIP3   OH2 8345   6.987   0.374   2.350
 2794TIP3    H1 8346   6.933   0.302   2.317
 2794TIP3    H2 8347   7.070   0.365   2.303
 2795TIP3   OH2 8348   4.776   1.676   2.241
 2795TIP3    H1 8349   4.689   1.687   2.279
 2795TIP3    H2 8350   4.835   1.724   2.299
 2796TIP3   OH2 8351   2.815   5.858   2.015
 2796TIP3    H1 8352   2.839   5.769   2.041
 2796TIP3    H2 8353   2.720   5.861   2.025
 2797TIP3   OH2 8354   1.925   0.154   4.619
 2797TIP3    H1 8355   1.868   0.220   4.581
 2797TIP3    H2 8356   1.995   0.204   4.661
 2798TIP3   OH2 8357   1.579   4.350   2.900
 2798TIP3    H1 8358   1.670   4.380   2.898
 2798TIP3    H2 8359   1.528   4.425   2.869
 2799TIP3   OH2 8360   6.548   3.436   3.765
 2799TIP3    H1 8361   6.626   3.408   3.812
 2799TIP3    H2 8362   6.570   3.523   3.731
 2800TIP3   OH2 8363   5.059   2.082   4.681
 2800TIP3    H1 8364   5.053   2.001   4.733
 2800TIP3    H2 8365   5.018   2.148   4.737
 2801TIP3   OH2 8366   0.802   4.108   5.268
 2801TIP3    H1 8367   0.742   4.161   5.216
 2801TIP3    H2 8368   0.853   4.059   5.203
 2802TIP3   OH2 8369   0.668   4.301   5.096
 2802TIP3    H1 8370   0.677   4.320   5.002
 2802TIP3    H2 8371   0.737   4.353   5.137
 2803TIP3   OH2 8372   2.774   2.843   0.641
 2803TIP3    H1 8373   2.822   2.841   0.724
 2803TIP3    H2 8374   2.778   2.934   0.613
 2804TIP3   OH2 8375   3.820   2.925   4.285
 2804TIP3    H1 8376   3.736   2.953   4.249
 2804TIP3    H2 8377   3.814   2.947   4.378
 2805TIP3   OH2 8378   5.846   1.994   5.543
 2805TIP3    H1 8379   5.785   2.067   5.551
 2805TIP3    H2 8380   5.833   1.943   5.623
 2806TIP3   OH2 8381   5.821   6.001   0.438
 2806TIP3    H1 8382   5.769   5.925   0.462
 2806TIP3    H2 8383   5.898   5.997   0.496
 2807TIP3   OH2 8384   4.693   2.625   1.974
 2807TIP3    H1 8385   4.652   2.565   1.911
 2807TIP3    H2 8386   4.665   2.712   1.945
 2808TIP3   OH2 8387   3.638   5.403   0.956
 2808TIP3    H1 8388   3.602   5.317   0.981
 2808TIP3    H2 8389   3.730   5.398   0.980
 2809TIP3   OH2 8390   0.116   3.872   4.717
 2809TIP3    H1 8391   0.211   3.872   4.728
 2809TIP3    H2 8392   0.103   3.877   4.622
 2810TIP3   OH2 8393   3.360   2.491   2.162
 2810TIP3    H1 8394   3.371   2.413   2.216
 2810TIP3    H2 8395   3.437   2.492   2.105
 2811TIP3   OH2 8396   0.430   4.506   2.744
 2811TIP3    H1 8397   0.371   4.581   2.746
 2811TIP3    H2 8398   0.417   4.462   2.828
 2812TIP3   OH2 8399   3.804   2.624   5.605
 2812TIP3    H1 8400   3.867   2.598   5.672
 2812TIP3    H2 8401   3.779   2.713   5.630
 2813TIP3   OH2 8402   1.456   1.047   5.067
 2813TIP3    H1 8403   1.396   1.036   5.141
 2813TIP3    H2 8404   1.455   1.141   5.049
 2814TIP3   OH2 8405   2.654   0.034   2.672
 2814TIP3    H1 8406   2.722   0.041   2.739
 2814TIP3    H2 8407   2.654   0.120   2.629
 2815TIP3   OH2 8408   1.637   2.385   4.255
 2815TIP3    H1 8409   1.634   2.303   4.206
 2815TIP3    H2 8410   1.719   2.381   4.305
 2816TIP3   OH2 8411   1.630   2.365   2.029
 2816TIP3    H1 8412   1.595   2.454   2.036
 2816TIP3    H2 8413   1.654   2.357   1.936
 2817TIP3   OH2 8414   0.387   2.265   2.462
 2817TIP3    H1 8415   0.293   2.270   2.442
 2817TIP3    H2 8416   0.425   2.340   2.417
 2818TIP3   OH2 8417   6.838   5.557   5.834
 2818TIP3    H1 8418   6.793   5.631   5.793
 2818TIP3    H2 8419   6.931   5.578   5.824
 2819TIP3   OH2 8420   3.156   5.426   2.138
 2819TIP3    H1 8421   3.184   5.424   2.046
 2819TIP3    H2 8422   3.234   5.451   2.187
 2820TIP3   OH2 8423   0.561   0.341   1.189
 2820TIP3    H1 8424   0.589   0.407   1.126
 2820TIP3    H2 8425   0.472   0.318   1.164
 2821TIP3   OH2 8426   3.612   0.902   2.473
 2821TIP3    H1 8427   3.629   0.975   2.531
 2821TIP3    H2 8428   3.697   0.882   2.433
 2822TIP3   OH2 8429   2.666   6.441   2.468
 2822TIP3    H1 8430   2.683   6.389   2.389
 2822TIP3    H2 8431   2.668   6.532   2.438
 2823TIP3   OH2 8432   4.483   5.382   0.924
 2823TIP3    H1 8433   4.549   5.318   0.953
 2823TIP3    H2 8434   4.479   5.370   0.829
 2824TIP3   OH2 8435   4.281   0.987   5.429
 2824TIP3    H1 8436   4.345   0.915   5.427
 2824TIP3    H2 8437   4.334   1.066   5.429
 2825TIP3   OH2 8438   6.898   5.519   0.559
 2825TIP3    H1 8439   6.888   5.522   0.464
 2825TIP3    H2 8440   6.917   5.610   0.584
 2826TIP3   OH2 8441   4.954   2.470   4.002
 2826TIP3    H1 8442   5.018   2.516   3.948
 2826TIP3    H2 8443   5.007   2.418   4.063
 2827TIP3   OH2 8444   4.309   1.388   2.750
 2827TIP3    H1 8445   4.262   1.358   2.673
 2827TIP3    H2 8446   4.395   1.346   2.745
 2828TIP3   OH2 8447   4.710   0.793   0.452
 2828TIP3    H1 8448   4.725   0.833   0.538
 2828TIP3    H2 8449   4.764   0.844   0.392
 2829TIP3   OH2 8450   6.865   4.550   5.673
 2829TIP3    H1 8451   6.950   4.550   5.627
 2829TIP3    H2 8452   6.805   4.509   5.611
 2830TIP3   OH2 8453   6.933   3.887   0.060
 2830TIP3    H1 8454   6.854   3.841   0.089
 2830TIP3    H2 8455   6.988   3.891   0.137
 2831TIP3   OH2 8456   5.463   1.303   3.478
 2831TIP3    H1 8457   5.377   1.330   3.445
 2831TIP3    H2 8458   5.525   1.336   3.414
 2832TIP3   OH2 8459   2.538   3.215   0.853
 2832TIP3    H1 8460   2.471   3.153   0.825
 2832TIP3    H2 8461   2.489   3.291   0.885
 2833TIP3   OH2 8462   4.984   2.882   1.052
 2833TIP3    H1 8463   4.939   2.902   1.135
 2833TIP3    H2 8464   4.929   2.815   1.011
 2834TIP3   OH2 8465   1.392   4.954   2.639
 2834TIP3    H1 8466   1.396   5.016   2.566
 2834TIP3    H2 8467   1.398   4.868   2.597
 2835TIP3   OH2 8468   6.848   5.285   2.883
 2835TIP3    H1 8469   6.863   5.192   2.867
 2835TIP3    H2 8470   6.753   5.295   2.879
 2836TIP3   OH2 8471   3.009   3.000   0.310
 2836TIP3    H1 8472   2.998   3.066   0.379
 2836TIP3    H2 8473   3.089   3.026   0.265
 2837TIP3   OH2 8474   6.270   2.762   4.108
 2837TIP3    H1 8475   6.322   2.842   4.114
 2837TIP3    H2 8476   6.219   2.772   4.027
 2838TIP3   OH2 8477   5.052   1.203   3.037
 2838TIP3    H1 8478   5.095   1.288   3.050
 2838TIP3    H2 8479   5.055   1.161   3.123
 2839TIP3   OH2 8480   5.641   0.694   3.551
 2839TIP3    H1 8481   5.676   0.670   3.465
 2839TIP3    H2 8482   5.719   0.704   3.606
 2840TIP3   OH2 8483   3.271   4.832   2.499
 2840TIP3    H1 8484   3.244   4.899   2.437
 2840TIP3    H2 8485   3.366   4.833   2.496
 2841TIP3   OH2 8486   6.238   3.272   4.595
 2841TIP3    H1 8487   6.257   3.182   4.566
 2841TIP3    H2 8488   6.306   3.290   4.660
 2842TIP3   OH2 8489   1.354   2.163   4.358
 2842TIP3    H1 8490   1.418   2.163   4.286
 2842TIP3    H2 8491   1.297   2.238   4.340
 2843TIP3   OH2 8492   0.779   4.477   3.526
 2843TIP3    H1 8493   0.691   4.515   3.522
 2843TIP3    H2 8494   0.785   4.424   3.446
 2844TIP3   OH2 8495   4.971   5.469   4.829
 2844TIP3    H1 8496   4.907   5.459   4.900
 2844TIP3    H2 8497   4.941   5.410   4.761
 2845TIP3   OH2 8498   4.726   1.001   1.653
 2845TIP3    H1 8499   4.750   1.050   1.574
 2845TIP3    H2 8500   4.632   0.989   1.646
 2846TIP3   OH2 8501   1.030   0.355   3.682
 2846TIP3    H1 8502   1.008   0.340   3.774
 2846TIP3    H2 8503   1.047   0.268   3.647
 2847TIP3   OH2 8504   4.052   2.951   5.680
 2847TIP3    H1 8505   4.035   2.988   5.767
 2847TIP3    H2 8506   4.054   3.027   5.622
 2848TIP3   OH2 8507   6.189   4.231   0.238
 2848TIP3    H1 8508   6.245   4.170   0.286
 2848TIP3    H2 8509   6.249   4.294   0.200
 2849TIP3   OH2 8510   3.102   2.107   5.145
 2849TIP3    H1 8511   3.177   2.168   5.141
 2849TIP3    H2 8512   3.051   2.136   5.220
 2850TIP3   OH2 8513   1.106   4.071   2.320
 2850TIP3    H1 8514   1.141   4.017   2.249
 2850TIP3    H2 8515   1.014   4.046   2.326
 2851TIP3   OH2 8516   3.483   1.125   3.303
 2851TIP3    H1 8517   3.517   1.144   3.391
 2851TIP3    H2 8518   3.389   1.116   3.315
 2852TIP3   OH2 8519   0.476   5.759   2.525
 2852TIP3    H1 8520   0.387   5.785   2.502
 2852TIP3    H2 8521   0.468   5.725   2.614
 2853TIP3   OH2 8522   1.650   0.984   3.430
 2853TIP3    H1 8523   1.577   1.032   3.391
 2853TIP3    H2 8524   1.623   0.892   3.427
 2854TIP3   OH2 8525   1.400   5.014   3.338
 2854TIP3    H1 8526   1.318   5.062   3.349
 2854TIP3    H2 8527   1.467   5.075   3.368
 2855TIP3   OH2 8528   6.880   4.290   0.635
 2855TIP3    H1 8529   6.845   4.251   0.716
 2855TIP3    H2 8530   6.841   4.378   0.633
 2856TIP3   OH2 8531   0.530   6.695   0.388
 2856TIP3    H1 8532   0.516   6.683   0.482
 2856TIP3    H2 8533   0.619   6.661   0.373
 2857TIP3   OH2 8534   1.017   4.423   2.165
 2857TIP3    H1 8535   1.091   4.362   2.174
 2857TIP3    H2 8536   1.058   4.509   2.157
 2858TIP3   OH2 8537   0.538   1.123   1.932
 2858TIP3    H1 8538   0.482   1.045   1.930
 2858TIP3    H2 8539   0.601   1.106   2.002
 2859TIP3   OH2 8540   2.603   1.390   3.078
 2859TIP3    H1 8541   2.526   1.339   3.103
 2859TIP3    H2 8542   2.619   1.367   2.986
 2860TIP3   OH2 8543   3.337   3.335   4.149
 2860TIP3    H1 8544   3.295   3.360   4.232
 2860TIP3    H2 8545   3.311   3.404   4.088
 2861TIP3   OH2 8546   2.504   2.366   2.970
 2861TIP3    H1 8547   2.415   2.339   2.989
 2861TIP3    H2 8548   2.509   2.457   2.999
 2862TIP3   OH2 8549   5.803   2.035   3.138
 2862TIP3    H1 8550   5.780   2.010   3.227
 2862TIP3    H2 8551   5.723   2.073   3.101
 2863TIP3   OH2 8552   2.101   4.819   4.431
 2863TIP3    H1 8553   2.084   4.728   4.409
 2863TIP3    H2 8554   2.173   4.816   4.494
 2864TIP3   OH2 8555   1.798   5.404   0.160
 2864TIP3    H1 8556   1.750   5.323   0.173
 2864TIP3    H2 8557   1.757   5.467   0.219
 2865TIP3   OH2 8558   0.808   2.017   1.881
 2865TIP3    H1 8559   0.838   1.926   1.886
 2865TIP3    H2 8560   0.805   2.036   1.788
 2866TIP3   OH2 8561   5.566   0.376   4.384
 2866TIP3    H1 8562   5.614   0.300   4.352
 2866TIP3    H2 8563   5.549   0.356   4.476
 2867TIP3   OH2 8564   4.092   1.968   4.305
 2867TIP3    H1 8565   4.174   1.994   4.347
 2867TIP3    H2 8566   4.024   2.006   4.360
 2868TIP3   OH2 8567   4.685   2.196   4.438
 2868TIP3    H1 8568   4.598   2.226   4.463
 2868TIP3    H2 8569   4.729   2.179   4.522
 2869TIP3   OH2 8570   0.798   0.368   1.851
 2869TIP3    H1 8571   0.714   0.336   1.819
 2869TIP3    H2 8572   0.807   0.328   1.938
 2870TIP3   OH2 8573   0.055   3.074   3.189
 2870TIP3    H1 8574   0.119   3.074   3.260
 2870TIP3    H2 8575   0.067   2.990   3.146
 2871TIP3   OH2 8576   0.168   3.528   1.557
 2871TIP3    H1 8577   0.191   3.437   1.539
 2871TIP3    H2 8578   0.114   3.553   1.482
 2872TIP3   OH2 8579   1.612   1.743   3.601
 2872TIP3    H1 8580   1.650   1.674   3.547
 2872TIP3    H2 8581   1.675   1.815   3.594
 2873TIP3   OH2 8582   6.278   0.343   3.090
 2873TIP3    H1 8583   6.262   0.410   3.024
 2873TIP3    H2 8584   6.209   0.279   3.076
 2874TIP3   OH2 8585   1.830   4.509   1.695
 2874TIP3    H1 8586   1.869   4.425   1.715
 2874TIP3    H2 8587   1.785   4.496   1.611
 2875TIP3   OH2 8588   6.959   5.911   0.992
 2875TIP3    H1 8589   7.000   5.831   1.024
 2875TIP3    H2 8590   7.001   5.981   1.042
 2876TIP3   OH2 8591   1.899   2.982   1.676
 2876TIP3    H1 8592   1.988   2.954   1.653
 2876TIP3    H2 8593   1.855   2.901   1.701
 2877TIP3   OH2 8594   3.591   6.311   4.319
 2877TIP3    H1 8595   3.540   6.327   4.239
 2877TIP3    H2 8596   3.525   6.301   4.388
 2878TIP3   OH2 8597   1.734   6.076   1.549
 2878TIP3    H1 8598   1.726   6.110   1.639
 2878TIP3    H2 8599   1.658   6.018   1.539
 2879TIP3   OH2 8600   1.833   1.522   0.211
 2879TIP3    H1 8601   1.927   1.521   0.231
 2879TIP3    H2 8602   1.800   1.441   0.250
 2880TIP3   OH2 8603   3.174   2.859   3.882
 2880TIP3    H1 8604   3.249   2.805   3.858
 2880TIP3    H2 8605   3.129   2.809   3.950
 2881TIP3   OH2 8606   6.625   2.490   4.217
 2881TIP3    H1 8607   6.609   2.436   4.295
 2881TIP3    H2 8608   6.537   2.510   4.184
 2882TIP3   OH2 8609   1.130   0.929   5.029
 2882TIP3    H1 8610   1.059   0.950   4.969
 2882TIP3    H2 8611   1.154   1.013   5.069
 2883TIP3   OH2 8612   4.332   4.573   2.818
 2883TIP3    H1 8613   4.290   4.576   2.732
 2883TIP3    H2 8614   4.324   4.662   2.851
 2884TIP3   OH2 8615   2.322   2.854   4.028
 2884TIP3    H1 8616   2.362   2.817   3.950
 2884TIP3    H2 8617   2.326   2.948   4.015
 2885TIP3   OH2 8618   4.660   4.828   4.390
 2885TIP3    H1 8619   4.694   4.913   4.360
 2885TIP3    H2 8620   4.621   4.789   4.312
 2886TIP3   OH2 8621   1.019   1.938   0.064
 2886TIP3    H1 8622   0.986   1.870   0.005
 2886TIP3    H2 8623   1.017   1.897   0.151
 2887TIP3   OH2 8624   6.065   4.194   3.261
 2887TIP3    H1 8625   6.000   4.234   3.203
 2887TIP3    H2 8626   6.061   4.101   3.241
 2888TIP3   OH2 8627   6.234   3.144   0.802
 2888TIP3    H1 8628   6.233   3.148   0.707
 2888TIP3    H2 8629   6.224   3.235   0.831
 2889TIP3   OH2 8630   4.710   4.984   2.724
 2889TIP3    H1 8631   4.694   5.018   2.636
 2889TIP3    H2 8632   4.778   5.041   2.760
 2890TIP3   OH2 8633   4.925   2.136   5.090
 2890TIP3    H1 8634   4.887   2.082   5.021
 2890TIP3    H2 8635   4.941   2.220   5.049
 2891TIP3   OH2 8636   5.610   6.616   3.788
 2891TIP3    H1 8637   5.567   6.536   3.817
 2891TIP3    H2 8638   5.539   6.680   3.783
 2892TIP3   OH2 8639   6.126   2.104   1.524
 2892TIP3    H1 8640   6.075   2.075   1.600
 2892TIP3    H2 8641   6.106   2.040   1.456
 2893TIP3   OH2 8642   0.026   4.363   4.789
 2893TIP3    H1 8643   0.016   4.275   4.828
 2893TIP3    H2 8644   0.088   4.350   4.718
 2894TIP3   OH2 8645   3.940   4.517   2.972
 2894TIP3    H1 8646   3.847   4.517   2.950
 2894TIP3    H2 8647   3.942   4.516   3.068
 2895TIP3   OH2 8648   3.762   5.390   1.373
 2895TIP3    H1 8649   3.689   5.329   1.384
 2895TIP3    H2 8650   3.837   5.335   1.352
 2896TIP3   OH2 8651   5.502   1.495   5.480
 2896TIP3    H1 8652   5.542   1.578   5.452
 2896TIP3    H2 8653   5.530   1.484   5.571
 2897TIP3   OH2 8654   4.397   3.014   4.059
 2897TIP3    H1 8655   4.317   3.060   4.085
 2897TIP3    H2 8656   4.395   3.016   3.963
 2898TIP3   OH2 8657   2.263   3.432   3.478
 2898TIP3    H1 8658   2.313   3.469   3.551
 2898TIP3    H2 8659   2.284   3.339   3.479
 2899TIP3   OH2 8660   5.588   2.656   4.367
 2899TIP3    H1 8661   5.602   2.635   4.275
 2899TIP3    H2 8662   5.642   2.733   4.383
 2900TIP3   OH2 8663   3.600   4.586   4.165
 2900TIP3    H1 8664   3.598   4.598   4.070
 2900TIP3    H2 8665   3.639   4.666   4.199
 2901TIP3   OH2 8666   6.390   5.463   2.982
 2901TIP3    H1 8667   6.415   5.555   2.980
 2901TIP3    H2 8668   6.307   5.459   2.935
 2902TIP3   OH2 8669   5.169   4.246   5.327
 2902TIP3    H1 8670   5.146   4.330   5.367
 2902TIP3    H2 8671   5.236   4.268   5.262
 2903TIP3   OH2 8672   4.864   5.703   5.050
 2903TIP3    H1 8673   4.795   5.759   5.087
 2903TIP3    H2 8674   4.891   5.748   4.970
 2904TIP3   OH2 8675   5.632   3.457   1.754
 2904TIP3    H1 8676   5.683   3.484   1.678
 2904TIP3    H2 8677   5.662   3.368   1.773
 2905TIP3   OH2 8678   0.929   5.790   1.233
 2905TIP3    H1 8679   1.012   5.771   1.277
 2905TIP3    H2 8680   0.915   5.883   1.248
 2906TIP3   OH2 8681   3.249   4.358   1.942
 2906TIP3    H1 8682   3.157   4.368   1.917
 2906TIP3    H2 8683   3.274   4.273   1.906
 2907TIP3   OH2 8684   2.139   5.996   4.857
 2907TIP3    H1 8685   2.172   6.072   4.904
 2907TIP3    H2 8686   2.199   5.985   4.783
 2908TIP3   OH2 8687   1.570   1.017   4.080
 2908TIP3    H1 8688   1.507   1.073   4.036
 2908TIP3    H2 8689   1.519   0.940   4.108
 2909TIP3   OH2 8690   3.193   1.857   0.615
 2909TIP3    H1 8691   3.251   1.861   0.539
 2909TIP3    H2 8692   3.199   1.943   0.655
 2910TIP3   OH2 8693   5.244   6.706   0.303
 2910TIP3    H1 8694   5.246   6.784   0.358
 2910TIP3    H2 8695   5.332   6.702   0.265
 2911TIP3   OH2 8696   2.678   0.488   2.963
 2911TIP3    H1 8697   2.752   0.512   3.018
 2911TIP3    H2 8698   2.649   0.571   2.925
 2912TIP3   OH2 8699   1.411   1.893   2.254
 2912TIP3    H1 8700   1.453   1.920   2.336
 2912TIP3    H2 8701   1.317   1.890   2.275
 2913TIP3   OH2 8702   5.887   1.112   5.658
 2913TIP3    H1 8703   5.908   1.103   5.751
 2913TIP3    H2 8704   5.911   1.202   5.637
 2914TIP3   OH2 8705   2.831   3.668   0.364
 2914TIP3    H1 8706   2.824   3.577   0.335
 2914TIP3    H2 8707   2.774   3.673   0.441
 2915TIP3   OH2 8708   2.183   5.193   1.103
 2915TIP3    H1 8709   2.088   5.208   1.095
 2915TIP3    H2 8710   2.215   5.270   1.150
 2916TIP3   OH2 8711   2.739   1.967   3.734
 2916TIP3    H1 8712   2.788   1.885   3.731
 2916TIP3    H2 8713   2.766   2.008   3.817
 2917TIP3   OH2 8714   1.376   5.162   1.250
 2917TIP3    H1 8715   1.295   5.213   1.245
 2917TIP3    H2 8716   1.351   5.083   1.299
 2918TIP3   OH2 8717   3.045   5.566   5.292
 2918TIP3    H1 8718   3.097   5.512   5.352
 2918TIP3    H2 8719   3.036   5.650   5.338
 2919TIP3   OH2 8720   0.872   5.655   2.974
 2919TIP3    H1 8721   0.945   5.612   3.019
 2919TIP3    H2 8722   0.794   5.609   3.005
 2920TIP3   OH2 8723   3.923   3.147   3.040
 2920TIP3    H1 8724   3.943   3.087   2.969
 2920TIP3    H2 8725   3.996   3.208   3.042
 2921TIP3   OH2 8726   0.815   2.958   5.168
 2921TIP3    H1 8727   0.732   3.000   5.191
 2921TIP3    H2 8728   0.815   2.958   5.072
 2922TIP3   OH2 8729   2.069   5.157   0.491
 2922TIP3    H1 8730   2.083   5.068   0.457
 2922TIP3    H2 8731   2.122   5.161   0.570
 2923TIP3   OH2 8732   3.452   6.687   0.518
 2923TIP3    H1 8733   3.524   6.731   0.562
 2923TIP3    H2 8734   3.391   6.665   0.588
 2924TIP3   OH2 8735   5.032   6.153   2.275
 2924TIP3    H1 8736   5.085   6.217   2.323
 2924TIP3    H2 8737   5.006   6.090   2.342
 2925TIP3   OH2 8738   1.406   0.454   0.910
 2925TIP3    H1 8739   1.485   0.460   0.856
 2925TIP3    H2 8740   1.399   0.540   0.952
 2926TIP3   OH2 8741   3.545   4.117   0.621
 2926TIP3    H1 8742   3.532   4.042   0.562
 2926TIP3    H2 8743   3.549   4.193   0.562
 2927TIP3   OH2 8744   2.637   5.199   4.177
 2927TIP3    H1 8745   2.640   5.170   4.268
 2927TIP3    H2 8746   2.545   5.221   4.162
 2928TIP3   OH2 8747   2.970   2.281   3.642
 2928TIP3    H1 8748   2.941   2.324   3.723
 2928TIP3    H2 8749   3.027   2.345   3.600
 2929TIP3   OH2 8750   0.534   0.035   4.047
 2929TIP3    H1 8751   0.513  -0.047   4.002
 2929TIP3    H2 8752   0.596   0.009   4.116
 2930TIP3   OH2 8753   4.547   2.452   4.089
 2930TIP3    H1 8754   4.625   2.434   4.140
 2930TIP3    H2 8755   4.534   2.546   4.096
 2931TIP3   OH2 8756   2.926   0.270   3.041
 2931TIP3    H1 8757   2.971   0.192   3.010
 2931TIP3    H2 8758   2.842   0.237   3.075
 2932TIP3   OH2 8759   1.451   4.410   2.644
 2932TIP3    H1 8760   1.377   4.374   2.596
 2932TIP3    H2 8761   1.528   4.367   2.606
 2933TIP3   OH2 8762   6.931   1.089   0.823
 2933TIP3    H1 8763   6.860   1.076   0.886
 2933TIP3    H2 8764   7.007   1.046   0.864
 2934TIP3   OH2 8765   5.367   2.814   4.684
 2934TIP3    H1 8766   5.378   2.767   4.601
 2934TIP3    H2 8767   5.455   2.818   4.721
 2935TIP3   OH2 8768   0.091   2.845   1.620
 2935TIP3    H1 8769   0.176   2.800   1.628
 2935TIP3    H2 8770   0.114   2.938   1.617
 2936TIP3   OH2 8771   0.751   5.989   4.054
 2936TIP3    H1 8772   0.819   6.025   4.111
 2936TIP3    H2 8773   0.787   5.997   3.965
 2937TIP3   OH2 8774   0.473   2.096   1.494
 2937TIP3    H1 8775   0.551   2.045   1.472
 2937TIP3    H2 8776   0.460   2.152   1.418
 2938TIP3   OH2 8777   4.422   3.872   2.569
 2938TIP3    H1 8778   4.377   3.851   2.651
 2938TIP3    H2 8779   4.410   3.794   2.515
 2939TIP3   OH2 8780   2.846   5.033   5.071
 2939TIP3    H1 8781   2.841   5.118   5.115
 2939TIP3    H2 8782   2.755   5.010   5.052
 2940TIP3   OH2 8783   1.790   3.764   1.912
 2940TIP3    H1 8784   1.810   3.855   1.933
 2940TIP3    H2 8785   1.704   3.766   1.871
 2941TIP3   OH2 8786   3.979   4.768   5.676
 2941TIP3    H1 8787   3.903   4.752   5.621
 2941TIP3    H2 8788   3.962   4.853   5.717
 2942TIP3   OH2 8789   3.884   4.007   0.757
 2942TIP3    H1 8790   3.817   4.021   0.824
 2942TIP3    H2 8791   3.846   3.942   0.698
 2943TIP3   OH2 8792   2.048   6.017   1.126
 2943TIP3    H1 8793   1.956   6.045   1.137
 2943TIP3    H2 8794   2.091   6.047   1.206
 2944TIP3   OH2 8795   3.600   2.446   0.022
 2944TIP3    H1 8796   3.545   2.523   0.011
 2944TIP3    H2 8797   3.562   2.381  -0.038
 2945TIP3   OH2 8798   4.881   1.854   5.596
 2945TIP3    H1 8799   4.855   1.782   5.537
 2945TIP3    H2 8800   4.804   1.870   5.650
 2946TIP3   OH2 8801   2.516   4.073   0.837
 2946TIP3    H1 8802   2.440   4.020   0.859
 2946TIP3    H2 8803   2.550   4.103   0.921
 2947TIP3   OH2 8804   0.632   3.142   4.529
 2947TIP3    H1 8805   0.543   3.111   4.516
 2947TIP3    H2 8806   0.680   3.112   4.452
 2948TIP3   OH2 8807   3.696   4.549   3.810
 2948TIP3    H1 8808   3.606   4.573   3.832
 2948TIP3    H2 8809   3.688   4.465   3.766
 2949TIP3   OH2 8810   1.272   0.081   1.094
 2949TIP3    H1 8811   1.251   0.167   1.060
 2949TIP3    H2 8812   1.296   0.029   1.017
 2950TIP3   OH2 8813   0.732   0.226   0.529
 2950TIP3    H1 8814   0.751   0.280   0.605
 2950TIP3    H2 8815   0.792   0.258   0.461
 2951TIP3   OH2 8816   0.612   4.549   1.704
 2951TIP3    H1 8817   0.683   4.567   1.642
 2951TIP3    H2 8818   0.648   4.482   1.762
 2952TIP3   OH2 8819   1.256   4.651   5.004
 2952TIP3    H1 8820   1.349   4.634   4.986
 2952TIP3    H2 8821   1.225   4.570   5.045
 2953TIP3   OH2 8822   1.575   0.274   4.604
 2953TIP3    H1 8823   1.604   0.257   4.515
 2953TIP3    H2 8824   1.488   0.235   4.609
 2954TIP3   OH2 8825   5.578   2.289   4.589
 2954TIP3    H1 8826   5.493   2.246   4.590
 2954TIP3    H2 8827   5.613   2.275   4.677
 2955TIP3   OH2 8828   6.364   0.082   0.054
 2955TIP3    H1 8829   6.359  -0.001   0.006
 2955TIP3    H2 8830   6.280   0.125   0.036
 2956TIP3   OH2 8831   3.350   4.165   2.155
 2956TIP3    H1 8832   3.441   4.178   2.181
 2956TIP3    H2 8833   3.354   4.154   2.060
 2957TIP3   OH2 8834   2.716   0.948   3.928
 2957TIP3    H1 8835   2.708   1.005   3.852
 2957TIP3    H2 8836   2.627   0.939   3.962
 2958TIP3   OH2 8837   2.258   2.062   3.077
 2958TIP3    H1 8838   2.183   2.024   3.031
 2958TIP3    H2 8839   2.242   2.157   3.073
 2959TIP3   OH2 8840   3.457   5.316   3.360
 2959TIP3    H1 8841   3.381   5.259   3.368
 2959TIP3    H2 8842   3.458   5.343   3.268
 2960TIP3   OH2 8843   2.677   5.032   0.050
 2960TIP3    H1 8844   2.687   5.127   0.040
 2960TIP3    H2 8845   2.764   5.001   0.075
 2961TIP3   OH2 8846   2.112   0.699   4.444
 2961TIP3    H1 8847   2.156   0.615   4.437
 2961TIP3    H2 8848   2.105   0.714   4.539
 2962TIP3   OH2 8849   7.115   0.657   1.678
 2962TIP3    H1 8850   7.158   0.739   1.655
 2962TIP3    H2 8851   7.070   0.675   1.760
 2963TIP3   OH2 8852   1.587   3.800   3.242
 2963TIP3    H1 8853   1.524   3.733   3.268
 2963TIP3    H2 8854   1.608   3.780   3.151
 2964TIP3   OH2 8855   6.628   3.038   0.298
 2964TIP3    H1 8856   6.699   3.077   0.349
 2964TIP3    H2 8857   6.666   3.025   0.211
 2965TIP3   OH2 8858   1.115   6.554   2.250
 2965TIP3    H1 8859   1.070   6.504   2.318
 2965TIP3    H2 8860   1.195   6.584   2.291
 2966TIP3   OH2 8861   2.809   1.855   1.780
 2966TIP3    H1 8862   2.715   1.869   1.768
 2966TIP3    H2 8863   2.814   1.791   1.851
 2967TIP3   OH2 8864   5.063   5.836   5.160
 2967TIP3    H1 8865   4.991   5.801   5.109
 2967TIP3    H2 8866   5.123   5.873   5.095
 2968TIP3   OH2 8867   4.495   4.469   3.924
 2968TIP3    H1 8868   4.413   4.420   3.929
 2968TIP3    H2 8869   4.501   4.496   3.832
 2969TIP3   OH2 8870   6.010   3.002   5.664
 2969TIP3    H1 8871   6.075   3.018   5.595
 2969TIP3    H2 8872   5.946   2.943   5.624
 2970TIP3   OH2 8873   7.026   4.604   1.217
 2970TIP3    H1 8874   6.994   4.652   1.292
 2970TIP3    H2 8875   6.948   4.584   1.165
 2971TIP3   OH2 8876   3.558   4.421   0.236
 2971TIP3    H1 8877   3.650   4.445   0.246
 2971TIP3    H2 8878   3.535   4.450   0.147
 2972TIP3   OH2 8879   5.470   2.797   2.728
 2972TIP3    H1 8880   5.519   2.740   2.787
 2972TIP3    H2 8881   5.535   2.831   2.667
 2973TIP3   OH2 8882   3.994   3.855   1.330
 2973TIP3    H1 8883   3.921   3.839   1.390
 2973TIP3    H2 8884   3.966   3.818   1.247
 2974TIP3   OH2 8885   5.801   2.140   2.017
 2974TIP3    H1 8886   5.779   2.054   1.982
 2974TIP3    H2 8887   5.836   2.188   1.942
 2975TIP3   OH2 8888   3.875   0.486   0.345
 2975TIP3    H1 8889   3.838   0.467   0.259
 2975TIP3    H2 8890   3.969   0.495   0.330
 2976TIP3   OH2 8891   2.675   3.661   0.604
 2976TIP3    H1 8892   2.706   3.718   0.675
 2976TIP3    H2 8893   2.580   3.657   0.616
 2977TIP3   OH2 8894   2.012   4.587   3.058
 2977TIP3    H1 8895   2.104   4.604   3.036
 2977TIP3    H2 8896   2.014   4.552   3.147
 2978TIP3   OH2 8897   7.185   2.668   5.037
 2978TIP3    H1 8898   7.216   2.758   5.027
 2978TIP3    H2 8899   7.248   2.628   5.098
 2979TIP3   OH2 8900   7.028   4.406   3.755
 2979TIP3    H1 8901   6.968   4.470   3.719
 2979TIP3    H2 8902   6.995   4.389   3.844
 2980TIP3   OH2 8903   3.122   5.951   0.239
 2980TIP3    H1 8904   3.116   6.047   0.246
 2980TIP3    H2 8905   3.192   5.937   0.175
 2981TIP3   OH2 8906   4.197  -0.049   0.209
 2981TIP3    H1 8907   4.291  -0.029   0.212
 2981TIP3    H2 8908   4.191  -0.139   0.241
 2982TIP3   OH2 8909   3.002   3.033   3.704
 2982TIP3    H1 8910   3.048   3.013   3.623
 2982TIP3    H2 8911   3.043   2.976   3.770
 2983TIP3   OH2 8912   1.030   1.452   1.392
 2983TIP3    H1 8913   1.059   1.461   1.301
 2983TIP3    H2 8914   1.111   1.436   1.440
 2984TIP3   OH2 8915   5.567   4.887   1.059
 2984TIP3    H1 8916   5.544   4.864   0.970
 2984TIP3    H2 8917   5.489   4.865   1.111
 2985TIP3   OH2 8918   2.976   0.317   1.805
 2985TIP3    H1 8919   3.005   0.380   1.871
 2985TIP3    H2 8920   2.924   0.253   1.854
 2986TIP3   OH2 8921   5.651  -0.018   4.124
 2986TIP3    H1 8922   5.740  -0.047   4.142
 2986TIP3    H2 8923   5.660   0.049   4.056
 2987TIP3   OH2 8924   6.896   1.971   4.137
 2987TIP3    H1 8925   6.873   2.007   4.223
 2987TIP3    H2 8926   6.852   1.886   4.134
 2988TIP3   OH2 8927   6.758   0.049   2.934
 2988TIP3    H1 8928   6.673   0.030   2.893
 2988TIP3    H2 8929   6.802   0.107   2.871
 2989TIP3   OH2 8930   5.706   2.620   0.685
 2989TIP3    H1 8931   5.654   2.697   0.708
 2989TIP3    H2 8932   5.709   2.621   0.590
 2990TIP3   OH2 8933   2.292   2.281   0.680
 2990TIP3    H1 8934   2.325   2.288   0.590
 2990TIP3    H2 8935   2.243   2.362   0.695
 2991TIP3   OH2 8936   6.835   3.214   3.379
 2991TIP3    H1 8937   6.825   3.289   3.321
 2991TIP3    H2 8938   6.908   3.164   3.343
 2992TIP3   OH2 8939   1.654   6.313   5.807
 2992TIP3    H1 8940   1.718   6.263   5.756
 2992TIP3    H2 8941   1.611   6.247   5.862
 2993TIP3   OH2 8942   2.161   4.918   3.069
 2993TIP3    H1 8943   2.254   4.929   3.046
 2993TIP3    H2 8944   2.157   4.942   3.162
 2994TIP3   OH2 8945   3.644   6.182   2.971
 2994TIP3    H1 8946   3.708   6.155   3.037
 2994TIP3    H2 8947   3.676   6.267   2.940
 2995TIP3   OH2 8948   4.385   2.876   4.945
 2995TIP3    H1 8949   4.452   2.840   4.888
 2995TIP3    H2 8950   4.431   2.894   5.027
 2996TIP3   OH2 8951   4.474   6.225   2.348
 2996TIP3    H1 8952   4.466   6.150   2.408
 2996TIP3    H2 8953   4.410   6.288   2.381
 2997TIP3   OH2 8954   4.722   5.117   1.718
 2997TIP3    H1 8955   4.770   5.034   1.720
 2997TIP3    H2 8956   4.731   5.147   1.627
 2998TIP3   OH2 8957   6.022   5.066   2.517
 2998TIP3    H1 8958   6.094   5.040   2.575
 2998TIP3    H2 8959   6.017   4.996   2.453
 2999TIP3   OH2 8960   4.322   1.848   2.420
 2999TIP3    H1 8961   4.253   1.782   2.415
 2999TIP3    H2 8962   4.403   1.797   2.418
 3000TIP3   OH2 8963   4.531   2.426   1.571
 3000TIP3    H1 8964   4.478   2.375   1.510
 3000TIP3    H2 8965   4.570   2.360   1.629
 3001TIP3   OH2 8966   5.257   2.991   2.127
 3001TIP3    H1 8967   5.318   3.045   2.178
 3001TIP3    H2 8968   5.231   2.922   2.188
 3002TIP3   OH2 8969   1.809   2.907   1.989
 3002TIP3    H1 8970   1.900   2.927   1.966
 3002TIP3    H2 8971   1.766   2.893   1.905
 3003TIP3   OH2 8972   1.082   3.663   5.372
 3003TIP3    H1 8973   1.158   3.684   5.427
 3003TIP3    H2 8974   1.046   3.584   5.411
 3004TIP3   OH2 8975   1.955   3.618   1.313
 3004TIP3    H1 8976   2.044   3.621   1.347
 3004TIP3    H2 8977   1.903   3.666   1.377
 3005TIP3   OH2 8978   3.801  -0.005   1.127
 3005TIP3    H1 8979   3.773   0.063   1.067
 3005TIP3    H2 8980   3.720  -0.051   1.151
 3006TIP3   OH2 8981   5.199   4.552   3.095
 3006TIP3    H1 8982   5.281   4.580   3.055
 3006TIP3    H2 8983   5.133   4.563   3.026
 3007TIP3   OH2 8984   3.624   2.213   4.896
 3007TIP3    H1 8985   3.637   2.253   4.810
 3007TIP3    H2 8986   3.677   2.265   4.955
 3008TIP3   OH2 8987   1.027   1.098   3.354
 3008TIP3    H1 8988   0.954   1.159   3.344
 3008TIP3    H2 8989   0.989   1.021   3.397
 3009TIP3   OH2 8990   0.482   5.170   0.968
 3009TIP3    H1 8991   0.572   5.138   0.975
 3009TIP3    H2 8992   0.487   5.263   0.989
 3010TIP3   OH2 8993   2.477   2.225   0.048
 3010TIP3    H1 8994   2.457   2.227   0.141
 3010TIP3    H2 8995   2.429   2.149   0.015
 3011TIP3   OH2 8996   1.839   2.218   3.971
 3011TIP3    H1 8997   1.841   2.313   3.958
 3011TIP3    H2 8998   1.915   2.200   4.026
 3012TIP3   OH2 8999   7.110   4.527   2.984
 3012TIP3    H1 9000   7.052   4.587   3.031
 3012TIP3    H2 9001   7.151   4.581   2.917
 3013TIP3   OH2 9002   2.823   6.439   3.823
 3013TIP3    H1 9003   2.858   6.440   3.734
 3013TIP3    H2 9004   2.879   6.377   3.870
 3014TIP3   OH2 9005   5.176   0.824   5.544
 3014TIP3    H1 9006   5.255   0.779   5.571
 3014TIP3    H2 9007   5.155   0.787   5.458
 3015TIP3   OH2 9008   1.823   2.536   2.286
 3015TIP3    H1 9009   1.762   2.540   2.360
 3015TIP3    H2 9010   1.839   2.628   2.263
 3016TIP3   OH2 9011   2.037   5.847   3.020
 3016TIP3    H1 9012   2.102   5.790   2.978
 3016TIP3    H2 9013   2.089   5.903   3.078
 3017TIP3   OH2 9014   6.247   3.683   3.753
 3017TIP3    H1 9015   6.318   3.668   3.816
 3017TIP3    H2 9016   6.264   3.770   3.717
 3018TIP3   OH2 9017   2.942   1.339   4.949
 3018TIP3    H1 9018   2.886   1.319   4.874
 3018TIP3    H2 9019   2.929   1.432   4.965
 3019TIP3   OH2 9020   2.737   5.230   1.958
 3019TIP3    H1 9021   2.651   5.204   1.925
 3019TIP3    H2 9022   2.760   5.306   1.905
 3020TIP3   OH2 9023   1.431   0.090   1.960
 3020TIP3    H1 9024   1.370   0.111   1.889
 3020TIP3    H2 9025   1.508   0.145   1.942
 3021TIP3   OH2 9026   0.426   3.572   0.537
 3021TIP3    H1 9027   0.402   3.567   0.630
 3021TIP3    H2 9028   0.473   3.490   0.520
 3022TIP3   OH2 9029   4.935   0.289   3.530
 3022TIP3    H1 9030   4.850   0.256   3.560
 3022TIP3    H2 9031   4.931   0.383   3.547
 3023TIP3   OH2 9032   2.305   1.512   3.591
 3023TIP3    H1 9033   2.285   1.580   3.655
 3023TIP3    H2 9034   2.223   1.462   3.583
 3024TIP3   OH2 9035   7.157   6.340   4.827
 3024TIP3    H1 9036   7.163   6.285   4.748
 3024TIP3    H2 9037   7.241   6.385   4.831
 3025TIP3   OH2 9038   0.234   1.935   4.051
 3025TIP3    H1 9039   0.193   1.853   4.081
 3025TIP3    H2 9040   0.322   1.932   4.087
 3026TIP3   OH2 9041   0.714   6.552   0.872
 3026TIP3    H1 9042   0.627   6.541   0.910
 3026TIP3    H2 9043   0.742   6.463   0.851
 3027TIP3   OH2 9044   4.755   2.985   0.755
 3027TIP3    H1 9045   4.663   2.972   0.779
 3027TIP3    H2 9046   4.787   2.898   0.734
 3028TIP3   OH2 9047   0.091   4.907   1.952
 3028TIP3    H1 9048   0.008   4.948   1.926
 3028TIP3    H2 9049   0.148   4.981   1.975
 3029TIP3   OH2 9050   5.548   3.758   1.301
 3029TIP3    H1 9051   5.494   3.717   1.234
 3029TIP3    H2 9052   5.635   3.721   1.289
 3030TIP3   OH2 9053   0.405   3.988   3.839
 3030TIP3    H1 9054   0.491   3.959   3.870
 3030TIP3    H2 9055   0.420   4.076   3.805
 3031TIP3   OH2 9056   0.712   0.599   3.119
 3031TIP3    H1 9057   0.781   0.558   3.172
 3031TIP3    H2 9058   0.706   0.545   3.041
 3032TIP3   OH2 9059   4.321   4.455   5.146
 3032TIP3    H1 9060   4.369   4.528   5.107
 3032TIP3    H2 9061   4.232   4.489   5.158
 3033TIP3   OH2 9062   3.869   0.148   1.351
 3033TIP3    H1 9063   3.822   0.128   1.270
 3033TIP3    H2 9064   3.921   0.070   1.368
 3034TIP3   OH2 9065   5.205   1.823   2.222
 3034TIP3    H1 9066   5.139   1.886   2.192
 3034TIP3    H2 9067   5.198   1.749   2.162
 3035TIP3   OH2 9068   3.233   4.340   4.634
 3035TIP3    H1 9069   3.203   4.351   4.544
 3035TIP3    H2 9070   3.243   4.245   4.645
 3036TIP3   OH2 9071   6.252   1.119   4.203
 3036TIP3    H1 9072   6.310   1.193   4.188
 3036TIP3    H2 9073   6.302   1.060   4.260
 3037TIP3   OH2 9074   4.544   1.154   5.227
 3037TIP3    H1 9075   4.631   1.138   5.191
 3037TIP3    H2 9076   4.484   1.122   5.161
 3038TIP3   OH2 9077   1.870   3.868   5.556
 3038TIP3    H1 9078   1.850   3.781   5.521
 3038TIP3    H2 9079   1.942   3.853   5.618
 3039TIP3   OH2 9080   4.159   2.690   4.311
 3039TIP3    H1 9081   4.074   2.715   4.276
 3039TIP3    H2 9082   4.151   2.596   4.328
 3040TIP3   OH2 9083   6.123   3.532   4.803
 3040TIP3    H1 9084   6.085   3.452   4.840
 3040TIP3    H2 9085   6.069   3.551   4.726
 3041TIP3   OH2 9086   2.003   1.620   5.686
 3041TIP3    H1 9087   1.956   1.598   5.606
 3041TIP3    H2 9088   1.941   1.672   5.738
 3042TIP3   OH2 9089   1.618   1.347   3.766
 3042TIP3    H1 9090   1.524   1.358   3.749
 3042TIP3    H2 9091   1.659   1.358   3.681
 3043TIP3   OH2 9092   4.306   5.267   2.187
 3043TIP3    H1 9093   4.236   5.221   2.141
 3043TIP3    H2 9094   4.295   5.359   2.161
 3044TIP3   OH2 9095   3.458   2.252   1.359
 3044TIP3    H1 9096   3.398   2.326   1.356
 3044TIP3    H2 9097   3.463   2.221   1.268
 3045TIP3   OH2 9098   0.444   1.996   1.194
 3045TIP3    H1 9099   0.472   2.086   1.180
 3045TIP3    H2 9100   0.445   1.957   1.106
 3046TIP3   OH2 9101   2.355   5.474   0.575
 3046TIP3    H1 9102   2.279   5.439   0.621
 3046TIP3    H2 9103   2.401   5.526   0.642
 3047TIP3   OH2 9104   0.153   5.730   1.077
 3047TIP3    H1 9105   0.207   5.676   1.135
 3047TIP3    H2 9106   0.188   5.713   0.989
 3048TIP3   OH2 9107   3.439   2.746   1.363
 3048TIP3    H1 9108   3.432   2.756   1.458
 3048TIP3    H2 9109   3.395   2.823   1.327
 3049TIP3   OH2 9110   1.654   1.907   2.919
 3049TIP3    H1 9111   1.679   1.824   2.879
 3049TIP3    H2 9112   1.629   1.884   3.008
 3050TIP3   OH2 9113   1.253   4.001   0.629
 3050TIP3    H1 9114   1.212   3.987   0.715
 3050TIP3    H2 9115   1.194   3.959   0.567
 3051TIP3   OH2 9116   2.202   0.694   1.614
 3051TIP3    H1 9117   2.257   0.674   1.538
 3051TIP3    H2 9118   2.256   0.753   1.666
 3052TIP3   OH2 9119   4.229   2.978   2.649
 3052TIP3    H1 9120   4.162   2.910   2.658
 3052TIP3    H2 9121   4.235   2.994   2.555
 3053TIP3   OH2 9122   0.719   2.506   2.693
 3053TIP3    H1 9123   0.785   2.509   2.762
 3053TIP3    H2 9124   0.724   2.416   2.658
 3054TIP3   OH2 9125   6.378   4.541   5.092
 3054TIP3    H1 9126   6.417   4.591   5.164
 3054TIP3    H2 9127   6.440   4.551   5.020
 3055TIP3   OH2 9128   0.630   5.991   2.463
 3055TIP3    H1 9129   0.584   5.915   2.500
 3055TIP3    H2 9130   0.627   5.976   2.368
 3056TIP3   OH2 9131   3.621   5.557   3.423
 3056TIP3    H1 9132   3.602   5.577   3.331
 3056TIP3    H2 9133   3.704   5.509   3.420
 3057TIP3   OH2 9134   0.449   2.453   4.666
 3057TIP3    H1 9135   0.516   2.392   4.636
 3057TIP3    H2 9136   0.366   2.406   4.656
 3058TIP3   OH2 9137   5.285   5.618   1.473
 3058TIP3    H1 9138   5.329   5.694   1.512
 3058TIP3    H2 9139   5.232   5.582   1.543
 3059TIP3   OH2 9140   1.898   6.377   5.119
 3059TIP3    H1 9141   1.945   6.366   5.201
 3059TIP3    H2 9142   1.806   6.363   5.141
 3060TIP3   OH2 9143   4.967   0.975   1.107
 3060TIP3    H1 9144   4.989   0.998   1.017
 3060TIP3    H2 9145   4.908   1.044   1.136
 3061TIP3   OH2 9146   0.408   3.150   2.235
 3061TIP3    H1 9147   0.484   3.094   2.250
 3061TIP3    H2 9148   0.429   3.201   2.157
 3062TIP3   OH2 9149   4.559   1.327   2.079
 3062TIP3    H1 9150   4.643   1.343   2.123
 3062TIP3    H2 9151   4.530   1.242   2.112
 3063TIP3   OH2 9152   4.429   0.542   4.518
 3063TIP3    H1 9153   4.456   0.506   4.434
 3063TIP3    H2 9154   4.510   0.547   4.569
 3064TIP3   OH2 9155   3.757   2.227   0.566
 3064TIP3    H1 9156   3.736   2.138   0.539
 3064TIP3    H2 9157   3.848   2.239   0.540
 3065TIP3   OH2 9158   0.798   4.841   2.712
 3065TIP3    H1 9159   0.743   4.795   2.649
 3065TIP3    H2 9160   0.783   4.794   2.795
 3066TIP3   OH2 9161   0.242   1.699   5.673
 3066TIP3    H1 9162   0.278   1.625   5.625
 3066TIP3    H2 9163   0.263   1.681   5.765
 3067TIP3   OH2 9164   0.360   1.709   4.625
 3067TIP3    H1 9165   0.410   1.777   4.581
 3067TIP3    H2 9166   0.288   1.755   4.668
 3068TIP3   OH2 9167   3.143   3.029   1.205
 3068TIP3    H1 9168   3.099   2.949   1.233
 3068TIP3    H2 9169   3.077   3.076   1.154
 3069TIP3   OH2 9170   3.764   3.577   5.774
 3069TIP3    H1 9171   3.744   3.604   5.863
 3069TIP3    H2 9172   3.726   3.490   5.765
 3070TIP3   OH2 9173   1.794   0.286   3.949
 3070TIP3    H1 9174   1.821   0.214   4.005
 3070TIP3    H2 9175   1.844   0.361   3.981
 3071TIP3   OH2 9176   3.853   5.269   2.268
 3071TIP3    H1 9177   3.883   5.277   2.359
 3071TIP3    H2 9178   3.919   5.314   2.217
 3072TIP3   OH2 9179   3.257   4.323   1.568
 3072TIP3    H1 9180   3.181   4.371   1.599
 3072TIP3    H2 9181   3.259   4.340   1.474
 3073TIP3   OH2 9182   5.806   5.171   0.291
 3073TIP3    H1 9183   5.895   5.171   0.327
 3073TIP3    H2 9184   5.808   5.237   0.222
 3074TIP3   OH2 9185   5.317   1.733   5.651
 3074TIP3    H1 9186   5.307   1.645   5.687
 3074TIP3    H2 9187   5.307   1.723   5.557
 3075TIP3   OH2 9188   2.242   2.867   1.014
 3075TIP3    H1 9189   2.254   2.806   1.087
 3075TIP3    H2 9190   2.330   2.881   0.979
 3076TIP3   OH2 9191   4.912   6.568   5.210
 3076TIP3    H1 9192   4.960   6.535   5.134
 3076TIP3    H2 9193   4.962   6.645   5.239
 3077TIP3   OH2 9194   7.165   1.935   0.081
 3077TIP3    H1 9195   7.126   2.022   0.075
 3077TIP3    H2 9196   7.245   1.947   0.132
 3078TIP3   OH2 9197   0.512   0.315   3.973
 3078TIP3    H1 9198   0.515   0.222   3.994
 3078TIP3    H2 9199   0.434   0.348   4.018
 3079TIP3   OH2 9200   6.418   3.299   1.132
 3079TIP3    H1 9201   6.331   3.332   1.152
 3079TIP3    H2 9202   6.458   3.281   1.217
 3080TIP3   OH2 9203   0.771   3.061   4.246
 3080TIP3    H1 9204   0.823   3.128   4.201
 3080TIP3    H2 9205   0.803   2.978   4.210
 3081TIP3   OH2 9206   2.390   5.166   3.297
 3081TIP3    H1 9207   2.389   5.260   3.318
 3081TIP3    H2 9208   2.379   5.163   3.202
 3082TIP3   OH2 9209   3.574   4.112   4.358
 3082TIP3    H1 9210   3.581   4.145   4.269
 3082TIP3    H2 9211   3.535   4.184   4.408
 3083TIP3   OH2 9212   4.101   6.002   0.501
 3083TIP3    H1 9213   4.109   6.096   0.516
 3083TIP3    H2 9214   4.018   5.978   0.543
 3084TIP3   OH2 9215   5.700   6.360   2.170
 3084TIP3    H1 9216   5.698   6.375   2.265
 3084TIP3    H2 9217   5.612   6.331   2.149
 3085TIP3   OH2 9218   4.623   1.200   1.000
 3085TIP3    H1 9219   4.629   1.142   0.924
 3085TIP3    H2 9220   4.532   1.194   1.027
 3086TIP3   OH2 9221   5.080   1.675   4.277
 3086TIP3    H1 9222   5.090   1.611   4.206
 3086TIP3    H2 9223   5.103   1.627   4.356
 3087TIP3   OH2 9224   1.854   1.179   3.447
 3087TIP3    H1 9225   1.798   1.103   3.433
 3087TIP3    H2 9226   1.937   1.142   3.477
 3088TIP3   OH2 9227   4.042   0.574   4.802
 3088TIP3    H1 9228   4.020   0.663   4.829
 3088TIP3    H2 9229   4.101   0.542   4.871
 3089TIP3   OH2 9230   1.795   5.826   4.951
 3089TIP3    H1 9231   1.714   5.860   4.990
 3089TIP3    H2 9232   1.831   5.900   4.903
 3090TIP3   OH2 9233   7.103   4.098   0.627
 3090TIP3    H1 9234   7.028   4.154   0.645
 3090TIP3    H2 9235   7.157   4.103   0.706
 3091TIP3   OH2 9236   4.593   3.352   1.330
 3091TIP3    H1 9237   4.500   3.357   1.355
 3091TIP3    H2 9238   4.640   3.384   1.407
 3092TIP3   OH2 9239   5.289   2.711   4.973
 3092TIP3    H1 9240   5.196   2.694   4.989
 3092TIP3    H2 9241   5.291   2.754   4.887
 3093TIP3   OH2 9242   1.950   6.559   0.864
 3093TIP3    H1 9243   1.998   6.640   0.848
 3093TIP3    H2 9244   2.018   6.496   0.889
 3094TIP3   OH2 9245   4.866   5.088   3.271
 3094TIP3    H1 9246   4.890   5.159   3.212
 3094TIP3    H2 9247   4.869   5.009   3.217
 3095TIP3   OH2 9248   3.237   5.860   1.400
 3095TIP3    H1 9249   3.300   5.852   1.329
 3095TIP3    H2 9250   3.180   5.784   1.389
 3096TIP3   OH2 9251   4.108   5.944   2.589
 3096TIP3    H1 9252   4.161   5.965   2.666
 3096TIP3    H2 9253   4.044   6.015   2.584
 3097TIP3   OH2 9254   2.447   4.123   4.727
 3097TIP3    H1 9255   2.436   4.031   4.704
 3097TIP3    H2 9256   2.399   4.133   4.809
 3098TIP3   OH2 9257   3.090   2.714   4.751
 3098TIP3    H1 9258   3.002   2.729   4.786
 3098TIP3    H2 9259   3.078   2.712   4.656
 3099TIP3   OH2 9260   2.774   2.614   2.385
 3099TIP3    H1 9261   2.843   2.680   2.384
 3099TIP3    H2 9262   2.699   2.658   2.424
 3100TIP3   OH2 9263   5.862   3.185   1.949
 3100TIP3    H1 9264   5.866   3.196   1.854
 3100TIP3    H2 9265   5.802   3.112   1.963
 3101TIP3   OH2 9266   3.944   0.149   4.705
 3101TIP3    H1 9267   3.861   0.168   4.748
 3101TIP3    H2 9268   3.972   0.234   4.669
 3102TIP3   OH2 9269   6.338   3.922   2.452
 3102TIP3    H1 9270   6.295   3.859   2.509
 3102TIP3    H2 9271   6.293   3.915   2.369
 3103TIP3   OH2 9272   5.076   5.045   4.400
 3103TIP3    H1 9273   5.025   4.983   4.452
 3103TIP3    H2 9274   5.064   5.015   4.310
 3104TIP3   OH2 9275   3.149   6.639   3.386
 3104TIP3    H1 9276   3.202   6.629   3.466
 3104TIP3    H2 9277   3.169   6.727   3.355
 3105TIP3   OH2 9278   7.207   0.298   2.164
 3105TIP3    H1 9279   7.263   0.301   2.087
 3105TIP3    H2 9280   7.266   0.321   2.237
 3106TIP3   OH2 9281   5.515   6.673   0.284
 3106TIP3    H1 9282   5.594   6.710   0.243
 3106TIP3    H2 9283   5.549   6.614   0.351
 3107TIP3   OH2 9284   2.080   0.989   1.520
 3107TIP3    H1 9285   2.161   1.027   1.486
 3107TIP3    H2 9286   2.075   0.903   1.480
 3108TIP3   OH2 9287   2.301   4.018   0.362
 3108TIP3    H1 9288   2.328   3.935   0.323
 3108TIP3    H2 9289   2.359   4.029   0.437
 3109TIP3   OH2 9290   0.780   6.267   0.806
 3109TIP3    H1 9291   0.844   6.201   0.832
 3109TIP3    H2 9292   0.802   6.287   0.715
 3110TIP3   OH2 9293   5.007   4.768   3.989
 3110TIP3    H1 9294   4.993   4.698   3.925
 3110TIP3    H2 9295   5.025   4.722   4.071
 3111TIP3   OH2 9296   4.468   0.936   4.826
 3111TIP3    H1 9297   4.402   0.965   4.764
 3111TIP3    H2 9298   4.537   0.898   4.772
 3112TIP3   OH2 9299   6.000   4.306   0.812
 3112TIP3    H1 9300   5.996   4.214   0.839
 3112TIP3    H2 9301   5.918   4.320   0.764
 3113TIP3   OH2 9302   1.246   1.503   2.268
 3113TIP3    H1 9303   1.341   1.505   2.259
 3113TIP3    H2 9304   1.228   1.560   2.342
 3114TIP3   OH2 9305   7.091   2.650   2.294
 3114TIP3    H1 9306   7.165   2.697   2.257
 3114TIP3    H2 9307   7.014   2.696   2.259
 3115TIP3   OH2 9308   6.303   2.058   0.986
 3115TIP3    H1 9309   6.388   2.038   0.947
 3115TIP3    H2 9310   6.263   2.121   0.927
 3116TIP3   OH2 9311   0.444   2.070   2.802
 3116TIP3    H1 9312   0.405   2.025   2.727
 3116TIP3    H2 9313   0.423   2.163   2.788
 3117TIP3   OH2 9314   5.340   0.270   0.820
 3117TIP3    H1 9315   5.396   0.267   0.897
 3117TIP3    H2 9316   5.390   0.320   0.756
 3118TIP3   OH2 9317   5.369   3.072   0.683
 3118TIP3    H1 9318   5.279   3.040   0.680
 3118TIP3    H2 9319   5.383   3.098   0.773
 3119TIP3   OH2 9320   0.269   2.364   3.878
 3119TIP3    H1 9321   0.246   2.392   3.789
 3119TIP3    H2 9322   0.201   2.300   3.901
 3120TIP3   OH2 9323   5.123   3.115   3.276
 3120TIP3    H1 9324   5.211   3.120   3.312
 3120TIP3    H2 9325   5.083   3.040   3.319
 3121TIP3   OH2 9326   5.520   3.374   4.999
 3121TIP3    H1 9327   5.541   3.307   4.933
 3121TIP3    H2 9328   5.427   3.358   5.019
 3122TIP3   OH2 9329   3.631   1.709   2.076
 3122TIP3    H1 9330   3.587   1.793   2.063
 3122TIP3    H2 9331   3.572   1.660   2.133
 3123TIP3   OH2 9332   6.560   2.823   4.703
 3123TIP3    H1 9333   6.560   2.763   4.777
 3123TIP3    H2 9334   6.605   2.775   4.633
 3124TIP3   OH2 9335   6.845   0.049   1.981
 3124TIP3    H1 9336   6.764   0.001   1.964
 3124TIP3    H2 9337   6.824   0.140   1.962
 3125TIP3   OH2 9338   5.053   0.623   2.260
 3125TIP3    H1 9339   5.088   0.534   2.256
 3125TIP3    H2 9340   5.117   0.671   2.314
 3126TIP3   OH2 9341   3.054   5.143   5.341
 3126TIP3    H1 9342   2.974   5.099   5.314
 3126TIP3    H2 9343   3.071   5.206   5.271
 3127TIP3   OH2 9344   0.714   0.455   2.878
 3127TIP3    H1 9345   0.676   0.530   2.832
 3127TIP3    H2 9346   0.734   0.392   2.809
 3128TIP3   OH2 9347   2.337   3.294   5.569
 3128TIP3    H1 9348   2.368   3.204   5.581
 3128TIP3    H2 9349   2.413   3.348   5.593
 3129TIP3   OH2 9350   5.277   1.260   0.907
 3129TIP3    H1 9351   5.354   1.304   0.870
 3129TIP3    H2 9352   5.224   1.331   0.943
 3130TIP3   OH2 9353   4.448   1.949   3.465
 3130TIP3    H1 9354   4.353   1.940   3.459
 3130TIP3    H2 9355   4.481   1.889   3.398
 3131TIP3   OH2 9356   4.138   3.788   0.794
 3131TIP3    H1 9357   4.098   3.861   0.841
 3131TIP3    H2 9358   4.173   3.731   0.863
 3132TIP3   OH2 9359   1.121   2.060   0.938
 3132TIP3    H1 9360   1.176   2.113   0.879
 3132TIP3    H2 9361   1.035   2.101   0.933
 3133TIP3   OH2 9362   1.585   5.490   0.332
 3133TIP3    H1 9363   1.577   5.515   0.424
 3133TIP3    H2 9364   1.570   5.570   0.283
 3134TIP3   OH2 9365   4.629   5.629   4.052
 3134TIP3    H1 9366   4.595   5.631   4.142
 3134TIP3    H2 9367   4.679   5.709   4.043
 3135TIP3   OH2 9368   0.928   3.050   2.329
 3135TIP3    H1 9369   0.882   3.129   2.358
 3135TIP3    H2 9370   1.017   3.080   2.311
 3136TIP3   OH2 9371   3.453   1.441   3.307
 3136TIP3    H1 9372   3.486   1.383   3.376
 3136TIP3    H2 9373   3.466   1.529   3.343
 3137TIP3   OH2 9374   6.942   5.370   3.123
 3137TIP3    H1 9375   6.909   5.306   3.059
 3137TIP3    H2 9376   6.899   5.452   3.100
 3138TIP3   OH2 9377   6.974   6.355   2.176
 3138TIP3    H1 9378   7.005   6.272   2.213
 3138TIP3    H2 9379   7.016   6.422   2.229
 3139TIP3   OH2 9380   6.929   5.880   5.142
 3139TIP3    H1 9381   6.839   5.913   5.146
 3139TIP3    H2 9382   6.957   5.899   5.052
 3140TIP3   OH2 9383   2.817   2.136   5.031
 3140TIP3    H1 9384   2.821   2.041   5.036
 3140TIP3    H2 9385   2.897   2.166   5.073
 3141TIP3   OH2 9386   2.832   4.350   2.111
 3141TIP3    H1 9387   2.898   4.333   2.043
 3141TIP3    H2 9388   2.836   4.444   2.125
 3142TIP3   OH2 9389   5.594   4.770   5.593
 3142TIP3    H1 9390   5.579   4.862   5.575
 3142TIP3    H2 9391   5.548   4.754   5.676
 3143TIP3   OH2 9392   5.682   3.306   3.577
 3143TIP3    H1 9393   5.631   3.272   3.504
 3143TIP3    H2 9394   5.719   3.388   3.543
 3144TIP3   OH2 9395   4.939   2.488   1.995
 3144TIP3    H1 9396   5.016   2.540   2.017
 3144TIP3    H2 9397   4.887   2.544   1.938
 3145TIP3   OH2 9398   0.932   1.774   1.951
 3145TIP3    H1 9399   0.875   1.697   1.958
 3145TIP3    H2 9400   0.999   1.760   2.018
 3146TIP3   OH2 9401   1.973   3.175   1.889
 3146TIP3    H1 9402   1.962   3.110   1.819
 3146TIP3    H2 9403   2.057   3.153   1.929
 3147TIP3   OH2 9404   6.346   3.854   1.848
 3147TIP3    H1 9405   6.381   3.784   1.793
 3147TIP3    H2 9406   6.320   3.811   1.929
 3148TIP3   OH2 9407   2.521   6.355   3.322
 3148TIP3    H1 9408   2.454   6.329   3.259
 3148TIP3    H2 9409   2.573   6.275   3.335
 3149TIP3   OH2 9410   0.282   4.221   4.275
 3149TIP3    H1 9411   0.302   4.133   4.242
 3149TIP3    H2 9412   0.188   4.231   4.262
 3150TIP3   OH2 9413   0.021   3.722   3.768
 3150TIP3    H1 9414   0.108   3.699   3.800
 3150TIP3    H2 9415  -0.024   3.638   3.760
 3151TIP3   OH2 9416   3.346   1.920   4.741
 3151TIP3    H1 9417   3.329   1.985   4.809
 3151TIP3    H2 9418   3.267   1.921   4.686
 3152TIP3   OH2 9419   1.103   6.131   1.516
 3152TIP3    H1 9420   1.034   6.182   1.560
 3152TIP3    H2 9421   1.078   6.134   1.423
 3153TIP3   OH2 9422   2.894   0.140   1.393
 3153TIP3    H1 9423   2.802   0.117   1.406
 3153TIP3    H2 9424   2.926   0.161   1.480
 3154TIP3   OH2 9425   1.155   2.937   2.591
 3154TIP3    H1 9426   1.061   2.937   2.577
 3154TIP3    H2 9427   1.175   3.026   2.620
 3155TIP3   OH2 9428   4.148   1.341   5.475
 3155TIP3    H1 9429   4.170   1.422   5.521
 3155TIP3    H2 9430   4.130   1.370   5.385
 3156TIP3   OH2 9431   6.307   4.994   2.902
 3156TIP3    H1 9432   6.283   5.063   2.840
 3156TIP3    H2 9433   6.226   4.976   2.950
 3157TIP3   OH2 9434   1.815   2.355   0.041
 3157TIP3    H1 9435   1.762   2.307   0.104
 3157TIP3    H2 9436   1.754   2.374  -0.031
 3158TIP3   OH2 9437   7.107   1.690   2.292
 3158TIP3    H1 9438   7.100   1.784   2.309
 3158TIP3    H2 9439   7.161   1.685   2.213
 3159TIP3   OH2 9440   2.398   5.712   4.410
 3159TIP3    H1 9441   2.418   5.729   4.318
 3159TIP3    H2 9442   2.399   5.617   4.418
 3160TIP3   OH2 9443   5.427   0.497   2.150
 3160TIP3    H1 9444   5.397   0.456   2.069
 3160TIP3    H2 9445   5.523   0.492   2.145
 3161TIP3   OH2 9446   4.502   3.348   4.403
 3161TIP3    H1 9447   4.467   3.398   4.477
 3161TIP3    H2 9448   4.554   3.410   4.353
 3162TIP3   OH2 9449   5.800   2.944   2.102
 3162TIP3    H1 9450   5.818   2.865   2.153
 3162TIP3    H2 9451   5.736   2.915   2.036
 3163TIP3   OH2 9452   6.554   0.276   0.119
 3163TIP3    H1 9453   6.549   0.301   0.211
 3163TIP3    H2 9454   6.505   0.194   0.113
 3164TIP3   OH2 9455   2.730   3.631   4.238
 3164TIP3    H1 9456   2.726   3.694   4.166
 3164TIP3    H2 9457   2.753   3.548   4.197
 3165TIP3   OH2 9458   0.582   1.801   5.196
 3165TIP3    H1 9459   0.564   1.790   5.103
 3165TIP3    H2 9460   0.670   1.764   5.208
 3166TIP3   OH2 9461   4.839   6.394   0.653
 3166TIP3    H1 9462   4.751   6.376   0.686
 3166TIP3    H2 9463   4.830   6.389   0.558
 3167TIP3   OH2 9464   4.354   4.737   5.368
 3167TIP3    H1 9465   4.276   4.696   5.405
 3167TIP3    H2 9466   4.427   4.691   5.409
 3168TIP3   OH2 9467   1.762   0.351   3.044
 3168TIP3    H1 9468   1.822   0.307   3.103
 3168TIP3    H2 9469   1.760   0.442   3.076
 3169TIP3   OH2 9470   2.311   3.658   1.514
 3169TIP3    H1 9471   2.272   3.623   1.434
 3169TIP3    H2 9472   2.357   3.583   1.553
 3170TIP3   OH2 9473   2.148   0.024   1.539
 3170TIP3    H1 9474   2.074   0.023   1.601
 3170TIP3    H2 9475   2.181   0.114   1.543
 3171TIP3   OH2 9476   0.003   3.108   0.971
 3171TIP3    H1 9477   0.089   3.147   0.984
 3171TIP3    H2 9478  -0.026   3.083   1.058
 3172TIP3   OH2 9479   3.881   3.743   5.260
 3172TIP3    H1 9480   3.922   3.723   5.344
 3172TIP3    H2 9481   3.847   3.659   5.229
 3173TIP3   OH2 9482   3.310   2.756   0.680
 3173TIP3    H1 9483   3.396   2.791   0.655
 3173TIP3    H2 9484   3.327   2.704   0.759
 3174TIP3   OH2 9485   1.895   1.417   1.538
 3174TIP3    H1 9486   1.883   1.353   1.468
 3174TIP3    H2 9487   1.809   1.459   1.547
 3175TIP3   OH2 9488   6.498   6.740   1.215
 3175TIP3    H1 9489   6.511   6.703   1.128
 3175TIP3    H2 9490   6.585   6.738   1.254
 3176TIP3   OH2 9491   5.964   4.508   3.928
 3176TIP3    H1 9492   5.979   4.583   3.985
 3176TIP3    H2 9493   5.905   4.452   3.977
 3177TIP3   OH2 9494   3.110   0.188   1.611
 3177TIP3    H1 9495   3.060   0.233   1.679
 3177TIP3    H2 9496   3.197   0.175   1.650
 3178TIP3   OH2 9497   5.659   1.425   1.914
 3178TIP3    H1 9498   5.636   1.355   1.976
 3178TIP3    H2 9499   5.691   1.496   1.969
 3179TIP3   OH2 9500   6.574   4.906   4.706
 3179TIP3    H1 9501   6.503   4.860   4.660
 3179TIP3    H2 9502   6.558   4.999   4.687
 3180TIP3   OH2 9503   3.049   3.979   2.826
 3180TIP3    H1 9504   3.126   3.953   2.776
 3180TIP3    H2 9505   3.001   4.037   2.767
 3181TIP3   OH2 9506   3.785   0.448   4.888
 3181TIP3    H1 9507   3.879   0.457   4.904
 3181TIP3    H2 9508   3.775   0.359   4.854
 3182TIP3   OH2 9509   0.593   5.800   4.250
 3182TIP3    H1 9510   0.685   5.813   4.230
 3182TIP3    H2 9511   0.549   5.878   4.215
 3183TIP3   OH2 9512   3.714   3.679   0.196
 3183TIP3    H1 9513   3.653   3.614   0.162
 3183TIP3    H2 9514   3.765   3.632   0.262
 3184TIP3   OH2 9515   6.503   0.783   5.347
 3184TIP3    H1 9516   6.442   0.751   5.414
 3184TIP3    H2 9517   6.527   0.705   5.297
 3185TIP3   OH2 9518   2.540   1.581   0.883
 3185TIP3    H1 9519   2.536   1.677   0.877
 3185TIP3    H2 9520   2.467   1.550   0.829
 3186TIP3   OH2 9521   6.674   2.823   3.760
 3186TIP3    H1 9522   6.629   2.867   3.688
 3186TIP3    H2 9523   6.617   2.749   3.782
 3187TIP3   OH2 9524   1.066   5.284   1.252
 3187TIP3    H1 9525   1.084   5.205   1.201
 3187TIP3    H2 9526   0.971   5.283   1.266
 3188TIP3   OH2 9527   5.876   2.631   3.909
 3188TIP3    H1 9528   5.859   2.647   4.002
 3188TIP3    H2 9529   5.967   2.658   3.897
 3189TIP3   OH2 9530   5.602   4.748   3.864
 3189TIP3    H1 9531   5.542   4.698   3.920
 3189TIP3    H2 9532   5.652   4.681   3.817
 3190TIP3   OH2 9533   3.568   3.245   0.352
 3190TIP3    H1 9534   3.643   3.190   0.329
 3190TIP3    H2 9535   3.548   3.222   0.443
 3191TIP3   OH2 9536   5.399   4.770   1.242
 3191TIP3    H1 9537   5.318   4.725   1.219
 3191TIP3    H2 9538   5.431   4.723   1.320
 3192TIP3   OH2 9539   6.939   4.735   0.952
 3192TIP3    H1 9540   6.928   4.776   0.866
 3192TIP3    H2 9541   6.880   4.784   1.010
 3193TIP3   OH2 9542   6.106   3.650   5.050
 3193TIP3    H1 9543   6.195   3.675   5.023
 3193TIP3    H2 9544   6.067   3.614   4.970
 3194TIP3   OH2 9545   0.627   0.834   5.086
 3194TIP3    H1 9546   0.531   0.833   5.095
 3194TIP3    H2 9547   0.643   0.886   5.007
 3195TIP3   OH2 9548   5.378   3.292   2.995
 3195TIP3    H1 9549   5.323   3.366   3.020
 3195TIP3    H2 9550   5.322   3.238   2.940
 3196TIP3   OH2 9551   2.814   6.679   3.586
 3196TIP3    H1 9552   2.841   6.597   3.544
 3196TIP3    H2 9553   2.726   6.661   3.618
 3197TIP3   OH2 9554   3.391   3.729   0.563
 3197TIP3    H1 9555   3.392   3.757   0.654
 3197TIP3    H2 9556   3.478   3.691   0.548
 3198TIP3   OH2 9557   6.685   2.664   4.513
 3198TIP3    H1 9558   6.747   2.592   4.505
 3198TIP3    H2 9559   6.642   2.667   4.427
 3199TIP3   OH2 9560   5.174   3.532   4.765
 3199TIP3    H1 9561   5.111   3.598   4.796
 3199TIP3    H2 9562   5.247   3.538   4.827
 3200TIP3   OH2 9563   4.426   3.541   4.654
 3200TIP3    H1 9564   4.505   3.488   4.669
 3200TIP3    H2 9565   4.421   3.598   4.731
 3201TIP3   OH2 9566   0.453   1.562   2.178
 3201TIP3    H1 9567   0.421   1.495   2.239
 3201TIP3    H2 9568   0.413   1.540   2.094
 3202TIP3   OH2 9569   4.766   4.584   4.844
 3202TIP3    H1 9570   4.773   4.594   4.749
 3202TIP3    H2 9571   4.833   4.519   4.867
 3203TIP3   OH2 9572   2.003   1.749   5.083
 3203TIP3    H1 9573   1.945   1.686   5.039
 3203TIP3    H2 9574   2.090   1.728   5.049
 3204TIP3   OH2 9575   6.876   1.887   1.384
 3204TIP3    H1 9576   6.853   1.980   1.391
 3204TIP3    H2 9577   6.839   1.859   1.300
 3205TIP3   OH2 9578   0.408   1.996   3.392
 3205TIP3    H1 9579   0.434   1.950   3.312
 3205TIP3    H2 9580   0.473   2.066   3.402
 3206TIP3   OH2 9581   2.884   1.388   4.098
 3206TIP3    H1 9582   2.838   1.466   4.068
 3206TIP3    H2 9583   2.823   1.316   4.080
 3207TIP3   OH2 9584   2.552   5.216   4.736
 3207TIP3    H1 9585   2.582   5.244   4.650
 3207TIP3    H2 9586   2.546   5.297   4.787
 3208TIP3   OH2 9587   3.448   5.393   5.629
 3208TIP3    H1 9588   3.519   5.376   5.690
 3208TIP3    H2 9589   3.488   5.388   5.543
 3209TIP3   OH2 9590   2.174  -0.007   4.332
 3209TIP3    H1 9591   2.207  -0.090   4.296
 3209TIP3    H2 9592   2.196   0.058   4.265
 3210TIP3   OH2 9593   5.364   4.377   5.665
 3210TIP3    H1 9594   5.457   4.380   5.687
 3210TIP3    H2 9595   5.344   4.467   5.637
 3211TIP3   OH2 9596   2.755   2.112   5.921
 3211TIP3    H1 9597   2.690   2.050   5.888
 3211TIP3    H2 9598   2.839   2.071   5.901
 3212TIP3   OH2 9599   1.094   2.192   0.087
 3212TIP3    H1 9600   1.066   2.207   0.178
 3212TIP3    H2 9601   1.071   2.101   0.070
 3213TIP3   OH2 9602   3.821   5.663   1.272
 3213TIP3    H1 9603   3.893   5.707   1.228
 3213TIP3    H2 9604   3.837   5.570   1.257
 3214TIP3   OH2 9605   3.901   6.049   2.913
 3214TIP3    H1 9606   3.817   6.082   2.945
 3214TIP3    H2 9607   3.877   5.983   2.848
 3215TIP3   OH2 9608   0.105   6.269   1.773
 3215TIP3    H1 9609   0.036   6.253   1.837
 3215TIP3    H2 9610   0.071   6.339   1.718
 3216TIP3   OH2 9611   0.754   3.616   2.739
 3216TIP3    H1 9612   0.730   3.690   2.682
 3216TIP3    H2 9613   0.786   3.658   2.819
 3217TIP3   OH2 9614   2.477   1.089   4.936
 3217TIP3    H1 9615   2.484   1.100   5.031
 3217TIP3    H2 9616   2.553   1.036   4.913
 3218TIP3   OH2 9617   3.026   4.121   0.541
 3218TIP3    H1 9618   3.109   4.149   0.502
 3218TIP3    H2 9619   2.967   4.110   0.466
 3219TIP3   OH2 9620   2.684   6.434   4.611
 3219TIP3    H1 9621   2.691   6.354   4.559
 3219TIP3    H2 9622   2.696   6.505   4.548
 3220TIP3   OH2 9623   4.878   5.033   3.556
 3220TIP3    H1 9624   4.819   5.078   3.618
 3220TIP3    H2 9625   4.855   5.070   3.471
 3221TIP3   OH2 9626   3.657   2.739   5.188
 3221TIP3    H1 9627   3.584   2.714   5.130
 3221TIP3    H2 9628   3.680   2.827   5.160
 3222TIP3   OH2 9629   2.907   2.034   4.539
 3222TIP3    H1 9630   2.913   2.090   4.616
 3222TIP3    H2 9631   2.965   2.074   4.475
 3223TIP3   OH2 9632   3.064   5.918   3.648
 3223TIP3    H1 9633   2.985   5.868   3.668
 3223TIP3    H2 9634   3.102   5.938   3.733
 3224TIP3   OH2 9635   3.660   3.188   4.579
 3224TIP3    H1 9636   3.707   3.107   4.557
 3224TIP3    H2 9637   3.585   3.188   4.519
 3225TIP3   OH2 9638   1.742   1.294   3.212
 3225TIP3    H1 9639   1.766   1.267   3.301
 3225TIP3    H2 9640   1.658   1.252   3.196
 3226TIP3   OH2 9641   0.465   1.775   4.340
 3226TIP3    H1 9642   0.461   1.836   4.265
 3226TIP3    H2 9643   0.547   1.797   4.384
 3227TIP3   OH2 9644   3.351   3.746   2.540
 3227TIP3    H1 9645   3.381   3.793   2.618
 3227TIP3    H2 9646   3.389   3.795   2.467
 3228TIP3   OH2 9647   3.282   5.150   4.245
 3228TIP3    H1 9648   3.273   5.112   4.158
 3228TIP3    H2 9649   3.207   5.208   4.254
 3229TIP3   OH2 9650   4.433   4.628   1.801
 3229TIP3    H1 9651   4.354   4.629   1.854
 3229TIP3    H2 9652   4.403   4.652   1.713
 3230TIP3   OH2 9653   0.507   4.861   5.472
 3230TIP3    H1 9654   0.599   4.868   5.446
 3230TIP3    H2 9655   0.458   4.880   5.392
 3231TIP3   OH2 9656   7.121   5.205   5.804
 3231TIP3    H1 9657   7.096   5.134   5.744
 3231TIP3    H2 9658   7.184   5.164   5.864
 3232TIP3   OH2 9659   6.739   1.197   2.871
 3232TIP3    H1 9660   6.746   1.232   2.959
 3232TIP3    H2 9661   6.748   1.102   2.881
 3233TIP3   OH2 9662   5.490   5.275   5.556
 3233TIP3    H1 9663   5.470   5.345   5.619
 3233TIP3    H2 9664   5.585   5.263   5.562
 3234TIP3   OH2 9665   3.129   1.393   3.492
 3234TIP3    H1 9666   3.179   1.469   3.522
 3234TIP3    H2 9667   3.047   1.397   3.541
 3235TIP3   OH2 9668   0.940   5.864   5.605
 3235TIP3    H1 9669   0.959   5.831   5.693
 3235TIP3    H2 9670   1.026   5.871   5.563
 3236TIP3   OH2 9671   1.564   3.293   2.676
 3236TIP3    H1 9672   1.643   3.256   2.638
 3236TIP3    H2 9673   1.573   3.387   2.663
 3237TIP3   OH2 9674   6.360   5.615   2.433
 3237TIP3    H1 9675   6.408   5.678   2.486
 3237TIP3    H2 9676   6.333   5.547   2.495
 3238TIP3   OH2 9677   5.353   0.872   4.721
 3238TIP3    H1 9678   5.385   0.824   4.644
 3238TIP3    H2 9679   5.430   0.920   4.753
 3239TIP3   OH2 9680   3.590   2.785   0.130
 3239TIP3    H1 9681   3.605   2.760   0.039
 3239TIP3    H2 9682   3.495   2.781   0.140
 3240TIP3   OH2 9683   6.238   5.854   4.568
 3240TIP3    H1 9684   6.255   5.941   4.532
 3240TIP3    H2 9685   6.240   5.796   4.492
 3241TIP3   OH2 9686   2.093   4.424   5.115
 3241TIP3    H1 9687   2.026   4.403   5.178
 3241TIP3    H2 9688   2.045   4.457   5.038
 3242TIP3   OH2 9689   5.008   5.082   2.618
 3242TIP3    H1 9690   4.958   5.037   2.549
 3242TIP3    H2 9691   5.054   5.152   2.572
 3243TIP3   OH2 9692   6.281   0.266   0.802
 3243TIP3    H1 9693   6.248   0.185   0.840
 3243TIP3    H2 9694   6.288   0.249   0.708
 3244TIP3   OH2 9695   3.476   0.010   2.385
 3244TIP3    H1 9696   3.442   0.095   2.411
 3244TIP3    H2 9697   3.543  -0.011   2.450
 3245TIP3   OH2 9698   5.092   2.791   4.715
 3245TIP3    H1 9699   5.181   2.807   4.684
 3245TIP3    H2 9700   5.041   2.777   4.635
 3246TIP3   OH2 9701   5.301   6.357   4.909
 3246TIP3    H1 9702   5.268   6.389   4.825
 3246TIP3    H2 9703   5.388   6.396   4.917
 3247TIP3   OH2 9704   1.145   5.889   0.709
 3247TIP3    H1 9705   1.104   5.848   0.786
 3247TIP3    H2 9706   1.117   5.981   0.714
 3248TIP3   OH2 9707   5.892   5.213   4.979
 3248TIP3    H1 9708   5.869   5.150   5.048
 3248TIP3    H2 9709   5.964   5.170   4.931
 3249TIP3   OH2 9710   4.705   0.991   2.693
 3249TIP3    H1 9711   4.739   0.980   2.782
 3249TIP3    H2 9712   4.657   0.910   2.676
 3250TIP3   OH2 9713   2.350   2.060   4.524
 3250TIP3    H1 9714   2.285   2.118   4.486
 3250TIP3    H2 9715   2.300   1.988   4.561
 3251TIP3   OH2 9716   0.147   2.790   1.012
 3251TIP3    H1 9717   0.090   2.822   0.942
 3251TIP3    H2 9718   0.230   2.770   0.969
 3252TIP3   OH2 9719   2.530   4.752   3.468
 3252TIP3    H1 9720   2.511   4.749   3.562
 3252TIP3    H2 9721   2.526   4.845   3.446
 3253TIP3   OH2 9722   6.622   5.548   1.954
 3253TIP3    H1 9723   6.660   5.478   2.008
 3253TIP3    H2 9724   6.542   5.572   1.999
 3254TIP3   OH2 9725   4.493   5.168   4.201
 3254TIP3    H1 9726   4.586   5.145   4.202
 3254TIP3    H2 9727   4.460   5.128   4.120
 3255TIP3   OH2 9728   6.161   4.085   5.501
 3255TIP3    H1 9729   6.184   4.137   5.424
 3255TIP3    H2 9730   6.174   4.145   5.575
 3256TIP3   OH2 9731   1.648   0.127   0.403
 3256TIP3    H1 9732   1.646   0.131   0.307
 3256TIP3    H2 9733   1.722   0.183   0.428
 3257TIP3   OH2 9734   2.718   2.368   2.632
 3257TIP3    H1 9735   2.628   2.400   2.620
 3257TIP3    H2 9736   2.747   2.409   2.713
 3258TIP3   OH2 9737   2.354   0.731   4.723
 3258TIP3    H1 9738   2.415   0.780   4.669
 3258TIP3    H2 9739   2.409   0.684   4.786
 3259TIP3   OH2 9740   5.513   0.619   5.338
 3259TIP3    H1 9741   5.506   0.549   5.403
 3259TIP3    H2 9742   5.447   0.597   5.273
 3260TIP3   OH2 9743   1.879   5.825   4.301
 3260TIP3    H1 9744   1.933   5.780   4.367
 3260TIP3    H2 9745   1.814   5.760   4.276
 3261TIP3   OH2 9746   4.953   4.229   5.620
 3261TIP3    H1 9747   4.967   4.303   5.561
 3261TIP3    H2 9748   4.968   4.266   5.708
 3262TIP3   OH2 9749   5.135   4.076   4.832
 3262TIP3    H1 9750   5.160   4.165   4.808
 3262TIP3    H2 9751   5.172   4.021   4.763
 3263TIP3   OH2 9752   2.015   0.266   4.370
 3263TIP3    H1 9753   2.013   0.171   4.354
 3263TIP3    H2 9754   2.088   0.279   4.429
 3264TIP3   OH2 9755   4.536   2.946   3.657
 3264TIP3    H1 9756   4.474   3.017   3.640
 3264TIP3    H2 9757   4.517   2.881   3.589
 3265TIP3   OH2 9758   5.985   6.338   5.407
 3265TIP3    H1 9759   6.067   6.354   5.360
 3265TIP3    H2 9760   5.972   6.417   5.461
 3266TIP3   OH2 9761   2.924   4.395   0.854
 3266TIP3    H1 9762   3.010   4.369   0.822
 3266TIP3    H2 9763   2.866   4.322   0.830
 3267TIP3   OH2 9764   0.481   4.279   0.685
 3267TIP3    H1 9765   0.524   4.350   0.637
 3267TIP3    H2 9766   0.529   4.200   0.659
 3268TIP3   OH2 9767   6.765   4.351   5.500
 3268TIP3    H1 9768   6.700   4.292   5.538
 3268TIP3    H2 9769   6.730   4.371   5.413
 3269TIP3   OH2 9770   6.540   0.519   4.167
 3269TIP3    H1 9771   6.532   0.434   4.125
 3269TIP3    H2 9772   6.516   0.502   4.258
 3270TIP3   OH2 9773   3.225   3.164   3.837
 3270TIP3    H1 9774   3.160   3.114   3.787
 3270TIP3    H2 9775   3.309   3.124   3.814
 3271TIP3   OH2 9776   6.353   5.928   3.564
 3271TIP3    H1 9777   6.264   5.892   3.561
 3271TIP3    H2 9778   6.349   6.006   3.510
 3272TIP3   OH2 9779   1.313   0.276   0.225
 3272TIP3    H1 9780   1.303   0.186   0.195
 3272TIP3    H2 9781   1.303   0.271   0.320
 3273TIP3   OH2 9782   2.376   5.415   1.247
 3273TIP3    H1 9783   2.286   5.417   1.282
 3273TIP3    H2 9784   2.375   5.478   1.175
 3274TIP3   OH2 9785   3.785   0.901   3.585
 3274TIP3    H1 9786   3.794   0.926   3.677
 3274TIP3    H2 9787   3.865   0.853   3.566
 3275TIP3   OH2 9788   6.728   6.276   0.440
 3275TIP3    H1 9789   6.704   6.368   0.449
 3275TIP3    H2 9790   6.705   6.237   0.525
 3276TIP3   OH2 9791   3.576   0.533   5.594
 3276TIP3    H1 9792   3.606   0.499   5.510
 3276TIP3    H2 9793   3.540   0.457   5.639
 3277TIP3   OH2 9794   1.740   1.392   0.497
 3277TIP3    H1 9795   1.744   1.364   0.588
 3277TIP3    H2 9796   1.829   1.420   0.476
 3278TIP3   OH2 9797   2.117   3.715   5.832
 3278TIP3    H1 9798   2.115   3.735   5.738
 3278TIP3    H2 9799   2.045   3.766   5.869
 3279TIP3   OH2 9800   1.944   3.287   2.280
 3279TIP3    H1 9801   2.005   3.359   2.272
 3279TIP3    H2 9802   1.892   3.289   2.200
 3280TIP3   OH2 9803   1.630   3.377   2.944
 3280TIP3    H1 9804   1.640   3.342   2.856
 3280TIP3    H2 9805   1.536   3.381   2.959
 3281TIP3   OH2 9806   2.705   3.183   0.118
 3281TIP3    H1 9807   2.785   3.158   0.071
 3281TIP3    H2 9808   2.644   3.209   0.050
 3282TIP3   OH2 9809   0.428   1.854   3.682
 3282TIP3    H1 9810   0.394   1.907   3.611
 3282TIP3    H2 9811   0.372   1.777   3.684
 3283TIP3   OH2 9812   6.015   4.034   5.177
 3283TIP3    H1 9813   6.081   4.096   5.208
 3283TIP3    H2 9814   6.042   3.950   5.215
 3284TIP3   OH2 9815   1.889   4.599   3.966
 3284TIP3    H1 9816   1.938   4.668   4.011
 3284TIP3    H2 9817   1.908   4.520   4.017
 3285TIP3   OH2 9818  -0.046   0.670   5.422
 3285TIP3    H1 9819  -0.038   0.729   5.497
 3285TIP3    H2 9820  -0.031   0.583   5.458
 3286TIP3   OH2 9821   2.660   3.696   1.652
 3286TIP3    H1 9822   2.633   3.722   1.564
 3286TIP3    H2 9823   2.678   3.602   1.645
 3287TIP3   OH2 9824   3.372   3.488   0.918
 3287TIP3    H1 9825   3.354   3.394   0.908
 3287TIP3    H2 9826   3.304   3.531   0.865
 3288TIP3   OH2 9827   1.349   4.197   2.204
 3288TIP3    H1 9828   1.258   4.198   2.233
 3288TIP3    H2 9829   1.397   4.244   2.272
 3289TIP3   OH2 9830   3.984   2.449   0.260
 3289TIP3    H1 9831   3.935   2.531   0.265
 3289TIP3    H2 9832   3.949   2.404   0.183
 3290TIP3   OH2 9833   0.645   2.747   3.788
 3290TIP3    H1 9834   0.607   2.671   3.743
 3290TIP3    H2 9835   0.734   2.719   3.811
 3291TIP3   OH2 9836   2.179   3.500   5.048
 3291TIP3    H1 9837   2.204   3.447   5.124
 3291TIP3    H2 9838   2.112   3.447   5.004
 3292TIP3   OH2 9839   2.680   4.658   0.478
 3292TIP3    H1 9840   2.724   4.624   0.556
 3292TIP3    H2 9841   2.736   4.729   0.447
 3293TIP3   OH2 9842   2.995   3.794   0.197
 3293TIP3    H1 9843   2.929   3.749   0.249
 3293TIP3    H2 9844   2.955   3.806   0.111
 3294TIP3   OH2 9845   1.893   4.561   3.559
 3294TIP3    H1 9846   1.947   4.495   3.602
 3294TIP3    H2 9847   1.875   4.626   3.627
 3295TIP3   OH2 9848   6.882   2.646   0.064
 3295TIP3    H1 9849   6.918   2.615  -0.019
 3295TIP3    H2 9850   6.905   2.739   0.067
 3296TIP3   OH2 9851   6.464   4.521   1.685
 3296TIP3    H1 9852   6.469   4.486   1.597
 3296TIP3    H2 9853   6.469   4.444   1.742
 3297TIP3   OH2 9854   2.827   5.543   2.822
 3297TIP3    H1 9855   2.832   5.458   2.777
 3297TIP3    H2 9856   2.860   5.525   2.910
 3298TIP3   OH2 9857   2.166   0.999   0.563
 3298TIP3    H1 9858   2.127   0.962   0.642
 3298TIP3    H2 9859   2.099   0.987   0.495
 3299TIP3   OH2 9860   1.164   2.562   1.806
 3299TIP3    H1 9861   1.213   2.548   1.887
 3299TIP3    H2 9862   1.101   2.490   1.804
 3300TIP3   OH2 9863   5.306   6.640   0.609
 3300TIP3    H1 9864   5.392   6.678   0.627
 3300TIP3    H2 9865   5.316   6.595   0.525
 3301TIP3   OH2 9866   6.846   3.145   0.445
 3301TIP3    H1 9867   6.838   3.239   0.428
 3301TIP3    H2 9868   6.801   3.131   0.528
 3302TIP3   OH2 9869   6.836   4.177   0.078
 3302TIP3    H1 9870   6.747   4.151   0.103
 3302TIP3    H2 9871   6.861   4.115   0.010
 3303TIP3   OH2 9872   5.127   5.827   5.424
 3303TIP3    H1 9873   5.069   5.902   5.430
 3303TIP3    H2 9874   5.141   5.813   5.330
 3304TIP3   OH2 9875   4.973   6.205   0.022
 3304TIP3    H1 9876   4.984   6.300   0.034
 3304TIP3    H2 9877   4.882   6.195  -0.006
 3305TIP3   OH2 9878   2.347   5.042   4.817
 3305TIP3    H1 9879   2.387   5.109   4.761
 3305TIP3    H2 9880   2.306   4.981   4.756
 3306TIP3   OH2 9881   5.316   2.949   1.432
 3306TIP3    H1 9882   5.231   2.907   1.422
 3306TIP3    H2 9883   5.296   3.043   1.434
 3307TIP3   OH2 9884   1.318   2.321   1.699
 3307TIP3    H1 9885   1.387   2.388   1.698
 3307TIP3    H2 9886   1.343   2.260   1.630
 3308TIP3   OH2 9887   5.542   5.728   1.245
 3308TIP3    H1 9888   5.513   5.666   1.313
 3308TIP3    H2 9889   5.501   5.811   1.270
 3309TIP3   OH2 9890   1.859   0.104   0.671
 3309TIP3    H1 9891   1.784   0.045   0.665
 3309TIP3    H2 9892   1.828   0.186   0.631
 3310TIP3   OH2 9893   2.699   2.380   0.320
 3310TIP3    H1 9894   2.669   2.400   0.232
 3310TIP3    H2 9895   2.686   2.285   0.329
 3311TIP3   OH2 9896   5.573   4.316   1.419
 3311TIP3    H1 9897   5.569   4.223   1.397
 3311TIP3    H2 9898   5.652   4.347   1.374
 3312TIP3   OH2 9899   3.175   0.607   1.558
 3312TIP3    H1 9900   3.115   0.542   1.522
 3312TIP3    H2 9901   3.125   0.689   1.556
 3313TIP3   OH2 9902   2.977   3.179   0.026
 3313TIP3    H1 9903   3.005   3.271   0.027
 3313TIP3    H2 9904   3.053   3.131   0.058
 3314TIP3   OH2 9905   5.426   2.317   1.077
 3314TIP3    H1 9906   5.444   2.298   0.985
 3314TIP3    H2 9907   5.512   2.317   1.118
 3315TIP3   OH2 9908   5.534   4.143   2.184
 3315TIP3    H1 9909   5.463   4.116   2.242
 3315TIP3    H2 9910   5.535   4.078   2.115
 3316TIP3   OH2 9911   4.111   4.010   2.508
 3316TIP3    H1 9912   4.127   3.921   2.474
 3316TIP3    H2 9913   4.049   4.048   2.446
 3317TIP3   OH2 9914   0.364   1.421   2.744
 3317TIP3    H1 9915   0.269   1.417   2.745
 3317TIP3    H2 9916   0.390   1.378   2.663
 3318TIP3   OH2 9917   4.095   0.751   1.558
 3318TIP3    H1 9918   4.024   0.702   1.516
 3318TIP3    H2 9919   4.165   0.751   1.492
 3319TIP3   OH2 9920   2.978   6.473   5.860
 3319TIP3    H1 9921   2.928   6.542   5.904
 3319TIP3    H2 9922   2.995   6.509   5.773
 3320TIP3   OH2 9923   1.596   4.702   1.887
 3320TIP3    H1 9924   1.532   4.643   1.928
 3320TIP3    H2 9925   1.549   4.785   1.878
 3321TIP3   OH2 9926   1.774   3.278   2.070
 3321TIP3    H1 9927   1.706   3.217   2.099
 3321TIP3    H2 9928   1.828   3.227   2.010
 3322TIP3   OH2 9929   5.837   0.222   2.333
 3322TIP3    H1 9930   5.899   0.158   2.298
 3322TIP3    H2 9931   5.890   0.300   2.350
 3323TIP3   OH2 9932   0.046   3.506   0.760
 3323TIP3    H1 9933  -0.049   3.492   0.765
 3323TIP3    H2 9934   0.079   3.426   0.718
 3324TIP3   OH2 9935   1.841   5.325   2.310
 3324TIP3    H1 9936   1.840   5.421   2.309
 3324TIP3    H2 9937   1.801   5.300   2.227
 3325TIP3   OH2 9938   0.708   6.702   4.910
 3325TIP3    H1 9939   0.704   6.751   4.828
 3325TIP3    H2 9940   0.709   6.770   4.978
 3326TIP3   OH2 9941   0.461   0.508   0.503
 3326TIP3    H1 9942   0.414   0.473   0.578
 3326TIP3    H2 9943   0.397   0.563   0.457
 3327TIP3   OH2 9944   0.296   4.622   0.047
 3327TIP3    H1 9945   0.243   4.542   0.052
 3327TIP3    H2 9946   0.236   4.687   0.011
 3328TIP3   OH2 9947   1.549   2.578   5.229
 3328TIP3    H1 9948   1.609   2.566   5.302
 3328TIP3    H2 9949   1.605   2.588   5.152
 3329TIP3   OH2 9950   5.646   2.716   0.387
 3329TIP3    H1 9951   5.693   2.633   0.379
 3329TIP3    H2 9952   5.712   2.783   0.365
 3330TIP3   OH2 9953   3.237   1.987   5.367
 3330TIP3    H1 9954   3.266   2.063   5.316
 3330TIP3    H2 9955   3.302   1.919   5.347
 3331TIP3   OH2 9956   5.184   4.639   1.155
 3331TIP3    H1 9957   5.193   4.548   1.184
 3331TIP3    H2 9958   5.133   4.633   1.074
 3332TIP3   OH2 9959   4.945   0.095   1.962
 3332TIP3    H1 9960   4.945   0.169   2.022
 3332TIP3    H2 9961   4.991   0.026   2.009
 3333TIP3   OH2 9962   0.311   3.955   2.091
 3333TIP3    H1 9963   0.263   4.028   2.053
 3333TIP3    H2 9964   0.349   3.990   2.172
 3334TIP3   OH2 9965   5.178   2.699   0.762
 3334TIP3    H1 9966   5.161   2.626   0.702
 3334TIP3    H2 9967   5.199   2.657   0.845
 3335TIP3   OH2 9968   0.960   0.326   4.635
 3335TIP3    H1 9969   0.873   0.300   4.666
 3335TIP3    H2 9970   1.021   0.282   4.695
 3336TIP3   OH2 9971   2.493   0.376   1.880
 3336TIP3    H1 9972   2.470   0.382   1.788
 3336TIP3    H2 9973   2.511   0.283   1.894
 3337TIP3   OH2 9974   0.797   4.948   5.076
 3337TIP3    H1 9975   0.784   5.001   4.997
 3337TIP3    H2 9976   0.753   4.865   5.057
 3338TIP3   OH2 9977   5.948   1.693   3.106
 3338TIP3    H1 9978   5.903   1.746   3.041
 3338TIP3    H2 9979   5.979   1.617   3.058
 3339TIP3   OH2 9980   2.993   0.385   3.568
 3339TIP3    H1 9981   2.941   0.309   3.542
 3339TIP3    H2 9982   2.930   0.442   3.613
 3340TIP3   OH2 9983   4.029   1.354   0.451
 3340TIP3    H1 9984   3.946   1.309   0.437
 3340TIP3    H2 9985   4.068   1.360   0.364
 3341TIP3   OH2 9986   3.441   2.172   1.088
 3341TIP3    H1 9987   3.524   2.171   1.040
 3341TIP3    H2 9988   3.403   2.086   1.072
 3342TIP3   OH2 9989   6.415   5.754   1.989
 3342TIP3    H1 9990   6.396   5.683   2.050
 3342TIP3    H2 9991   6.405   5.715   1.903
 3343TIP3   OH2 9992   4.023   3.183   4.850
 3343TIP3    H1 9993   4.064   3.267   4.832
 3343TIP3    H2 9994   4.085   3.119   4.814
 3344TIP3   OH2 9995   4.876   3.220   4.241
 3344TIP3    H1 9996   4.850   3.228   4.149
 3344TIP3    H2 9997   4.794   3.218   4.290
 3345TIP3   OH2 9998   6.012   6.370   3.735
 3345TIP3    H1 9999   6.095   6.377   3.782
 3345TIP3    H210000   5.946   6.398   3.798
 3346TIP3   OH210001   7.104   5.671   1.088
 3346TIP3    H110002   7.194   5.696   1.108
 3346TIP3    H210003   7.111   5.583   1.052
 3347TIP3   OH210004   5.419   0.069   4.264
 3347TIP3    H110005   5.429   0.161   4.239
 3347TIP3    H210006   5.487   0.023   4.215
 3348TIP3   OH210007   4.257   0.695   0.095
 3348TIP3    H110008   4.287   0.650   0.174
 3348TIP3    H210009   4.337   0.717   0.048
 3349TIP3   OH210010   1.772   4.538   2.670
 3349TIP3    H110011   1.844   4.476   2.657
 3349TIP3    H210012   1.774   4.557   2.764
 3350TIP3   OH210013   1.911   6.414   4.041
 3350TIP3    H110014   1.942   6.325   4.022
 3350TIP3    H210015   1.824   6.401   4.078
 3351TIP3   OH210016   5.812   0.284   0.112
 3351TIP3    H110017   5.767   0.236   0.182
 3351TIP3    H210018   5.751   0.279   0.038
 3352TIP3   OH210019   7.215   2.110   3.383
 3352TIP3    H110020   7.179   2.033   3.338
 3352TIP3    H210021   7.240   2.169   3.312
 3353TIP3   OH210022   4.428   2.738   3.490
 3353TIP3    H110023   4.378   2.792   3.429
 3353TIP3    H210024   4.491   2.692   3.434
 3354TIP3   OH210025   1.051   1.363   4.324
 3354TIP3    H110026   1.083   1.294   4.382
 3354TIP3    H210027   1.008   1.316   4.252
 3355TIP3   OH210028   3.239   3.389   5.787
 3355TIP3    H110029   3.154   3.420   5.818
 3355TIP3    H210030   3.255   3.438   5.706
 3356TIP3   OH210031   4.043   0.581   3.158
 3356TIP3    H110032   4.047   0.499   3.208
 3356TIP3    H210033   3.979   0.565   3.089
 3357TIP3   OH210034   5.321   3.892   5.446
 3357TIP3    H110035   5.342   3.966   5.503
 3357TIP3    H210036   5.228   3.902   5.428
 3358TIP3   OH210037   5.001   5.535   0.769
 3358TIP3    H110038   4.975   5.607   0.711
 3358TIP3    H210039   4.918   5.502   0.804
 3359TIP3   OH210040   5.893   2.783   3.591
 3359TIP3    H110041   5.908   2.878   3.588
 3359TIP3    H210042   5.960   2.750   3.651
 3360TIP3   OH210043   6.824   2.367   0.562
 3360TIP3    H110044   6.736   2.398   0.542
 3360TIP3    H210045   6.823   2.274   0.537
 3361TIP3   OH210046   5.322   5.546   2.619
 3361TIP3    H110047   5.334   5.467   2.567
 3361TIP3    H210048   5.237   5.533   2.663
 3362TIP3   OH210049   5.835   2.667   0.126
 3362TIP3    H110050   5.918   2.668   0.174
 3362TIP3    H210051   5.830   2.580   0.087
 3363TIP3   OH210052   1.118   1.708   2.133
 3363TIP3    H110053   1.151   1.619   2.148
 3363TIP3    H210054   1.083   1.735   2.218
 3364TIP3   OH210055   1.166   4.463   3.842
 3364TIP3    H110056   1.256   4.497   3.840
 3364TIP3    H210057   1.131   4.493   3.926
 3365TIP3   OH210058   3.566   5.649   0.104
 3365TIP3    H110059   3.513   5.713   0.151
 3365TIP3    H210060   3.506   5.611   0.040
 3366TIP3   OH210061   4.234   5.777   0.392
 3366TIP3    H110062   4.211   5.831   0.467
 3366TIP3    H210063   4.316   5.734   0.416
 3367TIP3   OH210064   4.629   5.046   4.816
 3367TIP3    H110065   4.665   4.969   4.860
 3367TIP3    H210066   4.540   5.054   4.850
 3368TIP3   OH210067   6.796   2.953   0.058
 3368TIP3    H110068   6.794   2.945  -0.038
 3368TIP3    H210069   6.859   3.023   0.075
 3369TIP3   OH210070   0.189   0.881   4.227
 3369TIP3    H110071   0.164   0.968   4.196
 3369TIP3    H210072   0.119   0.855   4.287
 3370TIP3   OH210073   4.435   1.940   5.197
 3370TIP3    H110074   4.469   2.028   5.209
 3370TIP3    H210075   4.340   1.951   5.191
 3371TIP3   OH210076   6.207   3.636   0.620
 3371TIP3    H110077   6.196   3.595   0.706
 3371TIP3    H210078   6.300   3.659   0.616
 3372TIP3   OH210079   2.002   3.310   4.954
 3372TIP3    H110080   1.941   3.258   4.901
 3372TIP3    H210081   1.995   3.273   5.042
 3373TIP3   OH210082   6.495   1.141   3.897
 3373TIP3    H110083   6.580   1.184   3.901
 3373TIP3    H210084   6.504   1.065   3.953
 3374TIP3   OH210085   6.268   1.421   0.432
 3374TIP3    H110086   6.253   1.399   0.340
 3374TIP3    H210087   6.244   1.341   0.480
 3375TIP3   OH210088   3.927   3.699   0.657
 3375TIP3    H110089   4.014   3.716   0.693
 3375TIP3    H210090   3.868   3.710   0.732
 3376TIP3   OH210091   6.613   3.399   3.076
 3376TIP3    H110092   6.629   3.470   3.014
 3376TIP3    H210093   6.547   3.433   3.136
 3377TIP3   OH210094   4.476   3.744   1.178
 3377TIP3    H110095   4.553   3.778   1.132
 3377TIP3    H210096   4.454   3.812   1.242
 3378TIP3   OH210097   3.834   1.826   5.580
 3378TIP3    H110098   3.784   1.906   5.562
 3378TIP3    H210099   3.894   1.851   5.651
 3379TIP3   OH210100   4.680   3.123   5.824
 3379TIP3    H110101   4.662   3.190   5.758
 3379TIP3    H210102   4.765   3.086   5.798
 3380TIP3   OH210103   3.834   0.551   2.973
 3380TIP3    H110104   3.809   0.638   2.941
 3380TIP3    H210105   3.753   0.501   2.976
 3381TIP3   OH210106   6.778   2.700   5.422
 3381TIP3    H110107   6.816   2.632   5.478
 3381TIP3    H210108   6.685   2.699   5.442
 3382TIP3   OH210109   2.755   2.010   0.947
 3382TIP3    H110110   2.762   1.981   0.856
 3382TIP3    H210111   2.815   1.953   0.995
 3383TIP3   OH210112   2.571   5.662   1.064
 3383TIP3    H110113   2.590   5.636   1.154
 3383TIP3    H210114   2.608   5.592   1.010
 3384TIP3   OH210115   4.455   6.114   2.064
 3384TIP3    H110116   4.463   6.142   2.155
 3384TIP3    H210117   4.381   6.052   2.064
 3385TIP3   OH210118   6.227   4.720   5.538
 3385TIP3    H110119   6.228   4.806   5.495
 3385TIP3    H210120   6.134   4.701   5.549
 3386TIP3   OH210121   2.804   0.824   5.070
 3386TIP3    H110122   2.893   0.836   5.036
 3386TIP3    H210123   2.817   0.792   5.160
 3387TIP3   OH210124   5.957   6.019   5.459
 3387TIP3    H110125   5.904   6.095   5.434
 3387TIP3    H210126   5.902   5.971   5.521
 3388TIP3   OH210127   0.866   6.591   4.104
 3388TIP3    H110128   0.823   6.584   4.018
 3388TIP3    H210129   0.957   6.612   4.083
 3389TIP3   OH210130   6.881   0.151   5.286
 3389TIP3    H110131   6.952   0.104   5.242
 3389TIP3    H210132   6.922   0.233   5.315
 3390TIP3   OH210133   5.146   0.294   0.444
 3390TIP3    H110134   5.133   0.292   0.350
 3390TIP3    H210135   5.237   0.268   0.456
 3391TIP3   OH210136   6.000   5.494   5.980
 3391TIP3    H110137   5.922   5.546   5.965
 3391TIP3    H210138   5.994   5.422   5.917
 3392TIP3   OH210139   4.280   3.610   4.887
 3392TIP3    H110140   4.228   3.685   4.916
 3392TIP3    H210141   4.370   3.635   4.902
 3393TIP3   OH210142   5.406   0.854   3.295
 3393TIP3    H110143   5.415   0.878   3.387
 3393TIP3    H210144   5.378   0.935   3.252
 3394TIP3   OH210145   0.070   0.943   2.547
 3394TIP3    H110146   0.156   0.948   2.590
 3394TIP3    H210147   0.008   0.943   2.619
 3395TIP3   OH210148   6.300   1.124   5.015
 3395TIP3    H110149   6.256   1.132   5.100
 3395TIP3    H210150   6.250   1.182   4.957
 3396TIP3   OH210151   0.016   4.957   3.938
 3396TIP3    H110152  -0.057   5.018   3.949
 3396TIP3    H210153   0.079   5.006   3.885
 3397TIP3   OH210154   4.191   5.204   1.145
 3397TIP3    H110155   4.211   5.118   1.109
 3397TIP3    H210156   4.167   5.256   1.068
 3398TIP3   OH210157   1.335   6.673   3.856
 3398TIP3    H110158   1.374   6.752   3.817
 3398TIP3    H210159   1.348   6.605   3.791
 3399TIP3   OH210160   3.284   1.460   0.974
 3399TIP3    H110161   3.255   1.529   0.915
 3399TIP3    H210162   3.236   1.477   1.055
 3400TIP3   OH210163   2.350   2.924   1.736
 3400TIP3    H110164   2.403   2.998   1.766
 3400TIP3    H210165   2.414   2.859   1.707
 3401TIP3   OH210166   2.057   3.811   0.325
 3401TIP3    H110167   2.140   3.764   0.335
 3401TIP3    H210168   2.052   3.868   0.402
 3402TIP3   OH210169   5.439   0.235   2.582
 3402TIP3    H110170   5.384   0.184   2.641
 3402TIP3    H210171   5.410   0.326   2.596
 3403TIP3   OH210172   6.787   1.547   5.799
 3403TIP3    H110173   6.816   1.637   5.814
 3403TIP3    H210174   6.727   1.553   5.725
 3404TIP3   OH210175   5.451   5.608   0.456
 3404TIP3    H110176   5.370   5.624   0.504
 3404TIP3    H210177   5.432   5.531   0.402
 3405TIP3   OH210178   0.049   1.889   5.703
 3405TIP3    H110179   0.130   1.840   5.688
 3405TIP3    H210180  -0.020   1.822   5.700
 3406TIP3   OH210181   1.008   3.758   2.458
 3406TIP3    H110182   1.031   3.774   2.549
 3406TIP3    H210183   0.957   3.834   2.432
 3407TIP3   OH210184   0.809   5.109   3.506
 3407TIP3    H110185   0.832   5.180   3.565
 3407TIP3    H210186   0.717   5.090   3.525
 3408TIP3   OH210187   6.670   1.295   1.206
 3408TIP3    H110188   6.667   1.391   1.213
 3408TIP3    H210189   6.616   1.274   1.130
 3409TIP3   OH210190   5.036   0.826   4.664
 3409TIP3    H110191   5.127   0.820   4.635
 3409TIP3    H210192   5.021   0.745   4.713
 3410TIP3   OH210193   4.296   1.372   4.045
 3410TIP3    H110194   4.292   1.277   4.058
 3410TIP3    H210195   4.217   1.392   3.994
 3411TIP3   OH210196   1.663   5.913   0.660
 3411TIP3    H110197   1.735   5.909   0.723
 3411TIP3    H210198   1.643   6.006   0.653
 3412TIP3   OH210199   5.854   2.237   1.750
 3412TIP3    H110200   5.901   2.159   1.720
 3412TIP3    H210201   5.922   2.302   1.768
 3413TIP3   OH210202   1.210   0.761   0.735
 3413TIP3    H110203   1.299   0.798   0.740
 3413TIP3    H210204   1.190   0.735   0.825
 3414TIP3   OH210205   0.491   2.635   2.611
 3414TIP3    H110206   0.577   2.606   2.642
 3414TIP3    H210207   0.460   2.562   2.557
 3415TIP3   OH210208   6.064   0.113   4.303
 3415TIP3    H110209   6.156   0.113   4.277
 3415TIP3    H210210   6.043   0.206   4.316
 3416TIP3   OH210211   0.805   3.210   4.888
 3416TIP3    H110212   0.873   3.187   4.952
 3416TIP3    H210213   0.765   3.126   4.865
 3417TIP3   OH210214   0.109   4.410   2.300
 3417TIP3    H110215   0.020   4.387   2.327
 3417TIP3    H210216   0.116   4.377   2.210
 3418TIP3   OH210217   7.068   4.391   0.436
 3418TIP3    H110218   6.998   4.371   0.499
 3418TIP3    H210219   7.050   4.480   0.408
 3419TIP3   OH210220   6.039   5.468   1.357
 3419TIP3    H110221   5.956   5.444   1.398
 3419TIP3    H210222   6.018   5.477   1.265
 3420TIP3   OH210223   3.381   0.523   5.877
 3420TIP3    H110224   3.460   0.562   5.841
 3420TIP3    H210225   3.412   0.448   5.927
 3421TIP3   OH210226   6.229   0.885   1.534
 3421TIP3    H110227   6.224   0.972   1.573
 3421TIP3    H210228   6.292   0.895   1.462
 3422TIP3   OH210229   5.021   6.547   4.797
 3422TIP3    H110230   5.059   6.625   4.837
 3422TIP3    H210231   5.083   6.523   4.728
 3423TIP3   OH210232   1.987   0.666   2.758
 3423TIP3    H110233   2.045   0.594   2.782
 3423TIP3    H210234   1.974   0.714   2.839
 3424TIP3   OH210235   3.263   3.223   0.970
 3424TIP3    H110236   3.176   3.239   0.934
 3424TIP3    H210237   3.273   3.128   0.969
 3425TIP3   OH210238   2.937   1.192   5.454
 3425TIP3    H110239   3.001   1.129   5.488
 3425TIP3    H210240   2.873   1.138   5.409
 3426TIP3   OH210241   1.697   4.919   0.009
 3426TIP3    H110242   1.739   4.921  -0.077
 3426TIP3    H210243   1.603   4.923  -0.010
 3427TIP3   OH210244   4.586   5.583   3.223
 3427TIP3    H110245   4.618   5.645   3.159
 3427TIP3    H210246   4.661   5.565   3.279
 3428TIP3   OH210247   3.671   4.228   4.809
 3428TIP3    H110248   3.724   4.229   4.729
 3428TIP3    H210249   3.592   4.276   4.785
 3429TIP3   OH210250   1.877   2.764   5.350
 3429TIP3    H110251   1.839   2.837   5.300
 3429TIP3    H210252   1.967   2.791   5.367
 3430TIP3   OH210253   4.123   0.432   1.392
 3430TIP3    H110254   4.186   0.360   1.399
 3430TIP3    H210255   4.144   0.475   1.309
 3431TIP3   OH210256   3.732   4.417   1.427
 3431TIP3    H110257   3.694   4.383   1.346
 3431TIP3    H210258   3.821   4.382   1.429
 3432TIP3   OH210259   3.182   2.361   3.296
 3432TIP3    H110260   3.127   2.407   3.232
 3432TIP3    H210261   3.179   2.270   3.269
 3433TIP3   OH210262   7.129   2.636   4.429
 3433TIP3    H110263   7.219   2.669   4.438
 3433TIP3    H210264   7.082   2.707   4.384
 3434TIP3   OH210265   4.457   0.531   2.283
 3434TIP3    H110266   4.531   0.473   2.303
 3434TIP3    H210267   4.380   0.485   2.316
 3435TIP3   OH210268   5.429   0.360   1.329
 3435TIP3    H110269   5.347   0.396   1.294
 3435TIP3    H210270   5.401   0.296   1.394
 3436TIP3   OH210271   4.667   4.696   2.324
 3436TIP3    H110272   4.661   4.789   2.304
 3436TIP3    H210273   4.584   4.660   2.295
 3437TIP3   OH210274   1.521   4.725   0.665
 3437TIP3    H110275   1.476   4.695   0.586
 3437TIP3    H210276   1.614   4.706   0.648
 3438TIP3   OH210277   5.001   4.816   3.034
 3438TIP3    H110278   5.006   4.764   2.954
 3438TIP3    H210279   4.982   4.905   3.004
 3439TIP3   OH210280   0.187   5.742   4.033
 3439TIP3    H110281   0.250   5.742   4.105
 3439TIP3    H210282   0.113   5.793   4.065
 3440TIP3   OH210283   5.950   6.259   3.491
 3440TIP3    H110284   5.963   6.302   3.575
 3440TIP3    H210285   6.035   6.223   3.468
 3441TIP3   OH210286   4.180   1.420   3.485
 3441TIP3    H110287   4.170   1.379   3.571
 3441TIP3    H210288   4.203   1.511   3.505
 3442TIP3   OH210289   6.743   5.828   1.847
 3442TIP3    H110290   6.685   5.879   1.790
 3442TIP3    H210291   6.699   5.743   1.856
 3443TIP3   OH210292   5.004   2.645   3.275
 3443TIP3    H110293   4.987   2.644   3.181
 3443TIP3    H210294   5.030   2.555   3.296
 3444TIP3   OH210295   1.289   1.395   4.569
 3444TIP3    H110296   1.270   1.304   4.593
 3444TIP3    H210297   1.240   1.447   4.632
 3445TIP3   OH210298   0.738   5.472   2.052
 3445TIP3    H110299   0.747   5.557   2.094
 3445TIP3    H210300   0.772   5.485   1.964
 3446TIP3   OH210301   5.816   3.795   3.245
 3446TIP3    H110302   5.736   3.847   3.238
 3446TIP3    H210303   5.882   3.858   3.274
 3447TIP3   OH210304   4.772   3.253   3.995
 3447TIP3    H110305   4.817   3.283   3.916
 3447TIP3    H210306   4.743   3.164   3.974
 3448TIP3   OH210307   3.321   5.500   2.386
 3448TIP3    H110308   3.243   5.492   2.441
 3448TIP3    H210309   3.346   5.592   2.393
 3449TIP3   OH210310   6.557   4.929   1.639
 3449TIP3    H110311   6.627   4.968   1.691
 3449TIP3    H210312   6.516   5.003   1.595
 3450TIP3   OH210313   6.575   4.076   0.056
 3450TIP3    H110314   6.490   4.086   0.101
 3450TIP3    H210315   6.560   4.112  -0.031
 3451TIP3   OH210316   6.242   3.242   5.873
 3451TIP3    H110317   6.204   3.155   5.871
 3451TIP3    H210318   6.281   3.253   5.786
 3452TIP3   OH210319   0.729   2.609   1.979
 3452TIP3    H110320   0.755   2.537   2.036
 3452TIP3    H210321   0.810   2.658   1.963
 3453TIP3   OH210322   3.440   3.876   5.917
 3453TIP3    H110323   3.490   3.929   5.979
 3453TIP3    H210324   3.376   3.937   5.880
 3454TIP3   OH210325   0.492   1.256   3.465
 3454TIP3    H110326   0.413   1.206   3.486
 3454TIP3    H210327   0.530   1.211   3.390
 3455TIP3   OH210328   3.428   2.607   2.976
 3455TIP3    H110329   3.487   2.643   2.911
 3455TIP3    H210330   3.380   2.683   3.009
 3456TIP3   OH210331   5.794   1.816   5.751
 3456TIP3    H110332   5.716   1.765   5.772
 3456TIP3    H210333   5.813   1.864   5.832
 3457TIP3   OH210334   2.766   5.558   4.736
 3457TIP3    H110335   2.677   5.526   4.719
 3457TIP3    H210336   2.803   5.494   4.796
 3458TIP3   OH210337   6.381   3.711   0.909
 3458TIP3    H110338   6.342   3.623   0.905
 3458TIP3    H210339   6.419   3.724   0.822
 3459TIP3   OH210340   2.887   5.690   3.965
 3459TIP3    H110341   2.906   5.692   4.058
 3459TIP3    H210342   2.965   5.727   3.923
 3460TIP3   OH210343   1.370   5.108   4.066
 3460TIP3    H110344   1.276   5.093   4.055
 3460TIP3    H210345   1.394   5.054   4.141
 3461TIP3   OH210346   4.250   4.531   2.533
 3461TIP3    H110347   4.196   4.452   2.536
 3461TIP3    H210348   4.339   4.499   2.520
 3462TIP3   OH210349   0.814   0.008   5.138
 3462TIP3    H110350   0.781   0.001   5.048
 3462TIP3    H210351   0.906  -0.017   5.133
 3463TIP3   OH210352   5.514   3.885   1.559
 3463TIP3    H110353   5.493   3.860   1.469
 3463TIP3    H210354   5.431   3.877   1.606
 3464TIP3   OH210355   6.772   2.121   4.676
 3464TIP3    H110356   6.693   2.068   4.673
 3464TIP3    H210357   6.841   2.060   4.704
 3465TIP3   OH210358   2.218   3.604   2.487
 3465TIP3    H110359   2.193   3.589   2.578
 3465TIP3    H210360   2.300   3.555   2.476
 3466TIP3   OH210361   1.466   6.698   4.622
 3466TIP3    H110362   1.413   6.649   4.684
 3466TIP3    H210363   1.488   6.779   4.668
 3467TIP3   OH210364   5.097   3.125   4.568
 3467TIP3    H110365   5.009   3.111   4.533
 3467TIP3    H210366   5.153   3.068   4.516
 3468TIP3   OH210367   5.370   6.359   3.529
 3468TIP3    H110368   5.300   6.322   3.583
 3468TIP3    H210369   5.448   6.311   3.555
 3469TIP3   OH210370   2.251   5.770   1.115
 3469TIP3    H110371   2.183   5.743   1.177
 3469TIP3    H210372   2.322   5.803   1.171
 3470TIP3   OH210373   7.038   0.293   3.262
 3470TIP3    H110374   6.976   0.293   3.334
 3470TIP3    H210375   7.040   0.202   3.231
 3471TIP3   OH210376   4.415   5.274   1.307
 3471TIP3    H110377   4.354   5.273   1.233
 3471TIP3    H210378   4.447   5.185   1.314
 3472TIP3   OH210379   5.048   0.104   0.933
 3472TIP3    H110380   5.059   0.191   0.894
 3472TIP3    H210381   5.086   0.112   1.021
 3473TIP3   OH210382   2.464   0.651   2.645
 3473TIP3    H110383   2.371   0.670   2.637
 3473TIP3    H210384   2.507   0.735   2.630
 3474TIP3   OH210385   0.523   0.629   1.749
 3474TIP3    H110386   0.513   0.660   1.659
 3474TIP3    H210387   0.467   0.551   1.754
 3475TIP3   OH210388   7.002   3.507   1.027
 3475TIP3    H110389   6.935   3.476   1.089
 3475TIP3    H210390   7.066   3.552   1.081
 3476TIP3   OH210391   5.284   5.498   4.142
 3476TIP3    H110392   5.376   5.508   4.168
 3476TIP3    H210393   5.288   5.468   4.052
 3477TIP3   OH210394   4.054   4.443   5.018
 3477TIP3    H110395   4.132   4.406   4.978
 3477TIP3    H210396   4.007   4.484   4.946
 3478TIP3   OH210397   0.737   2.319   3.777
 3478TIP3    H110398   0.819   2.284   3.810
 3478TIP3    H210399   0.714   2.388   3.840
 3479TIP3   OH210400   3.587   0.575   3.815
 3479TIP3    H110401   3.664   0.518   3.816
 3479TIP3    H210402   3.615   0.653   3.862
 3480TIP3   OH210403   5.847   2.540   4.249
 3480TIP3    H110404   5.778   2.593   4.210
 3480TIP3    H210405   5.801   2.471   4.296
 3481TIP3   OH210406   2.044   0.095   1.003
 3481TIP3    H110407   2.116   0.076   1.064
 3481TIP3    H210408   1.977   0.030   1.025
 3482TIP3   OH210409   6.739   0.362   3.713
 3482TIP3    H110410   6.652   0.397   3.690
 3482TIP3    H210411   6.756   0.297   3.645
 3483TIP3   OH210412   6.897   2.736   0.559
 3483TIP3    H110413   6.805   2.758   0.545
 3483TIP3    H210414   6.924   2.692   0.478
 3484TIP3   OH210415   3.159   6.315   3.264
 3484TIP3    H110416   3.169   6.335   3.357
 3484TIP3    H210417   3.075   6.269   3.258
 3485TIP3   OH210418   1.511   2.012   4.779
 3485TIP3    H110419   1.511   2.096   4.733
 3485TIP3    H210420   1.499   2.035   4.871
 3486TIP3   OH210421   7.116   1.910   1.946
 3486TIP3    H110422   7.145   1.974   2.011
 3486TIP3    H210423   7.146   1.826   1.981
 3487TIP3   OH210424   4.285   3.991   4.550
 3487TIP3    H110425   4.313   3.900   4.538
 3487TIP3    H210426   4.316   4.014   4.638
 3488TIP3   OH210427   6.393   4.626   0.829
 3488TIP3    H110428   6.478   4.657   0.800
 3488TIP3    H210429   6.401   4.530   0.828
 3489TIP3   OH210430   5.377   2.441   2.441
 3489TIP3    H110431   5.330   2.478   2.516
 3489TIP3    H210432   5.394   2.350   2.466
 3490TIP3   OH210433   4.371   6.009   3.100
 3490TIP3    H110434   4.458   5.996   3.139
 3490TIP3    H210435   4.369   5.952   3.024
 3491TIP3   OH210436   4.126   5.087   2.041
 3491TIP3    H110437   4.109   5.028   1.968
 3491TIP3    H210438   4.092   5.040   2.118
 3492TIP3   OH210439   2.761   2.750   5.292
 3492TIP3    H110440   2.808   2.668   5.310
 3492TIP3    H210441   2.825   2.804   5.246
 3493TIP3   OH210442   3.043   4.578   0.247
 3493TIP3    H110443   3.123   4.526   0.246
 3493TIP3    H210444   3.074   4.669   0.249
 3494TIP3   OH210445   3.569   4.886   2.694
 3494TIP3    H110446   3.656   4.893   2.734
 3494TIP3    H210447   3.539   4.798   2.716
 3495TIP3   OH210448   3.964   2.856   2.899
 3495TIP3    H110449   3.869   2.858   2.902
 3495TIP3    H210450   3.985   2.837   2.808
 3496TIP3   OH210451   3.997   0.542   2.239
 3496TIP3    H110452   4.053   0.601   2.289
 3496TIP3    H210453   3.965   0.478   2.303
 3497TIP3   OH210454   7.071   0.978   0.103
 3497TIP3    H110455   7.076   0.891   0.062
 3497TIP3    H210456   6.990   1.016   0.069
 3498TIP3   OH210457   6.875   5.021   4.207
 3498TIP3    H110458   6.844   4.955   4.144
 3498TIP3    H210459   6.966   4.995   4.224
 3499TIP3   OH210460   3.411   0.905   5.237
 3499TIP3    H110461   3.358   0.984   5.228
 3499TIP3    H210462   3.349   0.836   5.260
 3500TIP3   OH210463   7.060   6.442   5.511
 3500TIP3    H110464   7.070   6.420   5.418
 3500TIP3    H210465   6.966   6.444   5.525
 3501TIP3   OH210466   4.024   4.071   2.798
 3501TIP3    H110467   4.048   4.072   2.705
 3501TIP3    H210468   3.988   4.158   2.814
 3502TIP3   OH210469   5.368   6.058   2.531
 3502TIP3    H110470   5.327   6.008   2.602
 3502TIP3    H210471   5.318   6.139   2.526
 3503TIP3   OH210472   4.682   2.924   2.380
 3503TIP3    H110473   4.661   2.968   2.462
 3503TIP3    H210474   4.681   2.831   2.401
 3504TIP3   OH210475   2.169   1.065   1.233
 3504TIP3    H110476   2.245   1.009   1.248
 3504TIP3    H210477   2.205   1.148   1.202
 3505TIP3   OH210478   0.352   0.769   0.112
 3505TIP3    H110479   0.289   0.775   0.040
 3505TIP3    H210480   0.326   0.838   0.173
 3506TIP3   OH210481   5.375   5.008   1.362
 3506TIP3    H110482   5.297   4.957   1.387
 3506TIP3    H210483   5.420   4.954   1.298
 3507TIP3   OH210484   1.941   4.752   1.688
 3507TIP3    H110485   1.889   4.676   1.710
 3507TIP3    H210486   2.026   4.736   1.729
 3508TIP3   OH210487   6.399   5.781   4.174
 3508TIP3    H110488   6.468   5.848   4.179
 3508TIP3    H210489   6.354   5.788   4.258
 3509TIP3   OH210490   0.491   1.159   2.887
 3509TIP3    H110491   0.430   1.209   2.941
 3509TIP3    H210492   0.568   1.215   2.879
 3510TIP3   OH210493   4.178   5.373   4.902
 3510TIP3    H110494   4.176   5.277   4.896
 3510TIP3    H210495   4.117   5.394   4.973
 3511TIP3   OH210496   7.232   5.634   0.390
 3511TIP3    H110497   7.295   5.600   0.326
 3511TIP3    H210498   7.155   5.658   0.339
 3512TIP3   OH210499   4.814   5.214   1.437
 3512TIP3    H110500   4.867   5.136   1.420
 3512TIP3    H210501   4.879   5.285   1.447
 3513TIP3   OH210502   1.596   6.540   5.603
 3513TIP3    H110503   1.619   6.610   5.541
 3513TIP3    H210504   1.544   6.479   5.551
 3514TIP3   OH210505   1.315   1.538   5.029
 3514TIP3    H110506   1.344   1.595   5.101
 3514TIP3    H210507   1.378   1.466   5.030
 3515TIP3   OH210508   2.494   0.921   2.664
 3515TIP3    H110509   2.547   0.958   2.735
 3515TIP3    H210510   2.404   0.946   2.686
 3516TIP3   OH210511   4.924   2.275   1.458
 3516TIP3    H110512   4.874   2.193   1.452
 3516TIP3    H210513   5.015   2.248   1.452
 3517TIP3   OH210514   6.424   6.780   0.641
 3517TIP3    H110515   6.438   6.803   0.550
 3517TIP3    H210516   6.328   6.774   0.649
 3518TIP3   OH210517   4.396   5.925   5.252
 3518TIP3    H110518   4.380   5.831   5.266
 3518TIP3    H210519   4.472   5.927   5.193
 3519TIP3   OH210520   5.383   2.525   1.404
 3519TIP3    H110521   5.321   2.536   1.331
 3519TIP3    H210522   5.330   2.535   1.483
 3520TIP3   OH210523   2.166   6.672   2.928
 3520TIP3    H110524   2.087   6.715   2.961
 3520TIP3    H210525   2.237   6.710   2.980
 3521TIP3   OH210526   0.782   1.273   0.215
 3521TIP3    H110527   0.717   1.320   0.269
 3521TIP3    H210528   0.733   1.200   0.178
 3522TIP3   OH210529   2.833   4.797   1.711
 3522TIP3    H110530   2.801   4.741   1.782
 3522TIP3    H210531   2.779   4.876   1.718
 3523TIP3   OH210532   6.308   1.249   1.212
 3523TIP3    H110533   6.331   1.341   1.201
 3523TIP3    H210534   6.312   1.212   1.124
 3524TIP3   OH210535   6.566   2.043   3.254
 3524TIP3    H110536   6.636   2.100   3.221
 3524TIP3    H210537   6.557   1.975   3.188
 3525TIP3   OH210538   7.241   5.515   3.984
 3525TIP3    H110539   7.316   5.571   4.003
 3525TIP3    H210540   7.166   5.574   3.978
 3526TIP3   OH210541   5.995   5.385   4.017
 3526TIP3    H110542   6.073   5.338   3.988
 3526TIP3    H210543   5.929   5.367   3.950
 3527TIP3   OH210544   0.422   4.382   5.077
 3527TIP3    H110545   0.375   4.402   5.158
 3527TIP3    H210546   0.511   4.362   5.106
 3528TIP3   OH210547   1.859   2.539   3.228
 3528TIP3    H110548   1.771   2.572   3.213
 3528TIP3    H210549   1.905   2.554   3.145
 3529TIP3   OH210550   4.430   1.275   2.398
 3529TIP3    H110551   4.508   1.290   2.451
 3529TIP3    H210552   4.397   1.190   2.427
 3530TIP3   OH210553   6.965   0.635   3.130
 3530TIP3    H110554   6.871   0.634   3.150
 3530TIP3    H210555   6.975   0.577   3.055
 3531TIP3   OH210556   6.327   2.432   1.988
 3531TIP3    H110557   6.353   2.348   2.026
 3531TIP3    H210558   6.356   2.498   2.051
 3532TIP3   OH210559   5.253   0.036   5.391
 3532TIP3    H110560   5.310   0.109   5.364
 3532TIP3    H210561   5.182   0.078   5.440
 3533TIP3   OH210562   5.458   3.018   0.973
 3533TIP3    H110563   5.391   2.961   1.011
 3533TIP3    H210564   5.537   2.965   0.972
 3534TIP3   OH210565   6.968   5.941   5.726
 3534TIP3    H110566   6.985   5.997   5.650
 3534TIP3    H210567   7.053   5.931   5.768
 3535TIP3   OH210568   5.027   4.589   2.851
 3535TIP3    H110569   5.026   4.638   2.769
 3535TIP3    H210570   4.953   4.529   2.844
 3536TIP3   OH210571   4.425   6.655   0.785
 3536TIP3    H110572   4.473   6.572   0.792
 3536TIP3    H210573   4.446   6.701   0.866
 3537TIP3   OH210574   4.774   0.451   5.727
 3537TIP3    H110575   4.775   0.512   5.801
 3537TIP3    H210576   4.792   0.366   5.766
 3538TIP3   OH210577   4.153   4.400   4.526
 3538TIP3    H110578   4.160   4.315   4.481
 3538TIP3    H210579   4.101   4.454   4.467
 3539TIP3   OH210580   3.412   6.409   0.372
 3539TIP3    H110581   3.371   6.484   0.330
 3539TIP3    H210582   3.349   6.381   0.439
 3540TIP3   OH210583   5.117   4.935   0.018
 3540TIP3    H110584   5.165   4.870  -0.033
 3540TIP3    H210585   5.182   5.002   0.038
 3541TIP3   OH210586   1.502   2.702   1.160
 3541TIP3    H110587   1.454   2.780   1.189
 3541TIP3    H210588   1.511   2.713   1.066
 3542TIP3   OH210589   5.738   2.458   5.773
 3542TIP3    H110590   5.683   2.490   5.701
 3542TIP3    H210591   5.728   2.363   5.770
 3543TIP3   OH210592   6.262   6.331   5.330
 3543TIP3    H110593   6.256   6.365   5.241
 3543TIP3    H210594   6.319   6.392   5.375
 3544TIP3   OH210595   1.673   2.416   5.427
 3544TIP3    H110596   1.767   2.430   5.439
 3544TIP3    H210597   1.632   2.473   5.492
 3545TIP3   OH210598   2.825   5.346   2.229
 3545TIP3    H110599   2.780   5.294   2.162
 3545TIP3    H210600   2.900   5.293   2.255
 3546TIP3   OH210601   5.701   2.364   1.550
 3546TIP3    H110602   5.746   2.316   1.619
 3546TIP3    H210603   5.768   2.418   1.509
 3547TIP3   OH210604   5.445   4.577   1.455
 3547TIP3    H110605   5.377   4.577   1.523
 3547TIP3    H210606   5.463   4.484   1.440
 3548TIP3   OH210607   3.104   1.976   2.142
 3548TIP3    H110608   3.043   2.048   2.124
 3548TIP3    H210609   3.052   1.911   2.189
 3549TIP3   OH210610   5.126   3.268   4.106
 3549TIP3    H110611   5.213   3.233   4.085
 3549TIP3    H210612   5.075   3.192   4.132
 3550TIP3   OH210613   2.105   6.335   5.708
 3550TIP3    H110614   2.132   6.414   5.662
 3550TIP3    H210615   2.184   6.282   5.715
 3551TIP3   OH210616   5.401   6.188   0.289
 3551TIP3    H110617   5.478   6.177   0.233
 3551TIP3    H210618   5.331   6.214   0.228
 3552TIP3   OH210619   5.748   2.261   2.689
 3552TIP3    H110620   5.822   2.308   2.653
 3552TIP3    H210621   5.786   2.200   2.752
 3553TIP3   OH210622   4.647   1.123   4.604
 3553TIP3    H110623   4.739   1.100   4.616
 3553TIP3    H210624   4.606   1.042   4.573
 3554TIP3   OH210625   0.197   2.613   2.399
 3554TIP3    H110626   0.164   2.677   2.336
 3554TIP3    H210627   0.285   2.645   2.421
 3555TIP3   OH210628   4.099   4.945   4.690
 3555TIP3    H110629   4.042   5.006   4.737
 3555TIP3    H210630   4.039   4.889   4.641
 3556TIP3   OH210631   3.721   3.058   3.214
 3556TIP3    H110632   3.754   3.050   3.304
 3556TIP3    H210633   3.799   3.051   3.159
 3557TIP3   OH210634   4.123   0.870   1.971
 3557TIP3    H110635   4.119   0.913   1.885
 3557TIP3    H210636   4.032   0.845   1.989
 3558TIP3   OH210637   0.309   5.158   0.726
 3558TIP3    H110638   0.266   5.076   0.702
 3558TIP3    H210639   0.389   5.132   0.772
 3559TIP3   OH210640   3.184   1.906   2.533
 3559TIP3    H110641   3.131   1.876   2.607
 3559TIP3    H210642   3.129   1.890   2.457
 3560TIP3   OH210643   0.246   6.373   2.035
 3560TIP3    H110644   0.265   6.380   1.941
 3560TIP3    H210645   0.248   6.464   2.066
 3561TIP3   OH210646   5.749   1.581   2.110
 3561TIP3    H110647   5.667   1.623   2.136
 3561TIP3    H210648   5.811   1.608   2.177
 3562TIP3   OH210649   6.823   5.305   5.377
 3562TIP3    H110650   6.742   5.275   5.334
 3562TIP3    H210651   6.796   5.379   5.430
 3563TIP3   OH210652   5.872   1.183   2.502
 3563TIP3    H110653   5.910   1.104   2.463
 3563TIP3    H210654   5.869   1.246   2.430
 3564TIP3   OH210655   2.637   6.242   4.434
 3564TIP3    H110656   2.555   6.203   4.405
 3564TIP3    H210657   2.702   6.172   4.424
 3565TIP3   OH210658   4.976   4.818   4.813
 3565TIP3    H110659   4.900   4.827   4.870
 3565TIP3    H210660   5.028   4.896   4.830
 3566TIP3   OH210661   0.152   3.912   1.178
 3566TIP3    H110662   0.109   3.974   1.236
 3566TIP3    H210663   0.133   3.944   1.090
 3567TIP3   OH210664   6.512   1.548   0.123
 3567TIP3    H110665   6.578   1.571   0.057
 3567TIP3    H210666   6.470   1.631   0.146
 3568TIP3   OH210667   4.639   6.411   4.440
 3568TIP3    H110668   4.634   6.377   4.350
 3568TIP3    H210669   4.714   6.366   4.478
 3569TIP3   OH210670   3.739   4.484   2.429
 3569TIP3    H110671   3.767   4.482   2.520
 3569TIP3    H210672   3.821   4.478   2.379
 3570TIP3   OH210673   6.430   0.881   3.531
 3570TIP3    H110674   6.357   0.928   3.571
 3570TIP3    H210675   6.406   0.874   3.438
 3571TIP3   OH210676   2.318   0.327   4.956
 3571TIP3    H110677   2.367   0.259   5.003
 3571TIP3    H210678   2.327   0.405   5.011
 3572TIP3   OH210679   3.557   6.579   4.466
 3572TIP3    H110680   3.524   6.621   4.387
 3572TIP3    H210681   3.593   6.496   4.437
 3573TIP3   OH210682   0.643   4.612   5.624
 3573TIP3    H110683   0.631   4.672   5.551
 3573TIP3    H210684   0.695   4.540   5.588
 3574TIP3   OH210685   6.188   6.039   2.285
 3574TIP3    H110686   6.234   6.014   2.365
 3574TIP3    H210687   6.140   5.961   2.259
 3575TIP3   OH210688   6.401   4.689   2.585
 3575TIP3    H110689   6.463   4.617   2.589
 3575TIP3    H210690   6.339   4.672   2.655
 3576TIP3   OH210691   5.552   0.364   3.241
 3576TIP3    H110692   5.647   0.355   3.235
 3576TIP3    H210693   5.536   0.387   3.333
 3577TIP3   OH210694   0.645   1.180   3.690
 3577TIP3    H110695   0.589   1.237   3.637
 3577TIP3    H210696   0.596   1.097   3.696
 3578TIP3   OH210697   0.541   0.795   3.222
 3578TIP3    H110698   0.484   0.833   3.156
 3578TIP3    H210699   0.594   0.731   3.174
 3579TIP3   OH210700   0.655   0.147   0.871
 3579TIP3    H110701   0.721   0.164   0.938
 3579TIP3    H210702   0.693   0.077   0.817
 3580TIP3   OH210703   1.258   2.107   1.940
 3580TIP3    H110704   1.264   2.016   1.910
 3580TIP3    H210705   1.338   2.148   1.908
 3581TIP3   OH210706   7.037   0.739   2.535
 3581TIP3    H110707   7.003   0.779   2.616
 3581TIP3    H210708   7.013   0.647   2.542
 3582TIP3   OH210709   4.759   2.065   2.043
 3582TIP3    H110710   4.784   1.976   2.068
 3582TIP3    H210711   4.842   2.113   2.037
 3583TIP3   OH210712   4.778   5.973   0.795
 3583TIP3    H110713   4.731   6.035   0.850
 3583TIP3    H210714   4.749   5.887   0.825
 3584TIP3   OH210715   6.711   0.840   1.597
 3584TIP3    H110716   6.695   0.932   1.615
 3584TIP3    H210717   6.638   0.794   1.640
 3585TIP3   OH210718   6.146   5.724   1.328
 3585TIP3    H110719   6.095   5.747   1.250
 3585TIP3    H210720   6.154   5.628   1.324
 3586TIP3   OH210721   3.153   0.669   5.880
 3586TIP3    H110722   3.082   0.605   5.884
 3586TIP3    H210723   3.231   0.617   5.864
 3587TIP3   OH210724   2.900   2.845   0.880
 3587TIP3    H110725   2.855   2.795   0.948
 3587TIP3    H210726   2.990   2.811   0.881
 3588TIP3   OH210727   4.899   0.540   3.632
 3588TIP3    H110728   4.948   0.617   3.603
 3588TIP3    H210729   4.890   0.550   3.726
 3589TIP3   OH210730   4.271   1.757   1.154
 3589TIP3    H110731   4.228   1.674   1.130
 3589TIP3    H210732   4.199   1.815   1.178
 3590TIP3   OH210733   1.224   3.533   5.578
 3590TIP3    H110734   1.248   3.441   5.567
 3590TIP3    H210735   1.132   3.531   5.605
 3591TIP3   OH210736   5.627   4.418   2.153
 3591TIP3    H110737   5.561   4.480   2.187
 3591TIP3    H210738   5.592   4.332   2.177
 3592TIP3   OH210739   6.982   2.524   4.804
 3592TIP3    H110740   7.019   2.547   4.889
 3592TIP3    H210741   6.932   2.601   4.777
 3593TIP3   OH210742   3.791   3.049   2.681
 3593TIP3    H110743   3.838   3.067   2.600
 3593TIP3    H210744   3.798   2.954   2.692
 3594TIP3   OH210745   6.941   6.009   3.402
 3594TIP3    H110746   6.947   6.034   3.310
 3594TIP3    H210747   7.030   5.979   3.425
 3595TIP3   OH210748   5.358   6.732   4.437
 3595TIP3    H110749   5.371   6.715   4.344
 3595TIP3    H210750   5.279   6.787   4.441
 3596TIP3   OH210751   4.310   5.968   0.222
 3596TIP3    H110752   4.238   5.939   0.279
 3596TIP3    H210753   4.377   5.901   0.233
 3597TIP3   OH210754   3.804   3.015   0.842
 3597TIP3    H110755   3.756   2.933   0.830
 3597TIP3    H210756   3.784   3.040   0.932
 3598TIP3   OH210757   4.266   6.056   5.030
 3598TIP3    H110758   4.317   6.014   4.961
 3598TIP3    H210759   4.294   6.011   5.110
 3599TIP3   OH210760   2.770   2.317   2.009
 3599TIP3    H110761   2.784   2.402   2.050
 3599TIP3    H210762   2.834   2.313   1.938
 3600TIP3   OH210763   2.706   1.316   3.835
 3600TIP3    H110764   2.703   1.274   3.921
 3600TIP3    H210765   2.674   1.250   3.775
 3601TIP3   OH210766   6.877   4.075   1.625
 3601TIP3    H110767   6.953   4.104   1.675
 3601TIP3    H210768   6.896   4.102   1.535
 3602TIP3   OH210769   3.433   3.771   4.224
 3602TIP3    H110770   3.345   3.734   4.219
 3602TIP3    H210771   3.457   3.789   4.133
 3603TIP3   OH210772   5.133   1.176   3.767
 3603TIP3    H110773   5.186   1.245   3.728
 3603TIP3    H210774   5.066   1.222   3.817
 3604TIP3   OH210775   0.078   5.360   2.643
 3604TIP3    H110776   0.012   5.402   2.699
 3604TIP3    H210777   0.127   5.303   2.703
 3605TIP3   OH210778   5.211   5.173   3.170
 3605TIP3    H110779   5.200   5.266   3.147
 3605TIP3    H210780   5.261   5.175   3.252
 3606TIP3   OH210781   2.357   5.989   2.433
 3606TIP3    H110782   2.431   5.936   2.406
 3606TIP3    H210783   2.280   5.944   2.398
 3607TIP3   OH210784   1.065   5.582   0.699
 3607TIP3    H110785   1.066   5.653   0.635
 3607TIP3    H210786   0.973   5.575   0.725
 3608TIP3   OH210787   0.902   6.009   2.532
 3608TIP3    H110788   0.874   6.005   2.623
 3608TIP3    H210789   0.828   6.046   2.485
 3609TIP3   OH210790   0.871   0.786   4.337
 3609TIP3    H110791   0.832   0.826   4.415
 3609TIP3    H210792   0.962   0.769   4.362
 3610TIP3   OH210793   1.971   4.628   1.151
 3610TIP3    H110794   2.062   4.635   1.124
 3610TIP3    H210795   1.950   4.715   1.186
 3611TIP3   OH210796   2.041   0.181   2.895
 3611TIP3    H110797   1.980   0.231   2.841
 3611TIP3    H210798   2.104   0.145   2.833
 3612TIP3   OH210799   5.013   2.595   5.173
 3612TIP3    H110800   5.065   2.548   5.238
 3612TIP3    H210801   4.996   2.681   5.212
 3613TIP3   OH210802   4.189   4.584   0.552
 3613TIP3    H110803   4.236   4.563   0.472
 3613TIP3    H210804   4.177   4.500   0.595
 3614TIP3   OH210805   7.069   2.866   5.311
 3614TIP3    H110806   7.007   2.808   5.355
 3614TIP3    H210807   7.015   2.918   5.251
 3615TIP3   OH210808   3.694   5.389   3.927
 3615TIP3    H110809   3.608   5.348   3.935
 3615TIP3    H210810   3.715   5.386   3.834
 3616TIP3   OH210811   4.490   5.894   3.680
 3616TIP3    H110812   4.539   5.812   3.674
 3616TIP3    H210813   4.435   5.882   3.758
 3617TIP3   OH210814   0.696   1.726   2.239
 3617TIP3    H110815   0.702   1.684   2.325
 3617TIP3    H210816   0.761   1.797   2.242
 3618TIP3   OH210817   0.100   3.721   4.155
 3618TIP3    H110818   0.065   3.706   4.243
 3618TIP3    H210819   0.185   3.678   4.156
 3619TIP3   OH210820   6.011   1.819   1.373
 3619TIP3    H110821   5.931   1.770   1.353
 3619TIP3    H210822   6.021   1.881   1.300
 3620TIP3   OH210823   1.593   1.144   5.883
 3620TIP3    H110824   1.554   1.078   5.940
 3620TIP3    H210825   1.584   1.226   5.932
 3621TIP3   OH210826   2.600   6.106   1.673
 3621TIP3    H110827   2.560   6.173   1.729
 3621TIP3    H210828   2.694   6.122   1.681
 3622TIP3   OH210829   0.554   5.226   4.181
 3622TIP3    H110830   0.505   5.236   4.262
 3622TIP3    H210831   0.644   5.210   4.209
 3623TIP3   OH210832   3.156   0.779   0.026
 3623TIP3    H110833   3.132   0.847  -0.036
 3623TIP3    H210834   3.080   0.770   0.083
 3624TIP3   OH210835   7.111   0.873   3.220
 3624TIP3    H110836   7.061   0.799   3.185
 3624TIP3    H210837   7.050   0.919   3.277
 3625TIP3   OH210838   7.100   4.703   5.197
 3625TIP3    H110839   7.044   4.739   5.129
 3625TIP3    H210840   7.124   4.616   5.166
 3626TIP3   OH210841   3.965   4.741   4.529
 3626TIP3    H110842   3.999   4.679   4.594
 3626TIP3    H210843   3.976   4.697   4.445
 3627TIP3   OH210844   1.449   2.743   4.016
 3627TIP3    H110845   1.480   2.660   4.054
 3627TIP3    H210846   1.465   2.808   4.085
 3628TIP3   OH210847   5.475   1.153   3.715
 3628TIP3    H110848   5.465   1.077   3.657
 3628TIP3    H210849   5.460   1.229   3.658
 3629TIP3   OH210850   1.036   4.921   3.786
 3629TIP3    H110851   1.106   4.857   3.791
 3629TIP3    H210852   1.044   4.972   3.866
 3630TIP3   OH210853   1.123   2.215   5.308
 3630TIP3    H110854   1.078   2.282   5.360
 3630TIP3    H210855   1.216   2.229   5.328
 3631TIP3   OH210856   0.939   0.148   3.511
 3631TIP3    H110857   0.986   0.159   3.428
 3631TIP3    H210858   0.883   0.225   3.517
 3632TIP3   OH210859   3.503   3.603   2.215
 3632TIP3    H110860   3.467   3.521   2.250
 3632TIP3    H210861   3.540   3.579   2.131
 3633TIP3   OH210862   2.472   3.148   1.277
 3633TIP3    H110863   2.511   3.235   1.274
 3633TIP3    H210864   2.387   3.161   1.320
 3634TIP3   OH210865   2.781   1.183   1.403
 3634TIP3    H110866   2.842   1.247   1.364
 3634TIP3    H210867   2.700   1.194   1.354
 3635TIP3   OH210868   1.241   2.863   3.588
 3635TIP3    H110869   1.239   2.793   3.654
 3635TIP3    H210870   1.307   2.924   3.621
 3636TIP3   OH210871   5.776   2.471   0.430
 3636TIP3    H110872   5.759   2.379   0.449
 3636TIP3    H210873   5.860   2.470   0.383
 3637TIP3   OH210874   3.016   3.467   4.584
 3637TIP3    H110875   3.091   3.493   4.637
 3637TIP3    H210876   2.988   3.383   4.621
 3638TIP3   OH210877   5.904   5.857   4.515
 3638TIP3    H110878   5.963   5.876   4.588
 3638TIP3    H210879   5.916   5.931   4.455
 3639TIP3   OH210880   5.449   6.426   2.847
 3639TIP3    H110881   5.424   6.337   2.874
 3639TIP3    H210882   5.542   6.420   2.827
 3640TIP3   OH210883   6.569   3.533   2.283
 3640TIP3    H110884   6.536   3.565   2.367
 3640TIP3    H210885   6.544   3.440   2.282
 3641TIP3   OH210886   4.066   2.005   3.825
 3641TIP3    H110887   4.124   2.019   3.900
 3641TIP3    H210888   4.002   1.941   3.855
 3642TIP3   OH210889   0.156   2.292   3.264
 3642TIP3    H110890   0.145   2.309   3.171
 3642TIP3    H210891   0.144   2.377   3.306
 3643TIP3   OH210892   5.685   0.946   0.008
 3643TIP3    H110893   5.777   0.919   0.016
 3643TIP3    H210894   5.689   1.040  -0.010
 3644TIP3   OH210895   2.333   2.165   1.913
 3644TIP3    H110896   2.370   2.233   1.969
 3644TIP3    H210897   2.273   2.212   1.855
 3645TIP3   OH210898   3.749   4.627   4.821
 3645TIP3    H110899   3.804   4.552   4.799
 3645TIP3    H210900   3.809   4.690   4.861
 3646TIP3   OH210901   6.721   5.844   5.798
 3646TIP3    H110902   6.711   5.906   5.871
 3646TIP3    H210903   6.811   5.858   5.768
 3647TIP3   OH210904   6.309   2.804   1.514
 3647TIP3    H110905   6.389   2.839   1.554
 3647TIP3    H210906   6.244   2.808   1.584
 3648TIP3   OH210907   6.463   0.523   1.899
 3648TIP3    H110908   6.495   0.434   1.912
 3648TIP3    H210909   6.542   0.577   1.897
 3649TIP3   OH210910   3.781   0.116   5.175
 3649TIP3    H110911   3.820   0.053   5.116
 3649TIP3    H210912   3.852   0.140   5.235
 3650TIP3   OH210913   5.343   6.510   5.470
 3650TIP3    H110914   5.325   6.426   5.429
 3650TIP3    H210915   5.359   6.489   5.562
 3651TIP3   OH210916   3.127   2.976   0.705
 3651TIP3    H110917   3.055   2.915   0.723
 3651TIP3    H210918   3.202   2.920   0.687
 3652TIP3   OH210919   2.507   1.545   1.169
 3652TIP3    H110920   2.487   1.636   1.191
 3652TIP3    H210921   2.530   1.548   1.076
 3653TIP3   OH210922   0.552   2.778   4.878
 3653TIP3    H110923   0.556   2.822   4.963
 3653TIP3    H210924   0.461   2.787   4.851
 3654TIP3   OH210925   1.472   3.079   3.904
 3654TIP3    H110926   1.381   3.090   3.930
 3654TIP3    H210927   1.513   3.035   3.979
 3655TIP3   OH210928   3.800   5.844   2.717
 3655TIP3    H110929   3.797   5.750   2.733
 3655TIP3    H210930   3.728   5.880   2.769
 3656TIP3   OH210931   2.893   2.969   4.588
 3656TIP3    H110932   2.807   2.928   4.600
 3656TIP3    H210933   2.954   2.906   4.626
 3657TIP3   OH210934   3.420   6.524   3.359
 3657TIP3    H110935   3.412   6.469   3.281
 3657TIP3    H210936   3.360   6.484   3.422
 3658TIP3   OH210937   0.286   1.292   3.003
 3658TIP3    H110938   0.231   1.337   3.066
 3658TIP3    H210939   0.307   1.359   2.937
 3659TIP3   OH210940   7.013   6.411   3.330
 3659TIP3    H110941   7.033   6.328   3.286
 3659TIP3    H210942   6.928   6.437   3.295
 3660TIP3   OH210943   0.224   1.629   1.683
 3660TIP3    H110944   0.279   1.704   1.664
 3660TIP3    H210945   0.260   1.558   1.629
 3661TIP3   OH210946   4.048   6.559   2.475
 3661TIP3    H110947   3.980   6.492   2.476
 3661TIP3    H210948   4.002   6.638   2.446
 3662TIP3   OH210949   5.359   3.814   2.311
 3662TIP3    H110950   5.423   3.743   2.313
 3662TIP3    H210951   5.345   3.836   2.403
 3663TIP3   OH210952   1.497   0.443   4.092
 3663TIP3    H110953   1.501   0.446   4.188
 3663TIP3    H210954   1.407   0.471   4.071
 3664TIP3   OH210955   6.741   6.732   5.710
 3664TIP3    H110956   6.826   6.772   5.694
 3664TIP3    H210957   6.759   6.659   5.770
 3665TIP3   OH210958   2.115   3.538   4.321
 3665TIP3    H110959   2.036   3.561   4.371
 3665TIP3    H210960   2.083   3.528   4.231
 3666TIP3   OH210961   0.420   6.526   4.620
 3666TIP3    H110962   0.493   6.464   4.616
 3666TIP3    H210963   0.403   6.549   4.529
 3667TIP3   OH210964   0.686   6.443   0.588
 3667TIP3    H110965   0.626   6.510   0.622
 3667TIP3    H210966   0.642   6.408   0.511
 3668TIP3   OH210967   3.908   1.560   1.662
 3668TIP3    H110968   3.869   1.611   1.732
 3668TIP3    H210969   3.893   1.611   1.582
 3669TIP3   OH210970   0.651   3.338   1.006
 3669TIP3    H110971   0.704   3.293   0.941
 3669TIP3    H210972   0.610   3.410   0.959
 3670TIP3   OH210973   3.240   1.127   4.711
 3670TIP3    H110974   3.246   1.172   4.795
 3670TIP3    H210975   3.331   1.103   4.690
 3671TIP3   OH210976   3.700   4.777   1.307
 3671TIP3    H110977   3.675   4.848   1.366
 3671TIP3    H210978   3.676   4.697   1.354
 3672TIP3   OH210979   1.866   0.942   4.714
 3672TIP3    H110980   1.819   0.938   4.631
 3672TIP3    H210981   1.930   0.871   4.710
 3673TIP3   OH210982   6.935   1.038   0.411
 3673TIP3    H110983   6.865   1.034   0.476
 3673TIP3    H210984   6.914   0.968   0.349
 3674TIP3   OH210985   2.615   0.620   1.873
 3674TIP3    H110986   2.614   0.696   1.931
 3674TIP3    H210987   2.581   0.548   1.927
 3675TIP3   OH210988   3.447   0.675   4.374
 3675TIP3    H110989   3.528   0.625   4.364
 3675TIP3    H210990   3.393   0.648   4.299
 3676TIP3   OH210991   2.526   1.062   1.029
 3676TIP3    H110992   2.558   1.145   0.994
 3676TIP3    H210993   2.604   1.006   1.031
 3677TIP3   OH210994   0.398   4.096   1.632
 3677TIP3    H110995   0.343   4.120   1.707
 3677TIP3    H210996   0.451   4.024   1.664
 3678TIP3   OH210997   6.535   5.932   2.150
 3678TIP3    H110998   6.489   5.895   2.074
 3678TIP3    H210999   6.574   5.856   2.193
 3679TIP3   OH211000   2.076   4.131   5.127
 3679TIP3    H111001   2.060   4.163   5.216
 3679TIP3    H211002   2.140   4.061   5.139
 3680TIP3   OH211003   5.756   0.074   2.042
 3680TIP3    H111004   5.698   0.010   2.000
 3680TIP3    H211005   5.697   0.142   2.075
 3681TIP3   OH211006   3.882   4.492   0.480
 3681TIP3    H111007   3.849   4.556   0.544
 3681TIP3    H211008   3.914   4.419   0.533
 3682TIP3   OH211009   2.802   3.689   4.506
 3682TIP3    H111010   2.765   3.656   4.424
 3682TIP3    H211011   2.871   3.627   4.528
 3683TIP3   OH211012   4.995   4.744   5.676
 3683TIP3    H111013   4.999   4.664   5.729
 3683TIP3    H211014   4.903   4.769   5.678
 3684TIP3   OH211015   5.285   2.257   4.846
 3684TIP3    H111016   5.304   2.279   4.755
 3684TIP3    H211017   5.364   2.281   4.894
 3685TIP3   OH211018   3.912   2.290   4.559
 3685TIP3    H111019   3.825   2.325   4.539
 3685TIP3    H211020   3.945   2.347   4.629
 3686TIP3   OH211021   0.952   0.530   5.278
 3686TIP3    H111022   0.952   0.529   5.182
 3686TIP3    H211023   0.995   0.449   5.303
 3687TIP3   OH211024   2.466   4.826   1.637
 3687TIP3    H111025   2.467   4.731   1.652
 3687TIP3    H211026   2.439   4.835   1.545
 3688TIP3   OH211027   6.899   0.784   0.628
 3688TIP3    H111028   6.826   0.783   0.690
 3688TIP3    H211029   6.974   0.810   0.682
 3689TIP3   OH211030   3.741   1.683   2.497
 3689TIP3    H111031   3.771   1.729   2.576
 3689TIP3    H211032   3.780   1.731   2.425
 3690TIP3   OH211033   1.598   3.662   3.666
 3690TIP3    H111034   1.669   3.604   3.694
 3690TIP3    H211035   1.525   3.638   3.723
 3691TIP3   OH211036   6.958   1.234   3.639
 3691TIP3    H111037   6.883   1.234   3.698
 3691TIP3    H211038   6.932   1.290   3.566
 3692TIP3   OH211039   5.336   3.831   3.037
 3692TIP3    H111040   5.320   3.922   3.011
 3692TIP3    H211041   5.251   3.799   3.067
 3693TIP3   OH211042   0.837   5.986   0.654
 3693TIP3    H111043   0.748   6.019   0.642
 3693TIP3    H211044   0.834   5.940   0.738
 3694TIP3   OH211045   3.647   3.024   1.068
 3694TIP3    H111046   3.641   3.118   1.082
 3694TIP3    H211047   3.664   2.988   1.155
 3695TIP3   OH211048   7.124   5.082   4.832
 3695TIP3    H111049   7.041   5.101   4.788
 3695TIP3    H211050   7.131   4.986   4.829
 3696TIP3   OH211051   4.223   1.547   4.593
 3696TIP3    H111052   4.231   1.566   4.499
 3696TIP3    H211053   4.252   1.456   4.601
 3697TIP3   OH211054   1.951   6.265   4.875
 3697TIP3    H111055   1.934   6.334   4.939
 3697TIP3    H211056   2.033   6.291   4.834
 3698TIP3   OH211057   4.558   3.604   4.913
 3698TIP3    H111058   4.627   3.659   4.949
 3698TIP3    H211059   4.605   3.529   4.875
 3699TIP3   OH211060   6.315   4.789   1.626
 3699TIP3    H111061   6.295   4.828   1.540
 3699TIP3    H211062   6.387   4.843   1.660
 3700TIP3   OH211063   2.418   5.118   3.018
 3700TIP3    H111064   2.446   5.076   2.937
 3700TIP3    H211065   2.477   5.194   3.027
 3701TIP3   OH211066   2.573   3.680   2.898
 3701TIP3    H111067   2.511   3.752   2.898
 3701TIP3    H211068   2.600   3.671   2.990
 3702TIP3   OH211069   1.028   5.523   3.139
 3702TIP3    H111070   1.109   5.484   3.172
 3702TIP3    H211071   0.965   5.450   3.138
 3703TIP3   OH211072   0.153   4.183   4.575
 3703TIP3    H111073   0.222   4.167   4.639
 3703TIP3    H211074   0.172   4.121   4.504
 3704TIP3   OH211075   3.187   1.872   4.492
 3704TIP3    H111076   3.093   1.890   4.502
 3704TIP3    H211077   3.203   1.882   4.399
 3705TIP3   OH211078   6.242   4.280   5.693
 3705TIP3    H111079   6.231   4.367   5.731
 3705TIP3    H211080   6.301   4.234   5.753
 3706TIP3   OH211081   4.257   6.154   5.340
 3706TIP3    H111082   4.188   6.103   5.383
 3706TIP3    H211083   4.315   6.089   5.300
 3707TIP3   OH211084   4.163   0.355   4.346
 3707TIP3    H111085   4.215   0.302   4.407
 3707TIP3    H211086   4.182   0.445   4.370
 3708TIP3   OH211087   4.508   4.198   5.863
 3708TIP3    H111088   4.594   4.167   5.893
 3708TIP3    H211089   4.492   4.150   5.782
 3709TIP3   OH211090   1.965   6.611   2.754
 3709TIP3    H111091   1.995   6.665   2.681
 3709TIP3    H211092   2.042   6.603   2.811
 3710TIP3   OH211093   4.281   0.155   3.226
 3710TIP3    H111094   4.234   0.192   3.151
 3710TIP3    H211095   4.366   0.129   3.191
 3711TIP3   OH211096   0.724   1.607   1.986
 3711TIP3    H111097   0.732   1.598   2.081
 3711TIP3    H211098   0.658   1.541   1.962
 3712TIP3   OH211099   3.344   0.707   5.633
 3712TIP3    H111100   3.431   0.671   5.619
 3712TIP3    H211101   3.347   0.746   5.720
 3713TIP3   OH211102   1.496   4.009   4.224
 3713TIP3    H111103   1.416   4.018   4.275
 3713TIP3    H211104   1.466   4.009   4.133
 3714TIP3   OH211105   2.779   3.204   0.761
 3714TIP3    H111106   2.797   3.298   0.754
 3714TIP3    H211107   2.689   3.200   0.793
 3715TIP3   OH211108   4.162   2.707   4.584
 3715TIP3    H111109   4.157   2.694   4.490
 3715TIP3    H211110   4.088   2.764   4.605
 3716TIP3   OH211111   3.180   3.072   2.842
 3716TIP3    H111112   3.103   3.046   2.791
 3716TIP3    H211113   3.254   3.049   2.786
 3717TIP3   OH211114   0.130   3.091   2.200
 3717TIP3    H111115   0.151   3.168   2.147
 3717TIP3    H211116   0.199   3.089   2.266
 3718TIP3   OH211117   3.658   2.467   5.180
 3718TIP3    H111118   3.609   2.445   5.259
 3718TIP3    H211119   3.670   2.562   5.184
 3719TIP3   OH211120   3.925   1.557   4.221
 3719TIP3    H111121   3.918   1.509   4.138
 3719TIP3    H211122   3.968   1.639   4.197
 3720TIP3   OH211123   3.270   3.741   5.338
 3720TIP3    H111124   3.252   3.799   5.264
 3720TIP3    H211125   3.300   3.800   5.407
 3721TIP3   OH211126   6.854   2.016   3.455
 3721TIP3    H111127   6.765   2.014   3.491
 3721TIP3    H211128   6.849   2.079   3.384
 3722TIP3   OH211129   5.609   2.068   4.251
 3722TIP3    H111130   5.584   2.053   4.343
 3722TIP3    H211131   5.674   2.000   4.233
 3723TIP3   OH211132   5.728   0.249   2.811
 3723TIP3    H111133   5.746   0.166   2.766
 3723TIP3    H211134   5.644   0.234   2.854
 3724TIP3   OH211135   2.156   2.041   0.731
 3724TIP3    H111136   2.151   2.016   0.639
 3724TIP3    H211137   2.170   2.136   0.729
 3725TIP3   OH211138   6.233   0.283   5.599
 3725TIP3    H111139   6.316   0.259   5.558
 3725TIP3    H211140   6.258   0.342   5.671
 3726TIP3   OH211141   1.477   6.406   4.155
 3726TIP3    H111142   1.383   6.424   4.147
 3726TIP3    H211143   1.499   6.355   4.077
 3727TIP3   OH211144   6.971   1.132   5.045
 3727TIP3    H111145   7.062   1.158   5.031
 3727TIP3    H211146   6.921   1.185   4.983
 3728TIP3   OH211147   5.624   5.046   2.209
 3728TIP3    H111148   5.659   5.063   2.296
 3728TIP3    H211149   5.634   5.129   2.163
 3729TIP3   OH211150   2.931   0.695   0.666
 3729TIP3    H111151   3.006   0.639   0.688
 3729TIP3    H211152   2.871   0.684   0.740
 3730TIP3   OH211153   5.881   2.566   4.906
 3730TIP3    H111154   5.850   2.651   4.938
 3730TIP3    H211155   5.937   2.532   4.975
 3731TIP3   OH211156   1.599   2.794   3.770
 3731TIP3    H111157   1.668   2.845   3.813
 3731TIP3    H211158   1.528   2.792   3.835
 3732TIP3   OH211159   3.534   2.567   3.642
 3732TIP3    H111160   3.599   2.504   3.674
 3732TIP3    H211161   3.488   2.520   3.572
 3733TIP3   OH211162   1.935   5.973   4.532
 3733TIP3    H111163   1.906   5.939   4.447
 3733TIP3    H211164   2.011   5.918   4.554
 3734TIP3   OH211165   2.887   2.421   3.849
 3734TIP3    H111166   2.821   2.447   3.913
 3734TIP3    H211167   2.929   2.503   3.822
 3735TIP3   OH211168   5.867   3.279   4.147
 3735TIP3    H111169   5.951   3.300   4.189
 3735TIP3    H211170   5.804   3.338   4.187
 3736TIP3   OH211171   7.096   2.709   0.752
 3736TIP3    H111172   7.050   2.704   0.668
 3736TIP3    H211173   7.107   2.618   0.779
 3737TIP3   OH211174   3.607   5.556   1.571
 3737TIP3    H111175   3.597   5.493   1.500
 3737TIP3    H211176   3.635   5.504   1.646
 3738TIP3   OH211177   3.211   3.897   5.137
 3738TIP3    H111178   3.157   3.949   5.197
 3738TIP3    H211179   3.237   3.958   5.069
 3739TIP3   OH211180   6.639   6.669   0.195
 3739TIP3    H111181   6.683   6.752   0.177
 3739TIP3    H211182   6.560   6.673   0.141
 3740TIP3   OH211183   5.177   0.252   2.845
 3740TIP3    H111184   5.172   0.242   2.940
 3740TIP3    H211185   5.101   0.305   2.821
 3741TIP3   OH211186   4.360   6.444   1.798
 3741TIP3    H111187   4.416   6.447   1.875
 3741TIP3    H211188   4.395   6.371   1.746
 3742TIP3   OH211189   6.518   5.244   3.937
 3742TIP3    H111190   6.557   5.162   3.907
 3742TIP3    H211191   6.590   5.291   3.978
 3743TIP3   OH211192   3.901   5.439   0.991
 3743TIP3    H111193   3.991   5.409   0.977
 3743TIP3    H211194   3.910   5.513   1.051
 3744TIP3   OH211195   5.611   3.409   3.071
 3744TIP3    H111196   5.632   3.487   3.020
 3744TIP3    H211197   5.556   3.356   3.013
 3745TIP3   OH211198   0.531   0.713   2.799
 3745TIP3    H111199   0.465   0.730   2.865
 3745TIP3    H211200   0.563   0.799   2.774
 3746TIP3   OH211201   1.191   0.912   3.177
 3746TIP3    H111202   1.121   0.875   3.231
 3746TIP3    H211203   1.218   0.841   3.119
 3747TIP3   OH211204   1.881   5.047   0.207
 3747TIP3    H111205   1.822   4.993   0.154
 3747TIP3    H211206   1.951   4.988   0.233
 3748TIP3   OH211207   6.469   0.944   0.251
 3748TIP3    H111208   6.456   1.032   0.214
 3748TIP3    H211209   6.564   0.931   0.246
 3749TIP3   OH211210   0.872   0.350   5.569
 3749TIP3    H111211   0.941   0.406   5.532
 3749TIP3    H211212   0.825   0.316   5.492
 3750TIP3   OH211213   2.056   1.185   4.505
 3750TIP3    H111214   1.993   1.118   4.476
 3750TIP3    H211215   2.141   1.146   4.489
 3751TIP3   OH211216   2.826   4.892   2.196
 3751TIP3    H111217   2.825   4.869   2.289
 3751TIP3    H211218   2.756   4.957   2.187
 3752TIP3   OH211219   0.342   2.272   1.039
 3752TIP3    H111220   0.404   2.342   1.057
 3752TIP3    H211221   0.268   2.316   0.995
 3753TIP3   OH211222   6.781   2.974   5.075
 3753TIP3    H111223   6.692   2.963   5.042
 3753TIP3    H211224   6.811   2.885   5.092
 3754TIP3   OH211225   4.942   1.712   5.870
 3754TIP3    H111226   4.849   1.737   5.872
 3754TIP3    H211227   4.987   1.789   5.837
 3755TIP3   OH211228   2.575   4.669   4.202
 3755TIP3    H111229   2.646   4.712   4.251
 3755TIP3    H211230   2.586   4.576   4.220
 3756TIP3   OH211231   2.584   1.555   5.358
 3756TIP3    H111232   2.643   1.610   5.308
 3756TIP3    H211233   2.640   1.507   5.419
 3757TIP3   OH211234   4.783   4.295   2.176
 3757TIP3    H111235   4.761   4.266   2.265
 3757TIP3    H211236   4.703   4.336   2.144
 3758TIP3   OH211237   5.716   2.006   4.528
 3758TIP3    H111238   5.745   2.054   4.605
 3758TIP3    H211239   5.782   1.938   4.515
 3759TIP3   OH211240   2.940   5.735   4.863
 3759TIP3    H111241   2.860   5.696   4.829
 3759TIP3    H211242   2.961   5.804   4.799
 3760TIP3   OH211243   1.829   4.326   3.760
 3760TIP3    H111244   1.881   4.310   3.839
 3760TIP3    H211245   1.742   4.349   3.793
 3761TIP3   OH211246   7.037   1.794   2.611
 3761TIP3    H111247   7.077   1.866   2.660
 3761TIP3    H211248   7.050   1.818   2.520
 3762TIP3   OH211249   0.170   5.500   4.667
 3762TIP3    H111250   0.105   5.570   4.659
 3762TIP3    H211251   0.119   5.420   4.669
 3763TIP3   OH211252   5.525   5.691   2.139
 3763TIP3    H111253   5.569   5.734   2.065
 3763TIP3    H211254   5.441   5.737   2.146
 3764TIP3   OH211255   7.029   0.437   2.009
 3764TIP3    H111256   6.937   0.421   2.029
 3764TIP3    H211257   7.077   0.379   2.068
 3765TIP3   OH211258   0.044   2.029   5.093
 3765TIP3    H111259  -0.032   1.970   5.088
 3765TIP3    H211260   0.097   2.004   5.018
 3766TIP3   OH211261   3.333   0.756   0.736
 3766TIP3    H111262   3.310   0.845   0.708
 3766TIP3    H211263   3.369   0.715   0.657
 3767TIP3   OH211264   0.407   6.081   1.923
 3767TIP3    H111265   0.374   6.087   2.013
 3767TIP3    H211266   0.352   6.014   1.883
 3768TIP3   OH211267   0.656   3.038   0.413
 3768TIP3    H111268   0.708   2.958   0.402
 3768TIP3    H211269   0.566   3.007   0.416
 3769TIP3   OH211270   6.525   6.406   4.019
 3769TIP3    H111271   6.518   6.501   4.006
 3769TIP3    H211272   6.601   6.395   4.076
 3770TIP3   OH211273   2.523   0.097   1.737
 3770TIP3    H111274   2.473   0.078   1.816
 3770TIP3    H211275   2.491   0.035   1.672
 3771TIP3   OH211276   6.427   2.913   0.433
 3771TIP3    H111277   6.503   2.964   0.407
 3771TIP3    H211278   6.414   2.935   0.526
 3772TIP3   OH211279   4.517   3.393   5.423
 3772TIP3    H111280   4.542   3.410   5.332
 3772TIP3    H211281   4.435   3.441   5.435
 3773TIP3   OH211282   6.508   5.688   5.400
 3773TIP3    H111283   6.475   5.727   5.481
 3773TIP3    H211284   6.487   5.753   5.333
 3774TIP3   OH211285   3.394   1.571   1.521
 3774TIP3    H111286   3.433   1.618   1.595
 3774TIP3    H211287   3.345   1.500   1.562
 3775TIP3   OH211288   4.291   1.841   0.170
 3775TIP3    H111289   4.252   1.867   0.086
 3775TIP3    H211290   4.241   1.763   0.196
 3776TIP3   OH211291   3.241   6.612   4.894
 3776TIP3    H111292   3.277   6.620   4.805
 3776TIP3    H211293   3.185   6.535   4.891
 3777TIP3   OH211294   5.007   2.285   4.873
 3777TIP3    H111295   5.102   2.298   4.863
 3777TIP3    H211296   4.968   2.366   4.841
 3778TIP3   OH211297   2.028   5.104   3.618
 3778TIP3    H111298   2.059   5.152   3.541
 3778TIP3    H211299   1.935   5.127   3.625
 3779TIP3   OH211300   4.920   4.082   2.788
 3779TIP3    H111301   4.854   4.047   2.728
 3779TIP3    H211302   5.001   4.039   2.761
 3780TIP3   OH211303   4.003   1.722   3.001
 3780TIP3    H111304   4.097   1.732   3.020
 3780TIP3    H211305   4.000   1.663   2.926
 3781TIP3   OH211306   2.577   2.026   1.884
 3781TIP3    H111307   2.511   2.092   1.906
 3781TIP3    H211308   2.528   1.960   1.835
 3782TIP3   OH211309   1.222   2.346   4.670
 3782TIP3    H111310   1.238   2.418   4.731
 3782TIP3    H211311   1.126   2.338   4.668
 3783TIP3   OH211312   5.839   6.590   1.597
 3783TIP3    H111313   5.919   6.544   1.570
 3783TIP3    H211314   5.840   6.671   1.545
 3784TIP3   OH211315   2.560   6.518   3.549
 3784TIP3    H111316   2.521   6.467   3.620
 3784TIP3    H211317   2.525   6.479   3.469
 3785TIP3   OH211318   3.209   5.373   4.522
 3785TIP3    H111319   3.189   5.467   4.516
 3785TIP3    H211320   3.186   5.338   4.436
 3786TIP3   OH211321   4.237   6.370   5.032
 3786TIP3    H111322   4.177   6.381   4.958
 3786TIP3    H211323   4.211   6.286   5.071
 3787TIP3   OH211324   5.592   1.090   1.047
 3787TIP3    H111325   5.548   1.166   1.086
 3787TIP3    H211326   5.643   1.052   1.118
 3788TIP3   OH211327   4.151   3.199   5.102
 3788TIP3    H111328   4.089   3.190   5.030
 3788TIP3    H211329   4.169   3.109   5.129
 3789TIP3   OH211330   6.066   5.781   0.750
 3789TIP3    H111331   6.071   5.689   0.726
 3789TIP3    H211332   5.978   5.791   0.788
 3790TIP3   OH211333   0.542   3.039   0.757
 3790TIP3    H111334   0.536   2.953   0.715
 3790TIP3    H211335   0.636   3.057   0.761
 3791TIP3   OH211336   0.418   4.076   5.863
 3791TIP3    H111337   0.449   4.004   5.807
 3791TIP3    H211338   0.485   4.144   5.852
 3792TIP3   OH211339   0.587   0.036   2.300
 3792TIP3    H111340   0.507   0.026   2.351
 3792TIP3    H211341   0.594  -0.046   2.252
 3793TIP3   OH211342   2.217   0.787   5.158
 3793TIP3    H111343   2.173   0.766   5.240
 3793TIP3    H211344   2.303   0.745   5.165
 3794TIP3   OH211345   5.314   1.053   4.525
 3794TIP3    H111346   5.319   0.983   4.590
 3794TIP3    H211347   5.402   1.057   4.488
 3795TIP3   OH211348   6.965   0.360   0.622
 3795TIP3    H111349   6.984   0.298   0.551
 3795TIP3    H211350   6.948   0.304   0.698
 3796TIP3   OH211351   5.392   2.927   3.164
 3796TIP3    H111352   5.459   2.960   3.224
 3796TIP3    H211353   5.342   3.005   3.139
 3797TIP3   OH211354   6.689   5.558   3.495
 3797TIP3    H111355   6.772   5.551   3.450
 3797TIP3    H211356   6.671   5.652   3.499
 3798TIP3   OH211357   3.286   5.954   4.858
 3798TIP3    H111358   3.365   5.946   4.806
 3798TIP3    H211359   3.298   5.891   4.930
 3799TIP3   OH211360   6.287   0.620   0.427
 3799TIP3    H111361   6.257   0.594   0.514
 3799TIP3    H211362   6.207   0.639   0.378
 3800TIP3   OH211363   6.824   1.247   5.839
 3800TIP3    H111364   6.801   1.235   5.931
 3800TIP3    H211365   6.754   1.302   5.804
 3801TIP3   OH211366   6.317   3.832   1.459
 3801TIP3    H111367   6.232   3.871   1.480
 3801TIP3    H211368   6.365   3.902   1.414
 3802TIP3   OH211369   6.474   6.028   0.901
 3802TIP3    H111370   6.437   5.950   0.941
 3802TIP3    H211371   6.400   6.088   0.893
 3803TIP3   OH211372   6.738   0.802   5.666
 3803TIP3    H111373   6.795   0.867   5.706
 3803TIP3    H211374   6.673   0.853   5.617
 3804TIP3   OH211375   7.180   3.514   4.625
 3804TIP3    H111376   7.095   3.469   4.627
 3804TIP3    H211377   7.169   3.590   4.681
 3805TIP3   OH211378   4.179   1.233   4.966
 3805TIP3    H111379   4.090   1.205   4.985
 3805TIP3    H211380   4.201   1.187   4.884
 3806TIP3   OH211381   5.358   1.971   0.550
 3806TIP3    H111382   5.446   1.933   0.557
 3806TIP3    H211383   5.353   2.003   0.460
 3807TIP3   OH211384   2.792   2.804   1.129
 3807TIP3    H111385   2.754   2.740   1.189
 3807TIP3    H211386   2.865   2.842   1.178
 3808TIP3   OH211387   1.062   5.820   5.853
 3808TIP3    H111388   1.150   5.839   5.822
 3808TIP3    H211389   1.071   5.738   5.901
 3809TIP3   OH211390   3.872   6.386   3.602
 3809TIP3    H111391   3.797   6.330   3.581
 3809TIP3    H211392   3.944   6.324   3.619
 3810TIP3   OH211393   7.036   5.295   2.244
 3810TIP3    H111394   7.089   5.338   2.177
 3810TIP3    H211395   7.086   5.215   2.265
 3811TIP3   OH211396   5.190   0.946   3.011
 3811TIP3    H111397   5.266   0.934   2.953
 3811TIP3    H211398   5.222   1.003   3.080
 3812TIP3   OH211399   4.995   6.037   2.814
 3812TIP3    H111400   5.009   6.077   2.900
 3812TIP3    H211401   4.931   6.093   2.771
 3813TIP3   OH211402   2.975   0.822   1.430
 3813TIP3    H111403   2.924   0.902   1.422
 3813TIP3    H211404   2.998   0.799   1.339
 3814TIP3   OH211405   2.157   0.428   1.961
 3814TIP3    H111406   2.221   0.358   1.952
 3814TIP3    H211407   2.201   0.495   2.013
 3815TIP3   OH211408   3.213   5.132   4.815
 3815TIP3    H111409   3.297   5.152   4.775
 3815TIP3    H211410   3.149   5.142   4.745
 3816TIP3   OH211411   7.156   1.410   0.566
 3816TIP3    H111412   7.142   1.482   0.504
 3816TIP3    H211413   7.145   1.331   0.513
 3817TIP3   OH211414   1.530   4.824   5.236
 3817TIP3    H111415   1.599   4.890   5.233
 3817TIP3    H211416   1.452   4.871   5.264
 3818TIP3   OH211417   2.587   6.435   3.963
 3818TIP3    H111418   2.609   6.342   3.968
 3818TIP3    H211419   2.651   6.473   3.903
 3819TIP3   OH211420   5.504   2.183   4.020
 3819TIP3    H111421   5.523   2.151   4.108
 3819TIP3    H211422   5.420   2.143   3.997
 3820TIP3   OH211423   5.837   4.470   1.720
 3820TIP3    H111424   5.802   4.557   1.701
 3820TIP3    H211425   5.846   4.469   1.816
 3821TIP3   OH211426   1.359   5.952   2.575
 3821TIP3    H111427   1.399   6.008   2.641
 3821TIP3    H211428   1.277   5.996   2.552
 3822TIP3   OH211429   1.191   5.934   0.293
 3822TIP3    H111430   1.108   5.953   0.248
 3822TIP3    H211431   1.232   6.020   0.305
 3823TIP3   OH211432   1.151   3.219   2.671
 3823TIP3    H111433   1.241   3.201   2.696
 3823TIP3    H211434   1.156   3.248   2.579
 3824TIP3   OH211435   2.490   6.606   1.028
 3824TIP3    H111436   2.483   6.675   0.962
 3824TIP3    H211437   2.484   6.524   0.979
 3825TIP3   OH211438   3.283   1.094   3.035
 3825TIP3    H111439   3.351   1.154   3.067
 3825TIP3    H211440   3.230   1.148   2.976
 3826TIP3   OH211441   4.445   0.439   1.899
 3826TIP3    H111442   4.473   0.468   1.812
 3826TIP3    H211443   4.350   0.444   1.897
 3827TIP3   OH211444   5.298   3.186   5.029
 3827TIP3    H111445   5.220   3.202   5.083
 3827TIP3    H211446   5.264   3.152   4.947
 3828TIP3   OH211447   3.236   3.422   3.902
 3828TIP3    H111448   3.326   3.443   3.875
 3828TIP3    H211449   3.225   3.330   3.878
 3829TIP3   OH211450   3.011   0.198   2.310
 3829TIP3    H111451   2.946   0.140   2.271
 3829TIP3    H211452   2.998   0.282   2.265
 3830TIP3   OH211453   5.164   6.530   1.261
 3830TIP3    H111454   5.112   6.463   1.306
 3830TIP3    H211455   5.223   6.564   1.329
 3831TIP3   OH211456   3.436   4.583   3.884
 3831TIP3    H111457   3.408   4.492   3.881
 3831TIP3    H211458   3.362   4.630   3.923
 3832TIP3   OH211459   3.346   1.422   4.002
 3832TIP3    H111460   3.256   1.416   4.035
 3832TIP3    H211461   3.392   1.351   4.047
 3833TIP3   OH211462   3.252   1.595   4.902
 3833TIP3    H111463   3.211   1.587   4.816
 3833TIP3    H211464   3.225   1.682   4.933
 3834TIP3   OH211465   1.654   5.311   4.592
 3834TIP3    H111466   1.597   5.268   4.529
 3834TIP3    H211467   1.705   5.239   4.630
 3835TIP3   OH211468   0.346   3.975   4.110
 3835TIP3    H111469   0.399   3.982   4.031
 3835TIP3    H211470   0.257   3.963   4.078
 3836TIP3   OH211471   2.177   6.145   3.828
 3836TIP3    H111472   2.102   6.085   3.826
 3836TIP3    H211473   2.140   6.231   3.808
 3837TIP3   OH211474   6.204   2.384   2.292
 3837TIP3    H111475   6.111   2.401   2.275
 3837TIP3    H211476   6.206   2.296   2.329
 3838TIP3   OH211477   5.805   3.560   4.875
 3838TIP3    H111478   5.835   3.533   4.962
 3838TIP3    H211479   5.748   3.488   4.846
 3839TIP3   OH211480   5.528   4.626   3.149
 3839TIP3    H111481   5.503   4.573   3.225
 3839TIP3    H211482   5.506   4.572   3.074
 3840TIP3   OH211483   3.269   4.040   4.906
 3840TIP3    H111484   3.281   4.036   4.811
 3840TIP3    H211485   3.227   4.125   4.921
 3841TIP3   OH211486   3.322   0.324   4.368
 3841TIP3    H111487   3.367   0.361   4.292
 3841TIP3    H211488   3.344   0.230   4.366
 3842TIP3   OH211489   3.758   1.114   0.175
 3842TIP3    H111490   3.790   1.026   0.193
 3842TIP3    H211491   3.704   1.105   0.096
 3843TIP3   OH211492   0.029   1.746   4.182
 3843TIP3    H111493   0.081   1.751   4.263
 3843TIP3    H211494  -0.055   1.711   4.210
 3844TIP3   OH211495   3.797   5.574   2.787
 3844TIP3    H111496   3.846   5.494   2.768
 3844TIP3    H211497   3.705   5.548   2.778
 3845TIP3   OH211498   2.118   1.095   3.187
 3845TIP3    H111499   2.118   1.164   3.253
 3845TIP3    H211500   2.160   1.135   3.111
 3846TIP3   OH211501   3.146   5.226   3.764
 3846TIP3    H111502   3.136   5.160   3.696
 3846TIP3    H211503   3.058   5.264   3.773
 3847TIP3   OH211504   2.070   5.998  -0.019
 3847TIP3    H111505   1.980   6.030  -0.030
 3847TIP3    H211506   2.063   5.934   0.052
 3848TIP3   OH211507   7.167   6.031   1.948
 3848TIP3    H111508   7.082   5.993   1.970
 3848TIP3    H211509   7.155   6.125   1.960
 3849TIP3   OH211510   6.220   0.678   3.095
 3849TIP3    H111511   6.286   0.670   3.027
 3849TIP3    H211512   6.137   0.660   3.051
 3850TIP3   OH211513   5.837   5.501   4.766
 3850TIP3    H111514   5.766   5.437   4.755
 3850TIP3    H211515   5.860   5.526   4.677
 3851TIP3   OH211516   3.191   1.588   5.263
 3851TIP3    H111517   3.284   1.566   5.258
 3851TIP3    H211518   3.156   1.529   5.330
 3852TIP3   OH211519   2.662   3.790   0.860
 3852TIP3    H111520   2.711   3.853   0.914
 3852TIP3    H211521   2.571   3.822   0.863
 3853TIP3   OH211522   0.658   2.887   2.351
 3853TIP3    H111523   0.706   2.929   2.280
 3853TIP3    H211524   0.706   2.806   2.368
 3854TIP3   OH211525   3.837   3.374   3.212
 3854TIP3    H111526   3.871   3.388   3.300
 3854TIP3    H211527   3.855   3.282   3.193
 3855TIP3   OH211528   2.533   1.875   4.716
 3855TIP3    H111529   2.446   1.884   4.755
 3855TIP3    H211530   2.588   1.840   4.786
 3856TIP3   OH211531   2.446   3.830   4.641
 3856TIP3    H111532   2.451   3.867   4.553
 3856TIP3    H211533   2.515   3.764   4.643
 3857TIP3   OH211534   5.580   3.098   1.804
 3857TIP3    H111535   5.622   3.021   1.765
 3857TIP3    H211536   5.492   3.069   1.825
 3858TIP3   OH211537   5.806   3.524   4.508
 3858TIP3    H111538   5.894   3.508   4.543
 3858TIP3    H211539   5.749   3.468   4.561
 3859TIP3   OH211540   2.987   3.337   3.431
 3859TIP3    H111541   2.968   3.430   3.423
 3859TIP3    H211542   3.028   3.328   3.517
 3860TIP3   OH211543   3.378   2.242  -0.009
 3860TIP3    H111544   3.331   2.247   0.074
 3860TIP3    H211545   3.348   2.318  -0.059
 3861TIP3   OH211546   1.729   5.929   3.235
 3861TIP3    H111547   1.641   5.946   3.202
 3861TIP3    H211548   1.730   5.836   3.258
 3862TIP3   OH211549   1.207   1.386   1.898
 3862TIP3    H111550   1.145   1.427   1.838
 3862TIP3    H211551   1.163   1.306   1.927
 3863TIP3   OH211552   2.498   6.634   4.110
 3863TIP3    H111553   2.403   6.635   4.120
 3863TIP3    H211554   2.518   6.545   4.081
 3864TIP3   OH211555   4.031   1.936   2.122
 3864TIP3    H111556   4.063   1.986   2.047
 3864TIP3    H211557   3.965   1.877   2.085
 3865TIP3   OH211558   0.291   1.960   5.223
 3865TIP3    H111559   0.197   1.949   5.237
 3865TIP3    H211560   0.330   1.884   5.267
 3866TIP3   OH211561   5.319   4.866   0.594
 3866TIP3    H111562   5.409   4.834   0.602
 3866TIP3    H211563   5.266   4.786   0.596
 3867TIP3   OH211564   7.212   5.071   1.191
 3867TIP3    H111565   7.249   5.154   1.160
 3867TIP3    H211566   7.226   5.010   1.119
 3868TIP3   OH211567   4.085   0.819   1.204
 3868TIP3    H111568   4.114   0.773   1.125
 3868TIP3    H211569   4.156   0.805   1.266
 3869TIP3   OH211570   4.344   3.795   3.102
 3869TIP3    H111571   4.359   3.713   3.148
 3869TIP3    H211572   4.408   3.856   3.139
 3870TIP3   OH211573   6.852   3.296   1.819
 3870TIP3    H111574   6.783   3.246   1.776
 3870TIP3    H211575   6.816   3.316   1.906
 3871TIP3   OH211576   1.423   4.220   5.232
 3871TIP3    H111577   1.364   4.269   5.290
 3871TIP3    H211578   1.377   4.137   5.215
 3872TIP3   OH211579   3.745   2.476   2.556
 3872TIP3    H111580   3.667   2.508   2.601
 3872TIP3    H211581   3.792   2.426   2.622
 3873TIP3   OH211582   4.637   3.097   4.351
 3873TIP3    H111583   4.561   3.039   4.358
 3873TIP3    H211584   4.615   3.171   4.407
 3874TIP3   OH211585   7.081   0.608   0.759
 3874TIP3    H111586   7.105   0.583   0.848
 3874TIP3    H211587   7.025   0.538   0.728
 3875TIP3   OH211588   1.450   2.668   0.879
 3875TIP3    H111589   1.383   2.611   0.841
 3875TIP3    H211590   1.408   2.754   0.884
 3876TIP3   OH211591   4.234   4.286   1.373
 3876TIP3    H111592   4.244   4.192   1.359
 3876TIP3    H211593   4.298   4.326   1.313
 3877TIP3   OH211594   0.667   2.273   2.582
 3877TIP3    H111595   0.590   2.243   2.533
 3877TIP3    H211596   0.704   2.193   2.620
 3878TIP3   OH211597   1.873   5.477   4.549
 3878TIP3    H111598   1.829   5.551   4.592
 3878TIP3    H211599   1.801   5.421   4.519
 3879TIP3   OH211600   3.834   1.651   4.856
 3879TIP3    H111601   3.750   1.679   4.892
 3879TIP3    H211602   3.887   1.731   4.854
 3880TIP3   OH211603   4.854   0.722   1.052
 3880TIP3    H111604   4.903   0.803   1.061
 3880TIP3    H211605   4.875   0.672   1.131
 3881TIP3   OH211606   4.919   0.822   0.215
 3881TIP3    H111607   4.952   0.850   0.130
 3881TIP3    H211608   4.997   0.801   0.266
 3882TIP3   OH211609   4.206   4.544   3.842
 3882TIP3    H111610   4.207   4.459   3.798
 3882TIP3    H211611   4.272   4.596   3.796
 3883TIP3   OH211612   0.521   1.390   5.274
 3883TIP3    H111613   0.472   1.448   5.216
 3883TIP3    H211614   0.611   1.397   5.244
 3884TIP3   OH211615   2.484   5.484   4.804
 3884TIP3    H111616   2.457   5.568   4.767
 3884TIP3    H211617   2.424   5.471   4.878
 3885TIP3   OH211618   2.638   3.749   3.623
 3885TIP3    H111619   2.707   3.815   3.622
 3885TIP3    H211620   2.685   3.666   3.632
 3886TIP3   OH211621   3.856   3.890   0.078
 3886TIP3    H111622   3.884   3.864  -0.009
 3886TIP3    H211623   3.808   3.815   0.112
 3887TIP3   OH211624   5.221   6.355   2.457
 3887TIP3    H111625   5.140   6.367   2.508
 3887TIP3    H211626   5.219   6.425   2.393
 3888TIP3   OH211627   0.333   0.974   2.626
 3888TIP3    H111628   0.314   1.065   2.649
 3888TIP3    H211629   0.407   0.950   2.681
 3889TIP3   OH211630   0.565   5.801   0.452
 3889TIP3    H111631   0.527   5.714   0.438
 3889TIP3    H211632   0.656   5.792   0.424
 3890TIP3   OH211633   3.316   3.272   2.979
 3890TIP3    H111634   3.391   3.285   2.920
 3890TIP3    H211635   3.256   3.217   2.929
 3891TIP3   OH211636   5.420   1.251   2.974
 3891TIP3    H111637   5.361   1.302   2.918
 3891TIP3    H211638   5.498   1.306   2.983
 3892TIP3   OH211639   1.612   6.715   3.214
 3892TIP3    H111640   1.678   6.737   3.148
 3892TIP3    H211641   1.548   6.786   3.208
 3893TIP3   OH211642   4.061   1.229   2.268
 3893TIP3    H111643   4.085   1.319   2.246
 3893TIP3    H211644   4.019   1.195   2.189
 3894TIP3   OH211645   4.485   0.619   0.579
 3894TIP3    H111646   4.570   0.575   0.588
 3894TIP3    H211647   4.494   0.700   0.629
 3895TIP3   OH211648   4.920   4.163   4.218
 3895TIP3    H111649   4.978   4.188   4.146
 3895TIP3    H211650   4.978   4.157   4.294
 3896TIP3   OH211651   6.660   5.007   0.692
 3896TIP3    H111652   6.629   5.093   0.719
 3896TIP3    H211653   6.619   4.991   0.608
 3897TIP3   OH211654   2.535   2.678   0.673
 3897TIP3    H111655   2.604   2.726   0.627
 3897TIP3    H211656   2.468   2.744   0.692
 3898TIP3   OH211657   5.875   1.628   5.525
 3898TIP3    H111658   5.901   1.703   5.472
 3898TIP3    H211659   5.781   1.620   5.510
 3899TIP3   OH211660   2.401   2.356   5.823
 3899TIP3    H111661   2.344   2.358   5.900
 3899TIP3    H211662   2.401   2.264   5.795
 3900TIP3   OH211663   4.285   1.815   1.499
 3900TIP3    H111664   4.338   1.749   1.544
 3900TIP3    H211665   4.349   1.880   1.467
 3901TIP3   OH211666   0.669   4.341   1.867
 3901TIP3    H111667   0.758   4.306   1.858
 3901TIP3    H211668   0.620   4.269   1.908
 3902TIP3   OH211669   4.719   6.702   5.378
 3902TIP3    H111670   4.633   6.680   5.413
 3902TIP3    H211671   4.759   6.617   5.356
 3903TIP3   OH211672   6.311   4.740   2.341
 3903TIP3    H111673   6.360   4.814   2.304
 3903TIP3    H211674   6.370   4.705   2.409
 3904TIP3   OH211675   2.149   2.165   3.532
 3904TIP3    H111676   2.054   2.159   3.533
 3904TIP3    H211677   2.179   2.074   3.528
 3905TIP3   OH211678   5.560   4.211   0.238
 3905TIP3    H111679   5.565   4.128   0.191
 3905TIP3    H211680   5.474   4.246   0.216
 3906TIP3   OH211681   2.184   1.485   4.453
 3906TIP3    H111682   2.254   1.431   4.418
 3906TIP3    H211683   2.169   1.453   4.541
 3907TIP3   OH211684   3.359   4.671   3.214
 3907TIP3    H111685   3.374   4.634   3.301
 3907TIP3    H211686   3.369   4.765   3.226
 3908TIP3   OH211687   5.330   4.504   0.469
 3908TIP3    H111688   5.369   4.535   0.387
 3908TIP3    H211689   5.244   4.547   0.472
 3909TIP3   OH211690   5.675   6.538   3.239
 3909TIP3    H111691   5.693   6.575   3.325
 3909TIP3    H211692   5.682   6.612   3.179
 3910TIP3   OH211693   4.200   3.388   4.487
 3910TIP3    H111694   4.130   3.443   4.451
 3910TIP3    H211695   4.266   3.386   4.418
 3911TIP3   OH211696   2.593   1.237   0.610
 3911TIP3    H111697   2.497   1.244   0.613
 3911TIP3    H211698   2.624   1.319   0.649
 3912TIP3   OH211699   1.960   4.921   1.168
 3912TIP3    H111700   1.923   4.961   1.247
 3912TIP3    H211701   2.052   4.906   1.189
 3913TIP3   OH211702   5.684   5.321   4.348
 3913TIP3    H111703   5.775   5.301   4.372
 3913TIP3    H211704   5.635   5.314   4.430
 3914TIP3   OH211705   5.759   1.607   1.665
 3914TIP3    H111706   5.732   1.561   1.744
 3914TIP3    H211707   5.848   1.576   1.648
 3915TIP3   OH211708   0.477   4.323   0.370
 3915TIP3    H111709   0.440   4.244   0.330
 3915TIP3    H211710   0.409   4.390   0.358
 3916TIP3   OH211711   4.611   2.218   3.839
 3916TIP3    H111712   4.661   2.299   3.836
 3916TIP3    H211713   4.628   2.182   3.926
 3917TIP3   OH211714   6.287   3.137   3.631
 3917TIP3    H111715   6.239   3.211   3.670
 3917TIP3    H211716   6.363   3.178   3.590
 3918TIP3   OH211717   4.916   3.854   5.889
 3918TIP3    H111718   4.918   3.782   5.826
 3918TIP3    H211719   5.001   3.897   5.879
 3919TIP3   OH211720   1.909   1.520   1.898
 3919TIP3    H111721   1.861   1.459   1.953
 3919TIP3    H211722   1.896   1.605   1.939
 3920TIP3   OH211723   5.517   6.438   5.688
 3920TIP3    H111724   5.565   6.520   5.695
 3920TIP3    H211725   5.551   6.384   5.760
 3921TIP3   OH211726   3.009   2.218   2.370
 3921TIP3    H111727   2.924   2.253   2.345
 3921TIP3    H211728   2.995   2.180   2.457
 3922TIP3   OH211729   1.107   3.405   1.302
 3922TIP3    H111730   1.066   3.384   1.386
 3922TIP3    H211731   1.067   3.488   1.276
 3923TIP3   OH211732   4.030   2.562   5.741
 3923TIP3    H111733   4.126   2.562   5.741
 3923TIP3    H211734   4.006   2.608   5.821
 3924TIP3   OH211735   0.041   3.993   5.501
 3924TIP3    H111736   0.057   3.925   5.566
 3924TIP3    H211737   0.011   4.069   5.551
 3925TIP3   OH211738   1.855   4.516   0.923
 3925TIP3    H111739   1.894   4.520   1.011
 3925TIP3    H211740   1.931   4.514   0.864
 3926TIP3   OH211741   4.373   4.500   0.865
 3926TIP3    H111742   4.302   4.483   0.803
 3926TIP3    H211743   4.446   4.447   0.833
 3927TIP3   OH211744   4.420   2.981   3.348
 3927TIP3    H111745   4.484   3.048   3.371
 3927TIP3    H211746   4.342   3.031   3.322
 3928TIP3   OH211747   3.696   4.107   2.692
 3928TIP3    H111748   3.644   4.105   2.772
 3928TIP3    H211749   3.634   4.133   2.623
 3929TIP3   OH211750   5.552   3.209   1.531
 3929TIP3    H111751   5.544   3.149   1.605
 3929TIP3    H211752   5.487   3.277   1.547
 3930TIP3   OH211753   6.383   4.223   3.988
 3930TIP3    H111754   6.291   4.207   4.010
 3930TIP3    H211755   6.412   4.141   3.948
 3931TIP3   OH211756   6.103   1.571   0.592
 3931TIP3    H111757   6.031   1.549   0.534
 3931TIP3    H211758   6.182   1.547   0.544
 3932TIP3   OH211759   1.371   0.385   2.796
 3932TIP3    H111760   1.464   0.395   2.780
 3932TIP3    H211761   1.362   0.385   2.891
 3933TIP3   OH211762   4.266   2.443   1.691
 3933TIP3    H111763   4.328   2.512   1.716
 3933TIP3    H211764   4.268   2.442   1.595
 3934TIP3   OH211765   3.617   1.436   2.250
 3934TIP3    H111766   3.611   1.385   2.330
 3934TIP3    H211767   3.529   1.433   2.212
 3935TIP3   OH211768   0.494   0.860   5.443
 3935TIP3    H111769   0.475   0.823   5.357
 3935TIP3    H211770   0.453   0.946   5.443
 3936TIP3   OH211771   1.526   1.285   4.947
 3936TIP3    H111772   1.585   1.341   4.997
 3936TIP3    H211773   1.564   1.282   4.859
 3937TIP3   OH211774   3.040   5.148   0.581
 3937TIP3    H111775   3.033   5.240   0.607
 3937TIP3    H211776   2.977   5.103   0.637
 3938TIP3   OH211777   2.711   3.490   3.653
 3938TIP3    H111778   2.768   3.415   3.670
 3938TIP3    H211779   2.734   3.518   3.565
 3939TIP3   OH211780   5.741   3.846   1.945
 3939TIP3    H111781   5.655   3.807   1.955
 3939TIP3    H211782   5.787   3.789   1.882
 3940TIP3   OH211783   1.212   5.250   2.066
 3940TIP3    H111784   1.214   5.170   2.119
 3940TIP3    H211785   1.122   5.283   2.076
 3941TIP3   OH211786   3.259   0.797   4.895
 3941TIP3    H111787   3.188   0.827   4.951
 3941TIP3    H211788   3.338   0.834   4.934
 3942TIP3   OH211789   5.371   5.461   4.456
 3942TIP3    H111790   5.384   5.423   4.543
 3942TIP3    H211791   5.319   5.396   4.409
 3943TIP3   OH211792   4.456   0.022   0.849
 3943TIP3    H111793   4.518   0.058   0.912
 3943TIP3    H211794   4.506   0.013   0.768
 3944TIP3   OH211795   1.140   3.079   4.248
 3944TIP3    H111796   1.168   3.000   4.294
 3944TIP3    H211797   1.149   3.056   4.155
 3945TIP3   OH211798   5.304   3.443   3.760
 3945TIP3    H111799   5.390   3.480   3.779
 3945TIP3    H211800   5.272   3.411   3.844
 3946TIP3   OH211801   0.958   6.667   1.201
 3946TIP3    H111802   1.007   6.648   1.280
 3946TIP3    H211803   0.870   6.690   1.231
 3947TIP3   OH211804   6.342   6.512   3.416
 3947TIP3    H111805   6.289   6.433   3.421
 3947TIP3    H211806   6.312   6.567   3.489
 3948TIP3   OH211807   0.300   6.745   3.724
 3948TIP3    H111808   0.205   6.736   3.730
 3948TIP3    H211809   0.327   6.682   3.657
 3949TIP3   OH211810   6.912   4.676   2.377
 3949TIP3    H111811   6.941   4.757   2.334
 3949TIP3    H211812   6.972   4.609   2.344
 3950TIP3   OH211813   5.524   3.927   4.280
 3950TIP3    H111814   5.598   3.886   4.326
 3950TIP3    H211815   5.526   3.888   4.192
 3951TIP3   OH211816   0.896   5.257   1.610
 3951TIP3    H111817   0.827   5.197   1.582
 3951TIP3    H211818   0.890   5.257   1.706
 3952TIP3   OH211819   3.987   0.149   4.006
 3952TIP3    H111820   3.969   0.066   4.049
 3952TIP3    H211821   3.942   0.143   3.922
 3953TIP3   OH211822   5.874   4.266   1.367
 3953TIP3    H111823   5.867   4.185   1.316
 3953TIP3    H211824   5.892   4.236   1.456
 3954TIP3   OH211825   2.689   5.004   1.612
 3954TIP3    H111826   2.596   4.992   1.629
 3954TIP3    H211827   2.704   4.960   1.529
 3955TIP3   OH211828   3.397   6.126   3.264
 3955TIP3    H111829   3.375   6.099   3.354
 3955TIP3    H211830   3.313   6.140   3.222
 3956TIP3   OH211831   4.918   2.192   0.438
 3956TIP3    H111832   4.827   2.188   0.409
 3956TIP3    H211833   4.968   2.164   0.362
 3957TIP3   OH211834   4.730   2.540   5.249
 3957TIP3    H111835   4.703   2.601   5.318
 3957TIP3    H211836   4.821   2.563   5.231
 3958TIP3   OH211837   5.234   3.176   3.678
 3958TIP3    H111838   5.274   3.258   3.706
 3958TIP3    H211839   5.150   3.174   3.723
 3959TIP3   OH211840   4.703   2.848   5.018
 3959TIP3    H111841   4.719   2.943   5.017
 3959TIP3    H211842   4.763   2.813   4.951
 3960TIP3   OH211843   1.735   4.448   5.545
 3960TIP3    H111844   1.760   4.522   5.489
 3960TIP3    H211845   1.767   4.371   5.498
 3961TIP3   OH211846   5.886   5.400   3.746
 3961TIP3    H111847   5.926   5.486   3.754
 3961TIP3    H211848   5.939   5.355   3.681
 3962TIP3   OH211849   4.160   6.739   5.272
 3962TIP3    H111850   4.103   6.666   5.296
 3962TIP3    H211851   4.216   6.753   5.348
 3963TIP3   OH211852   6.898   3.231   0.053
 3963TIP3    H111853   6.954   3.259   0.126
 3963TIP3    H211854   6.909   3.299  -0.013
 3964TIP3   OH211855   0.241   0.027   4.035
 3964TIP3    H111856   0.271   0.088   4.103
 3964TIP3    H211857   0.269   0.068   3.953
 3965TIP3   OH211858   1.993   3.628   3.812
 3965TIP3    H111859   1.933   3.591   3.747
 3965TIP3    H211860   1.943   3.628   3.894
 3966TIP3   OH211861   4.852   1.833   4.337
 3966TIP3    H111862   4.854   1.862   4.428
 3966TIP3    H211863   4.939   1.795   4.322
 3967TIP3   OH211864   5.282   3.409   2.450
 3967TIP3    H111865   5.276   3.335   2.510
 3967TIP3    H211866   5.376   3.425   2.440
 3968TIP3   OH211867   3.025   5.785   5.445
 3968TIP3    H111868   2.997   5.873   5.420
 3968TIP3    H211869   2.976   5.765   5.524
 3969TIP3   OH211870   1.385   1.804   4.598
 3969TIP3    H111871   1.345   1.822   4.513
 3969TIP3    H211872   1.448   1.875   4.610
 3970TIP3   OH211873   1.838   1.601   4.907
 3970TIP3    H111874   1.788   1.547   4.969
 3970TIP3    H211875   1.773   1.656   4.864
 3971TIP3   OH211876   6.015   4.691   2.922
 3971TIP3    H111877   5.930   4.669   2.883
 3971TIP3    H211878   6.013   4.786   2.932
 3972TIP3   OH211879   3.468   0.131   4.564
 3972TIP3    H111880   3.538   0.082   4.519
 3972TIP3    H211881   3.498   0.222   4.563
 3973TIP3   OH211882   0.594   0.462   2.225
 3973TIP3    H111883   0.593   0.516   2.304
 3973TIP3    H211884   0.607   0.524   2.153
 3974TIP3   OH211885   4.900   1.841   2.423
 3974TIP3    H111886   4.984   1.846   2.469
 3974TIP3    H211887   4.836   1.877   2.486
 3975TIP3   OH211888   0.480   1.678   2.636
 3975TIP3    H111889   0.449   1.610   2.696
 3975TIP3    H211890   0.402   1.729   2.616
 3976TIP3   OH211891   5.193   3.854   4.667
 3976TIP3    H111892   5.159   3.855   4.578
 3976TIP3    H211893   5.287   3.839   4.656
 3977TIP3   OH211894   2.976   4.098   3.945
 3977TIP3    H111895   2.947   4.036   3.879
 3977TIP3    H211896   2.948   4.184   3.912
 3978TIP3   OH211897   0.821   2.394   2.152
 3978TIP3    H111898   0.862   2.343   2.082
 3978TIP3    H211899   0.888   2.456   2.180
 3979TIP3   OH211900   4.427   0.727   2.086
 3979TIP3    H111901   4.498   0.725   2.021
 3979TIP3    H211902   4.442   0.649   2.140
 3980TIP3   OH211903   4.887   3.389   3.707
 3980TIP3    H111904   4.826   3.462   3.721
 3980TIP3    H211905   4.955   3.401   3.774
 3981TIP3   OH211906   4.143   4.311   0.189
 3981TIP3    H111907   4.181   4.392   0.156
 3981TIP3    H211908   4.156   4.317   0.284
 3982TIP3   OH211909   6.198   5.413   3.398
 3982TIP3    H111910   6.109   5.439   3.421
 3982TIP3    H211911   6.248   5.424   3.478
 3983TIP3   OH211912   0.251   1.651   3.679
 3983TIP3    H111913   0.217   1.619   3.763
 3983TIP3    H211914   0.191   1.615   3.614
 3984TIP3   OH211915   3.818   2.339   5.030
 3984TIP3    H111916   3.848   2.277   5.097
 3984TIP3    H211917   3.763   2.401   5.079
 3985TIP3   OH211918   3.914   4.020   4.831
 3985TIP3    H111919   3.871   4.022   4.917
 3985TIP3    H211920   3.994   3.968   4.846
 3986TIP3   OH211921   0.750   4.980   2.373
 3986TIP3    H111922   0.759   5.053   2.434
 3986TIP3    H211923   0.835   4.937   2.375
 3987TIP3   OH211924   6.892   3.787   5.064
 3987TIP3    H111925   6.911   3.855   5.128
 3987TIP3    H211926   6.931   3.818   4.983
 3988TIP3   OH211927   1.339   4.762   3.953
 3988TIP3    H111928   1.381   4.708   4.020
 3988TIP3    H211929   1.317   4.844   3.998
 3989TIP3   OH211930   2.629   2.861   0.047
 3989TIP3    H111931   2.613   2.784  -0.007
 3989TIP3    H211932   2.713   2.894   0.016
 3990TIP3   OH211933   2.127   0.488   3.173
 3990TIP3    H111934   2.188   0.526   3.235
 3990TIP3    H211935   2.140   0.393   3.181
 3991TIP3   OH211936   2.737   1.370   5.576
 3991TIP3    H111937   2.782   1.302   5.526
 3991TIP3    H211938   2.667   1.324   5.622
 3992TIP3   OH211939   3.631   6.714   2.063
 3992TIP3    H111940   3.682   6.773   2.118
 3992TIP3    H211941   3.542   6.750   2.065
 3993TIP3   OH211942   2.752   0.597   4.514
 3993TIP3    H111943   2.788   0.517   4.476
 3993TIP3    H211944   2.828   0.649   4.539
 3994TIP3   OH211945   3.477   5.312   1.380
 3994TIP3    H111946   3.459   5.402   1.352
 3994TIP3    H211947   3.402   5.287   1.433
 3995TIP3   OH211948   0.273   2.637   1.535
 3995TIP3    H111949   0.354   2.619   1.487
 3995TIP3    H211950   0.204   2.604   1.478
 3996TIP3   OH211951   0.776   0.885   3.382
 3996TIP3    H111952   0.770   0.842   3.467
 3996TIP3    H211953   0.690   0.873   3.342
 3997TIP3   OH211954   1.660   1.969   5.650
 3997TIP3    H111955   1.671   2.014   5.733
 3997TIP3    H211956   1.666   2.039   5.584
 3998TIP3   OH211957   4.799   0.238   3.876
 3998TIP3    H111958   4.886   0.202   3.891
 3998TIP3    H211959   4.774   0.205   3.790
 3999TIP3   OH211960   6.135   2.713   3.844
 3999TIP3    H111961   6.174   2.626   3.839
 3999TIP3    H211962   6.186   2.765   3.782
 4000TIP3   OH211963   4.308   2.738   1.298
 4000TIP3    H111964   4.238   2.782   1.346
 4000TIP3    H211965   4.386   2.789   1.316
 4001TIP3   OH211966   6.080   6.418   1.071
 4001TIP3    H111967   6.073   6.434   0.977
 4001TIP3    H211968   6.050   6.499   1.111
 4002TIP3   OH211969   3.839   3.290   5.707
 4002TIP3    H111970   3.793   3.255   5.631
 4002TIP3    H211971   3.920   3.327   5.672
 4003TIP3   OH211972   5.289   3.418   5.320
 4003TIP3    H111973   5.261   3.428   5.411
 4003TIP3    H211974   5.306   3.508   5.290
 4004TIP3   OH211975   6.829   3.674   3.875
 4004TIP3    H111976   6.820   3.736   3.947
 4004TIP3    H211977   6.765   3.704   3.810
 4005TIP3   OH211978   2.380   1.743   0.368
 4005TIP3    H111979   2.426   1.818   0.407
 4005TIP3    H211980   2.399   1.749   0.275
 4006TIP3   OH211981   2.791   0.309   0.201
 4006TIP3    H111982   2.876   0.352   0.212
 4006TIP3    H211983   2.741   0.369   0.146
 4007TIP3   OH211984   1.530   0.381   5.114
 4007TIP3    H111985   1.454   0.350   5.064
 4007TIP3    H211986   1.605   0.359   5.059
 4008TIP3   OH211987   0.668   3.684   4.782
 4008TIP3    H111988   0.578   3.697   4.753
 4008TIP3    H211989   0.670   3.594   4.816
 4009TIP3   OH211990   5.453   4.835   4.513
 4009TIP3    H111991   5.475   4.825   4.420
 4009TIP3    H211992   5.440   4.746   4.545
 4010TIP3   OH211993   3.271   2.226   2.303
 4010TIP3    H111994   3.187   2.215   2.347
 4010TIP3    H211995   3.269   2.161   2.232
 4011TIP3   OH211996   2.709   0.968   4.853
 4011TIP3    H111997   2.782   1.029   4.835
 4011TIP3    H211998   2.743   0.909   4.920
 4012TIP3   OH211999   6.125   5.123   3.918
 4012TIP3    H112000   6.179   5.060   3.966
 4012TIP3    H212001   6.188   5.183   3.879
 4013TIP3   OH212002   2.961   6.334   4.062
 4013TIP3    H112003   3.010   6.413   4.038
 4013TIP3    H212004   3.025   6.264   4.060
 4014TIP3   OH212005   6.278   6.378   5.844
 4014TIP3    H112006   6.297   6.325   5.767
 4014TIP3    H212007   6.353   6.437   5.851
 4015TIP3   OH212008   2.962   5.606   0.391
 4015TIP3    H112009   2.915   5.689   0.393
 4015TIP3    H212010   2.906   5.546   0.341
 4016TIP3   OH212011   4.308   6.081   3.449
 4016TIP3    H112012   4.359   6.028   3.386
 4016TIP3    H212013   4.371   6.143   3.485
 4017TIP3   OH212014   2.738   3.177   1.784
 4017TIP3    H112015   2.817   3.231   1.789
 4017TIP3    H212016   2.770   3.087   1.781
 4018TIP3   OH212017   1.928   0.607   1.491
 4018TIP3    H112018   1.981   0.629   1.415
 4018TIP3    H212019   1.974   0.647   1.565
 4019TIP3   OH212020   6.701   5.708   3.878
 4019TIP3    H112021   6.750   5.775   3.829
 4019TIP3    H212022   6.613   5.711   3.841
 4020TIP3   OH212023   5.164   2.257   1.192
 4020TIP3    H112024   5.154   2.264   1.287
 4020TIP3    H212025   5.259   2.257   1.178
 4021TIP3   OH212026   3.357   1.846   3.331
 4021TIP3    H112027   3.263   1.840   3.316
 4021TIP3    H212028   3.365   1.890   3.415
 4022TIP3   OH212029   4.452   0.969   1.216
 4022TIP3    H112030   4.474   1.033   1.283
 4022TIP3    H212031   4.396   1.017   1.154
 4023TIP3   OH212032   4.779   2.374   4.241
 4023TIP3    H112033   4.865   2.409   4.266
 4023TIP3    H212034   4.759   2.310   4.309
 4024TIP3   OH212035   5.900   1.739   4.989
 4024TIP3    H112036   5.868   1.711   5.075
 4024TIP3    H212037   5.994   1.722   4.991
 4025TIP3   OH212038   2.787   4.878   1.345
 4025TIP3    H112039   2.693   4.867   1.356
 4025TIP3    H212040   2.800   4.885   1.251
 4026TIP3   OH212041   0.057   1.345   2.077
 4026TIP3    H112042   0.141   1.309   2.104
 4026TIP3    H212043   0.035   1.409   2.145
 4027TIP3   OH212044   0.407   3.996   0.441
 4027TIP3    H112045   0.403   4.048   0.522
 4027TIP3    H212046   0.501   3.980   0.428
 4028TIP3   OH212047   4.897   2.979   2.940
 4028TIP3    H112048   4.830   2.930   2.892
 4028TIP3    H212049   4.877   2.964   3.032
 4029TIP3   OH212050   5.641   1.388   3.294
 4029TIP3    H112051   5.662   1.480   3.277
 4029TIP3    H212052   5.659   1.344   3.211
 4030TIP3   OH212053   4.416   5.554   5.881
 4030TIP3    H112054   4.365   5.631   5.906
 4030TIP3    H212055   4.492   5.590   5.834
 4031TIP3   OH212056   6.235   2.188   3.980
 4031TIP3    H112057   6.264   2.194   3.889
 4031TIP3    H212058   6.145   2.220   3.979
 4032TIP3   OH212059   1.159   3.821   0.224
 4032TIP3    H112060   1.111   3.870   0.158
 4032TIP3    H212061   1.249   3.819   0.191
 4033TIP3   OH212062   5.118   1.927   1.333
 4033TIP3    H112063   5.173   1.988   1.383
 4033TIP3    H212064   5.051   1.983   1.294
 4034TIP3   OH212065   2.525   1.998   3.128
 4034TIP3    H112066   2.533   1.920   3.073
 4034TIP3    H212067   2.436   2.030   3.112
 4035TIP3   OH212068   3.883   4.213   4.624
 4035TIP3    H112069   3.904   4.155   4.698
 4035TIP3    H212070   3.928   4.173   4.549
 4036TIP3   OH212071   7.045   5.576   4.927
 4036TIP3    H112072   7.020   5.505   4.868
 4036TIP3    H212073   7.055   5.533   5.012
 4037TIP3   OH212074   6.079   6.255   2.494
 4037TIP3    H112075   6.003   6.225   2.544
 4037TIP3    H212076   6.109   6.177   2.447
 4038TIP3   OH212077   3.361   4.500   3.428
 4038TIP3    H112078   3.336   4.478   3.518
 4038TIP3    H212079   3.356   4.416   3.381
 4039TIP3   OH212080   0.504   5.137   1.247
 4039TIP3    H112081   0.429   5.181   1.206
 4039TIP3    H212082   0.478   5.045   1.253
 4040TIP3   OH212083   6.949   4.127   2.011
 4040TIP3    H112084   6.891   4.053   1.995
 4040TIP3    H212085   7.014   4.094   2.073
 4041TIP3   OH212086   5.212   2.398   1.856
 4041TIP3    H112087   5.295   2.400   1.809
 4041TIP3    H212088   5.220   2.467   1.922
 4042TIP3   OH212089   1.885   5.921   0.825
 4042TIP3    H112090   1.902   5.875   0.908
 4042TIP3    H212091   1.921   6.008   0.838
 4043TIP3   OH212092   2.244   1.334   2.943
 4043TIP3    H112093   2.152   1.351   2.963
 4043TIP3    H212094   2.247   1.324   2.848
 4044TIP3   OH212095   2.802   1.086   0.081
 4044TIP3    H112096   2.743   1.102   0.155
 4044TIP3    H212097   2.890   1.097   0.118
 4045TIP3   OH212098   3.265   5.801   0.991
 4045TIP3    H112099   3.273   5.812   0.897
 4045TIP3    H212100   3.269   5.707   1.005
 4046TIP3   OH212101   0.839   1.828   4.905
 4046TIP3    H112102   0.908   1.785   4.955
 4046TIP3    H212103   0.827   1.912   4.948
 4047TIP3   OH212104   2.393   6.683   3.076
 4047TIP3    H112105   2.475   6.635   3.069
 4047TIP3    H212106   2.407   6.763   3.025
 4048TIP3   OH212107   3.205   4.451   3.686
 4048TIP3    H112108   3.119   4.472   3.724
 4048TIP3    H212109   3.241   4.384   3.744
 4049TIP3   OH212110   6.355   2.897   5.601
 4049TIP3    H112111   6.290   2.944   5.549
 4049TIP3    H212112   6.336   2.922   5.691
 4050TIP3   OH212113   5.155   2.825   3.700
 4050TIP3    H112114   5.207   2.818   3.620
 4050TIP3    H212115   5.123   2.915   3.700
 4051TIP3   OH212116   0.777   5.786   4.557
 4051TIP3    H112117   0.819   5.786   4.471
 4051TIP3    H212118   0.684   5.772   4.538
 4052TIP3   OH212119   0.727   3.713   1.617
 4052TIP3    H112120   0.689   3.707   1.530
 4052TIP3    H212121   0.819   3.691   1.606
 4053TIP3   OH212122   6.293   3.468   5.183
 4053TIP3    H112123   6.236   3.542   5.162
 4053TIP3    H212124   6.380   3.506   5.191
 4054TIP3   OH212125   0.575   2.285   2.231
 4054TIP3    H112126   0.559   2.252   2.142
 4054TIP3    H212127   0.664   2.321   2.227
 4055TIP3   OH212128   2.381   5.948   0.520
 4055TIP3    H112129   2.292   5.918   0.540
 4055TIP3    H212130   2.436   5.897   0.579
 4056TIP3   OH212131   5.346   2.269   0.351
 4056TIP3    H112132   5.383   2.356   0.333
 4056TIP3    H212133   5.420   2.209   0.341
 4057TIP3   OH212134   3.247   4.631   1.528
 4057TIP3    H112135   3.319   4.573   1.503
 4057TIP3    H212136   3.195   4.640   1.448
 4058TIP3   OH212137   4.096   4.925   4.366
 4058TIP3    H112138   4.104   4.870   4.444
 4058TIP3    H212139   4.019   4.979   4.383
 4059TIP3   OH212140   4.229   4.842   5.109
 4059TIP3    H112141   4.249   4.785   5.035
 4059TIP3    H212142   4.264   4.797   5.185
 4060TIP3   OH212143   0.471   0.312   4.679
 4060TIP3    H112144   0.489   0.370   4.605
 4060TIP3    H212145   0.382   0.335   4.706
 4061TIP3   OH212146   4.046   6.421   4.829
 4061TIP3    H112147   3.986   6.350   4.851
 4061TIP3    H212148   4.056   6.415   4.733
 4062TIP3   OH212149   3.369   3.800   3.571
 4062TIP3    H112150   3.300   3.866   3.583
 4062TIP3    H212151   3.443   3.834   3.620
 4063TIP3   OH212152   2.830   6.121   5.645
 4063TIP3    H112153   2.783   6.050   5.602
 4063TIP3    H212154   2.761   6.180   5.676
 4064TIP3   OH212155   1.387   1.318   1.282
 4064TIP3    H112156   1.440   1.249   1.322
 4064TIP3    H212157   1.298   1.283   1.282
 4065TIP3   OH212158   3.713   2.186   1.411
 4065TIP3    H112159   3.621   2.213   1.409
 4065TIP3    H212160   3.714   2.108   1.466
 4066TIP3   OH212161   6.878   3.114   5.320
 4066TIP3    H112162   6.800   3.100   5.374
 4066TIP3    H212163   6.858   3.070   5.237
 4067TIP3   OH212164   0.037   1.374   0.112
 4067TIP3    H112165   0.002   1.350   0.198
 4067TIP3    H212166  -0.030   1.432   0.075
 4068TIP3   OH212167   2.533   5.722   4.650
 4068TIP3    H112168   2.512   5.708   4.558
 4068TIP3    H212169   2.596   5.794   4.649
 4069TIP3   OH212170   0.980   3.902   5.677
 4069TIP3    H112171   0.902   3.933   5.632
 4069TIP3    H212172   0.968   3.808   5.685
 4070TIP3   OH212173   3.188   3.650   0.800
 4070TIP3    H112174   3.175   3.727   0.746
 4070TIP3    H212175   3.142   3.669   0.882
 4071TIP3   OH212176   3.154   1.758   1.092
 4071TIP3    H112177   3.209   1.754   1.170
 4071TIP3    H212178   3.100   1.680   1.097
 4072TIP3   OH212179   5.221   2.708   2.273
 4072TIP3    H112180   5.282   2.680   2.341
 4072TIP3    H212181   5.136   2.677   2.305
 4073TIP3   OH212182   4.888   6.712   1.477
 4073TIP3    H112183   4.951   6.737   1.545
 4073TIP3    H212184   4.900   6.777   1.408
 4074TIP3   OH212185   2.344   0.592   3.578
 4074TIP3    H112186   2.288   0.520   3.607
 4074TIP3    H212187   2.298   0.671   3.607
 4075TIP3   OH212188   6.018   4.594   4.584
 4075TIP3    H112189   6.106   4.567   4.609
 4075TIP3    H212190   6.024   4.612   4.490
 4076TIP3   OH212191   6.183   4.259   0.606
 4076TIP3    H112192   6.120   4.312   0.556
 4076TIP3    H212193   6.153   4.266   0.697
 4077TIP3   OH212194   4.773   4.105   1.005
 4077TIP3    H112195   4.853   4.064   0.971
 4077TIP3    H212196   4.709   4.094   0.934
 4078TIP3   OH212197   1.232   6.777   4.427
 4078TIP3    H112198   1.311   6.755   4.476
 4078TIP3    H212199   1.263   6.793   4.338
 4079TIP3   OH212200   4.803   1.419   0.147
 4079TIP3    H112201   4.764   1.343   0.191
 4079TIP3    H212202   4.778   1.494   0.200
 4080TIP3   OH212203   2.175   5.931   5.147
 4080TIP3    H112204   2.169   5.912   5.054
 4080TIP3    H212205   2.263   5.902   5.171
 4081TIP3   OH212206   3.052   6.841   4.818
 4081TIP3    H112207   2.963   6.840   4.853
 4081TIP3    H212208   3.093   6.763   4.855
 4082TIP3   OH212209   1.741   5.096   4.730
 4082TIP3    H112210   1.812   5.047   4.688
 4082TIP3    H212211   1.708   5.038   4.798
 4083TIP3   OH212212   1.871   1.183   4.843
 4083TIP3    H112213   1.882   1.116   4.776
 4083TIP3    H212214   1.859   1.264   4.793
 4084TIP3   OH212215   3.068   0.430   4.436
 4084TIP3    H112216   3.120   0.387   4.369
 4084TIP3    H212217   3.128   0.441   4.510
 4085TIP3   OH212218   4.520   0.465   4.294
 4085TIP3    H112219   4.604   0.418   4.290
 4085TIP3    H212220   4.518   0.518   4.214
 4086TIP3   OH212221   0.359   2.686   5.371
 4086TIP3    H112222   0.352   2.670   5.465
 4086TIP3    H212223   0.451   2.708   5.357
 4087TIP3   OH212224   5.451   2.768   5.399
 4087TIP3    H112225   5.406   2.828   5.340
 4087TIP3    H212226   5.479   2.823   5.473
 4088TIP3   OH212227   0.923   1.228   4.119
 4088TIP3    H112228   0.881   1.248   4.036
 4088TIP3    H212229   0.867   1.161   4.158
 4089TIP3   OH212230   0.112   2.866   0.449
 4089TIP3    H112231   0.073   2.913   0.522
 4089TIP3    H212232   0.141   2.782   0.486
 4090TIP3   OH212233   3.471   6.445   1.749
 4090TIP3    H112234   3.477   6.421   1.842
 4090TIP3    H212235   3.378   6.438   1.729
 4091TIP3   OH212236   3.640   0.317   2.696
 4091TIP3    H112237   3.730   0.289   2.683
 4091TIP3    H212238   3.608   0.262   2.767
 4092TIP3   OH212239   4.205   0.483   2.593
 4092TIP3    H112240   4.194   0.432   2.513
 4092TIP3    H212241   4.122   0.472   2.639
 4093TIP3   OH212242   1.025   4.816   3.324
 4093TIP3    H112243   1.082   4.879   3.368
 4093TIP3    H212244   0.964   4.788   3.393
 4094TIP3   OH212245   4.891   6.239   0.335
 4094TIP3    H112246   4.962   6.302   0.346
 4094TIP3    H212247   4.884   6.227   0.240
 4095TIP3   OH212248   0.629   1.985   5.674
 4095TIP3    H112249   0.644   1.931   5.597
 4095TIP3    H212250   0.714   1.991   5.717
 4096TIP3   OH212251   5.234   6.286   1.373
 4096TIP3    H112252   5.147   6.260   1.403
 4096TIP3    H212253   5.218   6.328   1.289
 4097TIP3   OH212254   6.961   1.570   1.205
 4097TIP3    H112255   6.871   1.567   1.172
 4097TIP3    H212256   6.956   1.535   1.293
 4098TIP3   OH212257   4.095   6.228   3.623
 4098TIP3    H112258   4.167   6.290   3.627
 4098TIP3    H212259   4.128   6.156   3.570
 4099TIP3   OH212260   4.828   4.216   0.420
 4099TIP3    H112261   4.846   4.164   0.498
 4099TIP3    H212262   4.833   4.307   0.450
 4100TIP3   OH212263   3.700   3.052   0.187
 4100TIP3    H112264   3.758   3.084   0.118
 4100TIP3    H212265   3.676   2.964   0.159
 4101TIP3   OH212266   0.028   4.340   2.702
 4101TIP3    H112267   0.071   4.373   2.781
 4101TIP3    H212268  -0.065   4.338   2.725
 4102TIP3   OH212269   4.359   6.163   0.823
 4102TIP3    H112270   4.342   6.072   0.847
 4102TIP3    H212271   4.299   6.214   0.877
 4103TIP3   OH212272   6.370   6.387   0.994
 4103TIP3    H112273   6.395   6.478   0.976
 4103TIP3    H212274   6.451   6.337   0.985
 4104TIP3   OH212275   0.634   1.483   3.476
 4104TIP3    H112276   0.572   1.410   3.475
 4104TIP3    H212277   0.619   1.525   3.561
 4105TIP3   OH212278   6.315   6.663   2.357
 4105TIP3    H112279   6.237   6.681   2.410
 4105TIP3    H212280   6.296   6.578   2.316
 4106TIP3   OH212281   0.991   4.738   5.229
 4106TIP3    H112282   1.059   4.695   5.177
 4106TIP3    H212283   0.930   4.773   5.164
 4107TIP3   OH212284   0.123   6.053   3.914
 4107TIP3    H112285   0.087   6.053   4.002
 4107TIP3    H212286   0.090   5.972   3.875
 4108TIP3   OH212287   6.639   2.547   1.873
 4108TIP3    H112288   6.578   2.587   1.934
 4108TIP3    H212289   6.584   2.492   1.817
 4109TIP3   OH212290   6.056   2.032   1.789
 4109TIP3    H112291   6.040   1.938   1.796
 4109TIP3    H212292   6.108   2.054   1.866
 4110TIP3   OH212293   3.518   2.627   1.131
 4110TIP3    H112294   3.550   2.541   1.156
 4110TIP3    H212295   3.508   2.674   1.214
 4111TIP3   OH212296   1.538   2.620   0.546
 4111TIP3    H112297   1.590   2.684   0.595
 4111TIP3    H212298   1.457   2.613   0.596
 4112TIP3   OH212299   2.369   0.867   1.151
 4112TIP3    H112300   2.424   0.939   1.119
 4112TIP3    H212301   2.418   0.788   1.129
 4113TIP3   OH212302   6.886   1.352   3.358
 4113TIP3    H112303   6.797   1.318   3.363
 4113TIP3    H212304   6.876   1.442   3.327
 4114TIP3   OH212305   2.068   2.475   5.123
 4114TIP3    H112306   1.978   2.443   5.117
 4114TIP3    H212307   2.117   2.420   5.062
 4115TIP3   OH212308   7.057   3.920   1.152
 4115TIP3    H112309   7.080   3.893   1.241
 4115TIP3    H212310   7.030   4.011   1.161
 4116TIP3   OH212311   2.039   5.285   0.203
 4116TIP3    H112312   1.982   5.359   0.224
 4116TIP3    H212313   1.987   5.208   0.224
 4117TIP3   OH212314   6.534   2.594   5.122
 4117TIP3    H112315   6.534   2.547   5.039
 4117TIP3    H212316   6.614   2.646   5.120
 4118TIP3   OH212317   6.455   0.091   3.925
 4118TIP3    H112318   6.413   0.074   4.010
 4118TIP3    H212319   6.546   0.063   3.938
 4119TIP3   OH212320   2.116   2.871   5.408
 4119TIP3    H112321   2.181   2.851   5.475
 4119TIP3    H212322   2.165   2.910   5.337
 4120TIP3   OH212323   0.123   1.232   3.303
 4120TIP3    H112324   0.176   1.312   3.307
 4120TIP3    H212325   0.042   1.255   3.348
 4121TIP3   OH212326   4.703   4.045   5.735
 4121TIP3    H112327   4.779   4.093   5.703
 4121TIP3    H212328   4.733   3.954   5.742
 4122TIP3   OH212329   1.837   5.112   3.115
 4122TIP3    H112330   1.899   5.108   3.042
 4122TIP3    H212331   1.775   5.042   3.097
 4123TIP3   OH212332   0.948   3.465   1.761
 4123TIP3    H112333   1.011   3.536   1.749
 4123TIP3    H212334   0.870   3.508   1.797
 4124TIP3   OH212335   1.740   2.924   1.428
 4124TIP3    H112336   1.655   2.948   1.466
 4124TIP3    H212337   1.725   2.925   1.334
 4125TIP3   OH212338   6.069   1.320   2.689
 4125TIP3    H112339   6.027   1.300   2.606
 4125TIP3    H212340   6.046   1.247   2.747
 4126TIP3   OH212341   4.109   6.438   0.776
 4126TIP3    H112342   4.052   6.362   0.764
 4126TIP3    H212343   4.155   6.448   0.692
 4127TIP3   OH212344   6.807   6.706   2.995
 4127TIP3    H112345   6.815   6.801   2.993
 4127TIP3    H212346   6.740   6.686   2.929
 4128TIP3   OH212347   5.610   5.415   0.611
 4128TIP3    H112348   5.654   5.431   0.528
 4128TIP3    H212349   5.522   5.451   0.599
 4129TIP3   OH212350   4.469   0.555   2.776
 4129TIP3    H112351   4.381   0.558   2.739
 4129TIP3    H212352   4.457   0.521   2.865
 4130TIP3   OH212353   5.359   4.925   4.801
 4130TIP3    H112354   5.264   4.920   4.795
 4130TIP3    H212355   5.390   4.894   4.716
 4131TIP3   OH212356   1.648   6.519   1.902
 4131TIP3    H112357   1.701   6.459   1.954
 4131TIP3    H212358   1.604   6.575   1.966
 4132TIP3   OH212359   6.451   4.692   5.303
 4132TIP3    H112360   6.457   4.781   5.338
 4132TIP3    H212361   6.443   4.637   5.380
 4133TIP3   OH212362   3.397   3.854   2.301
 4133TIP3    H112363   3.476   3.905   2.282
 4133TIP3    H212364   3.408   3.773   2.252
 4134TIP3   OH212365   6.555   0.467   5.698
 4134TIP3    H112366   6.574   0.381   5.661
 4134TIP3    H212367   6.512   0.515   5.628
 4135TIP3   OH212368   2.255   6.733   4.063
 4135TIP3    H112369   2.159   6.737   4.064
 4135TIP3    H212370   2.277   6.738   3.970
 4136TIP3   OH212371   6.846   1.339   5.497
 4136TIP3    H112372   6.791   1.285   5.555
 4136TIP3    H212373   6.931   1.295   5.497
 4137TIP3   OH212374   0.944   4.724   4.212
 4137TIP3    H112375   0.927   4.717   4.306
 4137TIP3    H212376   0.857   4.723   4.173
 4138TIP3   OH212377   0.066   0.274   4.493
 4138TIP3    H112378   0.063   0.319   4.578
 4138TIP3    H212379   0.041   0.341   4.430
 4139TIP3   OH212380   1.427   1.088   0.476
 4139TIP3    H112381   1.473   1.059   0.555
 4139TIP3    H212382   1.378   1.012   0.447
 4140TIP3   OH212383   1.322   4.414   2.005
 4140TIP3    H112384   1.363   4.479   2.062
 4140TIP3    H212385   1.353   4.330   2.039
 4141TIP3   OH212386   3.283   6.219   4.752
 4141TIP3    H112387   3.345   6.215   4.825
 4141TIP3    H212388   3.262   6.128   4.733
 4142TIP3   OH212389   2.398   2.951   2.440
 4142TIP3    H112390   2.340   2.967   2.366
 4142TIP3    H212391   2.486   2.971   2.406
 4143TIP3   OH212392   3.310   6.585   4.629
 4143TIP3    H112393   3.258   6.557   4.554
 4143TIP3    H212394   3.399   6.557   4.609
 4144TIP3   OH212395   3.332   5.321   2.812
 4144TIP3    H112396   3.266   5.358   2.754
 4144TIP3    H212397   3.327   5.226   2.796
 4145TIP3   OH212398   3.519   0.651   0.213
 4145TIP3    H112399   3.498   0.740   0.185
 4145TIP3    H212400   3.582   0.619   0.148
 4146TIP3   OH212401   6.760   3.089   4.727
 4146TIP3    H112402   6.673   3.056   4.750
 4146TIP3    H212403   6.748   3.183   4.719
 4147TIP3   OH212404   6.436   0.524   2.909
 4147TIP3    H112405   6.513   0.475   2.938
 4147TIP3    H212406   6.424   0.498   2.818
 4148TIP3   OH212407   1.871   2.516   0.904
 4148TIP3    H112408   1.793   2.499   0.958
 4148TIP3    H212409   1.844   2.495   0.815
 4149TIP3   OH212410   5.686   1.957   2.496
 4149TIP3    H112411   5.670   1.863   2.499
 4149TIP3    H212412   5.737   1.971   2.416
 4150TIP3   OH212413   0.704   3.565   5.536
 4150TIP3    H112414   0.698   3.612   5.453
 4150TIP3    H212415   0.624   3.589   5.583
 4151TIP3   OH212416   1.121   0.095   0.411
 4151TIP3    H112417   1.082   0.165   0.463
 4151TIP3    H212418   1.213   0.095   0.436
 4152TIP3   OH212419   5.539   5.053  -0.003
 4152TIP3    H112420   5.592   4.976   0.018
 4152TIP3    H212421   5.523   5.046  -0.097
 4153TIP3   OH212422   5.218   3.848   5.018
 4153TIP3    H112423   5.295   3.839   4.963
 4153TIP3    H212424   5.153   3.890   4.961
 4154TIP3   OH212425   3.601   3.145   5.921
 4154TIP3    H112426   3.657   3.160   5.845
 4154TIP3    H212427   3.641   3.071   5.967
 4155TIP3   OH212428   3.802   2.571   1.004
 4155TIP3    H112429   3.760   2.486   1.022
 4155TIP3    H212430   3.891   2.548   0.977
 4156TIP3   OH212431   5.546   2.458   3.918
 4156TIP3    H112432   5.590   2.442   3.835
 4156TIP3    H212433   5.521   2.371   3.949
 4157TIP3   OH212434   5.852   4.549   0.404
 4157TIP3    H112435   5.868   4.461   0.437
 4157TIP3    H212436   5.882   4.607   0.475
 4158TIP3   OH212437   2.225   4.779   1.312
 4158TIP3    H112438   2.167   4.724   1.365
 4158TIP3    H212439   2.292   4.809   1.374
 4159TIP3   OH212440   1.235   3.431   1.649
 4159TIP3    H112441   1.277   3.372   1.587
 4159TIP3    H212442   1.292   3.429   1.727
 4160TIP3   OH212443   1.156   4.133   5.117
 4160TIP3    H112444   1.104   4.092   5.048
 4160TIP3    H212445   1.133   4.084   5.196
 4161TIP3   OH212446   7.035   5.478   3.688
 4161TIP3    H112447   7.016   5.533   3.611
 4161TIP3    H212448   7.014   5.389   3.659
 4162TIP3   OH212449   4.757   1.458   0.725
 4162TIP3    H112450   4.690   1.426   0.785
 4162TIP3    H212451   4.814   1.382   0.710
 4163TIP3   OH212452   5.851   2.880   4.191
 4163TIP3    H112453   5.766   2.895   4.150
 4163TIP3    H212454   5.830   2.862   4.283
 4164TIP3   OH212455   3.454   3.329   1.198
 4164TIP3    H112456   3.393   3.347   1.270
 4164TIP3    H212457   3.399   3.292   1.129
 4165TIP3   OH212458   2.526   4.515   2.583
 4165TIP3    H112459   2.524   4.521   2.678
 4165TIP3    H212460   2.565   4.429   2.565
 4166TIP3   OH212461   5.653   5.984   0.056
 4166TIP3    H112462   5.666   6.052   0.122
 4166TIP3    H212463   5.563   5.956   0.067
 4167TIP3   OH212464   1.770   4.315   4.035
 4167TIP3    H112465   1.689   4.286   3.992
 4167TIP3    H212466   1.765   4.279   4.123
 4168TIP3   OH212467   1.629   0.410   2.795
 4168TIP3    H112468   1.685   0.380   2.866
 4168TIP3    H212469   1.676   0.385   2.715
 4169TIP3   OH212470   6.712   4.825   5.735
 4169TIP3    H112471   6.764   4.775   5.798
 4169TIP3    H212472   6.628   4.838   5.779
 4170TIP3   OH212473   5.842   0.144   1.761
 4170TIP3    H112474   5.760   0.147   1.711
 4170TIP3    H212475   5.816   0.109   1.847
 4171TIP3   OH212476   2.863   3.765   2.969
 4171TIP3    H112477   2.927   3.828   2.937
 4171TIP3    H212478   2.803   3.752   2.895
 4172TIP3   OH212479   5.757   0.771   1.118
 4172TIP3    H112480   5.792   0.854   1.152
 4172TIP3    H212481   5.685   0.797   1.061
 4173TIP3   OH212482   0.460   2.111   4.882
 4173TIP3    H112483   0.509   2.158   4.949
 4173TIP3    H212484   0.526   2.070   4.827
 4174TIP3   OH212485   6.930   3.523   0.150
 4174TIP3    H112486   7.013   3.496   0.189
 4174TIP3    H212487   6.901   3.597   0.204
 4175TIP3   OH212488   4.252   0.968   2.221
 4175TIP3    H112489   4.294   0.993   2.303
 4175TIP3    H212490   4.161   0.999   2.231
 4176TIP3   OH212491   5.452   0.094   0.143
 4176TIP3    H112492   5.433   0.160   0.210
 4176TIP3    H212493   5.383   0.028   0.155
 4177TIP3   OH212494   3.852   0.528   2.007
 4177TIP3    H112495   3.889   0.543   2.094
 4177TIP3    H212496   3.805   0.445   2.015
 4178TIP3   OH212497   6.101   5.781   3.668
 4178TIP3    H112498   6.127   5.833   3.744
 4178TIP3    H212499   6.126   5.692   3.690
 4179TIP3   OH212500   0.514   3.871   1.725
 4179TIP3    H112501   0.504   3.880   1.820
 4179TIP3    H212502   0.545   3.781   1.713
 4180TIP3   OH212503   0.960   4.316   1.857
 4180TIP3    H112504   1.025   4.312   1.927
 4180TIP3    H212505   0.964   4.407   1.825
 4181TIP3   OH212506   0.825   2.651   0.888
 4181TIP3    H112507   0.907   2.604   0.875
 4181TIP3    H212508   0.764   2.585   0.922
 4182TIP3   OH212509   6.002   5.077   1.039
 4182TIP3    H112510   5.993   4.983   1.025
 4182TIP3    H212511   5.915   5.106   1.065
 4183TIP3   OH212512   0.480   2.744   5.818
 4183TIP3    H112513   0.494   2.683   5.746
 4183TIP3    H212514   0.409   2.801   5.787
 4184TIP3   OH212515   6.682   4.928   2.534
 4184TIP3    H112516   6.632   4.864   2.587
 4184TIP3    H212517   6.704   4.880   2.454
 4185TIP3   OH212518   5.785   4.990   3.227
 4185TIP3    H112519   5.808   4.902   3.257
 4185TIP3    H212520   5.835   5.001   3.146
 4186TIP3   OH212521   2.266   5.151   0.729
 4186TIP3    H112522   2.277   5.082   0.663
 4186TIP3    H212523   2.272   5.105   0.812
 4187TIP3   OH212524   1.313   2.921   3.066
 4187TIP3    H112525   1.227   2.879   3.069
 4187TIP3    H212526   1.297   3.011   3.092
 4188TIP3   OH212527   0.007   5.900   4.181
 4188TIP3    H112528  -0.057   5.960   4.218
 4188TIP3    H212529   0.057   5.869   4.256
 4189TIP3   OH212530   1.146   4.676   2.099
 4189TIP3    H112531   1.240   4.688   2.114
 4189TIP3    H212532   1.141   4.643   2.009
 4190TIP3   OH212533   0.160   3.819   3.122
 4190TIP3    H112534   0.120   3.906   3.128
 4190TIP3    H212535   0.240   3.826   3.175
 4191TIP3   OH212536   6.314   6.491   5.099
 4191TIP3    H112537   6.298   6.583   5.121
 4191TIP3    H212538   6.305   6.487   5.004
 4192TIP3   OH212539   3.605   5.232   0.272
 4192TIP3    H112540   3.628   5.194   0.187
 4192TIP3    H212541   3.567   5.160   0.322
 4193TIP3   OH212542   4.103   2.303   5.419
 4193TIP3    H112543   4.181   2.344   5.456
 4193TIP3    H212544   4.088   2.225   5.473
 4194TIP3   OH212545   5.651   3.824   3.758
 4194TIP3    H112546   5.710   3.873   3.701
 4194TIP3    H212547   5.599   3.770   3.699
 4195TIP3   OH212548   0.221   5.080   3.467
 4195TIP3    H112549   0.268   5.118   3.392
 4195TIP3    H212550   0.220   5.149   3.533
 4196TIP3   OH212551   7.004   0.868   2.762
 4196TIP3    H112552   7.045   0.891   2.845
 4196TIP3    H212553   6.911   0.861   2.783
 4197TIP3   OH212554   3.667   2.728   3.221
 4197TIP3    H112555   3.748   2.772   3.248
 4197TIP3    H212556   3.662   2.744   3.127
 4198TIP3   OH212557   0.527   2.552   3.334
 4198TIP3    H112558   0.608   2.602   3.340
 4198TIP3    H212559   0.505   2.553   3.241
 4199TIP3   OH212560   3.148   6.648   0.469
 4199TIP3    H112561   3.141   6.648   0.565
 4199TIP3    H212562   3.225   6.703   0.451
 4200TIP3   OH212563   2.332   3.907   2.485
 4200TIP3    H112564   2.285   3.883   2.565
 4200TIP3    H212565   2.379   3.987   2.509
 4201TIP3   OH212566   5.979   2.609   5.643
 4201TIP3    H112567   5.915   2.558   5.692
 4201TIP3    H212568   5.929   2.684   5.609
 4202TIP3   OH212569   1.417   0.051   4.708
 4202TIP3    H112570   1.501   0.005   4.707
 4202TIP3    H212571   1.352  -0.017   4.693
 4203TIP3   OH212572   5.200   2.631   1.620
 4203TIP3    H112573   5.155   2.700   1.571
 4203TIP3    H212574   5.248   2.678   1.689
 4204TIP3   OH212575   6.654   4.054   2.735
 4204TIP3    H112576   6.594   3.980   2.729
 4204TIP3    H212577   6.676   4.075   2.644
 4205TIP3   OH212578   0.881   0.232   2.063
 4205TIP3    H112579   0.866   0.248   2.157
 4205TIP3    H212580   0.946   0.162   2.061
 4206TIP3   OH212581   3.850   1.060   5.418
 4206TIP3    H112582   3.792   1.014   5.357
 4206TIP3    H212583   3.934   1.016   5.409
 4207TIP3   OH212584   0.942   2.980   5.834
 4207TIP3    H112585   1.009   2.926   5.876
 4207TIP3    H212586   0.884   2.917   5.791
 4208TIP3   OH212587   1.676   5.823   5.380
 4208TIP3    H112588   1.611   5.892   5.363
 4208TIP3    H212589   1.641   5.746   5.336
 4209TIP3   OH212590   5.656   5.182   3.423
 4209TIP3    H112591   5.695   5.134   3.350
 4209TIP3    H212592   5.562   5.163   3.417
 4210TIP3   OH212593   2.732   2.713   3.945
 4210TIP3    H112594   2.712   2.755   3.861
 4210TIP3    H212595   2.676   2.636   3.947
 4211TIP3   OH212596   5.990   3.906   4.640
 4211TIP3    H112597   6.065   3.854   4.612
 4211TIP3    H212598   6.002   3.915   4.735
 4212TIP3   OH212599   3.181   4.749   1.763
 4212TIP3    H112600   3.206   4.697   1.687
 4212TIP3    H212601   3.264   4.779   1.801
 4213TIP3   OH212602   2.856   1.235   3.442
 4213TIP3    H112603   2.881   1.267   3.529
 4213TIP3    H212604   2.859   1.140   3.449
 4214TIP3   OH212605   5.921   4.028   0.465
 4214TIP3    H112606   5.991   4.029   0.530
 4214TIP3    H212607   5.850   3.981   0.508
 4215TIP3   OH212608   4.264   2.256   0.152
 4215TIP3    H112609   4.251   2.217   0.066
 4215TIP3    H212610   4.330   2.325   0.137
 4216TIP3   OH212611   1.687   5.861   1.811
 4216TIP3    H112612   1.631   5.783   1.808
 4216TIP3    H212613   1.731   5.856   1.895
 4217TIP3   OH212614   3.367   4.021   4.052
 4217TIP3    H112615   3.347   4.062   3.968
 4217TIP3    H212616   3.282   3.987   4.082
 4218TIP3   OH212617   2.002   3.270   0.180
 4218TIP3    H112618   1.920   3.222   0.180
 4218TIP3    H212619   1.977   3.362   0.188
 4219TIP3   OH212620   4.790   6.033   4.098
 4219TIP3    H112621   4.847   6.107   4.076
 4219TIP3    H212622   4.774   5.988   4.015
 4220TIP3   OH212623   4.278   0.864   3.509
 4220TIP3    H112624   4.339   0.875   3.582
 4220TIP3    H212625   4.310   0.788   3.461
 4221TIP3   OH212626   4.811   6.689   2.963
 4221TIP3    H112627   4.780   6.713   2.875
 4221TIP3    H212628   4.900   6.725   2.967
 4222TIP3   OH212629   5.608   1.190   2.663
 4222TIP3    H112630   5.686   1.163   2.615
 4222TIP3    H212631   5.623   1.282   2.683
 4223TIP3   OH212632   4.920   5.704   5.619
 4223TIP3    H112633   4.902   5.779   5.677
 4223TIP3    H212634   4.867   5.721   5.541
 4224TIP3   OH212635   2.260   1.264   0.563
 4224TIP3    H112636   2.180   1.304   0.529
 4224TIP3    H212637   2.234   1.177   0.591
 4225TIP3   OH212638   4.440   2.508   5.777
 4225TIP3    H112639   4.397   2.593   5.780
 4225TIP3    H212640   4.456   2.486   5.869
 4226TIP3   OH212641   2.490   2.044   1.039
 4226TIP3    H112642   2.581   2.015   1.034
 4226TIP3    H212643   2.487   2.122   0.985
 4227TIP3   OH212644   2.122   5.554   0.929
 4227TIP3    H112645   2.141   5.638   0.971
 4227TIP3    H212646   2.033   5.533   0.958
 4228TIP3   OH212647   1.550   3.126   1.744
 4228TIP3    H112648   1.529   3.058   1.680
 4228TIP3    H212649   1.636   3.158   1.718
 4229TIP3   OH212650   3.069   6.113   1.310
 4229TIP3    H112651   3.138   6.090   1.248
 4229TIP3    H212652   3.064   6.038   1.369
 4230TIP3   OH212653   3.716   6.036   1.519
 4230TIP3    H112654   3.732   6.044   1.425
 4230TIP3    H212655   3.620   6.031   1.527
 4231TIP3   OH212656   6.469   2.033   3.767
 4231TIP3    H112657   6.528   2.012   3.840
 4231TIP3    H212658   6.513   1.999   3.690
 4232TIP3   OH212659   1.562   4.232   3.852
 4232TIP3    H112660   1.601   4.147   3.830
 4232TIP3    H212661   1.484   4.210   3.902
 4233TIP3   OH212662   2.225   2.575   2.743
 4233TIP3    H112663   2.139   2.531   2.745
 4233TIP3    H212664   2.252   2.571   2.652
 4234TIP3   OH212665   5.859   6.425   3.041
 4234TIP3    H112666   5.927   6.487   3.067
 4234TIP3    H212667   5.779   6.458   3.082
 4235TIP3   OH212668   3.620   3.876   3.704
 4235TIP3    H112669   3.646   3.859   3.795
 4235TIP3    H212670   3.702   3.869   3.655
 4236TIP3   OH212671   2.677   4.271   2.486
 4236TIP3    H112672   2.723   4.237   2.410
 4236TIP3    H212673   2.736   4.338   2.522
 4237TIP3   OH212674   3.462   2.247   2.511
 4237TIP3    H112675   3.369   2.257   2.491
 4237TIP3    H212676   3.470   2.159   2.547
 4238TIP3   OH212677   2.951   2.275   5.306
 4238TIP3    H112678   2.995   2.303   5.386
 4238TIP3    H212679   2.867   2.321   5.308
 4239TIP3   OH212680   0.137   3.387   2.323
 4239TIP3    H112681   0.210   3.333   2.354
 4239TIP3    H212682   0.081   3.398   2.401
 4240TIP3   OH212683   0.848   1.565   3.334
 4240TIP3    H112684   0.775   1.570   3.395
 4240TIP3    H212685   0.880   1.655   3.328
 4241TIP3   OH212686   4.906   6.630   4.329
 4241TIP3    H112687   4.889   6.710   4.279
 4241TIP3    H212688   4.840   6.630   4.398
 4242TIP3   OH212689   2.795   3.904   5.285
 4242TIP3    H112690   2.713   3.918   5.239
 4242TIP3    H212691   2.829   3.992   5.301
 4243TIP3   OH212692   5.873   4.214   5.453
 4243TIP3    H112693   5.958   4.172   5.454
 4243TIP3    H212694   5.810   4.142   5.456
 4244TIP3   OH212695   4.715   4.017   2.282
 4244TIP3    H112696   4.770   4.036   2.358
 4244TIP3    H212697   4.716   3.922   2.275
 4245TIP3   OH212698   6.087   4.023   3.773
 4245TIP3    H112699   6.171   3.981   3.788
 4245TIP3    H212700   6.063   4.060   3.858
 4246TIP3   OH212701   3.430   5.259   4.648
 4246TIP3    H112702   3.506   5.316   4.631
 4246TIP3    H212703   3.355   5.308   4.614
 4247TIP3   OH212704   2.657   1.263   4.108
 4247TIP3    H112705   2.640   1.339   4.164
 4247TIP3    H212706   2.627   1.188   4.158
 4248TIP3   OH212707   4.428   5.774   1.319
 4248TIP3    H112708   4.433   5.866   1.291
 4248TIP3    H212709   4.508   5.735   1.285
 4249TIP3   OH212710   5.635   2.173   0.874
 4249TIP3    H112711   5.675   2.090   0.850
 4249TIP3    H212712   5.542   2.161   0.854
 4250TIP3   OH212713   7.154   3.368   0.219
 4250TIP3    H112714   7.184   3.342   0.132
 4250TIP3    H212715   7.206   3.314   0.279
 4251TIP3   OH212716   5.967   1.964   3.796
 4251TIP3    H112717   6.046   1.926   3.834
 4251TIP3    H212718   5.996   2.046   3.756
 4252TIP3   OH212719   5.649   3.127   2.874
 4252TIP3    H112720   5.566   3.110   2.829
 4252TIP3    H212721   5.691   3.041   2.879
 4253TIP3   OH212722   6.062   4.808   2.017
 4253TIP3    H112723   5.983   4.755   2.002
 4253TIP3    H212724   6.077   4.854   1.935
 4254TIP3   OH212725   1.752   1.445   4.363
 4254TIP3    H112726   1.817   1.453   4.294
 4254TIP3    H212727   1.737   1.351   4.371
 4255TIP3   OH212728   3.696   4.959   5.390
 4255TIP3    H112729   3.758   4.970   5.462
 4255TIP3    H212730   3.610   4.953   5.433
 4256TIP3   OH212731   1.253   1.201   5.654
 4256TIP3    H112732   1.208   1.165   5.577
 4256TIP3    H212733   1.343   1.212   5.626
 4257TIP3   OH212734   4.345   5.544   2.088
 4257TIP3    H112735   4.328   5.631   2.052
 4257TIP3    H212736   4.437   5.527   2.067
 4258TIP3   OH212737   2.554   2.509   0.063
 4258TIP3    H112738   2.589   2.520  -0.025
 4258TIP3    H212739   2.498   2.431   0.057
 4259TIP3   OH212740   5.271   1.795   0.772
 4259TIP3    H112741   5.354   1.795   0.818
 4259TIP3    H212742   5.281   1.862   0.704
 4260TIP3   OH212743   2.280   0.988   2.197
 4260TIP3    H112744   2.335   0.947   2.265
 4260TIP3    H212745   2.265   1.077   2.229
 4261TIP3   OH212746   5.305   6.296   4.382
 4261TIP3    H112747   5.391   6.322   4.416
 4261TIP3    H212748   5.305   6.200   4.388
 4262TIP3   OH212749   2.519   5.824   2.050
 4262TIP3    H112750   2.504   5.741   2.096
 4262TIP3    H212751   2.472   5.889   2.102
 4263TIP3   OH212752   0.836   1.033   1.939
 4263TIP3    H112753   0.808   1.084   1.863
 4263TIP3    H212754   0.921   0.998   1.913
 4264TIP3   OH212755   6.587   3.085   1.280
 4264TIP3    H112756   6.639   3.117   1.354
 4264TIP3    H212757   6.498   3.082   1.313
 4265TIP3   OH212758   2.118   0.286   4.745
 4265TIP3    H112759   2.169   0.301   4.825
 4265TIP3    H212760   2.060   0.362   4.739
 4266TIP3   OH212761   4.739   1.063   0.789
 4266TIP3    H112762   4.816   1.101   0.747
 4266TIP3    H212763   4.760   0.970   0.797
 4267TIP3   OH212764   2.049   5.158   5.067
 4267TIP3    H112765   2.113   5.155   5.139
 4267TIP3    H212766   2.030   5.251   5.055
 4268TIP3   OH212767   2.007   1.146   0.356
 4268TIP3    H112768   1.957   1.147   0.275
 4268TIP3    H212769   1.941   1.152   0.425
 4269TIP3   OH212770   5.580   2.520   1.910
 4269TIP3    H112771   5.519   2.501   1.839
 4269TIP3    H212772   5.584   2.439   1.961
 4270TIP3   OH212773   3.660   4.420   5.506
 4270TIP3    H112774   3.621   4.366   5.574
 4270TIP3    H212775   3.747   4.382   5.493
 4271TIP3   OH212776   5.325   5.775   5.589
 4271TIP3    H112777   5.253   5.785   5.526
 4271TIP3    H212778   5.399   5.820   5.547
 4272TIP3   OH212779   1.155   3.943   2.106
 4272TIP3    H112780   1.223   3.879   2.089
 4272TIP3    H212781   1.106   3.948   2.023
 4273TIP3   OH212782   4.786   0.677   2.984
 4273TIP3    H112783   4.775   0.770   2.965
 4273TIP3    H212784   4.823   0.640   2.904
 4274TIP3   OH212785   0.046   6.170   5.391
 4274TIP3    H112786   0.043   6.100   5.326
 4274TIP3    H212787   0.096   6.240   5.348
 4275TIP3   OH212788   2.190   5.432   1.707
 4275TIP3    H112789   2.238   5.454   1.787
 4275TIP3    H212790   2.235   5.480   1.638
 4276TIP3   OH212791   4.352   6.666   0.343
 4276TIP3    H112792   4.380   6.637   0.256
 4276TIP3    H212793   4.357   6.761   0.339
 4277TIP3   OH212794   0.235   5.958   2.695
 4277TIP3    H112795   0.303   6.016   2.729
 4277TIP3    H212796   0.252   5.873   2.737
 4278TIP3   OH212797   0.553   2.449   0.744
 4278TIP3    H112798   0.552   2.466   0.838
 4278TIP3    H212799   0.644   2.426   0.724
 4279TIP3   OH212800   5.687   3.342   5.289
 4279TIP3    H112801   5.651   3.373   5.206
 4279TIP3    H212802   5.611   3.310   5.338
 4280TIP3   OH212803   5.721   0.736   2.057
 4280TIP3    H112804   5.646   0.744   1.998
 4280TIP3    H212805   5.705   0.654   2.104
 4281TIP3   OH212806   3.409   1.723   2.454
 4281TIP3    H112807   3.467   1.687   2.521
 4281TIP3    H212808   3.333   1.755   2.503
 4282TIP3   OH212809   1.200   2.678   3.786
 4282TIP3    H112810   1.190   2.656   3.879
 4282TIP3    H212811   1.282   2.635   3.760
 4283TIP3   OH212812   6.540   2.326   5.782
 4283TIP3    H112813   6.560   2.418   5.761
 4283TIP3    H212814   6.446   2.326   5.799
 4284TIP3   OH212815   3.971   4.293   1.485
 4284TIP3    H112816   4.040   4.298   1.551
 4284TIP3    H212817   4.017   4.297   1.401
 4285TIP3   OH212818   3.172   4.357   0.743
 4285TIP3    H112819   3.154   4.371   0.650
 4285TIP3    H212820   3.243   4.417   0.763
 4286TIP3   OH212821   6.054   0.529   3.296
 4286TIP3    H112822   6.077   0.609   3.249
 4286TIP3    H212823   6.135   0.477   3.295
 4287TIP3   OH212824   3.671   2.910   1.335
 4287TIP3    H112825   3.590   2.858   1.339
 4287TIP3    H212826   3.737   2.849   1.302
 4288TIP3   OH212827   2.435   1.466   0.427
 4288TIP3    H112828   2.348   1.426   0.424
 4288TIP3    H212829   2.418   1.560   0.424
 4289TIP3   OH212830   4.333   0.258   1.410
 4289TIP3    H112831   4.322   0.217   1.496
 4289TIP3    H212832   4.399   0.326   1.425
 4290TIP3   OH212833   3.618   3.038   4.836
 4290TIP3    H112834   3.632   3.078   4.922
 4290TIP3    H212835   3.658   3.099   4.775
 4291TIP3   OH212836   3.428   1.814   5.281
 4291TIP3    H112837   3.428   1.761   5.201
 4291TIP3    H212838   3.520   1.818   5.307
 4292TIP3   OH212839   0.706   5.360   4.378
 4292TIP3    H112840   0.730   5.395   4.292
 4292TIP3    H212841   0.750   5.275   4.383
 4293TIP3   OH212842   3.676   2.036   2.707
 4293TIP3    H112843   3.681   1.995   2.794
 4293TIP3    H212844   3.584   2.027   2.682
 4294TIP3   OH212845   5.810   3.457   1.984
 4294TIP3    H112846   5.721   3.425   1.995
 4294TIP3    H212847   5.861   3.379   1.959
 4295TIP3   OH212848   4.364   0.209   4.483
 4295TIP3    H112849   4.450   0.187   4.520
 4295TIP3    H212850   4.301   0.173   4.545
 4296TIP3   OH212851   0.988   1.777   5.826
 4296TIP3    H112852   1.074   1.756   5.862
 4296TIP3    H212853   0.948   1.834   5.892
 4297TIP3   OH212854   5.611   6.441   0.407
 4297TIP3    H112855   5.678   6.508   0.422
 4297TIP3    H212856   5.586   6.413   0.495
 4298TIP3   OH212857   3.085   3.684   1.432
 4298TIP3    H112858   3.165   3.737   1.433
 4298TIP3    H212859   3.100   3.617   1.499
 4299TIP3   OH212860   1.471   2.935   1.572
 4299TIP3    H112861   1.408   2.984   1.520
 4299TIP3    H212862   1.421   2.862   1.609
 4300TIP3   OH212863   6.419   6.137   0.096
 4300TIP3    H112864   6.423   6.225   0.059
 4300TIP3    H212865   6.511   6.113   0.111
 4301TIP3   OH212866   4.816   6.362   5.369
 4301TIP3    H112867   4.759   6.308   5.314
 4301TIP3    H212868   4.905   6.343   5.338
 4302TIP3   OH212869   5.020   2.018   2.194
 4302TIP3    H112870   5.015   2.113   2.201
 4302TIP3    H212871   5.009   1.987   2.284
 4303TIP3   OH212872   2.020   5.125   4.049
 4303TIP3    H112873   1.943   5.149   4.101
 4303TIP3    H212874   2.050   5.207   4.010
 4304TIP3   OH212875   0.329  -0.013   4.853
 4304TIP3    H112876   0.379   0.047   4.798
 4304TIP3    H212877   0.291   0.043   4.921
 4305TIP3   OH212878   4.405   3.245   0.719
 4305TIP3    H112879   4.435   3.336   0.718
 4305TIP3    H212880   4.386   3.227   0.811
 4306TIP3   OH212881   1.590   1.834   4.324
 4306TIP3    H112882   1.666   1.835   4.382
 4306TIP3    H212883   1.547   1.751   4.344
 4307TIP3   OH212884   2.997   1.833   3.943
 4307TIP3    H112885   3.092   1.840   3.939
 4307TIP3    H212886   2.974   1.766   3.878
 4308TIP3   OH212887   5.277   3.582   4.183
 4308TIP3    H112888   5.315   3.557   4.267
 4308TIP3    H212889   5.353   3.597   4.126
 4309TIP3   OH212890   1.898   2.110   0.406
 4309TIP3    H112891   1.923   2.202   0.414
 4309TIP3    H212892   1.812   2.105   0.448
 4310TIP3   OH212893   0.525   0.570   1.430
 4310TIP3    H112894   0.525   0.633   1.358
 4310TIP3    H212895   0.439   0.527   1.424
 4311TIP3   OH212896   0.633   6.039   5.505
 4311TIP3    H112897   0.586   5.964   5.467
 4311TIP3    H212898   0.674   6.004   5.584
 4312TIP3   OH212899   4.969   6.103   3.642
 4312TIP3    H112900   5.035   6.044   3.678
 4312TIP3    H212901   5.010   6.190   3.646
 4313TIP3   OH212902   2.790   0.091   1.841
 4313TIP3    H112903   2.703   0.109   1.805
 4313TIP3    H212904   2.809   0.001   1.814
 4314TIP3   OH212905   1.109   1.913   5.603
 4314TIP3    H112906   1.042   1.856   5.640
 4314TIP3    H212907   1.116   1.885   5.512
 4315TIP3   OH212908   7.207   5.213   5.060
 4315TIP3    H112909   7.282   5.262   5.027
 4315TIP3    H212910   7.172   5.168   4.983
 4316TIP3   OH212911   5.743   3.602   2.870
 4316TIP3    H112912   5.680   3.669   2.845
 4316TIP3    H212913   5.812   3.650   2.916
 4317TIP3   OH212914   5.102   3.716   5.240
 4317TIP3    H112915   5.140   3.768   5.170
 4317TIP3    H212916   5.063   3.641   5.195
 4318TIP3   OH212917   6.409   5.135   5.769
 4318TIP3    H112918   6.459   5.075   5.824
 4318TIP3    H212919   6.457   5.138   5.686
 4319TIP3   OH212920   5.025   5.487   2.653
 4319TIP3    H112921   4.950   5.474   2.710
 4319TIP3    H212922   5.065   5.401   2.645
 4320TIP3   OH212923   1.037   0.016   0.831
 4320TIP3    H112924   1.128   0.001   0.856
 4320TIP3    H212925   1.039   0.021   0.735
 4321TIP3   OH212926   4.145   5.463   3.021
 4321TIP3    H112927   4.074   5.413   2.981
 4321TIP3    H212928   4.101   5.529   3.074
 4322TIP3   OH212929   1.161   3.145   0.413
 4322TIP3    H112930   1.114   3.174   0.334
 4322TIP3    H212931   1.158   3.050   0.409
 4323TIP3   OH212932   0.438   6.340   1.773
 4323TIP3    H112933   0.398   6.261   1.810
 4323TIP3    H212934   0.390   6.354   1.691
 4324TIP3   OH212935   0.126   5.995   2.314
 4324TIP3    H112936   0.182   5.917   2.316
 4324TIP3    H212937   0.037   5.961   2.303
 4325TIP3   OH212938   6.435   4.156   5.852
 4325TIP3    H112939   6.468   4.132   5.766
 4325TIP3    H212940   6.509   4.138   5.911
 4326TIP3   OH212941   3.597   6.423   0.580
 4326TIP3    H112942   3.520   6.459   0.537
 4326TIP3    H212943   3.573   6.419   0.673
 4327TIP3   OH212944   4.382   2.557   2.722
 4327TIP3    H112945   4.293   2.531   2.699
 4327TIP3    H212946   4.436   2.483   2.696
 4328TIP3   OH212947   5.183   2.000   4.940
 4328TIP3    H112948   5.178   2.091   4.913
 4328TIP3    H212949   5.274   1.986   4.965
 4329TIP3   OH212950   4.501   0.831   3.684
 4329TIP3    H112951   4.467   0.746   3.713
 4329TIP3    H212952   4.553   0.811   3.607
 4330TIP3   OH212953   0.623   4.684   4.676
 4330TIP3    H112954   0.548   4.725   4.632
 4330TIP3    H212955   0.586   4.648   4.757
 4331TIP3   OH212956   6.745   5.473   1.655
 4331TIP3    H112957   6.688   5.443   1.726
 4331TIP3    H212958   6.688   5.528   1.601
 4332TIP3   OH212959   4.499   1.330   3.457
 4332TIP3    H112960   4.476   1.375   3.538
 4332TIP3    H212961   4.502   1.237   3.482
 4333TIP3   OH212962   7.085   0.286   1.723
 4333TIP3    H112963   7.033   0.347   1.671
 4333TIP3    H212964   7.135   0.341   1.782
 4334TIP3   OH212965   5.991   5.618   1.627
 4334TIP3    H112966   5.941   5.556   1.574
 4334TIP3    H212967   5.955   5.704   1.603
 4335TIP3   OH212968   2.593   2.175   3.320
 4335TIP3    H112969   2.588   2.110   3.249
 4335TIP3    H212970   2.684   2.173   3.348
 4336TIP3   OH212971   3.230   0.226   1.372
 4336TIP3    H112972   3.289   0.285   1.419
 4336TIP3    H212973   3.178   0.185   1.441
 4337TIP3   OH212974   5.264   2.079   3.997
 4337TIP3    H112975   5.216   2.018   4.052
 4337TIP3    H212976   5.203   2.101   3.926
 4338TIP3   OH212977   1.627   4.847   2.307
 4338TIP3    H112978   1.657   4.868   2.219
 4338TIP3    H212979   1.689   4.892   2.365
 4339TIP3   OH212980   4.202   5.388   5.466
 4339TIP3    H112981   4.234   5.308   5.507
 4339TIP3    H212982   4.250   5.393   5.383
 4340TIP3   OH212983   5.506   1.320   4.445
 4340TIP3    H112984   5.542   1.232   4.454
 4340TIP3    H212985   5.503   1.354   4.534
 4341TIP3   OH212986   6.222   0.586   4.274
 4341TIP3    H112987   6.174   0.587   4.357
 4341TIP3    H212988   6.310   0.615   4.297
 4342TIP3   OH212989   2.624   2.506   0.849
 4342TIP3    H112990   2.576   2.565   0.792
 4342TIP3    H212991   2.709   2.494   0.806
 4343TIP3   OH212992   5.144   3.072   2.894
 4343TIP3    H112993   5.156   3.025   2.811
 4343TIP3    H212994   5.055   3.050   2.920
 4344TIP3   OH212995   0.763   1.555   4.907
 4344TIP3    H112996   0.692   1.509   4.862
 4344TIP3    H212997   0.742   1.648   4.896
 4345TIP3   OH212998   4.651   1.280   4.836
 4345TIP3    H112999   4.665   1.230   4.916
 4345TIP3    H213000   4.623   1.216   4.772
 4346TIP3   OH213001   5.131   1.566   4.510
 4346TIP3    H113002   5.177   1.570   4.594
 4346TIP3    H213003   5.053   1.513   4.528
 4347TIP3   OH213004   4.185   1.552   2.060
 4347TIP3    H113005   4.107   1.532   2.009
 4347TIP3    H213006   4.253   1.495   2.025
 4348TIP3   OH213007   0.834   1.126   5.662
 4348TIP3    H113008   0.794   1.162   5.583
 4348TIP3    H213009   0.926   1.112   5.638
 4349TIP3   OH213010   1.096   2.833   5.433
 4349TIP3    H113011   1.165   2.835   5.367
 4349TIP3    H213012   1.094   2.922   5.469
 4350TIP3   OH213013   5.952   5.981   1.874
 4350TIP3    H113014   5.908   5.987   1.959
 4350TIP3    H213015   6.021   5.915   1.888
 4351TIP3   OH213016   0.181   0.658   3.044
 4351TIP3    H113017   0.172   0.753   3.056
 4351TIP3    H213018   0.196   0.624   3.133
 4352TIP3   OH213019   2.566   1.087   4.553
 4352TIP3    H113020   2.651   1.123   4.531
 4352TIP3    H213021   2.584   0.997   4.581
 4353TIP3   OH213022   1.186   2.357   1.376
 4353TIP3    H113023   1.275   2.382   1.349
 4353TIP3    H213024   1.198   2.278   1.428
 4354TIP3   OH213025   2.552   5.318   0.765
 4354TIP3    H113026   2.510   5.401   0.787
 4354TIP3    H213027   2.506   5.288   0.687
 4355TIP3   OH213028   6.184   4.255   5.271
 4355TIP3    H113029   6.145   4.330   5.315
 4355TIP3    H213030   6.194   4.284   5.180
 4356TIP3   OH213031   0.430   2.237   3.118
 4356TIP3    H113032   0.485   2.310   3.145
 4356TIP3    H213033   0.362   2.231   3.185
 4357TIP3   OH213034   7.118   1.792   5.317
 4357TIP3    H113035   7.100   1.865   5.376
 4357TIP3    H213036   7.044   1.792   5.256
 4358TIP3   OH213037   5.653   4.833   2.976
 4358TIP3    H113038   5.633   4.772   3.047
 4358TIP3    H213039   5.679   4.914   3.021
 4359TIP3   OH213040   4.141   5.556   1.782
 4359TIP3    H113041   4.198   5.505   1.725
 4359TIP3    H213042   4.111   5.494   1.849
 4360TIP3   OH213043   3.609   0.938   1.474
 4360TIP3    H113044   3.538   0.960   1.414
 4360TIP3    H213045   3.574   0.865   1.526
 4361TIP3   OH213046   1.064   3.624   2.105
 4361TIP3    H113047   1.114   3.703   2.123
 4361TIP3    H213048   0.987   3.655   2.056
 4362TIP3   OH213049   6.314   5.148   0.145
 4362TIP3    H113050   6.314   5.122   0.053
 4362TIP3    H213051   6.356   5.075   0.191
 4363TIP3   OH213052   2.722   5.835   4.437
 4363TIP3    H113053   2.636   5.872   4.453
 4363TIP3    H213054   2.706   5.743   4.419
 4364TIP3   OH213055   3.076   0.453   5.336
 4364TIP3    H113056   3.124   0.377   5.305
 4364TIP3    H213057   3.065   0.508   5.259
 4365TIP3   OH213058   2.100   6.070   4.216
 4365TIP3    H113059   2.125   6.158   4.186
 4365TIP3    H213060   2.018   6.051   4.171
 4366TIP3   OH213061   4.688   1.982   2.543
 4366TIP3    H113062   4.698   2.072   2.574
 4366TIP3    H213063   4.604   1.982   2.497
 4367TIP3   OH213064   1.899   0.324   1.468
 4367TIP3    H113065   1.908   0.306   1.375
 4367TIP3    H213066   1.989   0.323   1.502
 4368TIP3   OH213067   6.110   1.476   1.806
 4368TIP3    H113068   6.204   1.480   1.787
 4368TIP3    H213069   6.072   1.429   1.731
 4369TIP3   OH213070   2.514   6.137   4.199
 4369TIP3    H113071   2.587   6.082   4.169
 4369TIP3    H213072   2.442   6.115   4.140
 4370TIP3   OH213073   2.233   1.805   5.706
 4370TIP3    H113074   2.295   1.755   5.653
 4370TIP3    H213075   2.148   1.768   5.685
 4371TIP3   OH213076   1.697   4.569   0.055
 4371TIP3    H113077   1.602   4.570   0.040
 4371TIP3    H213078   1.708   4.609   0.141
 4372TIP3   OH213079   3.199   4.189   2.966
 4372TIP3    H113080   3.238   4.261   2.916
 4372TIP3    H213081   3.171   4.125   2.901
 4373TIP3   OH213082   6.273   5.978   0.321
 4373TIP3    H113083   6.186   5.968   0.281
 4373TIP3    H213084   6.314   6.049   0.271
 4374TIP3   OH213085   6.683   4.687   1.103
 4374TIP3    H113086   6.691   4.773   1.143
 4374TIP3    H213087   6.654   4.630   1.175
 4375TIP3   OH213088   3.211   1.953   5.649
 4375TIP3    H113089   3.230   1.989   5.562
 4375TIP3    H213090   3.298   1.936   5.687
 4376TIP3   OH213091   1.265   3.103   5.369
 4376TIP3    H113092   1.340   3.080   5.315
 4376TIP3    H213093   1.189   3.083   5.315
 4377TIP3   OH213094   5.000   1.799   0.761
 4377TIP3    H113095   5.095   1.788   0.761
 4377TIP3    H213096   4.968   1.721   0.715
 4378TIP3   OH213097   6.616   4.284   3.562
 4378TIP3    H113098   6.661   4.335   3.494
 4378TIP3    H213099   6.526   4.316   3.559
 4379TIP3   OH213100   5.819   5.770   2.696
 4379TIP3    H113101   5.730   5.776   2.660
 4379TIP3    H213102   5.809   5.718   2.776
 4380TIP3   OH213103   5.365   0.784   2.245
 4380TIP3    H113104   5.297   0.766   2.311
 4380TIP3    H213105   5.420   0.705   2.245
 4381TIP3   OH213106   4.555   5.736   4.828
 4381TIP3    H113107   4.462   5.723   4.842
 4381TIP3    H213108   4.564   5.746   4.733
 4382TIP3   OH213109   1.512   4.239   1.170
 4382TIP3    H113110   1.482   4.330   1.174
 4382TIP3    H213111   1.443   4.190   1.214
 4383TIP3   OH213112   3.118   2.212   4.440
 4383TIP3    H113113   3.208   2.193   4.468
 4383TIP3    H213114   3.125   2.230   4.347
 4384TIP3   OH213115   0.408   3.578   4.266
 4384TIP3    H113116   0.361   3.553   4.346
 4384TIP3    H213117   0.390   3.506   4.205
 4385TIP3   OH213118   4.715   2.471   3.869
 4385TIP3    H113119   4.793   2.505   3.913
 4385TIP3    H213120   4.646   2.477   3.935
 4386TIP3   OH213121   2.076   2.747   5.912
 4386TIP3    H113122   2.151   2.798   5.882
 4386TIP3    H213123   2.057   2.688   5.839
 4387TIP3   OH213124   2.961   0.192   0.663
 4387TIP3    H113125   2.980   0.197   0.569
 4387TIP3    H213126   3.046   0.173   0.703
 4388TIP3   OH213127   6.250   5.669   2.784
 4388TIP3    H113128   6.216   5.733   2.846
 4388TIP3    H213129   6.334   5.705   2.755
 4389TIP3   OH213130   2.489   3.234   5.339
 4389TIP3    H113131   2.476   3.147   5.300
 4389TIP3    H213132   2.561   3.221   5.401
 4390TIP3   OH213133   0.408   6.399   5.214
 4390TIP3    H113134   0.420   6.466   5.146
 4390TIP3    H213135   0.339   6.343   5.180
 4391TIP3   OH213136   6.573   6.745   3.685
 4391TIP3    H113137   6.617   6.717   3.604
 4391TIP3    H213138   6.576   6.840   3.682
 4392TIP3   OH213139   5.867   5.589   5.081
 4392TIP3    H113140   5.948   5.540   5.064
 4392TIP3    H213141   5.797   5.531   5.053
 4393TIP3   OH213142   3.235   6.289   0.877
 4393TIP3    H113143   3.162   6.346   0.898
 4393TIP3    H213144   3.208   6.202   0.907
 4394TIP3   OH213145   2.745   5.511   4.146
 4394TIP3    H113146   2.740   5.573   4.074
 4394TIP3    H213147   2.813   5.449   4.120
 4395TIP3   OH213148   3.152   6.552   4.045
 4395TIP3    H113149   3.240   6.539   4.010
 4395TIP3    H213150   3.148   6.646   4.064
 4396TIP3   OH213151   4.917   6.222   1.706
 4396TIP3    H113152   4.943   6.314   1.713
 4396TIP3    H213153   4.852   6.210   1.775
 4397TIP3   OH213154   4.789   0.260   5.004
 4397TIP3    H113155   4.694   0.252   5.007
 4397TIP3    H213156   4.815   0.275   5.095
 4398TIP3   OH213157   5.214   1.721   5.355
 4398TIP3    H113158   5.171   1.772   5.286
 4398TIP3    H213159   5.156   1.646   5.369
 4399TIP3   OH213160   3.562   1.500   0.463
 4399TIP3    H113161   3.569   1.539   0.376
 4399TIP3    H213162   3.563   1.575   0.523
 4400TIP3   OH213163   2.252   3.566   4.680
 4400TIP3    H113164   2.338   3.602   4.658
 4400TIP3    H213165   2.211   3.633   4.735
 4401TIP3   OH213166   6.646   4.917   1.311
 4401TIP3    H113167   6.583   4.856   1.347
 4401TIP3    H213168   6.694   4.951   1.387
 4402TIP3   OH213169   0.418   1.560   5.074
 4402TIP3    H113170   0.470   1.629   5.035
 4402TIP3    H213171   0.348   1.543   5.011
 4403TIP3   OH213172   6.376   3.166   0.025
 4403TIP3    H113173   6.369   3.104   0.098
 4403TIP3    H213174   6.309   3.232   0.043
 4404TIP3   OH213175   1.650   0.250   1.916
 4404TIP3    H113176   1.682   0.302   1.843
 4404TIP3    H213177   1.728   0.207   1.952
 4405TIP3   OH213178   3.965   1.326   3.167
 4405TIP3    H113179   3.974   1.277   3.249
 4405TIP3    H213180   4.054   1.355   3.147
 4406TIP3   OH213181   2.958   6.202   1.042
 4406TIP3    H113182   2.903   6.260   1.096
 4406TIP3    H213183   3.004   6.147   1.105
 4407TIP3   OH213184   6.155   3.640   1.597
 4407TIP3    H113185   6.238   3.677   1.566
 4407TIP3    H213186   6.089   3.705   1.573
 4408TIP3   OH213187   6.180   2.891   3.342
 4408TIP3    H113188   6.163   2.981   3.369
 4408TIP3    H213189   6.111   2.872   3.277
 4409TIP3   OH213190   0.774   1.045   4.267
 4409TIP3    H113191   0.686   1.064   4.299
 4409TIP3    H213192   0.779   0.949   4.266
 4410TIP3   OH213193   4.141   3.112   0.688
 4410TIP3    H113194   4.125   3.040   0.749
 4410TIP3    H213195   4.232   3.136   0.704
 4411TIP3   OH213196   1.381   6.604   2.287
 4411TIP3    H113197   1.407   6.651   2.208
 4411TIP3    H213198   1.464   6.585   2.332
 4412TIP3   OH213199   1.640   0.491   1.399
 4412TIP3    H113200   1.675   0.575   1.367
 4412TIP3    H213201   1.608   0.447   1.320
 4413TIP3   OH213202   3.459   1.109   3.969
 4413TIP3    H113203   3.509   1.168   4.026
 4413TIP3    H213204   3.521   1.039   3.950
 4414TIP3   OH213205   1.998   5.470   1.957
 4414TIP3    H113206   2.071   5.512   1.912
 4414TIP3    H213207   1.930   5.461   1.890
 4415TIP3   OH213208   0.604   5.346   4.645
 4415TIP3    H113209   0.587   5.253   4.634
 4415TIP3    H213210   0.625   5.377   4.557
 4416TIP3   OH213211   1.037   3.591   0.311
 4416TIP3    H113212   1.061   3.674   0.270
 4416TIP3    H213213   1.109   3.573   0.372
 4417TIP3   OH213214   6.450   4.930   0.492
 4417TIP3    H113215   6.402   4.937   0.575
 4417TIP3    H213216   6.389   4.887   0.432
 4418TIP3   OH213217   7.060   3.911   3.915
 4418TIP3    H113218   7.089   3.833   3.866
 4418TIP3    H213219   7.045   3.977   3.848
 4419TIP3   OH213220   2.217   2.784   1.371
 4419TIP3    H113221   2.288   2.834   1.332
 4419TIP3    H213222   2.146   2.787   1.307
 4420TIP3   OH213223   5.204   1.917   5.806
 4420TIP3    H113224   5.250   1.846   5.761
 4420TIP3    H213225   5.173   1.974   5.735
 4421TIP3   OH213226   4.893   3.881   0.268
 4421TIP3    H113227   4.920   3.942   0.200
 4421TIP3    H213228   4.971   3.828   0.286
 4422TIP3   OH213229   7.134   5.434   1.344
 4422TIP3    H113230   7.202   5.442   1.411
 4422TIP3    H213231   7.182   5.406   1.266
 4423TIP3   OH213232   4.331   4.778   4.448
 4423TIP3    H113233   4.365   4.867   4.446
 4423TIP3    H213234   4.321   4.754   4.356
 4424TIP3   OH213235   5.941   2.959   5.185
 4424TIP3    H113236   5.933   3.054   5.181
 4424TIP3    H213237   5.995   2.943   5.263
 4425TIP3   OH213238   1.718   0.066   2.838
 4425TIP3    H113239   1.673   0.043   2.920
 4425TIP3    H213240   1.768  -0.012   2.815
 4426TIP3   OH213241   6.814   5.068   5.709
 4426TIP3    H113242   6.778   4.979   5.706
 4426TIP3    H213243   6.894   5.063   5.657
 4427TIP3   OH213244   0.474   0.806   4.679
 4427TIP3    H113245   0.418   0.882   4.663
 4427TIP3    H213246   0.496   0.774   4.592
 4428TIP3   OH213247   6.567   4.351   3.152
 4428TIP3    H113248   6.552   4.428   3.097
 4428TIP3    H213249   6.620   4.383   3.224
 4429TIP3   OH213250   2.955   2.076   0.525
 4429TIP3    H113251   3.018   2.096   0.594
 4429TIP3    H213252   2.938   2.159   0.482
 4430TIP3   OH213253   1.383   6.363   5.509
 4430TIP3    H113254   1.380   6.359   5.414
 4430TIP3    H213255   1.381   6.271   5.537
 4431TIP3   OH213256   4.791   5.380   5.911
 4431TIP3    H113257   4.703   5.363   5.878
 4431TIP3    H213258   4.849   5.334   5.850
 4432TIP3   OH213259   2.490   5.978   4.441
 4432TIP3    H113260   2.500   6.016   4.354
 4432TIP3    H213261   2.448   5.894   4.426
 4433TIP3   OH213262   0.734   5.341   5.458
 4433TIP3    H113263   0.705   5.287   5.532
 4433TIP3    H213264   0.701   5.296   5.381
 4434TIP3   OH213265   5.643   6.133   1.218
 4434TIP3    H113266   5.702   6.061   1.198
 4434TIP3    H213267   5.644   6.187   1.139
 4435TIP3   OH213268   1.655   0.881   3.158
 4435TIP3    H113269   1.623   0.963   3.121
 4435TIP3    H213270   1.725   0.907   3.218
 4436TIP3   OH213271   3.799   0.389   5.824
 4436TIP3    H113272   3.815   0.437   5.905
 4436TIP3    H213273   3.747   0.449   5.770
 4437TIP3   OH213274   4.302   2.271   3.479
 4437TIP3    H113275   4.333   2.222   3.555
 4437TIP3    H213276   4.293   2.361   3.510
 4438TIP3   OH213277   5.724   4.018   2.320
 4438TIP3    H113278   5.775   4.020   2.239
 4438TIP3    H213279   5.634   4.031   2.291
 4439TIP3   OH213280   3.534   5.492   2.791
 4439TIP3    H113281   3.475   5.418   2.780
 4439TIP3    H213282   3.480   5.562   2.828
 4440TIP3   OH213283   5.148   0.289   2.086
 4440TIP3    H113284   5.186   0.226   2.146
 4440TIP3    H213285   5.063   0.310   2.124
 4441TIP3   OH213286   4.303   4.896   5.615
 4441TIP3    H113287   4.290   4.804   5.591
 4441TIP3    H213288   4.263   4.905   5.701
 4442TIP3   OH213289   6.963   4.492   1.459
 4442TIP3    H113290   6.930   4.580   1.473
 4442TIP3    H213291   7.058   4.501   1.453
 4443TIP3   OH213292   3.936   1.544   1.001
 4443TIP3    H113293   3.951   1.633   1.033
 4443TIP3    H213294   4.023   1.504   1.001
 4444TIP3   OH213295   0.761   1.620   0.265
 4444TIP3    H113296   0.781   1.555   0.198
 4444TIP3    H213297   0.667   1.637   0.256
 4445TIP3   OH213298   4.741   0.773   0.814
 4445TIP3    H113299   4.748   0.685   0.779
 4445TIP3    H213300   4.790   0.771   0.895
 4446TIP3   OH213301   4.252   1.695   0.496
 4446TIP3    H113302   4.246   1.699   0.591
 4446TIP3    H213303   4.271   1.785   0.469
 4447TIP3   OH213304   3.210   1.610   4.298
 4447TIP3    H113305   3.168   1.525   4.314
 4447TIP3    H213306   3.280   1.615   4.363
 4448TIP3   OH213307   2.594   5.028   0.883
 4448TIP3    H113308   2.553   4.984   0.957
 4448TIP3    H213309   2.575   5.121   0.896
 4449TIP3   OH213310   0.792   6.093   2.810
 4449TIP3    H113311   0.873   6.040   2.813
 4449TIP3    H213312   0.726   6.036   2.849
 4450TIP3   OH213313   5.281   0.731   3.922
 4450TIP3    H113314   5.280   0.710   3.829
 4450TIP3    H213315   5.292   0.647   3.966
 4451TIP3   OH213316   6.277   3.121   1.860
 4451TIP3    H113317   6.204   3.070   1.895
 4451TIP3    H213318   6.350   3.102   1.920
 4452TIP3   OH213319   5.170   5.259   5.839
 4452TIP3    H113320   5.106   5.258   5.767
 4452TIP3    H213321   5.219   5.177   5.829
 4453TIP3   OH213322   4.971   3.483   4.288
 4453TIP3    H113323   5.043   3.488   4.225
 4453TIP3    H213324   4.984   3.400   4.333
 4454TIP3   OH213325   1.492   2.100   5.040
 4454TIP3    H113326   1.425   2.165   5.063
 4454TIP3    H213327   1.568   2.124   5.092
 4455TIP3   OH213328   1.070   5.525   1.817
 4455TIP3    H113329   1.086   5.529   1.911
 4455TIP3    H213330   1.014   5.448   1.804
 4456TIP3   OH213331   2.089   6.358   5.318
 4456TIP3    H113332   2.045   6.431   5.360
 4456TIP3    H213333   2.181   6.367   5.345
 4457TIP3   OH213334   0.183   6.704   0.982
 4457TIP3    H113335   0.155   6.741   1.066
 4457TIP3    H213336   0.166   6.610   0.991
 4458TIP3   OH213337   0.058   0.785   3.784
 4458TIP3    H113338  -0.002   0.849   3.746
 4458TIP3    H213339   0.002   0.719   3.823
 4459TIP3   OH213340   7.045   1.316   2.938
 4459TIP3    H113341   7.002   1.393   2.901
 4459TIP3    H213342   7.135   1.344   2.955
 4460TIP3   OH213343   2.481   1.598   2.645
 4460TIP3    H113344   2.483   1.622   2.553
 4460TIP3    H213345   2.505   1.679   2.691
 4461TIP3   OH213346   5.004   5.812   0.921
 4461TIP3    H113347   5.034   5.884   0.867
 4461TIP3    H213348   5.076   5.794   0.981
 4462TIP3   OH213349   5.333   5.501   0.737
 4462TIP3    H113350   5.268   5.570   0.731
 4462TIP3    H213351   5.290   5.424   0.699
 4463TIP3   OH213352   3.521   1.949   0.470
 4463TIP3    H113353   3.577   2.017   0.433
 4463TIP3    H213354   3.571   1.911   0.542
 4464TIP3   OH213355   5.336   1.117   3.191
 4464TIP3    H113356   5.302   1.177   3.257
 4464TIP3    H213357   5.355   1.173   3.115
 4465TIP3   OH213358   7.054   1.774   4.846
 4465TIP3    H113359   7.014   1.771   4.934
 4465TIP3    H213360   7.143   1.741   4.859
 4466TIP3   OH213361   6.122   1.248   4.739
 4466TIP3    H113362   6.081   1.258   4.825
 4466TIP3    H213363   6.210   1.283   4.750
 4467TIP3   OH213364   3.230   6.362   5.407
 4467TIP3    H113365   3.256   6.434   5.464
 4467TIP3    H213366   3.296   6.294   5.421
 4468TIP3   OH213367   3.319   0.014   2.839
 4468TIP3    H113368   3.258  -0.013   2.770
 4468TIP3    H213369   3.362  -0.067   2.866
 4469TIP3   OH213370   4.732   2.357   0.903
 4469TIP3    H113371   4.801   2.325   0.845
 4469TIP3    H213372   4.756   2.323   0.990
 4470TIP3   OH213373   0.626   5.337   0.132
 4470TIP3    H113374   0.610   5.329   0.038
 4470TIP3    H213375   0.681   5.416   0.140
 4471TIP3   OH213376   0.149   1.219   0.569
 4471TIP3    H113377   0.115   1.304   0.598
 4471TIP3    H213378   0.074   1.161   0.571
 4472TIP3   OH213379   4.343   2.042   4.390
 4472TIP3    H113380   4.399   2.073   4.319
 4472TIP3    H213381   4.392   1.970   4.430
 4473TIP3   OH213382   5.817   6.436   1.193
 4473TIP3    H113383   5.851   6.386   1.267
 4473TIP3    H213384   5.864   6.519   1.197
 4474TIP3   OH213385   6.735   5.455   4.065
 4474TIP3    H113386   6.770   5.487   3.982
 4474TIP3    H213387   6.808   5.407   4.105
 4475TIP3   OH213388   6.357   2.101   0.065
 4475TIP3    H113389   6.426   2.136   0.009
 4475TIP3    H213390   6.310   2.178   0.098
 4476TIP3   OH213391   5.264   0.702   1.987
 4476TIP3    H113392   5.292   0.694   2.078
 4476TIP3    H213393   5.345   0.694   1.936
 4477TIP3   OH213394   0.430   0.464   3.250
 4477TIP3    H113395   0.483   0.543   3.248
 4477TIP3    H213396   0.377   0.472   3.330
 4478TIP3   OH213397   1.894   4.769   3.754
 4478TIP3    H113398   1.971   4.816   3.786
 4478TIP3    H213399   1.852   4.736   3.833
 4479TIP3   OH213400   2.095   3.657   3.494
 4479TIP3    H113401   2.071   3.627   3.406
 4479TIP3    H213402   2.146   3.585   3.531
 4480TIP3   OH213403   3.250   4.058   1.881
 4480TIP3    H113404   3.166   4.024   1.911
 4480TIP3    H213405   3.309   3.983   1.882
 4481TIP3   OH213406   6.755   1.751   4.145
 4481TIP3    H113407   6.757   1.657   4.130
 4481TIP3    H213408   6.733   1.760   4.238
 4482TIP3   OH213409   2.459   1.859   0.831
 4482TIP3    H113410   2.380   1.817   0.796
 4482TIP3    H213411   2.432   1.895   0.915
 4483TIP3   OH213412   5.096   4.064   2.464
 4483TIP3    H113413   5.055   4.148   2.442
 4483TIP3    H213414   5.027   4.000   2.453
 4484TIP3   OH213415   1.127   1.135   0.796
 4484TIP3    H113416   1.116   1.108   0.705
 4484TIP3    H213417   1.183   1.212   0.792
 4485TIP3   OH213418   1.378   1.844   0.273
 4485TIP3    H113419   1.313   1.903   0.310
 4485TIP3    H213420   1.346   1.756   0.295
 4486TIP3   OH213421   0.290   0.664   0.779
 4486TIP3    H113422   0.253   0.698   0.698
 4486TIP3    H213423   0.297   0.569   0.764
 4487TIP3   OH213424   2.722   5.171   3.658
 4487TIP3    H113425   2.704   5.113   3.732
 4487TIP3    H213426   2.637   5.204   3.631
 4488TIP3   OH213427   3.421   2.573   0.876
 4488TIP3    H113428   3.486   2.503   0.865
 4488TIP3    H213429   3.447   2.617   0.956
 4489TIP3   OH213430   3.974   2.801   2.637
 4489TIP3    H113431   4.025   2.721   2.649
 4489TIP3    H213432   3.900   2.774   2.582
 4490TIP3   OH213433   4.590   1.059   2.173
 4490TIP3    H113434   4.569   1.009   2.252
 4490TIP3    H213435   4.675   1.025   2.145
 4491TIP3   OH213436   7.077   1.402   1.016
 4491TIP3    H113437   7.012   1.413   0.946
 4491TIP3    H213438   7.049   1.463   1.084
 4492TIP3   OH213439   1.152   4.552   1.845
 4492TIP3    H113440   1.215   4.496   1.890
 4492TIP3    H213441   1.205   4.621   1.806
 4493TIP3   OH213442   1.366   5.562   4.182
 4493TIP3    H113443   1.394   5.640   4.228
 4493TIP3    H213444   1.384   5.490   4.243
 4494TIP3   OH213445   3.585   2.738   5.849
 4494TIP3    H113446   3.618   2.810   5.903
 4494TIP3    H213447   3.508   2.706   5.897
 4495TIP3   OH213448   3.158   2.909   1.892
 4495TIP3    H113449   3.108   2.828   1.904
 4495TIP3    H213450   3.159   2.923   1.797
 4496TIP3   OH213451   1.989   5.446   4.086
 4496TIP3    H113452   2.038   5.507   4.031
 4496TIP3    H213453   1.930   5.501   4.137
 4497TIP3   OH213454   3.271   5.818   2.342
 4497TIP3    H113455   3.277   5.907   2.305
 4497TIP3    H213456   3.179   5.794   2.330
 4498TIP3   OH213457   4.842   1.458   3.648
 4498TIP3    H113458   4.790   1.484   3.724
 4498TIP3    H213459   4.876   1.371   3.671
 4499TIP3   OH213460   0.774   4.488   3.195
 4499TIP3    H113461   0.861   4.485   3.155
 4499TIP3    H213462   0.768   4.407   3.245
 4500TIP3   OH213463   0.270   6.087   3.108
 4500TIP3    H113464   0.190   6.038   3.127
 4500TIP3    H213465   0.242   6.178   3.103
 4501TIP3   OH213466   2.593   1.641   4.991
 4501TIP3    H113467   2.547   1.635   4.907
 4501TIP3    H213468   2.585   1.733   5.016
 4502TIP3   OH213469   0.636   2.130   0.248
 4502TIP3    H113470   0.644   2.038   0.220
 4502TIP3    H213471   0.542   2.148   0.243
 4503TIP3   OH213472   4.938   6.762   1.762
 4503TIP3    H113473   4.857   6.763   1.812
 4503TIP3    H213474   5.000   6.715   1.818
 4504TIP3   OH213475   2.894   1.143   0.899
 4504TIP3    H113476   2.905   1.221   0.844
 4504TIP3    H213477   2.943   1.163   0.978
 4505TIP3   OH213478   3.419   4.215   0.049
 4505TIP3    H113479   3.476   4.143   0.076
 4505TIP3    H213480   3.480   4.286   0.029
 4506TIP3   OH213481   5.439   6.051   2.261
 4506TIP3    H113482   5.404   6.072   2.348
 4506TIP3    H213483   5.420   5.958   2.250
 4507TIP3   OH213484   6.433   5.261   0.673
 4507TIP3    H113485   6.445   5.229   0.762
 4507TIP3    H213486   6.461   5.352   0.676
 4508TIP3   OH213487   5.916   6.171   3.150
 4508TIP3    H113488   5.865   6.239   3.105
 4508TIP3    H213489   5.855   6.132   3.212
 4509TIP3   OH213490   2.521   2.799   0.994
 4509TIP3    H113491   2.520   2.715   0.948
 4509TIP3    H213492   2.614   2.818   1.008
 4510TIP3   OH213493   7.000   4.757   3.101
 4510TIP3    H113494   7.061   4.820   3.062
 4510TIP3    H213495   6.914   4.797   3.091
 4511TIP3   OH213496   6.709   0.419   3.342
 4511TIP3    H113497   6.744   0.342   3.386
 4511TIP3    H213498   6.760   0.492   3.377
 4512TIP3   OH213499   1.802   5.245   0.496
 4512TIP3    H113500   1.897   5.246   0.484
 4512TIP3    H213501   1.790   5.260   0.589
 4513TIP3   OH213502   0.139   3.476   1.217
 4513TIP3    H113503   0.229   3.486   1.250
 4513TIP3    H213504   0.138   3.387   1.180
 4514TIP3   OH213505   2.577   2.859   4.956
 4514TIP3    H113506   2.552   2.879   5.047
 4514TIP3    H213507   2.533   2.926   4.904
 4515TIP3   OH213508   0.217   3.254   0.684
 4515TIP3    H113509   0.127   3.229   0.662
 4515TIP3    H213510   0.241   3.194   0.755
 4516TIP3   OH213511   5.254   6.484   0.855
 4516TIP3    H113512   5.257   6.522   0.767
 4516TIP3    H213513   5.344   6.492   0.887
 4517TIP3   OH213514   2.553   3.517   3.281
 4517TIP3    H113515   2.576   3.578   3.211
 4517TIP3    H213516   2.457   3.512   3.278
 4518TIP3   OH213517   6.470   0.102   0.346
 4518TIP3    H113518   6.532   0.146   0.404
 4518TIP3    H213519   6.409   0.171   0.320
 4519TIP3   OH213520   2.765   4.297   3.273
 4519TIP3    H113521   2.798   4.250   3.349
 4519TIP3    H213522   2.840   4.301   3.213
 4520TIP3   OH213523   2.096   5.926   0.379
 4520TIP3    H113524   2.027   5.868   0.346
 4520TIP3    H213525   2.169   5.913   0.319
 4521TIP3   OH213526   3.132   4.552   3.083
 4521TIP3    H113527   3.067   4.601   3.134
 4521TIP3    H213528   3.216   4.579   3.120
 4522TIP3   OH213529   2.815   2.881   2.881
 4522TIP3    H113530   2.788   2.972   2.889
 4522TIP3    H213531   2.843   2.872   2.790
 4523TIP3   OH213532   0.274   0.381   5.663
 4523TIP3    H113533   0.322   0.418   5.738
 4523TIP3    H213534   0.326   0.304   5.638
 4524TIP3   OH213535   4.633   0.486   3.530
 4524TIP3    H113536   4.592   0.543   3.596
 4524TIP3    H213537   4.726   0.506   3.536
 4525TIP3   OH213538   4.189   4.573   1.409
 4525TIP3    H113539   4.207   4.479   1.406
 4525TIP3    H213540   4.164   4.596   1.320
 4526TIP3   OH213541   1.053   6.590   2.876
 4526TIP3    H113542   1.141   6.600   2.912
 4526TIP3    H213543   1.065   6.542   2.794
 4527TIP3   OH213544   2.965   2.732   1.954
 4527TIP3    H113545   2.936   2.812   1.998
 4527TIP3    H213546   2.942   2.661   2.015
 4528TIP3   OH213547   4.743   4.699   5.214
 4528TIP3    H113548   4.685   4.772   5.235
 4528TIP3    H213549   4.706   4.625   5.261
 4529TIP3   OH213550   1.134   3.579   5.080
 4529TIP3    H113551   1.178   3.581   4.995
 4529TIP3    H213552   1.175   3.650   5.129
 4530TIP3   OH213553   3.715   3.619   4.337
 4530TIP3    H113554   3.688   3.710   4.323
 4530TIP3    H213555   3.704   3.605   4.430
 4531TIP3   OH213556   4.063   5.929   1.249
 4531TIP3    H113557   4.100   5.863   1.308
 4531TIP3    H213558   4.088   6.013   1.290
 4532TIP3   OH213559   1.679   4.296   3.509
 4532TIP3    H113560   1.726   4.224   3.468
 4532TIP3    H213561   1.739   4.328   3.577
 4533TIP3   OH213562   4.439   4.976   1.574
 4533TIP3    H113563   4.504   4.929   1.627
 4533TIP3    H213564   4.399   4.909   1.519
 4534TIP3   OH213565   2.405   3.303   2.248
 4534TIP3    H113566   2.405   3.216   2.289
 4534TIP3    H213567   2.391   3.364   2.321
 4535TIP3   OH213568   2.111   4.056   5.629
 4535TIP3    H113569   2.173   4.078   5.561
 4535TIP3    H213570   2.042   4.122   5.622
 4536TIP3   OH213571   2.212   5.861   2.021
 4536TIP3    H113572   2.175   5.825   1.940
 4536TIP3    H213573   2.260   5.939   1.993
 4537TIP3   OH213574   6.908   4.726   2.732
 4537TIP3    H113575   6.839   4.672   2.694
 4537TIP3    H213576   6.950   4.768   2.657
 4538TIP3   OH213577   4.052   5.142   4.045
 4538TIP3    H113578   4.057   5.091   3.964
 4538TIP3    H213579   4.136   5.127   4.088
 4539TIP3   OH213580   4.446   0.948   0.819
 4539TIP3    H113581   4.389   0.997   0.759
 4539TIP3    H213582   4.534   0.980   0.799
 4540TIP3   OH213583   1.873   1.131   5.924
 4540TIP3    H113584   1.920   1.193   5.868
 4540TIP3    H213585   1.791   1.114   5.878
 4541TIP3   OH213586   5.611   4.563   0.047
 4541TIP3    H113587   5.680   4.508   0.084
 4541TIP3    H213588   5.574   4.511  -0.025
 4542TIP3   OH213589   0.135   5.546   1.716
 4542TIP3    H113590   0.172   5.459   1.730
 4542TIP3    H213591   0.118   5.580   1.803
 4543TIP3   OH213592   6.279   0.863   3.273
 4543TIP3    H113593   6.198   0.897   3.312
 4543TIP3    H213594   6.250   0.799   3.208
 4544TIP3   OH213595   2.504   3.971   4.400
 4544TIP3    H113596   2.493   3.932   4.313
 4544TIP3    H213597   2.444   4.045   4.401
 4545TIP3   OH213598   1.709   2.692   3.536
 4545TIP3    H113599   1.681   2.716   3.624
 4545TIP3    H213600   1.630   2.698   3.482
 4546TIP3   OH213601   1.365   2.942   4.973
 4546TIP3    H113602   1.354   2.887   4.896
 4546TIP3    H213603   1.276   2.960   5.003
 4547TIP3   OH213604   2.708   1.966   2.117
 4547TIP3    H113605   2.720   2.061   2.124
 4547TIP3    H213606   2.654   1.955   2.038
 4548TIP3   OH213607   5.139   6.061   0.901
 4548TIP3    H113608   5.158   6.133   0.962
 4548TIP3    H213609   5.111   6.105   0.820
 4549TIP3   OH213610   4.745   5.271   3.975
 4549TIP3    H113611   4.760   5.323   4.054
 4549TIP3    H213612   4.681   5.321   3.925
 4550TIP3   OH213613   0.457   1.928   0.367
 4550TIP3    H113614   0.415   1.979   0.299
 4550TIP3    H213615   0.432   1.971   0.449
 4551TIP3   OH213616   3.881   6.722   0.449
 4551TIP3    H113617   3.807   6.769   0.412
 4551TIP3    H213618   3.957   6.755   0.402
 4552TIP3   OH213619   1.586   6.484   5.110
 4552TIP3    H113620   1.498   6.521   5.121
 4552TIP3    H213621   1.622   6.482   5.199
 4553TIP3   OH213622   4.410   5.619   0.530
 4553TIP3    H113623   4.422   5.526   0.509
 4553TIP3    H213624   4.328   5.622   0.578
 4554TIP3   OH213625   4.665   5.258   2.834
 4554TIP3    H113626   4.629   5.218   2.755
 4554TIP3    H213627   4.589   5.268   2.892
 4555TIP3   OH213628   6.148   5.487   2.093
 4555TIP3    H113629   6.126   5.448   2.008
 4555TIP3    H213630   6.119   5.422   2.157
 4556TIP3   OH213631   3.255   0.980   2.501
 4556TIP3    H113632   3.207   0.923   2.441
 4556TIP3    H213633   3.222   0.957   2.588
 4557TIP3   OH213634   0.130   0.627   1.511
 4557TIP3    H113635   0.162   0.713   1.541
 4557TIP3    H213636   0.067   0.601   1.578
 4558TIP3   OH213637   3.776   6.067   0.747
 4558TIP3    H113638   3.843   6.134   0.756
 4558TIP3    H213639   3.822   5.991   0.711
 4559TIP3   OH213640   3.719   6.023   4.970
 4559TIP3    H113641   3.724   5.989   5.059
 4559TIP3    H213642   3.785   5.974   4.922
 4560TIP3   OH213643   4.881   6.288   3.979
 4560TIP3    H113644   4.869   6.345   3.903
 4560TIP3    H213645   4.975   6.288   3.994
 4561TIP3   OH213646   5.279   4.954   2.683
 4561TIP3    H113647   5.267   4.993   2.770
 4561TIP3    H213648   5.190   4.933   2.655
 4562TIP3   OH213649   7.070   2.019   5.446
 4562TIP3    H113650   7.024   1.993   5.526
 4562TIP3    H213651   7.012   2.082   5.404
 4563TIP3   OH213652   3.507   2.465   2.674
 4563TIP3    H113653   3.506   2.393   2.612
 4563TIP3    H213654   3.414   2.488   2.684
 4564TIP3   OH213655   5.311   1.394   5.205
 4564TIP3    H113656   5.222   1.430   5.200
 4564TIP3    H213657   5.336   1.405   5.296
 4565TIP3   OH213658   0.300   0.395   0.735
 4565TIP3    H113659   0.209   0.366   0.738
 4565TIP3    H213660   0.348   0.330   0.785
 4566TIP3   OH213661   1.616   4.426   1.851
 4566TIP3    H113662   1.694   4.371   1.849
 4566TIP3    H213663   1.650   4.514   1.870
 4567TIP3   OH213664   3.440   0.024   5.574
 4567TIP3    H113665   3.380   0.012   5.501
 4567TIP3    H213666   3.400  -0.023   5.647
 4568TIP3   OH213667   7.068   3.021   0.209
 4568TIP3    H113668   7.092   3.073   0.286
 4568TIP3    H213669   7.017   2.948   0.243
 4569TIP3   OH213670   6.762   4.856   4.914
 4569TIP3    H113671   6.680   4.866   4.865
 4569TIP3    H213672   6.822   4.918   4.873
 4570TIP3   OH213673   6.099   3.500   4.541
 4570TIP3    H113674   6.159   3.427   4.549
 4570TIP3    H213675   6.145   3.563   4.485
 4571TIP3   OH213676   1.008   4.126   1.633
 4571TIP3    H113677   0.992   4.153   1.723
 4571TIP3    H213678   0.934   4.163   1.584
 4572TIP3   OH213679   0.333   2.194   5.870
 4572TIP3    H113680   0.256   2.170   5.819
 4572TIP3    H213681   0.388   2.244   5.809
 4573TIP3   OH213682   2.414   6.110   3.715
 4573TIP3    H113683   2.453   6.196   3.697
 4573TIP3    H213684   2.325   6.130   3.744
 4574TIP3   OH213685   4.675   6.865   3.505
 4574TIP3    H113686   4.744   6.858   3.440
 4574TIP3    H213687   4.720   6.873   3.589
 4575TIP3   OH213688   0.876   3.207   3.760
 4575TIP3    H113689   0.947   3.167   3.811
 4575TIP3    H213690   0.805   3.143   3.764
 4576TIP3   OH213691   0.722   4.642   1.963
 4576TIP3    H113692   0.739   4.548   1.972
 4576TIP3    H213693   0.629   4.652   1.984
 4577TIP3   OH213694   6.291   0.608   1.506
 4577TIP3    H113695   6.278   0.564   1.423
 4577TIP3    H213696   6.260   0.698   1.491
 4578TIP3   OH213697   6.635   4.541   4.633
 4578TIP3    H113698   6.678   4.626   4.625
 4578TIP3    H213699   6.629   4.508   4.544
 4579TIP3   OH213700   6.372   2.134   1.681
 4579TIP3    H113701   6.388   2.040   1.696
 4579TIP3    H213702   6.287   2.138   1.639
 4580TIP3   OH213703   4.652   4.806   1.692
 4580TIP3    H113704   4.579   4.743   1.700
 4580TIP3    H213705   4.668   4.835   1.782
 4581TIP3   OH213706   5.843   2.515   2.053
 4581TIP3    H113707   5.755   2.519   2.016
 4581TIP3    H213708   5.899   2.490   1.979
 4582TIP3   OH213709   7.247   0.731   2.364
 4582TIP3    H113710   7.161   0.743   2.406
 4582TIP3    H213711   7.302   0.799   2.402
 4583TIP3   OH213712   0.443   1.385   0.621
 4583TIP3    H113713   0.442   1.392   0.717
 4583TIP3    H213714   0.435   1.291   0.605
 4584TIP3   OH213715   6.901   5.440   0.285
 4584TIP3    H113716   6.896   5.449   0.189
 4584TIP3    H213717   6.991   5.410   0.301
 4585TIP3   OH213718   0.562   4.725   0.463
 4585TIP3    H113719   0.561   4.813   0.426
 4585TIP3    H213720   0.524   4.670   0.396
 4586TIP3   OH213721   3.087   6.401   4.814
 4586TIP3    H113722   3.152   6.344   4.771
 4586TIP3    H213723   3.053   6.456   4.744
 4587TIP3   OH213724   2.690   6.043   0.572
 4587TIP3    H113725   2.721   6.064   0.659
 4587TIP3    H213726   2.606   6.089   0.565
 4588TIP3   OH213727   3.158   4.635   2.105
 4588TIP3    H113728   3.169   4.604   2.015
 4588TIP3    H213729   3.125   4.724   2.095
 4589TIP3   OH213730   5.622   2.621   1.344
 4589TIP3    H113731   5.541   2.596   1.386
 4589TIP3    H213732   5.678   2.653   1.415
 4590TIP3   OH213733   1.642   2.384   2.749
 4590TIP3    H113734   1.628   2.434   2.829
 4590TIP3    H213735   1.616   2.295   2.772
 4591TIP3   OH213736   0.769   1.763   1.208
 4591TIP3    H113737   0.833   1.811   1.155
 4591TIP3    H213738   0.743   1.825   1.277
 4592TIP3   OH213739   4.120   2.564   2.573
 4592TIP3    H113740   4.077   2.532   2.494
 4592TIP3    H213741   4.119   2.490   2.633
 4593TIP3   OH213742   3.839   6.739   2.921
 4593TIP3    H113743   3.766   6.711   2.976
 4593TIP3    H213744   3.908   6.765   2.982
 4594TIP3   OH213745   1.842   5.225   2.668
 4594TIP3    H113746   1.894   5.260   2.596
 4594TIP3    H213747   1.880   5.139   2.686
 4595TIP3   OH213748   1.215   0.677   4.985
 4595TIP3    H113749   1.221   0.772   4.986
 4595TIP3    H213750   1.124   0.659   4.960
 4596TIP3   OH213751   6.006   1.846   5.364
 4596TIP3    H113752   6.014   1.868   5.272
 4596TIP3    H213753   5.960   1.921   5.403
 4597TIP3   OH213754   0.758   0.798   5.377
 4597TIP3    H113755   0.694   0.844   5.431
 4597TIP3    H213756   0.714   0.786   5.292
 4598TIP3   OH213757   6.585   1.868   5.355
 4598TIP3    H113758   6.580   1.958   5.322
 4598TIP3    H213759   6.673   1.861   5.391
 4599TIP3   OH213760   2.947   5.359   0.736
 4599TIP3    H113761   2.984   5.439   0.774
 4599TIP3    H213762   2.944   5.297   0.808
 4600TIP3   OH213763   3.451   6.348   4.071
 4600TIP3    H113764   3.496   6.295   4.005
 4600TIP3    H213765   3.360   6.318   4.068
 4601TIP3   OH213766   1.819   0.237   2.638
 4601TIP3    H113767   1.814   0.180   2.562
 4601TIP3    H213768   1.801   0.180   2.713
 4602TIP3   OH213769   2.894   3.624   1.241
 4602TIP3    H113770   2.940   3.566   1.180
 4602TIP3    H213771   2.962   3.658   1.298
 4603TIP3   OH213772   2.696   5.658   0.683
 4603TIP3    H113773   2.749   5.585   0.714
 4603TIP3    H213774   2.740   5.687   0.603
 4604TIP3   OH213775   1.475   3.591   0.510
 4604TIP3    H113776   1.531   3.622   0.440
 4604TIP3    H213777   1.519   3.618   0.591
 4605TIP3   OH213778   3.528   1.444   5.376
 4605TIP3    H113779   3.624   1.440   5.370
 4605TIP3    H213780   3.508   1.536   5.363
 4606TIP3   OH213781   7.182   2.677   3.224
 4606TIP3    H113782   7.255   2.627   3.261
 4606TIP3    H213783   7.217   2.715   3.144
 4607TIP3   OH213784   3.364   5.763   2.853
 4607TIP3    H113785   3.293   5.799   2.798
 4607TIP3    H213786   3.420   5.838   2.871
 4608TIP3   OH213787   1.481   3.650   0.798
 4608TIP3    H113788   1.531   3.716   0.846
 4608TIP3    H213789   1.395   3.651   0.839
 4609TIP3   OH213790   0.169   4.835   3.429
 4609TIP3    H113791   0.078   4.820   3.451
 4609TIP3    H213792   0.184   4.927   3.451
 4610TIP3   OH213793   2.092   1.972   0.983
 4610TIP3    H113794   2.122   2.008   0.899
 4610TIP3    H213795   2.168   1.925   1.016
 4611TIP3   OH213796   2.960   4.536   4.396
 4611TIP3    H113797   3.045   4.554   4.436
 4611TIP3    H213798   2.951   4.441   4.401
 4612TIP3   OH213799   5.085   5.779   4.087
 4612TIP3    H113800   5.024   5.751   4.155
 4612TIP3    H213801   5.094   5.873   4.100
 4613TIP3   OH213802   0.713   2.898   4.647
 4613TIP3    H113803   0.623   2.888   4.678
 4613TIP3    H213804   0.712   2.979   4.595
 4614TIP3   OH213805   0.647   6.739   2.100
 4614TIP3    H113806   0.556   6.771   2.105
 4614TIP3    H213807   0.674   6.731   2.191
 4615TIP3   OH213808   1.810   4.905   3.351
 4615TIP3    H113809   1.824   4.834   3.288
 4615TIP3    H213810   1.898   4.930   3.378
 4616TIP3   OH213811   6.199   2.945   2.759
 4616TIP3    H113812   6.126   2.890   2.789
 4616TIP3    H213813   6.238   2.980   2.839
 4617TIP3   OH213814   6.129   3.688   2.829
 4617TIP3    H113815   6.074   3.613   2.805
 4617TIP3    H213816   6.070   3.746   2.878
 4618TIP3   OH213817   4.940   1.424   5.804
 4618TIP3    H113818   4.938   1.519   5.809
 4618TIP3    H213819   4.852   1.396   5.829
 4619TIP3   OH213820   1.858   0.973   1.953
 4619TIP3    H113821   1.951   0.948   1.948
 4619TIP3    H213822   1.848   1.010   2.040
 4620TIP3   OH213823   6.300   4.546   4.699
 4620TIP3    H113824   6.314   4.459   4.736
 4620TIP3    H213825   6.388   4.576   4.675
 4621TIP3   OH213826   2.982   3.338   1.768
 4621TIP3    H113827   2.970   3.409   1.705
 4621TIP3    H213828   2.947   3.373   1.850
 4622TIP3   OH213829   5.860   2.135   2.285
 4622TIP3    H113830   5.847   2.115   2.192
 4622TIP3    H213831   5.936   2.083   2.311
 4623TIP3   OH213832   3.037   1.432   4.377
 4623TIP3    H113833   2.953   1.452   4.337
 4623TIP3    H213834   3.015   1.391   4.460
 4624TIP3   OH213835   1.870   1.333   4.615
 4624TIP3    H113836   1.903   1.407   4.565
 4624TIP3    H213837   1.936   1.264   4.601
 4625TIP3   OH213838   1.835   6.567   3.349
 4625TIP3    H113839   1.910   6.588   3.294
 4625TIP3    H213840   1.759   6.591   3.296
 4626TIP3   OH213841   2.470   0.330   3.437
 4626TIP3    H113842   2.444   0.238   3.450
 4626TIP3    H213843   2.469   0.342   3.342
 4627TIP3   OH213844   5.501   6.374   3.883
 4627TIP3    H113845   5.518   6.306   3.817
 4627TIP3    H213846   5.406   6.379   3.888
 4628TIP3   OH213847   4.367   0.107   1.159
 4628TIP3    H113848   4.348   0.175   1.224
 4628TIP3    H213849   4.281   0.081   1.126
 4629TIP3   OH213850   6.039   4.601   3.198
 4629TIP3    H113851   5.988   4.667   3.245
 4629TIP3    H213852   6.012   4.611   3.106
 4630TIP3   OH213853   6.163   3.661   0.336
 4630TIP3    H113854   6.182   3.658   0.430
 4630TIP3    H213855   6.150   3.570   0.311
 4631TIP3   OH213856   1.186   0.731   2.928
 4631TIP3    H113857   1.186   0.684   2.845
 4631TIP3    H213858   1.096   0.761   2.939
 4632TIP3   OH213859   2.270   3.968   0.766
 4632TIP3    H113860   2.224   3.977   0.683
 4632TIP3    H213861   2.200   3.969   0.832
 4633TIP3   OH213862   1.625   6.106   4.200
 4633TIP3    H113863   1.547   6.126   4.148
 4633TIP3    H213864   1.612   6.153   4.282
 4634TIP3   OH213865   5.096   6.250   0.698
 4634TIP3    H113866   5.016   6.303   0.698
 4634TIP3    H213867   5.144   6.277   0.620
 4635TIP3   OH213868   5.275   1.900   2.792
 4635TIP3    H113869   5.284   1.994   2.806
 4635TIP3    H213870   5.215   1.892   2.718
 4636TIP3   OH213871   1.390   1.318   0.790
 4636TIP3    H113872   1.464   1.290   0.845
 4636TIP3    H213873   1.355   1.395   0.836
 4637TIP3   OH213874   4.981   0.684   4.940
 4637TIP3    H113875   5.075   0.667   4.930
 4637TIP3    H213876   4.974   0.733   5.022
 4638TIP3   OH213877   0.033   0.296   3.556
 4638TIP3    H113878  -0.052   0.340   3.560
 4638TIP3    H213879   0.036   0.260   3.467
 4639TIP3   OH213880   4.531   4.318   4.575
 4639TIP3    H113881   4.616   4.331   4.533
 4639TIP3    H213882   4.488   4.403   4.569
 4640TIP3   OH213883   5.138   1.091   5.349
 4640TIP3    H113884   5.223   1.135   5.351
 4640TIP3    H213885   5.155   1.002   5.379
 4641TIP3   OH213886   3.473   2.842   4.765
 4641TIP3    H113887   3.517   2.779   4.708
 4641TIP3    H213888   3.542   2.902   4.792
 4642TIP3   OH213889   3.931   3.195   2.092
 4642TIP3    H113890   3.950   3.238   2.175
 4642TIP3    H213891   4.017   3.179   2.053
 4643TIP3   OH213892   4.392   6.111   4.690
 4643TIP3    H113893   4.428   6.182   4.743
 4643TIP3    H213894   4.467   6.081   4.637
 4644TIP3   OH213895   2.814   1.863   3.375
 4644TIP3    H113896   2.792   1.945   3.419
 4644TIP3    H213897   2.753   1.799   3.412
 4645TIP3   OH213898   3.005   5.451   1.570
 4645TIP3    H113899   2.959   5.367   1.579
 4645TIP3    H213900   3.018   5.480   1.660
 4646TIP3   OH213901   2.428   5.635   0.803
 4646TIP3    H113902   2.421   5.656   0.896
 4646TIP3    H213903   2.520   5.653   0.781
 4647TIP3   OH213904   1.463   0.278   1.641
 4647TIP3    H113905   1.535   0.217   1.629
 4647TIP3    H213906   1.405   0.261   1.566
 4648TIP3   OH213907   6.586   1.068   1.725
 4648TIP3    H113908   6.563   1.131   1.657
 4648TIP3    H213909   6.647   1.114   1.782
 4649TIP3   OH213910   3.436   0.084   2.098
 4649TIP3    H113911   3.481   0.168   2.090
 4649TIP3    H213912   3.447   0.059   2.189
 4650TIP3   OH213913   2.754   4.735   4.402
 4650TIP3    H113914   2.821   4.668   4.388
 4650TIP3    H213915   2.791   4.792   4.469
 4651TIP3   OH213916   4.769   1.607   3.064
 4651TIP3    H113917   4.859   1.640   3.069
 4651TIP3    H213918   4.778   1.523   3.018
 4652TIP3   OH213919   5.131   5.681   4.724
 4652TIP3    H113920   5.096   5.753   4.777
 4652TIP3    H213921   5.080   5.605   4.751
 4653TIP3   OH213922   0.372   4.475   2.368
 4653TIP3    H113923   0.405   4.542   2.309
 4653TIP3    H213924   0.283   4.457   2.338
 4654TIP3   OH213925   0.289   5.651   0.077
 4654TIP3    H113926   0.199   5.682   0.087
 4654TIP3    H213927   0.285   5.558   0.099
 4655TIP3   OH213928   5.353   2.607   3.379
 4655TIP3    H113929   5.331   2.694   3.411
 4655TIP3    H213930   5.445   2.595   3.404
 4656TIP3   OH213931   7.171   6.083   0.480
 4656TIP3    H113932   7.098   6.127   0.525
 4656TIP3    H213933   7.192   6.141   0.406
 4657TIP3   OH213934   4.596   2.168   3.546
 4657TIP3    H113935   4.539   2.096   3.519
 4657TIP3    H213936   4.571   2.185   3.637
 4658TIP3   OH213937   0.152   3.254   5.167
 4658TIP3    H113938   0.143   3.220   5.256
 4658TIP3    H213939   0.072   3.229   5.123
 4659TIP3   OH213940   3.083   4.968   3.033
 4659TIP3    H113941   3.074   4.952   3.127
 4659TIP3    H213942   3.171   4.939   3.012
 4660TIP3   OH213943   6.262   4.089   1.752
 4660TIP3    H113944   6.298   4.172   1.783
 4660TIP3    H213945   6.301   4.023   1.809
 4661TIP3   OH213946   5.875   1.351   2.268
 4661TIP3    H113947   5.935   1.331   2.196
 4661TIP3    H213948   5.874   1.446   2.274
 4662TIP3   OH213949   4.317   0.533   1.655
 4662TIP3    H113950   4.268   0.453   1.637
 4662TIP3    H213951   4.288   0.595   1.587
 4663TIP3   OH213952   0.328   1.179   2.151
 4663TIP3    H113953   0.330   1.099   2.203
 4663TIP3    H213954   0.325   1.250   2.216
 4664TIP3   OH213955   4.467   4.176   2.355
 4664TIP3    H113956   4.430   4.152   2.440
 4664TIP3    H213957   4.538   4.114   2.341
 4665TIP3   OH213958   6.352   5.430   5.262
 4665TIP3    H113959   6.362   5.434   5.167
 4665TIP3    H213960   6.282   5.493   5.281
 4666TIP3   OH213961   3.516   5.960   3.094
 4666TIP3    H113962   3.584   6.006   3.045
 4666TIP3    H213963   3.496   6.018   3.167
 4667TIP3   OH213964   0.121   1.098   0.042
 4667TIP3    H113965   0.076   1.182   0.055
 4667TIP3    H213966   0.068   1.036   0.092
 4668TIP3   OH213967   1.200   6.443   0.814
 4668TIP3    H113968   1.218   6.517   0.756
 4668TIP3    H213969   1.121   6.468   0.861
 4669TIP3   OH213970   5.634   1.236   2.296
 4669TIP3    H113971   5.712   1.289   2.280
 4669TIP3    H213972   5.651   1.152   2.252
 4670TIP3   OH213973   5.051   1.798   0.464
 4670TIP3    H113974   5.023   1.888   0.482
 4670TIP3    H213975   4.979   1.744   0.497
 4671TIP3   OH213976   4.548   0.791   5.223
 4671TIP3    H113977   4.502   0.865   5.183
 4671TIP3    H213978   4.615   0.832   5.278
 4672TIP3   OH213979   0.224   1.672   5.229
 4672TIP3    H113980   0.231   1.623   5.311
 4672TIP3    H213981   0.272   1.620   5.166
 4673TIP3   OH213982   2.153   0.976   1.914
 4673TIP3    H113983   2.192   1.056   1.949
 4673TIP3    H213984   2.219   0.941   1.855
 4674TIP3   OH213985   6.578   2.335   0.144
 4674TIP3    H113986   6.484   2.337   0.124
 4674TIP3    H213987   6.599   2.425   0.169
 4675TIP3   OH213988   1.424   2.440   1.250
 4675TIP3    H113989   1.502   2.425   1.304
 4675TIP3    H213990   1.421   2.535   1.238
 4676TIP3   OH213991   1.083   5.547   1.198
 4676TIP3    H113992   1.068   5.457   1.226
 4676TIP3    H213993   1.006   5.568   1.144
 4677TIP3   OH213994   0.206   3.742  -0.003
 4677TIP3    H113995   0.164   3.713   0.077
 4677TIP3    H213996   0.229   3.834   0.013
 4678TIP3   OH213997   6.444   5.395   4.626
 4678TIP3    H113998   6.387   5.443   4.686
 4678TIP3    H213999   6.496   5.463   4.582
 4679TIP3   OH214000   1.245   1.820   1.890
 4679TIP3    H114001   1.235   1.822   1.985
 4679TIP3    H214002   1.233   1.728   1.866
 4680TIP3   OH214003   4.852   6.587   2.201
 4680TIP3    H114004   4.807   6.516   2.155
 4680TIP3    H214005   4.834   6.665   2.149
 4681TIP3   OH214006   2.221   4.868   0.030
 4681TIP3    H114007   2.154   4.875  -0.037
 4681TIP3    H214008   2.172   4.875   0.113
 4682TIP3   OH214009   0.261   2.093   2.114
 4682TIP3    H114010   0.201   2.074   2.041
 4682TIP3    H214011   0.218   2.055   2.191
 4683TIP3   OH214012   4.781   4.622   4.173
 4683TIP3    H114013   4.691   4.651   4.192
 4683TIP3    H214014   4.773   4.528   4.158
 4684TIP3   OH214015   7.024   6.128   2.328
 4684TIP3    H114016   6.966   6.096   2.397
 4684TIP3    H214017   7.072   6.050   2.300
 4685TIP3   OH214018   0.716   6.272   3.757
 4685TIP3    H114019   0.805   6.245   3.778
 4685TIP3    H214020   0.699   6.235   3.670
 4686TIP3   OH214021   1.533   6.130   2.722
 4686TIP3    H114022   1.557   6.223   2.719
 4686TIP3    H214023   1.562   6.101   2.808
 4687TIP3   OH214024   0.312   6.375   1.524
 4687TIP3    H114025   0.295   6.416   1.439
 4687TIP3    H214026   0.261   6.294   1.521
 4688TIP3   OH214027   2.471   3.492   5.147
 4688TIP3    H114028   2.391   3.465   5.103
 4688TIP3    H214029   2.447   3.500   5.240
 4689TIP3   OH214030   3.924   5.365   0.069
 4689TIP3    H114031   3.868   5.288   0.086
 4689TIP3    H214032   3.996   5.356   0.131
 4690TIP3   OH214033   4.879   4.415   1.671
 4690TIP3    H114034   4.794   4.430   1.712
 4690TIP3    H214035   4.932   4.375   1.740
 4691TIP3   OH214036   2.100   4.005   1.332
 4691TIP3    H114037   2.191   3.977   1.329
 4691TIP3    H214038   2.103   4.099   1.314
 4692TIP3   OH214039   4.230   4.819   0.765
 4692TIP3    H114040   4.316   4.788   0.794
 4692TIP3    H214041   4.213   4.771   0.684
 4693TIP3   OH214042   0.952   6.372   2.444
 4693TIP3    H114043   0.862   6.406   2.448
 4693TIP3    H214044   0.944   6.288   2.398
 4694TIP3   OH214045   6.650   5.248   4.885
 4694TIP3    H114046   6.706   5.233   4.961
 4694TIP3    H214047   6.601   5.327   4.906
 4695TIP3   OH214048   0.766   3.393   2.993
 4695TIP3    H114049   0.740   3.484   2.984
 4695TIP3    H214050   0.828   3.378   2.921
 4696TIP3   OH214051   5.769   3.600   0.253
 4696TIP3    H114052   5.705   3.588   0.323
 4696TIP3    H214053   5.821   3.675   0.281
 4697TIP3   OH214054   3.512   4.571   4.973
 4697TIP3    H114055   3.598   4.585   4.933
 4697TIP3    H214056   3.523   4.489   5.022
 4698TIP3   OH214057   2.849   6.266   4.867
 4698TIP3    H114058   2.820   6.287   4.956
 4698TIP3    H214059   2.943   6.284   4.868
 4699TIP3   OH214060   0.329   0.352   2.017
 4699TIP3    H114061   0.396   0.379   1.956
 4699TIP3    H214062   0.339   0.257   2.023
 4700TIP3   OH214063   4.359   2.788   0.642
 4700TIP3    H114064   4.275   2.755   0.673
 4700TIP3    H214065   4.397   2.832   0.718
 4701TIP3   OH214066   0.851   5.963   1.516
 4701TIP3    H114067   0.896   5.891   1.561
 4701TIP3    H214068   0.920   6.003   1.462
 4702TIP3   OH214069   3.018   1.520   1.074
 4702TIP3    H114070   3.017   1.425   1.087
 4702TIP3    H214071   2.933   1.539   1.034
 4703TIP3   OH214072   6.092   1.575   2.582
 4703TIP3    H114073   6.029   1.582   2.510
 4703TIP3    H214074   6.072   1.491   2.624
 4704TIP3   OH214075   1.166   2.744   0.603
 4704TIP3    H114076   1.153   2.755   0.509
 4704TIP3    H214077   1.098   2.798   0.643
 4705TIP3   OH214078   3.449   6.284   2.666
 4705TIP3    H114079   3.374   6.310   2.613
 4705TIP3    H214080   3.419   6.292   2.756
 4706TIP3   OH214081   2.617   4.024   3.464
 4706TIP3    H114082   2.670   3.997   3.389
 4706TIP3    H214083   2.586   3.942   3.503
 4707TIP3   OH214084   5.218   0.760   2.480
 4707TIP3    H114085   5.175   0.782   2.563
 4707TIP3    H214086   5.311   0.771   2.498
 4708TIP3   OH214087   5.187   4.165   0.277
 4708TIP3    H114088   5.149   4.171   0.365
 4708TIP3    H214089   5.210   4.073   0.267
 4709TIP3   OH214090   4.773   4.642   1.946
 4709TIP3    H114091   4.705   4.579   1.921
 4709TIP3    H214092   4.847   4.588   1.973
 4710TIP3   OH214093   1.088   3.929   1.846
 4710TIP3    H114094   0.993   3.937   1.831
 4710TIP3    H214095   1.116   3.860   1.787
 4711TIP3   OH214096   4.271   3.837   3.413
 4711TIP3    H114097   4.261   3.876   3.327
 4711TIP3    H214098   4.259   3.910   3.474
 4712TIP3   OH214099   3.797   4.792   3.087
 4712TIP3    H114100   3.875   4.847   3.096
 4712TIP3    H214101   3.825   4.706   3.118
 4713TIP3   OH214102   2.091   0.114   3.647
 4713TIP3    H114103   2.146   0.036   3.633
 4713TIP3    H214104   2.121   0.150   3.730
 4714TIP3   OH214105   1.045   4.284   4.223
 4714TIP3    H114106   1.022   4.192   4.234
 4714TIP3    H214107   0.965   4.325   4.189
 4715TIP3   OH214108   0.452   3.482   0.792
 4715TIP3    H114109   0.394   3.499   0.866
 4715TIP3    H214110   0.447   3.387   0.779
 4716TIP3   OH214111   4.015   4.975   3.823
 4716TIP3    H114112   3.962   4.897   3.839
 4716TIP3    H214113   3.962   5.028   3.764
 4717TIP3   OH214114   0.751   0.012   1.514
 4717TIP3    H114115   0.677   0.055   1.471
 4717TIP3    H214116   0.719  -0.010   1.601
 4718TIP3   OH214117   3.010   2.298   0.084
 4718TIP3    H114118   3.039   2.222   0.136
 4718TIP3    H214119   2.920   2.277   0.060
 4719TIP3   OH214120   6.196   3.692   2.048
 4719TIP3    H114121   6.198   3.637   1.970
 4719TIP3    H214122   6.113   3.672   2.090
 4720TIP3   OH214123   6.073   5.087   0.288
 4720TIP3    H114124   6.136   5.125   0.227
 4720TIP3    H214125   6.073   5.146   0.364
 4721TIP3   OH214126   2.329   2.884   3.535
 4721TIP3    H114127   2.336   2.789   3.529
 4721TIP3    H214128   2.284   2.910   3.455
 4722TIP3   OH214129   1.418   2.176   0.396
 4722TIP3    H114130   1.350   2.108   0.399
 4722TIP3    H214131   1.372   2.256   0.372
 4723TIP3   OH214132   1.613   6.677   1.604
 4723TIP3    H114133   1.616   6.659   1.510
 4723TIP3    H214134   1.529   6.642   1.633
 4724TIP3   OH214135   3.668   2.366   4.531
 4724TIP3    H114136   3.653   2.421   4.608
 4724TIP3    H214137   3.634   2.418   4.458
 4725TIP3   OH214138   7.056   3.435   2.739
 4725TIP3    H114139   6.983   3.493   2.717
 4725TIP3    H214140   7.107   3.484   2.804
 4726TIP3   OH214141   0.064   1.460   2.999
 4726TIP3    H114142   0.105   1.490   3.080
 4726TIP3    H214143   0.062   1.537   2.943
 4727TIP3   OH214144   0.704   3.648   1.127
 4727TIP3    H114145   0.663   3.722   1.082
 4727TIP3    H214146   0.741   3.685   1.207
 4728TIP3   OH214147   4.697   0.544   0.312
 4728TIP3    H114148   4.729   0.607   0.376
 4728TIP3    H214149   4.718   0.459   0.350
 4729TIP3   OH214150   5.709   0.949   2.993
 4729TIP3    H114151   5.794   0.908   2.977
 4729TIP3    H214152   5.649   0.875   3.007
 4730TIP3   OH214153   5.417   1.172   2.459
 4730TIP3    H114154   5.475   1.192   2.532
 4730TIP3    H214155   5.456   1.216   2.384
 4731TIP3   OH214156   3.245   6.311   2.479
 4731TIP3    H114157   3.154   6.313   2.507
 4731TIP3    H214158   3.246   6.361   2.397
 4732TIP3   OH214159   5.729   0.606   4.416
 4732TIP3    H114160   5.670   0.531   4.412
 4732TIP3    H214161   5.680   0.678   4.378
 4733TIP3   OH214162   4.173   0.502   1.115
 4733TIP3    H114163   4.102   0.438   1.127
 4733TIP3    H214164   4.152   0.546   1.033
 4734TIP3   OH214165   1.224   5.983   4.028
 4734TIP3    H114166   1.316   5.964   4.006
 4734TIP3    H214167   1.230   6.049   4.097
 4735TIP3   OH214168   1.416   5.563   1.180
 4735TIP3    H114169   1.330   5.571   1.137
 4735TIP3    H214170   1.444   5.653   1.193
 4736TIP3   OH214171   6.456   2.307   3.720
 4736TIP3    H114172   6.542   2.346   3.702
 4736TIP3    H214173   6.475   2.216   3.742
 4737TIP3   OH214174   6.134   6.278   4.175
 4737TIP3    H114175   6.176   6.310   4.255
 4737TIP3    H214176   6.176   6.328   4.104
 4738TIP3   OH214177   6.869   6.714   5.380
 4738TIP3    H114178   6.808   6.659   5.430
 4738TIP3    H214179   6.934   6.742   5.444
 4739TIP3   OH214180   2.445   1.562   4.774
 4739TIP3    H114181   2.447   1.467   4.764
 4739TIP3    H214182   2.450   1.596   4.684
 4740TIP3   OH214183   2.221   1.913   3.475
 4740TIP3    H114184   2.171   1.849   3.527
 4740TIP3    H214185   2.242   1.866   3.394
 4741TIP3   OH214186   6.318   2.180   1.230
 4741TIP3    H114187   6.404   2.156   1.263
 4741TIP3    H214188   6.318   2.153   1.138
 4742TIP3   OH214189   4.269   5.160   3.219
 4742TIP3    H114190   4.339   5.159   3.154
 4742TIP3    H214191   4.270   5.250   3.254
 4743TIP3   OH214192   4.631   3.433   0.746
 4743TIP3    H114193   4.697   3.447   0.814
 4743TIP3    H214194   4.669   3.366   0.689
 4744TIP3   OH214195   3.257   1.044   3.661
 4744TIP3    H114196   3.293   1.124   3.700
 4744TIP3    H214197   3.334   0.995   3.632
 4745TIP3   OH214198   3.183   5.000   3.592
 4745TIP3    H114199   3.213   4.917   3.628
 4745TIP3    H214200   3.124   4.975   3.521
 4746TIP3   OH214201   5.811   3.478   0.902
 4746TIP3    H114202   5.764   3.424   0.839
 4746TIP3    H214203   5.903   3.455   0.889
 4747TIP3   OH214204   5.425   0.543   1.100
 4747TIP3    H114205   5.515   0.564   1.077
 4747TIP3    H214206   5.399   0.612   1.161
 4748TIP3   OH214207   1.058   2.254   0.537
 4748TIP3    H114208   1.108   2.305   0.474
 4748TIP3    H214209   1.017   2.185   0.485
 4749TIP3   OH214210   4.558   1.507   4.314
 4749TIP3    H114211   4.529   1.442   4.378
 4749TIP3    H214212   4.651   1.518   4.333
 4750TIP3   OH214213   3.471   5.006   0.364
 4750TIP3    H114214   3.462   4.969   0.276
 4750TIP3    H214215   3.381   5.014   0.395
 4751TIP3   OH214216   2.493   4.850   0.220
 4751TIP3    H114217   2.444   4.861   0.139
 4751TIP3    H214218   2.502   4.755   0.230
 4752TIP3   OH214219   2.171   2.866   2.571
 4752TIP3    H114220   2.118   2.946   2.566
 4752TIP3    H214221   2.259   2.894   2.549
 4753TIP3   OH214222   4.507   2.031   5.871
 4753TIP3    H114223   4.426   2.076   5.847
 4753TIP3    H214224   4.577   2.089   5.841
 4754TIP3   OH214225   0.509   0.466   4.445
 4754TIP3    H114226   0.440   0.532   4.453
 4754TIP3    H214227   0.579   0.511   4.398
 4755TIP3   OH214228   5.065   3.439   3.912
 4755TIP3    H114229   5.088   3.531   3.924
 4755TIP3    H214230   5.064   3.404   4.001
 4756TIP3   OH214231   1.223   2.372   0.346
 4756TIP3    H114232   1.163   2.387   0.273
 4756TIP3    H214233   1.253   2.460   0.370
 4757TIP3   OH214234   6.484   6.769   4.781
 4757TIP3    H114235   6.512   6.711   4.852
 4757TIP3    H214236   6.565   6.792   4.736
 4758TIP3   OH214237   6.374   3.807   4.244
 4758TIP3    H114238   6.443   3.873   4.234
 4758TIP3    H214239   6.417   3.724   4.224
 4759TIP3   OH214240   6.373   6.242   3.704
 4759TIP3    H114241   6.383   6.337   3.702
 4759TIP3    H214242   6.335   6.219   3.619
 4760TIP3   OH214243   4.411   1.028   5.746
 4760TIP3    H114244   4.338   0.987   5.793
 4760TIP3    H214245   4.417   1.116   5.783
 4761TIP3   OH214246   3.668   5.132   0.032
 4761TIP3    H114247   3.713   5.174  -0.041
 4761TIP3    H214248   3.690   5.039   0.023
 4762TIP3   OH214249   3.856   0.732   1.365
 4762TIP3    H114250   3.919   0.765   1.301
 4762TIP3    H214251   3.796   0.805   1.379
 4763TIP3   OH214252   5.992   5.711   3.076
 4763TIP3    H114253   6.001   5.804   3.056
 4763TIP3    H214254   5.935   5.708   3.153
 4764TIP3   OH214255   1.177   3.976   3.600
 4764TIP3    H114256   1.191   4.033   3.675
 4764TIP3    H214257   1.246   4.001   3.538
 4765TIP3   OH214258   1.224   0.279   0.761
 4765TIP3    H114259   1.281   0.342   0.806
 4765TIP3    H214260   1.264   0.194   0.779
 4766TIP3   OH214261   6.802   2.900   1.208
 4766TIP3    H114262   6.872   2.962   1.229
 4766TIP3    H214263   6.721   2.951   1.214
 4767TIP3   OH214264  -0.052   1.499   1.813
 4767TIP3    H114265  -0.001   1.437   1.864
 4767TIP3    H214266  -0.026   1.484   1.722
 4768TIP3   OH214267   0.729   0.285   4.791
 4768TIP3    H114268   0.648   0.286   4.740
 4768TIP3    H214269   0.702   0.262   4.879
 4769TIP3   OH214270   1.692   6.891   5.589
 4769TIP3    H114271   1.690   6.881   5.494
 4769TIP3    H214272   1.600   6.882   5.616
 4770TIP3   OH214273   1.578   3.768   5.014
 4770TIP3    H114274   1.566   3.758   4.919
 4770TIP3    H214275   1.492   3.796   5.046
 4771TIP3   OH214276   5.703   4.858   0.052
 4771TIP3    H114277   5.736   4.835   0.139
 4771TIP3    H214278   5.668   4.777   0.017
 4772TIP3   OH214279   2.642   5.425   2.633
 4772TIP3    H114280   2.561   5.373   2.634
 4772TIP3    H214281   2.630   5.489   2.703
 4773TIP3   OH214282   5.651   0.795   5.517
 4773TIP3    H114283   5.609   0.746   5.446
 4773TIP3    H214284   5.743   0.796   5.493
 4774TIP3   OH214285   1.986   2.713   2.698
 4774TIP3    H114286   1.908   2.740   2.651
 4774TIP3    H214287   2.057   2.761   2.657
 4775TIP3   OH214288   7.197   6.009   5.183
 4775TIP3    H114289   7.232   5.961   5.107
 4775TIP3    H214290   7.126   5.954   5.215
 4776TIP3   OH214291   6.937   5.029   0.063
 4776TIP3    H114292   6.977   5.020   0.149
 4776TIP3    H214293   6.976   4.958   0.011
 4777TIP3   OH214294   0.759   6.427   4.860
 4777TIP3    H114295   0.757   6.523   4.870
 4777TIP3    H214296   0.702   6.410   4.785
 4778TIP3   OH214297   6.995   2.038   4.968
 4778TIP3    H114298   6.929   2.070   5.029
 4778TIP3    H214299   6.982   1.943   4.966
 4779TIP3   OH214300   2.272   0.141   5.336
 4779TIP3    H114301   2.245   0.182   5.418
 4779TIP3    H214302   2.310   0.212   5.284
 4780TIP3   OH214303   3.947   6.139   3.880
 4780TIP3    H114304   3.982   6.153   3.791
 4780TIP3    H214305   3.901   6.221   3.900
 4781TIP3   OH214306   1.364   4.826   1.438
 4781TIP3    H114307   1.456   4.808   1.459
 4781TIP3    H214308   1.363   4.841   1.343
 4782TIP3   OH214309   1.230   1.699   3.438
 4782TIP3    H114310   1.145   1.706   3.397
 4782TIP3    H214311   1.232   1.610   3.474
 4783TIP3   OH214312   7.227   3.222   1.715
 4783TIP3    H114313   7.206   3.138   1.755
 4783TIP3    H214314   7.283   3.200   1.641
 4784TIP3   OH214315   0.404   2.777   2.314
 4784TIP3    H114316   0.366   2.803   2.231
 4784TIP3    H214317   0.482   2.832   2.323
 4785TIP3   OH214318   6.498   0.270   3.223
 4785TIP3    H114319   6.441   0.321   3.166
 4785TIP3    H214320   6.572   0.329   3.241
 4786TIP3   OH214321   1.102   2.695   4.048
 4786TIP3    H114322   1.095   2.600   4.039
 4786TIP3    H214323   1.023   2.720   4.095
 4787TIP3   OH214324   0.466   2.528   2.355
 4787TIP3    H114325   0.560   2.524   2.336
 4787TIP3    H214326   0.440   2.615   2.328
 4788TIP3   OH214327   5.568   1.537   0.599
 4788TIP3    H114328   5.652   1.493   0.613
 4788TIP3    H214329   5.581   1.623   0.638
 4789TIP3   OH214330   5.488   4.655   4.856
 4789TIP3    H114331   5.419   4.612   4.804
 4789TIP3    H214332   5.456   4.744   4.869
 4790TIP3   OH214333   5.365   3.498   3.417
 4790TIP3    H114334   5.418   3.438   3.365
 4790TIP3    H214335   5.275   3.477   3.395
 4791TIP3   OH214336   1.873   2.158   3.524
 4791TIP3    H114337   1.907   2.226   3.583
 4791TIP3    H214338   1.833   2.207   3.452
 4792TIP3   OH214339   7.098   6.277   1.927
 4792TIP3    H114340   7.027   6.283   1.863
 4792TIP3    H214341   7.063   6.315   2.007
 4793TIP3   OH214342   2.974   6.552   4.621
 4793TIP3    H114343   2.958   6.640   4.588
 4793TIP3    H214344   2.966   6.495   4.544
 4794TIP3   OH214345   2.082   3.910   1.789
 4794TIP3    H114346   2.022   3.893   1.716
 4794TIP3    H214347   2.057   3.846   1.856
 4795TIP3   OH214348   6.622   5.900   4.450
 4795TIP3    H114349   6.620   5.985   4.407
 4795TIP3    H214350   6.644   5.838   4.380
 4796TIP3   OH214351   0.369   2.708   0.908
 4796TIP3    H114352   0.442   2.753   0.865
 4796TIP3    H214353   0.406   2.625   0.938
 4797TIP3   OH214354   7.174   3.173   0.649
 4797TIP3    H114355   7.122   3.093   0.638
 4797TIP3    H214356   7.116   3.232   0.698
 4798TIP3   OH214357   6.793   6.676   3.858
 4798TIP3    H114358   6.728   6.644   3.796
 4798TIP3    H214359   6.874   6.632   3.834
 4799TIP3   OH214360   2.096   1.549   2.299
 4799TIP3    H114361   2.121   1.610   2.368
 4799TIP3    H214362   2.177   1.502   2.278
 4800TIP3   OH214363   2.819   1.399   0.117
 4800TIP3    H114364   2.776   1.446   0.188
 4800TIP3    H214365   2.790   1.309   0.127
 4801TIP3   OH214366   1.768   2.290   3.306
 4801TIP3    H114367   1.748   2.203   3.270
 4801TIP3    H214368   1.837   2.324   3.249
 4802TIP3   OH214369   5.380   0.926   4.112
 4802TIP3    H114370   5.366   0.862   4.042
 4802TIP3    H214371   5.449   0.983   4.079
 4803TIP3   OH214372   1.054   5.360   0.095
 4803TIP3    H114373   1.129   5.420   0.099
 4803TIP3    H214374   1.040   5.333   0.186
 4804TIP3   OH214375   6.346   1.697   3.135
 4804TIP3    H114376   6.425   1.748   3.117
 4804TIP3    H214377   6.350   1.625   3.072
 4805TIP3   OH214378   4.408   4.022   1.016
 4805TIP3    H114379   4.429   4.011   1.109
 4805TIP3    H214380   4.342   4.091   1.015
 4806TIP3   OH214381   2.928   6.054   5.219
 4806TIP3    H114382   2.984   6.092   5.151
 4806TIP3    H214383   2.983   6.049   5.297
 4807TIP3   OH214384   2.230   4.716   2.140
 4807TIP3    H114385   2.313   4.706   2.188
 4807TIP3    H214386   2.208   4.809   2.150
 4808TIP3   OH214387   0.675   6.323   5.092
 4808TIP3    H114388   0.719   6.360   5.015
 4808TIP3    H214389   0.590   6.367   5.095
 4809TIP3   OH214390   4.983   1.677   2.894
 4809TIP3    H114391   5.028   1.656   2.812
 4809TIP3    H214392   4.916   1.741   2.868
 4810TIP3   OH214393   6.155   0.888   3.595
 4810TIP3    H114394   6.109   0.934   3.524
 4810TIP3    H214395   6.175   0.956   3.659
 4811TIP3   OH214396   2.189   2.822   2.887
 4811TIP3    H114397   2.174   2.733   2.855
 4811TIP3    H214398   2.257   2.856   2.828
 4812TIP3   OH214399   6.891   5.787   0.508
 4812TIP3    H114400   6.803   5.824   0.507
 4812TIP3    H214401   6.942   5.844   0.451
 4813TIP3   OH214402   6.793   2.734   4.131
 4813TIP3    H114403   6.877   2.690   4.121
 4813TIP3    H214404   6.728   2.663   4.130
 4814TIP3   OH214405   5.690   1.578   0.335
 4814TIP3    H114406   5.629   1.540   0.398
 4814TIP3    H214407   5.775   1.543   0.360
 4815TIP3   OH214408   0.054   3.803   2.713
 4815TIP3    H114409  -0.037   3.774   2.713
 4815TIP3    H214410   0.097   3.748   2.647
 4816TIP3   OH214411   3.757   0.292   3.567
 4816TIP3    H114412   3.806   0.374   3.565
 4816TIP3    H214413   3.668   0.316   3.540
 4817TIP3   OH214414   3.728   6.127   5.382
 4817TIP3    H114415   3.724   6.042   5.338
 4817TIP3    H214416   3.654   6.176   5.346
 4818TIP3   OH214417   1.634   5.384   5.244
 4818TIP3    H114418   1.652   5.470   5.206
 4818TIP3    H214419   1.622   5.327   5.168
 4819TIP3   OH214420   2.029   6.365   1.647
 4819TIP3    H114421   2.044   6.287   1.700
 4819TIP3    H214422   1.935   6.378   1.649
 4820TIP3   OH214423   2.243   6.832   2.295
 4820TIP3    H114424   2.158   6.795   2.319
 4820TIP3    H214425   2.261   6.798   2.208
 4821TIP3   OH214426   5.034   1.530   3.371
 4821TIP3    H114427   5.060   1.601   3.430
 4821TIP3    H214428   4.940   1.520   3.386
 4822TIP3   OH214429   7.192   1.387   2.363
 4822TIP3    H114430   7.111   1.424   2.399
 4822TIP3    H214431   7.172   1.294   2.349
 4823TIP3   OH214432   2.256   4.154   1.040
 4823TIP3    H114433   2.193   4.082   1.048
 4823TIP3    H214434   2.243   4.186   0.951
 4824TIP3   OH214435   1.735   6.614   4.706
 4824TIP3    H114436   1.658   6.644   4.657
 4824TIP3    H214437   1.702   6.548   4.766
 4825TIP3   OH214438   3.287   3.280   0.325
 4825TIP3    H114439   3.382   3.293   0.320
 4825TIP3    H214440   3.268   3.275   0.419
 4826TIP3   OH214441   1.930   2.848   3.505
 4826TIP3    H114442   1.846   2.807   3.483
 4826TIP3    H214443   1.945   2.825   3.597
 4827TIP3   OH214444   5.133   5.213   1.792
 4827TIP3    H114445   5.133   5.219   1.697
 4827TIP3    H214446   5.226   5.219   1.817
 4828TIP3   OH214447   3.527   3.841   2.736
 4828TIP3    H114448   3.542   3.923   2.783
 4828TIP3    H214449   3.613   3.799   2.734
 4829TIP3   OH214450   1.727   4.511   1.437
 4829TIP3    H114451   1.784   4.456   1.384
 4829TIP3    H214452   1.701   4.582   1.379
 4830TIP3   OH214453   6.497   6.774   3.121
 4830TIP3    H114454   6.540   6.697   3.159
 4830TIP3    H214455   6.501   6.840   3.190
 4831TIP3   OH214456   2.749   2.296   2.350
 4831TIP3    H114457   2.670   2.325   2.304
 4831TIP3    H214458   2.740   2.333   2.438
 4832TIP3   OH214459   4.169   2.924   1.442
 4832TIP3    H114460   4.100   2.985   1.415
 4832TIP3    H214461   4.221   2.973   1.506
 4833TIP3   OH214462   5.672   4.612   0.691
 4833TIP3    H114463   5.652   4.659   0.772
 4833TIP3    H214464   5.697   4.680   0.628
 4834TIP3   OH214465   0.975   5.252   4.186
 4834TIP3    H114466   0.937   5.335   4.159
 4834TIP3    H214467   1.030   5.274   4.262
 4835TIP3   OH214468   3.070   4.890   2.087
 4835TIP3    H114469   2.984   4.855   2.112
 4835TIP3    H214470   3.049   4.967   2.034
 4836TIP3   OH214471   0.319   4.031   3.279
 4836TIP3    H114472   0.319   4.078   3.362
 4836TIP3    H214473   0.355   3.945   3.299
 4837TIP3   OH214474   5.595   4.259   3.560
 4837TIP3    H114475   5.524   4.279   3.622
 4837TIP3    H214476   5.670   4.239   3.615
 4838TIP3   OH214477   2.045   4.001   0.918
 4838TIP3    H114478   1.993   3.933   0.962
 4838TIP3    H214479   1.981   4.064   0.887
 4839TIP3   OH214480   5.363   5.929   4.177
 4839TIP3    H114481   5.326   5.841   4.184
 4839TIP3    H214482   5.356   5.964   4.266
 4840TIP3   OH214483   1.961   3.324   1.406
 4840TIP3    H114484   2.029   3.349   1.468
 4840TIP3    H214485   1.950   3.401   1.350
 4841TIP3   OH214486   4.414   0.590   0.313
 4841TIP3    H114487   4.405   0.623   0.403
 4841TIP3    H214488   4.506   0.568   0.304
 4842TIP3   OH214489   6.074   6.129   5.183
 4842TIP3    H114490   6.038   6.142   5.271
 4842TIP3    H214491   6.028   6.193   5.128
 4843TIP3   OH214492   0.869   6.022   3.804
 4843TIP3    H114493   0.955   6.007   3.764
 4843TIP3    H214494   0.818   5.945   3.780
 4844TIP3   OH214495   5.282   0.456   4.005
 4844TIP3    H114496   5.258   0.382   3.950
 4844TIP3    H214497   5.209   0.465   4.067
 4845TIP3   OH214498   5.449   0.957   2.905
 4845TIP3    H114499   5.452   0.946   2.810
 4845TIP3    H214500   5.475   1.049   2.919
 4846TIP3   OH214501   1.516   4.918   3.084
 4846TIP3    H114502   1.488   4.956   3.167
 4846TIP3    H214503   1.434   4.906   3.035
 4847TIP3   OH214504   2.374   0.843   1.808
 4847TIP3    H114505   2.423   0.810   1.883
 4847TIP3    H214506   2.439   0.848   1.737
 4848TIP3   OH214507   0.148   5.577   5.592
 4848TIP3    H114508   0.069   5.632   5.595
 4848TIP3    H214509   0.149   5.541   5.504
 4849TIP3   OH214510   6.446   4.647   3.423
 4849TIP3    H114511   6.395   4.609   3.495
 4849TIP3    H214512   6.537   4.630   3.447
 4850TIP3   OH214513   4.966   2.615   2.275
 4850TIP3    H114514   4.943   2.526   2.248
 4850TIP3    H214515   4.883   2.651   2.307
 4851TIP3   OH214516   6.438   2.874   5.024
 4851TIP3    H114517   6.343   2.868   5.013
 4851TIP3    H214518   6.465   2.785   5.049
 4852TIP3   OH214519   3.050   0.221   5.670
 4852TIP3    H114520   3.114   0.206   5.739
 4852TIP3    H214521   3.018   0.134   5.647
 4853TIP3   OH214522   6.364   5.454   4.980
 4853TIP3    H114523   6.279   5.410   4.989
 4853TIP3    H214524   6.354   5.511   4.904
 4854TIP3   OH214525   2.399   6.579   0.079
 4854TIP3    H114526   2.407   6.594  -0.015
 4854TIP3    H214527   2.313   6.538   0.089
 4855TIP3   OH214528   5.961  -0.001   0.248
 4855TIP3    H114529   5.890   0.050   0.212
 4855TIP3    H214530   5.922  -0.050   0.320
 4856TIP3   OH214531   4.388   3.494   0.148
 4856TIP3    H114532   4.331   3.567   0.125
 4856TIP3    H214533   4.328   3.424   0.175
 4857TIP3   OH214534   4.154   4.703   1.789
 4857TIP3    H114535   4.148   4.789   1.746
 4857TIP3    H214536   4.116   4.717   1.876
 4858TIP3   OH214537   4.386   4.270   3.155
 4858TIP3    H114538   4.431   4.334   3.099
 4858TIP3    H214539   4.436   4.270   3.236
 4859TIP3   OH214540   0.187   2.556   1.169
 4859TIP3    H114541   0.177   2.642   1.129
 4859TIP3    H214542   0.280   2.537   1.163
 4860TIP3   OH214543   0.901   5.117   5.252
 4860TIP3    H114544   0.948   5.155   5.178
 4860TIP3    H214545   0.876   5.029   5.222
 4861TIP3   OH214546   4.436   3.290   2.517
 4861TIP3    H114547   4.478   3.226   2.574
 4861TIP3    H214548   4.355   3.312   2.561
 4862TIP3   OH214549   5.304   3.694   2.632
 4862TIP3    H114550   5.215   3.669   2.655
 4862TIP3    H214551   5.325   3.642   2.554
 4863TIP3   OH214552   3.627   5.773   5.795
 4863TIP3    H114553   3.576   5.716   5.852
 4863TIP3    H214554   3.710   5.785   5.841
 4864TIP3   OH214555   5.829   6.465   3.901
 4864TIP3    H114556   5.738   6.479   3.877
 4864TIP3    H214557   5.832   6.480   3.996
 4865TIP3   OH214558   6.481   3.595   2.030
 4865TIP3    H114559   6.510   3.580   2.120
 4865TIP3    H214560   6.390   3.623   2.039
 4866TIP3   OH214561   1.094   0.020   5.703
 4866TIP3    H114562   1.087  -0.059   5.649
 4866TIP3    H214563   1.100   0.091   5.640
 4867TIP3   OH214564   1.632   1.772   4.872
 4867TIP3    H114565   1.585   1.703   4.825
 4867TIP3    H214566   1.576   1.849   4.862
 4868TIP3   OH214567   4.619   3.539   0.325
 4868TIP3    H114568   4.530   3.506   0.338
 4868TIP3    H214569   4.646   3.502   0.240
 4869TIP3   OH214570   3.886   2.208   2.953
 4869TIP3    H114571   3.961   2.267   2.958
 4869TIP3    H214572   3.811   2.266   2.945
 4870TIP3   OH214573   3.413   2.321   5.866
 4870TIP3    H114574   3.346   2.389   5.870
 4870TIP3    H214575   3.400   2.280   5.780
 4871TIP3   OH214576   2.573   1.678   2.384
 4871TIP3    H114577   2.617   1.762   2.385
 4871TIP3    H214578   2.562   1.657   2.292
 4872TIP3   OH214579   5.688   1.315   1.347
 4872TIP3    H114580   5.704   1.331   1.440
 4872TIP3    H214581   5.633   1.388   1.319
 4873TIP3   OH214582   4.162   5.195   3.557
 4873TIP3    H114583   4.115   5.245   3.624
 4873TIP3    H214584   4.244   5.243   3.544
 4874TIP3   OH214585   5.432   0.492   0.360
 4874TIP3    H114586   5.489   0.546   0.305
 4874TIP3    H214587   5.361   0.466   0.301
 4875TIP3   OH214588   0.184   6.233   0.298
 4875TIP3    H114589   0.129   6.219   0.221
 4875TIP3    H214590   0.197   6.145   0.334
 4876TIP3   OH214591   7.043   6.466   0.599
 4876TIP3    H114592   7.010   6.468   0.509
 4876TIP3    H214593   7.133   6.499   0.592
 4877TIP3   OH214594   1.583   1.110   4.450
 4877TIP3    H114595   1.593   1.160   4.369
 4877TIP3    H214596   1.492   1.080   4.448
 4878TIP3   OH214597   6.956   5.862   2.030
 4878TIP3    H114598   6.920   5.781   2.066
 4878TIP3    H214599   6.880   5.913   2.004
 4879TIP3   OH214600   4.333   1.283   5.841
 4879TIP3    H114601   4.271   1.293   5.769
 4879TIP3    H214602   4.377   1.368   5.846
 4880TIP3   OH214603   1.071   5.817   3.255
 4880TIP3    H114604   1.116   5.735   3.278
 4880TIP3    H214605   1.083   5.826   3.161
 4881TIP3   OH214606   1.406   3.399   4.442
 4881TIP3    H114607   1.319   3.428   4.417
 4881TIP3    H214608   1.454   3.480   4.458
 4882TIP3   OH214609   3.517   5.168   4.039
 4882TIP3    H114610   3.477   5.081   4.048
 4882TIP3    H214611   3.608   5.154   4.065
 4883TIP3   OH214612   5.495   4.709   3.546
 4883TIP3    H114613   5.567   4.772   3.556
 4883TIP3    H214614   5.539   4.623   3.547
 4884TIP3   OH214615   1.197   0.471   2.349
 4884TIP3    H114616   1.225   0.444   2.262
 4884TIP3    H214617   1.122   0.414   2.369
 4885TIP3   OH214618   2.318   6.480   5.118
 4885TIP3    H114619   2.392   6.497   5.059
 4885TIP3    H214620   2.268   6.412   5.074
 4886TIP3   OH214621   1.384   3.117   2.777
 4886TIP3    H114622   1.446   3.189   2.764
 4886TIP3    H214623   1.432   3.053   2.829
 4887TIP3   OH214624   6.736   3.730   1.907
 4887TIP3    H114625   6.771   3.777   1.983
 4887TIP3    H214626   6.648   3.705   1.933
 4888TIP3   OH214627   5.385   5.080   3.386
 4888TIP3    H114628   5.356   5.041   3.468
 4888TIP3    H214629   5.357   5.017   3.319
 4889TIP3   OH214630   2.253   5.924   3.572
 4889TIP3    H114631   2.326   5.979   3.601
 4889TIP3    H214632   2.176   5.981   3.579
 4890TIP3   OH214633   6.195   1.168   1.598
 4890TIP3    H114634   6.139   1.216   1.536
 4890TIP3    H214635   6.153   1.181   1.683
 4891TIP3   OH214636   2.685   2.333   4.546
 4891TIP3    H114637   2.742   2.396   4.589
 4891TIP3    H214638   2.682   2.258   4.606
 4892TIP3   OH214639   1.878   6.093   3.388
 4892TIP3    H114640   1.840   6.179   3.406
 4892TIP3    H214641   1.803   6.037   3.366
 4893TIP3   OH214642   2.434   2.030   4.242
 4893TIP3    H114643   2.464   2.121   4.249
 4893TIP3    H214644   2.482   1.983   4.310
 4894TIP3   OH214645   3.749   4.953   2.213
 4894TIP3    H114646   3.706   5.002   2.283
 4894TIP3    H214647   3.837   4.991   2.206
 4895TIP3   OH214648   3.193   0.722   5.405
 4895TIP3    H114649   3.248   0.709   5.482
 4895TIP3    H214650   3.131   0.649   5.406
 4896TIP3   OH214651   2.611   1.409   3.498
 4896TIP3    H114652   2.538   1.351   3.477
 4896TIP3    H214653   2.689   1.357   3.482
 4897TIP3   OH214654   3.844   4.514   1.672
 4897TIP3    H114655   3.796   4.478   1.598
 4897TIP3    H214656   3.933   4.525   1.640
 4898TIP3   OH214657   6.705   0.716   0.097
 4898TIP3    H114658   6.656   0.784   0.052
 4898TIP3    H214659   6.722   0.753   0.184
 4899TIP3   OH214660   2.512   4.618   4.603
 4899TIP3    H114661   2.596   4.659   4.585
 4899TIP3    H214662   2.525   4.526   4.579
 4900TIP3   OH214663   4.516   5.457   4.289
 4900TIP3    H114664   4.434   5.502   4.311
 4900TIP3    H214665   4.493   5.364   4.292
 4901TIP3   OH214666   5.507   5.909   0.658
 4901TIP3    H114667   5.441   5.910   0.588
 4901TIP3    H214668   5.458   5.928   0.737
 4902TIP3   OH214669   5.104   5.129   3.714
 4902TIP3    H114670   5.072   5.095   3.631
 4902TIP3    H214671   5.161   5.061   3.748
 4903TIP3   OH214672   2.833   1.064   4.425
 4903TIP3    H114673   2.815   0.971   4.408
 4903TIP3    H214674   2.907   1.084   4.369
 4904TIP3   OH214675   2.740   4.880   5.578
 4904TIP3    H114676   2.751   4.923   5.663
 4904TIP3    H214677   2.829   4.858   5.550
 4905TIP3   OH214678   1.467   6.048   3.384
 4905TIP3    H114679   1.481   6.069   3.292
 4905TIP3    H214680   1.494   5.957   3.393
 4906TIP3   OH214681   2.309   4.411   5.284
 4906TIP3    H114682   2.368   4.344   5.250
 4906TIP3    H214683   2.245   4.425   5.213
 4907TIP3   OH214684   4.766   5.877   2.081
 4907TIP3    H114685   4.701   5.844   2.018
 4907TIP3    H214686   4.733   5.847   2.166
 4908TIP3   OH214687   5.441   5.424   3.064
 4908TIP3    H114688   5.430   5.445   2.971
 4908TIP3    H214689   5.481   5.503   3.101
 4909TIP3   OH214690   0.347   4.504   1.858
 4909TIP3    H114691   0.377   4.493   1.767
 4909TIP3    H214692   0.282   4.574   1.853
 4910TIP3   OH214693   6.501   2.723   5.457
 4910TIP3    H114694   6.456   2.792   5.507
 4910TIP3    H214695   6.445   2.647   5.465
 4911TIP3   OH214696   0.227   3.259   3.704
 4911TIP3    H114697   0.299   3.314   3.673
 4911TIP3    H214698   0.188   3.309   3.776
 4912TIP3   OH214699   1.529   0.099   3.982
 4912TIP3    H114700   1.574   0.181   3.961
 4912TIP3    H214701   1.499   0.110   4.072
 4913TIP3   OH214702   4.858   1.767   0.185
 4913TIP3    H114703   4.838   1.858   0.165
 4913TIP3    H214704   4.797   1.744   0.255
 4914TIP3   OH214705   3.353   1.275   5.511
 4914TIP3    H114706   3.361   1.285   5.606
 4914TIP3    H214707   3.413   1.340   5.475
 4915TIP3   OH214708   0.140   3.774   0.739
 4915TIP3    H114709   0.111   3.683   0.745
 4915TIP3    H214710   0.139   3.794   0.646
 4916TIP3   OH214711   5.909   3.214   3.753
 4916TIP3    H114712   5.996   3.254   3.756
 4916TIP3    H214713   5.850   3.284   3.781
 4917TIP3   OH214714   1.754   1.306   5.337
 4917TIP3    H114715   1.750   1.263   5.423
 4917TIP3    H214716   1.773   1.235   5.276
 4918TIP3   OH214717   5.219   4.315   1.802
 4918TIP3    H114718   5.273   4.236   1.794
 4918TIP3    H214719   5.233   4.343   1.893
 4919TIP3   OH214720   2.257   2.513   1.885
 4919TIP3    H114721   2.330   2.475   1.934
 4919TIP3    H214722   2.233   2.445   1.822
 4920TIP3   OH214723   3.473   4.431   4.732
 4920TIP3    H114724   3.468   4.526   4.741
 4920TIP3    H214725   3.382   4.404   4.717
 4921TIP3   OH214726   0.048   1.379   1.322
 4921TIP3    H114727   0.130   1.429   1.317
 4921TIP3    H214728   0.073   1.289   1.301
 4922TIP3   OH214729   0.202   3.446   5.420
 4922TIP3    H114730   0.205   3.355   5.390
 4922TIP3    H214731   0.176   3.496   5.343
 4923TIP3   OH214732   2.130   0.789   1.321
 4923TIP3    H114733   2.207   0.828   1.278
 4923TIP3    H214734   2.105   0.717   1.263
 4924TIP3   OH214735   1.391   1.667   5.268
 4924TIP3    H114736   1.451   1.739   5.245
 4924TIP3    H214737   1.398   1.659   5.363
 4925TIP3   OH214738   3.020   6.526   0.233
 4925TIP3    H114739   3.043   6.519   0.140
 4925TIP3    H214740   3.088   6.582   0.270
 4926TIP3   OH214741   3.252   5.213   0.846
 4926TIP3    H114742   3.333   5.200   0.896
 4926TIP3    H214743   3.267   5.168   0.763
 4927TIP3   OH214744   6.047   1.039   0.953
 4927TIP3    H114745   6.056   1.038   1.048
 4927TIP3    H214746   5.999   0.959   0.932
 4928TIP3   OH214747   2.677   0.134   3.104
 4928TIP3    H114748   2.644   0.078   3.175
 4928TIP3    H214749   2.701   0.073   3.035
 4929TIP3   OH214750   0.783   3.921   0.499
 4929TIP3    H114751   0.867   3.877   0.516
 4929TIP3    H214752   0.719   3.850   0.496
 4930TIP3   OH214753   4.119   6.447   4.530
 4930TIP3    H114754   4.212   6.465   4.513
 4930TIP3    H214755   4.107   6.356   4.503
 4931TIP3   OH214756   5.989   3.053   3.025
 4931TIP3    H114757   5.983   2.987   3.094
 4931TIP3    H214758   6.065   3.106   3.050
 4932TIP3   OH214759   0.467   4.818   2.346
 4932TIP3    H114760   0.400   4.874   2.306
 4932TIP3    H214761   0.473   4.743   2.287
 4933TIP3   OH214762   5.071   0.451   5.134
 4933TIP3    H114763   5.086   0.362   5.167
 4933TIP3    H214764   4.984   0.474   5.167
 4934TIP3   OH214765   1.501   2.290   3.403
 4934TIP3    H114766   1.515   2.207   3.357
 4934TIP3    H214767   1.577   2.343   3.381
 4935TIP3   OH214768   4.563   0.863   4.568
 4935TIP3    H114769   4.605   0.777   4.566
 4935TIP3    H214770   4.512   0.867   4.487
 4936TIP3   OH214771   1.747   5.958   3.858
 4936TIP3    H114772   1.695   5.901   3.802
 4936TIP3    H214773   1.805   5.898   3.906
 4937TIP3   OH214774   2.485   5.560   2.846
 4937TIP3    H114775   2.411   5.542   2.903
 4937TIP3    H214776   2.519   5.644   2.876
 4938TIP3   OH214777   0.807   0.840   1.102
 4938TIP3    H114778   0.798   0.745   1.108
 4938TIP3    H214779   0.740   0.867   1.040
 4939TIP3   OH214780   1.611   4.673   0.950
 4939TIP3    H114781   1.684   4.633   0.905
 4939TIP3    H214782   1.637   4.673   1.043
 4940TIP3   OH214783   3.715   5.443   1.800
 4940TIP3    H114784   3.727   5.348   1.796
 4940TIP3    H214785   3.628   5.455   1.838
 4941TIP3   OH214786   1.836   3.533   2.616
 4941TIP3    H114787   1.832   3.582   2.534
 4941TIP3    H214788   1.755   3.557   2.662
 4942TIP3   OH214789   4.163   1.295   3.731
 4942TIP3    H114790   4.107   1.356   3.778
 4942TIP3    H214791   4.112   1.213   3.729
 4943TIP3   OH214792   5.673   3.476   5.824
 4943TIP3    H114793   5.708   3.460   5.736
 4943TIP3    H214794   5.714   3.558   5.851
 4944TIP3   OH214795   3.120   6.067   5.403
 4944TIP3    H114796   3.088   6.109   5.483
 4944TIP3    H214797   3.214   6.080   5.404
 4945TIP3   OH214798   3.074   1.535   4.681
 4945TIP3    H114799   3.047   1.445   4.666
 4945TIP3    H214800   3.002   1.588   4.646
 4946TIP3   OH214801   0.893   0.240   3.905
 4946TIP3    H114802   0.812   0.253   3.856
 4946TIP3    H214803   0.872   0.267   3.994
 4947TIP3   OH214804   4.538   1.811   3.912
 4947TIP3    H114805   4.546   1.736   3.970
 4947TIP3    H214806   4.616   1.864   3.930
 4948TIP3   OH214807   1.819   1.030   2.221
 4948TIP3    H114808   1.878   0.981   2.277
 4948TIP3    H214809   1.733   1.019   2.261
 4949TIP3   OH214810   6.347   3.014   4.129
 4949TIP3    H114811   6.379   3.093   4.172
 4949TIP3    H214812   6.252   3.023   4.130
 4950TIP3   OH214813   1.937   0.514   3.616
 4950TIP3    H114814   1.875   0.485   3.549
 4950TIP3    H214815   1.882   0.532   3.692
 4951TIP3   OH214816   6.897   5.326   1.454
 4951TIP3    H114817   6.863   5.388   1.518
 4951TIP3    H214818   6.980   5.364   1.424
 4952TIP3   OH214819   6.510   4.096   5.573
 4952TIP3    H114820   6.488   4.132   5.487
 4952TIP3    H214821   6.599   4.063   5.563
 4953TIP3   OH214822   0.533   0.744   1.209
 4953TIP3    H114823   0.566   0.831   1.186
 4953TIP3    H214824   0.498   0.709   1.127
 4954TIP3   OH214825   6.275   0.487   2.334
 4954TIP3    H114826   6.270   0.582   2.341
 4954TIP3    H214827   6.355   0.463   2.383
 4955TIP3   OH214828   1.792   3.689   3.419
 4955TIP3    H114829   1.734   3.699   3.344
 4955TIP3    H214830   1.734   3.686   3.495
 4956TIP3   OH214831   3.411   1.984   2.647
 4956TIP3    H114832   3.347   1.980   2.576
 4956TIP3    H214833   3.368   1.939   2.721
 4957TIP3   OH214834   1.712   1.943   1.034
 4957TIP3    H114835   1.678   1.970   1.119
 4957TIP3    H214836   1.737   2.025   0.991
 4958TIP3   OH214837   4.383   3.296   4.957
 4958TIP3    H114838   4.408   3.234   4.889
 4958TIP3    H214839   4.288   3.300   4.953
 4959TIP3   OH214840   0.163   4.361   0.024
 4959TIP3    H114841   0.075   4.324   0.020
 4959TIP3    H214842   0.205   4.312   0.095
 4960TIP3   OH214843   2.172   5.910   2.711
 4960TIP3    H114844   2.230   5.929   2.637
 4960TIP3    H214845   2.096   5.867   2.672
 4961TIP3   OH214846   3.172   5.225   3.336
 4961TIP3    H114847   3.222   5.146   3.314
 4961TIP3    H214848   3.100   5.192   3.390
 4962TIP3   OH214849   4.830   0.993   2.098
 4962TIP3    H114850   4.845   1.044   2.178
 4962TIP3    H214851   4.914   0.994   2.053
 4963TIP3   OH214852   4.622   5.824   0.447
 4963TIP3    H114853   4.667   5.761   0.390
 4963TIP3    H214854   4.553   5.773   0.490
 4964TIP3   OH214855   1.234   5.749   2.719
 4964TIP3    H114856   1.281   5.802   2.655
 4964TIP3    H214857   1.219   5.666   2.674
 4965TIP3   OH214858   2.466   4.871   3.162
 4965TIP3    H114859   2.542   4.887   3.218
 4965TIP3    H214860   2.470   4.941   3.096
 4966TIP3   OH214861   1.929   5.365   1.678
 4966TIP3    H114862   1.924   5.271   1.697
 4966TIP3    H214863   2.023   5.383   1.675
 4967TIP3   OH214864   4.769   1.677   1.612
 4967TIP3    H114865   4.818   1.757   1.632
 4967TIP3    H214866   4.833   1.619   1.571
 4968TIP3   OH214867   3.844   5.343   4.691
 4968TIP3    H114868   3.825   5.262   4.737
 4968TIP3    H214869   3.924   5.324   4.641
 4969TIP3   OH214870   5.995   5.132   1.367
 4969TIP3    H114871   6.060   5.191   1.405
 4969TIP3    H214872   6.036   5.098   1.288
 4970TIP3   OH214873   2.674   4.022   2.751
 4970TIP3    H114874   2.723   4.066   2.821
 4970TIP3    H214875   2.701   3.930   2.758
 4971TIP3   OH214876   0.881   1.736   2.692
 4971TIP3    H114877   0.807   1.746   2.751
 4971TIP3    H214878   0.951   1.788   2.732
 4972TIP3   OH214879   6.248   2.426   5.844
 4972TIP3    H114880   6.266   2.512   5.882
 4972TIP3    H214881   6.158   2.432   5.813
 4973TIP3   OH214882   2.575   0.836   3.050
 4973TIP3    H114883   2.647   0.890   3.018
 4973TIP3    H214884   2.603   0.807   3.137
 4974TIP3   OH214885   6.632   6.072   4.244
 4974TIP3    H114886   6.713   6.106   4.206
 4974TIP3    H214887   6.591   6.149   4.285
 4975TIP3   OH214888   2.667   2.199   4.290
 4975TIP3    H114889   2.684   2.112   4.327
 4975TIP3    H214890   2.671   2.257   4.366
 4976TIP3   OH214891   4.264   6.612   4.234
 4976TIP3    H114892   4.180   6.571   4.218
 4976TIP3    H214893   4.242   6.702   4.259
 4977TIP3   OH214894   5.985   6.152   4.706
 4977TIP3    H114895   6.027   6.082   4.756
 4977TIP3    H214896   5.893   6.150   4.734
 4978TIP3   OH214897   3.542   1.607   0.196
 4978TIP3    H114898   3.606   1.549   0.155
 4978TIP3    H214899   3.459   1.560   0.190
 4979TIP3   OH214900   3.951   0.373   4.176
 4979TIP3    H114901   3.940   0.304   4.111
 4979TIP3    H214902   4.021   0.341   4.233
 4980TIP3   OH214903   0.937   4.015   5.008
 4980TIP3    H114904   0.949   3.932   4.963
 4980TIP3    H214905   0.925   4.079   4.938
 4981TIP3   OH214906   4.615   4.082   2.036
 4981TIP3    H114907   4.663   4.045   2.110
 4981TIP3    H214908   4.589   4.169   2.065
 4982TIP3   OH214909   1.222   4.256   2.499
 4982TIP3    H114910   1.217   4.178   2.443
 4982TIP3    H214911   1.212   4.222   2.588
 4983TIP3   OH214912   6.013   0.329   1.590
 4983TIP3    H114913   5.964   0.353   1.669
 4983TIP3    H214914   5.972   0.247   1.561
 4984TIP3   OH214915   1.648   2.097   0.524
 4984TIP3    H114916   1.635   2.127   0.614
 4984TIP3    H214917   1.571   2.130   0.476
 4985TIP3   OH214918   6.211   4.284   2.866
 4985TIP3    H114919   6.237   4.214   2.807
 4985TIP3    H214920   6.252   4.263   2.950
 4986TIP3   OH214921   3.230   5.423   0.334
 4986TIP3    H114922   3.148   5.470   0.348
 4986TIP3    H214923   3.284   5.445   0.410
 4987TIP3   OH214924   4.384   1.013   2.500
 4987TIP3    H114925   4.413   0.943   2.442
 4987TIP3    H214926   4.422   0.991   2.585
 4988TIP3   OH214927   2.927   4.139   3.441
 4988TIP3    H114928   3.005   4.183   3.475
 4988TIP3    H214929   2.903   4.077   3.510
 4989TIP3   OH214930   2.781   3.398   4.881
 4989TIP3    H114931   2.727   3.319   4.878
 4989TIP3    H214932   2.849   3.384   4.816
 4990TIP3   OH214933   5.399   2.669   3.896
 4990TIP3    H114934   5.434   2.722   3.825
 4990TIP3    H214935   5.467   2.604   3.914
 4991TIP3   OH214936   3.280   6.079   2.175
 4991TIP3    H114937   3.266   6.172   2.161
 4991TIP3    H214938   3.373   6.071   2.196
 4992TIP3   OH214939   2.767   0.060   0.829
 4992TIP3    H114940   2.838   0.041   0.891
 4992TIP3    H214941   2.690   0.016   0.867
 4993TIP3   OH214942   1.083   3.834   0.491
 4993TIP3    H114943   1.081   3.740   0.507
 4993TIP3    H214944   1.120   3.842   0.403
 4994TIP3   OH214945   4.818   5.589   3.361
 4994TIP3    H114946   4.832   5.682   3.376
 4994TIP3    H214947   4.893   5.546   3.400
 4995TIP3   OH214948   7.182   2.429   4.237
 4995TIP3    H114949   7.168   2.487   4.312
 4995TIP3    H214950   7.270   2.450   4.207
 4996TIP3   OH214951   6.826   5.038   1.493
 4996TIP3    H114952   6.879   5.114   1.467
 4996TIP3    H214953   6.796   5.058   1.582
 4997TIP3   OH214954   4.604   2.383   0.547
 4997TIP3    H114955   4.675   2.431   0.505
 4997TIP3    H214956   4.606   2.296   0.506
 4998TIP3   OH214957   2.428   3.085   4.848
 4998TIP3    H114958   2.343   3.055   4.818
 4998TIP3    H214959   2.414   3.110   4.939
 4999TIP3   OH214960   5.023   5.907   0.640
 4999TIP3    H114961   4.958   5.952   0.695
 4999TIP3    H214962   5.005   5.938   0.551
 5000TIP3   OH214963   5.194   4.660   0.768
 5000TIP3    H114964   5.178   4.572   0.733
 5000TIP3    H214965   5.143   4.664   0.848
 5001TIP3   OH214966   4.972   4.403   5.841
 5001TIP3    H114967   4.922   4.346   5.900
 5001TIP3    H214968   5.054   4.418   5.887
 5002TIP3   OH214969   3.879   3.214   0.687
 5002TIP3    H114970   3.855   3.155   0.758
 5002TIP3    H214971   3.973   3.201   0.674
 5003TIP3   OH214972   6.675   3.829   0.154
 5003TIP3    H114973   6.657   3.912   0.110
 5003TIP3    H214974   6.595   3.778   0.141
 5004TIP3   OH214975   0.276   6.354  -0.011
 5004TIP3    H114976   0.243   6.440  -0.037
 5004TIP3    H214977   0.271   6.354   0.084
 5005TIP3   OH214978   6.929   1.072   2.198
 5005TIP3    H114979   6.991   1.052   2.128
 5005TIP3    H214980   6.843   1.046   2.163
 5006TIP3   OH214981   5.852   1.337   1.127
 5006TIP3    H114982   5.822   1.345   1.036
 5006TIP3    H214983   5.771   1.327   1.178
 5007TIP3   OH214984   1.854   4.214   0.875
 5007TIP3    H114985   1.821   4.303   0.860
 5007TIP3    H214986   1.832   4.195   0.966
 5008TIP3   OH214987   2.466   4.337   1.112
 5008TIP3    H114988   2.389   4.280   1.120
 5008TIP3    H214989   2.431   4.426   1.112
 5009TIP3   OH214990   0.310   3.102   3.401
 5009TIP3    H114991   0.348   3.019   3.373
 5009TIP3    H214992   0.295   3.092   3.495
 5010TIP3   OH214993   6.677   1.545   3.758
 5010TIP3    H114994   6.679   1.588   3.673
 5010TIP3    H214995   6.607   1.481   3.752
 5011TIP3   OH214996   5.563   1.125   5.193
 5011TIP3    H114997   5.592   1.091   5.278
 5011TIP3    H214998   5.469   1.110   5.192
 5012TIP3   OH214999   5.697   6.718   1.040
 5012TIP3    H115000   5.763   6.771   0.994
 5012TIP3    H215001   5.666   6.775   1.110
 5013TIP3   OH215002   2.157   4.261   0.086
 5013TIP3    H115003   2.138   4.168   0.098
 5013TIP3    H215004   2.248   4.263   0.055
 5014TIP3   OH215005   6.200   1.205   5.445
 5014TIP3    H115006   6.158   1.130   5.487
 5014TIP3    H215007   6.193   1.275   5.511
 5015TIP3   OH215008   1.584   3.045   0.905
 5015TIP3    H115009   1.515   2.979   0.895
 5015TIP3    H215010   1.573   3.103   0.830
 5016TIP3   OH215011   6.705   6.336   5.796
 5016TIP3    H115012   6.784   6.283   5.786
 5016TIP3    H215013   6.660   6.299   5.872
 5017TIP3   OH215014   2.384   2.589   4.617
 5017TIP3    H115015   2.423   2.575   4.703
 5017TIP3    H215016   2.382   2.684   4.606
 5018TIP3   OH215017   0.406   3.810   4.776
 5018TIP3    H115018   0.426   3.801   4.869
 5018TIP3    H215019   0.465   3.879   4.745
 5019TIP3   OH215020   5.942   3.815   0.262
 5019TIP3    H115021   6.019   3.764   0.288
 5019TIP3    H215022   5.940   3.888   0.324
 5020TIP3   OH215023   2.008   5.227   3.341
 5020TIP3    H115024   1.962   5.188   3.267
 5020TIP3    H215025   1.989   5.320   3.335
 5021TIP3   OH215026   5.256   1.429   2.376
 5021TIP3    H115027   5.321   1.360   2.387
 5021TIP3    H215028   5.190   1.411   2.443
 5022TIP3   OH215029   2.513   2.083   0.681
 5022TIP3    H115030   2.426   2.117   0.658
 5022TIP3    H215031   2.495   2.008   0.738
 5023TIP3   OH215032   5.006   4.644   4.344
 5023TIP3    H115033   4.936   4.651   4.279
 5023TIP3    H215034   4.985   4.712   4.408
 5024TIP3   OH215035   0.028   0.077   5.575
 5024TIP3    H115036   0.105   0.094   5.520
 5024TIP3    H215037  -0.018   0.006   5.531
 5025TIP3   OH215038   5.290   6.465   4.010
 5025TIP3    H115039   5.349   6.395   4.037
 5025TIP3    H215040   5.268   6.511   4.091
 5026TIP3   OH215041   0.266   4.517   5.282
 5026TIP3    H115042   0.268   4.607   5.248
 5026TIP3    H215043   0.261   4.528   5.377
 5027TIP3   OH215044   3.248   0.059   3.714
 5027TIP3    H115045   3.164   0.015   3.702
 5027TIP3    H215046   3.252   0.078   3.808
 5028TIP3   OH215047   0.849   2.517   3.965
 5028TIP3    H115048   0.879   2.553   3.882
 5028TIP3    H215049   0.927   2.477   4.004
 5029TIP3   OH215050   1.424   1.084   3.246
 5029TIP3    H115051   1.463   1.087   3.159
 5029TIP3    H215052   1.343   1.034   3.235
 5030TIP3   OH215053   0.036   4.432   3.414
 5030TIP3    H115054   0.098   4.473   3.475
 5030TIP3    H215055  -0.007   4.505   3.370
 5031TIP3   OH215056   1.933   5.598   2.596
 5031TIP3    H115057   1.888   5.626   2.516
 5031TIP3    H215058   1.862   5.582   2.659
 5032TIP3   OH215059   3.613   1.094   5.063
 5032TIP3    H115060   3.532   1.066   5.104
 5032TIP3    H215061   3.639   1.021   5.007
 5033TIP3   OH215062   3.316   2.949   4.472
 5033TIP3    H115063   3.395   2.999   4.491
 5033TIP3    H215064   3.245   3.010   4.488
 5034TIP3   OH215065   3.438   4.499   1.266
 5034TIP3    H115066   3.393   4.417   1.285
 5034TIP3    H215067   3.441   4.545   1.350
 5035TIP3   OH215068   1.065   1.690   5.011
 5035TIP3    H115069   1.111   1.724   4.935
 5035TIP3    H215070   1.118   1.615   5.040
 5036TIP3   OH215071   5.658   2.814   4.746
 5036TIP3    H115072   5.742   2.807   4.791
 5036TIP3    H215073   5.636   2.724   4.723
 5037TIP3   OH215074   5.487   5.671   0.009
 5037TIP3    H115075   5.515   5.704   0.094
 5037TIP3    H215076   5.435   5.742  -0.029
 5038TIP3   OH215077   6.287   1.153   3.058
 5038TIP3    H115078   6.283   1.127   2.966
 5038TIP3    H215079   6.359   1.101   3.094
 5039TIP3   OH215080   1.322   6.626   1.831
 5039TIP3    H115081   1.242   6.618   1.882
 5039TIP3    H215082   1.332   6.540   1.789
 5040TIP3   OH215083   0.540   4.360   2.534
 5040TIP3    H115084   0.490   4.419   2.478
 5040TIP3    H215085   0.526   4.394   2.623
 5041TIP3   OH215086   2.188   4.860   3.703
 5041TIP3    H115087   2.139   4.927   3.655
 5041TIP3    H215088   2.186   4.784   3.646
 5042TIP3   OH215089   6.417   1.325   2.003
 5042TIP3    H115090   6.426   1.345   1.910
 5042TIP3    H215091   6.380   1.404   2.042
 5043TIP3   OH215092   5.692   4.353   2.513
 5043TIP3    H115093   5.606   4.394   2.501
 5043TIP3    H215094   5.727   4.344   2.425
 5044TIP3   OH215095   5.054   4.225   2.231
 5044TIP3    H115096   4.966   4.201   2.200
 5044TIP3    H215097   5.066   4.315   2.200
 5045TIP3   OH215098   6.668   6.623   3.440
 5045TIP3    H115099   6.663   6.708   3.397
 5045TIP3    H215100   6.626   6.563   3.379
 5046TIP3   OH215101   3.851   1.587   2.210
 5046TIP3    H115102   3.811   1.665   2.171
 5046TIP3    H215103   3.777   1.531   2.234
 5047TIP3   OH215104   1.746   5.054   1.353
 5047TIP3    H115105   1.733   4.989   1.422
 5047TIP3    H215106   1.676   5.118   1.368
 5048TIP3   OH215107   2.891   2.683   3.261
 5048TIP3    H115108   2.833   2.607   3.255
 5048TIP3    H215109   2.832   2.759   3.259
 5049TIP3   OH215110   5.058   3.537   1.275
 5049TIP3    H115111   4.966   3.538   1.301
 5049TIP3    H215112   5.067   3.612   1.216
 5050TIP3   OH215113   5.264   1.498   1.383
 5050TIP3    H115114   5.261   1.593   1.392
 5050TIP3    H215115   5.250   1.482   1.290
 5051TIP3   OH215116   2.427   6.553   0.472
 5051TIP3    H115117   2.394   6.643   0.469
 5051TIP3    H215118   2.352   6.500   0.496
 5052TIP3   OH215119   0.993   3.058   4.535
 5052TIP3    H115120   0.910   3.102   4.517
 5052TIP3    H215121   1.054   3.094   4.472
 5053TIP3   OH215122   4.543   1.234   2.750
 5053TIP3    H115123   4.479   1.185   2.802
 5053TIP3    H215124   4.617   1.175   2.741
 5054TIP3   OH215125   3.664   5.075   5.699
 5054TIP3    H115126   3.676   5.165   5.727
 5054TIP3    H215127   3.570   5.059   5.705
 5055TIP3   OH215128   4.359   5.452   3.246
 5055TIP3    H115129   4.428   5.512   3.216
 5055TIP3    H215130   4.279   5.489   3.210
 5056TIP3   OH215131   4.782   3.295   0.385
 5056TIP3    H115132   4.871   3.268   0.408
 5056TIP3    H215133   4.727   3.260   0.456
 5057TIP3   OH215134   6.283   5.455   1.056
 5057TIP3    H115135   6.293   5.392   0.984
 5057TIP3    H215136   6.189   5.455   1.075
 5058TIP3   OH215137   5.609   2.312   2.095
 5058TIP3    H115138   5.680   2.249   2.082
 5058TIP3    H215139   5.597   2.314   2.190
 5059TIP3   OH215140   0.415   6.552   2.340
 5059TIP3    H115141   0.467   6.477   2.308
 5059TIP3    H215142   0.371   6.585   2.262
 5060TIP3   OH215143   2.542   4.313   3.941
 5060TIP3    H115144   2.580   4.254   3.876
 5060TIP3    H215145   2.470   4.262   3.979
 5061TIP3   OH215146   1.750   0.713   4.925
 5061TIP3    H115147   1.712   0.666   4.851
 5061TIP3    H215148   1.829   0.663   4.947
 5062TIP3   OH215149   4.891   1.251   0.608
 5062TIP3    H115150   4.838   1.243   0.528
 5062TIP3    H215151   4.981   1.259   0.576
 5063TIP3   OH215152   1.118   5.004   0.912
 5063TIP3    H115153   1.131   5.082   0.857
 5063TIP3    H215154   1.091   5.039   0.997
 5064TIP3   OH215155   4.400   2.192   3.217
 5064TIP3    H115156   4.342   2.138   3.271
 5064TIP3    H215157   4.421   2.267   3.272
 5065TIP3   OH215158   2.474   6.779   5.875
 5065TIP3    H115159   2.527   6.844   5.921
 5065TIP3    H215160   2.415   6.831   5.820
 5066TIP3   OH215161   3.536   3.133   3.411
 5066TIP3    H115162   3.479   3.207   3.392
 5066TIP3    H215163   3.595   3.128   3.335
 5067TIP3   OH215164   2.731   3.980   4.575
 5067TIP3    H115165   2.657   3.989   4.515
 5067TIP3    H215166   2.732   3.887   4.598
 5068TIP3   OH215167   5.102   4.774   3.306
 5068TIP3    H115168   5.197   4.783   3.300
 5068TIP3    H215169   5.070   4.794   3.218
 5069TIP3   OH215170   1.621   2.725   3.221
 5069TIP3    H115171   1.652   2.813   3.196
 5069TIP3    H215172   1.562   2.741   3.295
 5070TIP3   OH215173   3.304   5.952   5.860
 5070TIP3    H115174   3.349   6.037   5.855
 5070TIP3    H215175   3.211   5.974   5.863
 5071TIP3   OH215176   5.684   2.337   4.838
 5071TIP3    H115177   5.736   2.417   4.846
 5071TIP3    H215178   5.740   2.268   4.874
 5072TIP3   OH215179   2.246   5.964   0.926
 5072TIP3    H115180   2.185   6.016   0.977
 5072TIP3    H215181   2.250   5.880   0.971
 5073TIP3   OH215182   6.412   2.939   0.696
 5073TIP3    H115183   6.388   3.013   0.753
 5073TIP3    H215184   6.383   2.862   0.744
 5074TIP3   OH215185   2.153   3.981   3.901
 5074TIP3    H115186   2.074   3.968   3.848
 5074TIP3    H215187   2.126   3.956   3.989
 5075TIP3   OH215188   2.811   5.701   3.203
 5075TIP3    H115189   2.887   5.673   3.253
 5075TIP3    H215190   2.848   5.747   3.127
 5076TIP3   OH215191   3.347   5.608   4.993
 5076TIP3    H115192   3.392   5.524   4.986
 5076TIP3    H215193   3.358   5.634   5.084
 5077TIP3   OH215194   0.817   4.365   5.562
 5077TIP3    H115195   0.843   4.295   5.623
 5077TIP3    H215196   0.897   4.388   5.516
 5078TIP3   OH215197   4.044   3.261   1.766
 5078TIP3    H115198   3.997   3.272   1.848
 5078TIP3    H215199   4.073   3.169   1.766
 5079TIP3   OH215200   7.051   0.295   5.006
 5079TIP3    H115201   7.085   0.370   5.054
 5079TIP3    H215202   7.055   0.222   5.068
 5080TIP3   OH215203   0.233   5.208   2.800
 5080TIP3    H115204   0.235   5.112   2.803
 5080TIP3    H215205   0.313   5.234   2.847
 5081TIP3   OH215206   6.610   3.323   4.726
 5081TIP3    H115207   6.564   3.284   4.652
 5081TIP3    H215208   6.551   3.392   4.757
 5082TIP3   OH215209   7.082   6.239   2.755
 5082TIP3    H115210   7.128   6.266   2.676
 5082TIP3    H215211   6.993   6.274   2.744
 5083TIP3   OH215212   6.100   3.903   0.638
 5083TIP3    H115213   6.135   3.814   0.639
 5083TIP3    H215214   6.077   3.922   0.729
 5084TIP3   OH215215   6.737   1.878   2.035
 5084TIP3    H115216   6.744   1.906   2.127
 5084TIP3    H215217   6.750   1.783   2.039
 5085TIP3   OH215218   4.031   2.429   1.836
 5085TIP3    H115219   4.126   2.434   1.822
 5085TIP3    H215220   4.001   2.365   1.772
 5086TIP3   OH215221   5.461   2.294   2.720
 5086TIP3    H115222   5.556   2.302   2.722
 5086TIP3    H215223   5.444   2.223   2.658
 5087TIP3   OH215224   6.609   3.732   3.696
 5087TIP3    H115225   6.604   3.762   3.605
 5087TIP3    H215226   6.541   3.782   3.741
 5088TIP3   OH215227   3.927   1.748   2.711
 5088TIP3    H115228   4.006   1.702   2.737
 5088TIP3    H215229   3.951   1.841   2.715
 5089TIP3   OH215230   6.460   3.064   3.842
 5089TIP3    H115231   6.388   3.113   3.802
 5089TIP3    H215232   6.427   3.039   3.928
 5090TIP3   OH215233   4.713   3.604   3.764
 5090TIP3    H115234   4.754   3.644   3.841
 5090TIP3    H215235   4.633   3.564   3.797
 5091TIP3   OH215236   6.725   6.676   4.576
 5091TIP3    H115237   6.772   6.681   4.659
 5091TIP3    H215238   6.730   6.764   4.540
 5092TIP3   OH215239   1.714   4.302   0.340
 5092TIP3    H115240   1.771   4.302   0.262
 5092TIP3    H215241   1.689   4.210   0.351
 5093TIP3   OH215242   0.529   6.153   0.869
 5093TIP3    H115243   0.462   6.187   0.810
 5093TIP3    H215244   0.610   6.194   0.839
 5094TIP3   OH215245   1.311   4.234   4.014
 5094TIP3    H115246   1.327   4.178   4.090
 5094TIP3    H215247   1.257   4.305   4.048
 5095TIP3   OH215248   6.763   0.467   0.971
 5095TIP3    H115249   6.744   0.373   0.972
 5095TIP3    H215250   6.787   0.487   1.061
 5096TIP3   OH215251   1.211   0.358   1.063
 5096TIP3    H115252   1.201   0.414   1.140
 5096TIP3    H215253   1.279   0.401   1.011
 5097TIP3   OH215254   5.363   2.122   0.845
 5097TIP3    H115255   5.330   2.181   0.777
 5097TIP3    H215256   5.284   2.087   0.887
 5098TIP3   OH215257   0.743   1.468   1.329
 5098TIP3    H115258   0.838   1.465   1.335
 5098TIP3    H215259   0.724   1.547   1.278
 5099TIP3   OH215260   3.697   4.749   4.581
 5099TIP3    H115261   3.772   4.722   4.529
 5099TIP3    H215262   3.707   4.702   4.664
 5100TIP3   OH215263   2.343   0.982   3.001
 5100TIP3    H115264   2.412   0.917   3.019
 5100TIP3    H215265   2.333   0.981   2.906
 5101TIP3   OH215266   4.118   0.889   5.207
 5101TIP3    H115267   4.176   0.829   5.160
 5101TIP3    H215268   4.174   0.930   5.273
 5102TIP3   OH215269   0.144   1.561   3.911
 5102TIP3    H115270   0.130   1.475   3.949
 5102TIP3    H215271   0.167   1.617   3.986
 5103TIP3   OH215272   4.067   1.503   3.885
 5103TIP3    H115273   4.014   1.548   3.819
 5103TIP3    H215274   4.110   1.573   3.934
 5104TIP3   OH215275   5.151   0.739   3.324
 5104TIP3    H115276   5.118   0.679   3.258
 5104TIP3    H215277   5.243   0.715   3.336
 5105TIP3   OH215278   2.281   5.070   1.516
 5105TIP3    H115279   2.299   5.059   1.609
 5105TIP3    H215280   2.188   5.051   1.507
 5106TIP3   OH215281   0.186   1.385   5.224
 5106TIP3    H115282   0.213   1.348   5.308
 5106TIP3    H215283   0.174   1.310   5.167
 5107TIP3   OH215284   0.303   1.532  -0.006
 5107TIP3    H115285   0.267   1.619  -0.022
 5107TIP3    H215286   0.227   1.479   0.019
 5108TIP3   OH215287   2.422   5.248   2.158
 5108TIP3    H115288   2.333   5.269   2.188
 5108TIP3    H215289   2.408   5.200   2.076
 5109TIP3   OH215290   5.971   3.970   4.923
 5109TIP3    H115291   5.918   4.048   4.901
 5109TIP3    H215292   5.984   3.976   5.018
 5110TIP3   OH215293   1.088   0.439   4.409
 5110TIP3    H115294   1.064   0.468   4.321
 5110TIP3    H215295   1.005   0.415   4.450
 5111TIP3   OH215296   5.649   2.518   2.578
 5111TIP3    H115297   5.563   2.496   2.542
 5111TIP3    H215298   5.686   2.433   2.604
 5112TIP3   OH215299   6.833   3.925   2.898
 5112TIP3    H115300   6.773   3.975   2.843
 5112TIP3    H215301   6.825   3.964   2.985
 5113TIP3   OH215302   6.718   1.000   0.578
 5113TIP3    H115303   6.724   0.974   0.670
 5113TIP3    H215304   6.637   1.051   0.573
 5114TIP3   OH215305   5.944   3.687   1.838
 5114TIP3    H115306   5.893   3.615   1.877
 5114TIP3    H215307   5.909   3.695   1.749
 5115TIP3   OH215308   6.091   4.895   5.245
 5115TIP3    H115309   6.028   4.841   5.292
 5115TIP3    H215310   6.090   4.860   5.155
 5116TIP3   OH215311   6.611   1.600   5.585
 5116TIP3    H115312   6.553   1.527   5.563
 5116TIP3    H215313   6.561   1.678   5.562
 5117TIP3   OH215314   1.250   5.280   0.903
 5117TIP3    H115315   1.248   5.368   0.941
 5117TIP3    H215316   1.318   5.285   0.835
 5118TIP3   OH215317   0.450   3.313   0.492
 5118TIP3    H115318   0.357   3.329   0.511
 5118TIP3    H215319   0.461   3.219   0.509
 5119TIP3   OH215320   0.776   1.422   5.143
 5119TIP3    H115321   0.753   1.438   5.051
 5119TIP3    H215322   0.853   1.366   5.139
 5120TIP3   OH215323   6.754   1.896   0.131
 5120TIP3    H115324   6.773   1.908   0.039
 5120TIP3    H215325   6.758   1.984   0.169
 5121TIP3   OH215326   4.070   2.636   5.135
 5121TIP3    H115327   4.159   2.603   5.118
 5121TIP3    H215328   4.049   2.604   5.222
 5122TIP3   OH215329   6.894   5.647   2.205
 5122TIP3    H115330   6.977   5.625   2.248
 5122TIP3    H215331   6.854   5.562   2.185
 5123TIP3   OH215332   4.299   2.051   0.863
 5123TIP3    H115333   4.211   2.069   0.829
 5123TIP3    H215334   4.344   2.136   0.861
 5124TIP3   OH215335   2.031   6.100   5.423
 5124TIP3    H115336   2.038   6.179   5.370
 5124TIP3    H215337   2.100   6.042   5.390
 5125TIP3   OH215338   2.047   4.936   1.907
 5125TIP3    H115339   2.012   4.854   1.942
 5125TIP3    H215340   2.137   4.916   1.883
 5126TIP3   OH215341   0.262   5.142   1.113
 5126TIP3    H115342   0.256   5.048   1.096
 5126TIP3    H215343   0.337   5.171   1.061
 5127TIP3   OH215344   2.899   6.427   3.513
 5127TIP3    H115345   2.904   6.332   3.521
 5127TIP3    H215346   2.908   6.445   3.420
 5128TIP3   OH215347   0.978   2.468   0.222
 5128TIP3    H115348   0.978   2.484   0.127
 5128TIP3    H215349   0.915   2.530   0.257
 5129TIP3   OH215350   1.118   3.016   5.146
 5129TIP3    H115351   1.121   3.106   5.115
 5129TIP3    H215352   1.026   2.999   5.164
 5130TIP3   OH215353   3.082   2.898   4.268
 5130TIP3    H115354   3.128   2.948   4.201
 5130TIP3    H215355   3.003   2.866   4.224
 5131TIP3   OH215356   5.160   4.180   0.828
 5131TIP3    H115357   5.083   4.131   0.799
 5131TIP3    H215358   5.143   4.270   0.800
 5132TIP3   OH215359   7.136   1.078   0.592
 5132TIP3    H115360   7.060   1.085   0.533
 5132TIP3    H215361   7.098   1.053   0.676
 5133TIP3   OH215362   3.891   1.080   2.730
 5133TIP3    H115363   3.926   1.169   2.741
 5133TIP3    H215364   3.798   1.094   2.712
 5134TIP3   OH215365   7.201   3.718   1.742
 5134TIP3    H115366   7.177   3.626   1.754
 5134TIP3    H215367   7.120   3.766   1.755
 5135TIP3   OH215368   0.479   6.819   2.852
 5135TIP3    H115369   0.521   6.875   2.787
 5135TIP3    H215370   0.538   6.745   2.862
 5136TIP3   OH215371   0.509   1.318   0.895
 5136TIP3    H115372   0.440   1.275   0.946
 5136TIP3    H215373   0.583   1.324   0.956
 5137TIP3   OH215374   1.323   2.918   0.920
 5137TIP3    H115375   1.254   2.876   0.971
 5137TIP3    H215376   1.286   3.002   0.893
 5138TIP3   OH215377   0.680   3.110   5.858
 5138TIP3    H115378   0.689   3.174   5.787
 5138TIP3    H215379   0.747   3.044   5.839
 5139TIP3   OH215380   0.259   3.496   3.256
 5139TIP3    H115381   0.330   3.434   3.275
 5139TIP3    H215382   0.246   3.487   3.161
 5140TIP3   OH215383   3.436   2.296   1.952
 5140TIP3    H115384   3.427   2.278   1.859
 5140TIP3    H215385   3.413   2.214   1.996
 5141TIP3   OH215386   5.396   6.819   3.214
 5141TIP3    H115387   5.327   6.827   3.149
 5141TIP3    H215388   5.393   6.727   3.242
 5142TIP3   OH215389   2.559   3.417   2.776
 5142TIP3    H115390   2.544   3.507   2.803
 5142TIP3    H215391   2.652   3.402   2.794
 5143TIP3   OH215392   0.546   4.126   1.993
 5143TIP3    H115393   0.585   4.165   2.072
 5143TIP3    H215394   0.452   4.126   2.011
 5144TIP3   OH215395   2.189   5.020   4.249
 5144TIP3    H115396   2.141   5.023   4.166
 5144TIP3    H215397   2.179   4.930   4.279
 5145TIP3   OH215398   6.503   6.129   1.509
 5145TIP3    H115399   6.512   6.043   1.550
 5145TIP3    H215400   6.408   6.145   1.508
 5146TIP3   OH215401   0.999   0.216   3.229
 5146TIP3    H115402   0.916   0.213   3.180
 5146TIP3    H215403   1.067   0.208   3.162
 5147TIP3   OH215404   1.897   6.755   2.309
 5147TIP3    H115405   1.935   6.704   2.237
 5147TIP3    H215406   1.845   6.823   2.266
 5148TIP3   OH215407   3.000   2.790   1.344
 5148TIP3    H115408   2.991   2.761   1.435
 5148TIP3    H215409   3.048   2.719   1.301
 5149TIP3   OH215410   1.698   6.370   0.690
 5149TIP3    H115411   1.633   6.436   0.668
 5149TIP3    H215412   1.779   6.403   0.650
 5150TIP3   OH215413   5.209   1.458   4.115
 5150TIP3    H115414   5.158   1.425   4.041
 5150TIP3    H215415   5.253   1.381   4.151
 5151TIP3   OH215416   1.960   0.523   0.897
 5151TIP3    H115417   1.934   0.445   0.946
 5151TIP3    H215418   2.053   0.512   0.882
 5152TIP3   OH215419   2.385   0.951   0.400
 5152TIP3    H115420   2.404   1.037   0.361
 5152TIP3    H215421   2.317   0.969   0.465
 5153TIP3   OH215422   5.539   1.895   3.907
 5153TIP3    H115423   5.471   1.937   3.960
 5153TIP3    H215424   5.521   1.801   3.916
 5154TIP3   OH215425   0.596   0.965   2.740
 5154TIP3    H115426   0.551   1.034   2.789
 5154TIP3    H215427   0.660   1.012   2.686
 5155TIP3   OH215428   2.262   1.608   2.824
 5155TIP3    H115429   2.315   1.684   2.846
 5155TIP3    H215430   2.318   1.555   2.768
 5156TIP3   OH215431   3.982   0.479   2.740
 5156TIP3    H115432   3.920   0.465   2.811
 5156TIP3    H215433   4.014   0.568   2.754
 5157TIP3   OH215434   4.851   0.751   1.581
 5157TIP3    H115435   4.928   0.760   1.526
 5157TIP3    H215436   4.820   0.840   1.595
 5158TIP3   OH215437   2.053   1.942   0.153
 5158TIP3    H115438   1.967   1.951   0.195
 5158TIP3    H215439   2.056   2.013   0.089
 5159TIP3   OH215440   3.872   3.848   3.323
 5159TIP3    H115441   3.855   3.930   3.277
 5159TIP3    H215442   3.936   3.802   3.267
 5160TIP3   OH215443   3.092   6.657   0.728
 5160TIP3    H115444   3.010   6.700   0.753
 5160TIP3    H215445   3.116   6.605   0.804
 5161TIP3   OH215446   2.649   4.238   1.529
 5161TIP3    H115447   2.718   4.193   1.577
 5161TIP3    H215448   2.677   4.233   1.437
 5162TIP3   OH215449   5.864   4.024   4.245
 5162TIP3    H115450   5.907   4.099   4.287
 5162TIP3    H215451   5.839   3.967   4.317
 5163TIP3   OH215452   5.439   0.897   3.592
 5163TIP3    H115453   5.510   0.834   3.576
 5163TIP3    H215454   5.373   0.847   3.640
 5164TIP3   OH215455   2.518   0.349   3.183
 5164TIP3    H115456   2.584   0.286   3.151
 5164TIP3    H215457   2.527   0.423   3.123
 5165TIP3   OH215458   7.225   4.203   3.706
 5165TIP3    H115459   7.160   4.135   3.689
 5165TIP3    H215460   7.173   4.282   3.722
 5166TIP3   OH215461   1.742   5.003   5.211
 5166TIP3    H115462   1.722   5.085   5.165
 5166TIP3    H215463   1.833   5.013   5.239
 5167TIP3   OH215464   1.117   1.758   1.422
 5167TIP3    H115465   1.205   1.727   1.400
 5167TIP3    H215466   1.114   1.848   1.388
 5168TIP3   OH215467   4.257   0.565   0.746
 5168TIP3    H115468   4.168   0.599   0.738
 5168TIP3    H215469   4.307   0.611   0.679
 5169TIP3   OH215470   3.479   2.925   2.390
 5169TIP3    H115471   3.430   2.869   2.329
 5169TIP3    H215472   3.526   2.986   2.333
 5170TIP3   OH215473   6.186   1.842   0.333
 5170TIP3    H115474   6.187   1.938   0.342
 5170TIP3    H215475   6.094   1.818   0.343
 5171TIP3   OH215476   2.583   6.249   5.448
 5171TIP3    H115477   2.668   6.279   5.480
 5171TIP3    H215478   2.601   6.212   5.362
 5172TIP3   OH215479   0.551   4.669   3.572
 5172TIP3    H115480   0.519   4.704   3.489
 5172TIP3    H215481   0.484   4.606   3.598
 5173TIP3   OH215482   3.438   1.969   0.861
 5173TIP3    H115483   3.354   1.968   0.908
 5173TIP3    H215484   3.414   1.977   0.769
 5174TIP3   OH215485   5.528   0.724   3.051
 5174TIP3    H115486   5.499   0.727   3.142
 5174TIP3    H215487   5.473   0.788   3.007
 5175TIP3   OH215488   0.774   6.395   4.266
 5175TIP3    H115489   0.810   6.474   4.226
 5175TIP3    H215490   0.696   6.376   4.215
 5176TIP3   OH215491   5.732   5.061   5.163
 5176TIP3    H115492   5.655   5.027   5.210
 5176TIP3    H215493   5.750   5.145   5.204
 5177TIP3   OH215494   4.409   0.975   1.584
 5177TIP3    H115495   4.378   0.888   1.562
 5177TIP3    H215496   4.419   1.019   1.500
 5178TIP3   OH215497   0.479   6.497   0.992
 5178TIP3    H115498   0.478   6.409   1.029
 5178TIP3    H215499   0.433   6.551   1.056
 5179TIP3   OH215500   6.896   1.010   3.336
 5179TIP3    H115501   6.835   0.978   3.403
 5179TIP3    H215502   6.875   1.102   3.326
 5180TIP3   OH215503   4.767   6.440   3.416
 5180TIP3    H115504   4.714   6.479   3.486
 5180TIP3    H215505   4.791   6.354   3.449
 5181TIP3   OH215506   6.024   2.074   0.626
 5181TIP3    H115507   6.116   2.083   0.651
 5181TIP3    H215508   5.985   2.021   0.695
 5182TIP3   OH215509   6.006   4.041   2.722
 5182TIP3    H115510   6.092   4.059   2.685
 5182TIP3    H215511   5.965   3.980   2.660
 5183TIP3   OH215512   1.532   5.074   5.772
 5183TIP3    H115513   1.480   5.108   5.845
 5183TIP3    H215514   1.508   5.129   5.698
 5184TIP3   OH215515   1.381   0.221   4.935
 5184TIP3    H115516   1.355   0.306   4.900
 5184TIP3    H215517   1.385   0.164   4.858
 5185TIP3   OH215518   2.652   4.312   0.515
 5185TIP3    H115519   2.575   4.369   0.503
 5185TIP3    H215520   2.720   4.353   0.461
 5186TIP3   OH215521   1.909   6.587   2.059
 5186TIP3    H115522   1.864   6.504   2.075
 5186TIP3    H215523   2.002   6.568   2.074
 5187TIP3   OH215524   1.623   0.822   4.365
 5187TIP3    H115525   1.546   0.825   4.308
 5187TIP3    H215526   1.629   0.910   4.401
 5188TIP3   OH215527   3.057   0.929   5.791
 5188TIP3    H115528   2.980   0.933   5.847
 5188TIP3    H215529   3.097   0.844   5.811
 5189TIP3   OH215530   5.800   3.793   5.382
 5189TIP3    H115531   5.886   3.786   5.342
 5189TIP3    H215532   5.740   3.806   5.309
 5190TIP3   OH215533   0.229   2.065   4.352
 5190TIP3    H115534   0.157   2.050   4.291
 5190TIP3    H215535   0.306   2.073   4.297
 5191TIP3   OH215536   0.297   1.266   1.089
 5191TIP3    H115537   0.272   1.202   1.156
 5191TIP3    H215538   0.328   1.342   1.138
 5192TIP3   OH215539   4.330   5.720   2.594
 5192TIP3    H115540   4.241   5.710   2.628
 5192TIP3    H215541   4.324   5.690   2.504
 5193TIP3   OH215542   1.033   4.695   4.765
 5193TIP3    H115543   0.986   4.777   4.750
 5193TIP3    H215544   1.104   4.719   4.824
 5194TIP3   OH215545   3.022   2.006   5.854
 5194TIP3    H115546   3.056   2.094   5.871
 5194TIP3    H215547   3.064   1.979   5.773
 5195TIP3   OH215548   0.319   1.013   4.629
 5195TIP3    H115549   0.256   1.045   4.694
 5195TIP3    H215550   0.289   1.050   4.547
 5196TIP3   OH215551   6.750   6.020   0.773
 5196TIP3    H115552   6.701   5.938   0.780
 5196TIP3    H215553   6.701   6.082   0.827
 5197TIP3   OH215554   5.876   2.599   3.370
 5197TIP3    H115555   5.957   2.553   3.392
 5197TIP3    H215556   5.868   2.668   3.437
 5198TIP3   OH215557   1.192  -0.052   5.321
 5198TIP3    H115558   1.215   0.041   5.323
 5198TIP3    H215559   1.242  -0.087   5.247
 5199TIP3   OH215560   5.198   2.091   5.280
 5199TIP3    H115561   5.119   2.138   5.305
 5199TIP3    H215562   5.168   2.020   5.224
 5200TIP3   OH215563   4.025   2.850   4.106
 5200TIP3    H115564   3.951   2.872   4.163
 5200TIP3    H215565   3.985   2.809   4.029
 5201TIP3   OH215566   1.370   5.826   4.864
 5201TIP3    H115567   1.389   5.895   4.801
 5201TIP3    H215568   1.308   5.768   4.819
 5202TIP3   OH215569   4.105   3.375   5.684
 5202TIP3    H115570   4.118   3.304   5.622
 5202TIP3    H215571   4.193   3.402   5.709
 5203TIP3   OH215572   1.981   3.251   3.587
 5203TIP3    H115573   2.069   3.266   3.622
 5203TIP3    H215574   1.935   3.205   3.657
 5204TIP3   OH215575   6.857   2.145   3.811
 5204TIP3    H115576   6.827   2.218   3.757
 5204TIP3    H215577   6.909   2.185   3.881
 5205TIP3   OH215578   5.307   4.918   3.610
 5205TIP3    H115579   5.352   4.838   3.584
 5205TIP3    H215580   5.285   4.905   3.702
 5206TIP3   OH215581   5.247   0.269   1.836
 5206TIP3    H115582   5.193   0.276   1.915
 5206TIP3    H215583   5.192   0.223   1.773
 5207TIP3   OH215584   2.004   1.450   0.443
 5207TIP3    H115585   2.073   1.434   0.379
 5207TIP3    H215586   2.032   1.530   0.488
 5208TIP3   OH215587   3.870   2.623   4.547
 5208TIP3    H115588   3.901   2.699   4.596
 5208TIP3    H215589   3.913   2.548   4.588
 5209TIP3   OH215590   4.369   2.176   1.793
 5209TIP3    H115591   4.344   2.268   1.782
 5209TIP3    H215592   4.394   2.147   1.705
 5210TIP3   OH215593   2.515   4.280   3.443
 5210TIP3    H115594   2.556   4.194   3.453
 5210TIP3    H215595   2.426   4.268   3.475
 5211TIP3   OH215596   3.709   0.513   1.189
 5211TIP3    H115597   3.671   0.473   1.267
 5211TIP3    H215598   3.703   0.607   1.206
 5212TIP3   OH215599   2.286   4.723   4.141
 5212TIP3    H115600   2.378   4.703   4.154
 5212TIP3    H215601   2.286   4.805   4.091
 5213TIP3   OH215602   5.051   5.513   2.331
 5213TIP3    H115603   5.071   5.424   2.359
 5213TIP3    H215604   5.048   5.565   2.411
 5214TIP3   OH215605   6.109   6.524   2.690
 5214TIP3    H115606   6.045   6.575   2.739
 5214TIP3    H215607   6.057   6.471   2.629
 5215TIP3   OH215608   2.166   6.241   3.489
 5215TIP3    H115609   2.077   6.275   3.487
 5215TIP3    H215610   2.195   6.246   3.398
 5216TIP3   OH215611   6.027   5.832   3.397
 5216TIP3    H115612   6.044   5.847   3.490
 5216TIP3    H215613   5.982   5.911   3.368
 5217TIP3   OH215614   0.846   3.372   5.343
 5217TIP3    H115615   0.783   3.300   5.352
 5217TIP3    H215616   0.802   3.448   5.380
 5218TIP3   OH215617   2.104   1.556   1.479
 5218TIP3    H115618   2.033   1.519   1.427
 5218TIP3    H215619   2.100   1.509   1.562
 5219TIP3   OH215620   2.375   3.287   0.541
 5219TIP3    H115621   2.350   3.231   0.467
 5219TIP3    H215622   2.400   3.225   0.610
 5220TIP3   OH215623   5.347   1.689   0.063
 5220TIP3    H115624   5.296   1.644  -0.004
 5220TIP3    H215625   5.408   1.622   0.095
 5221TIP3   OH215626   2.770   1.774   3.012
 5221TIP3    H115627   2.713   1.830   2.958
 5221TIP3    H215628   2.736   1.785   3.101
 5222TIP3   OH215629   6.866   2.130   0.002
 5222TIP3    H115630   6.810   2.185   0.057
 5222TIP3    H215631   6.937   2.188  -0.026
 5223TIP3   OH215632   1.801   0.076   3.355
 5223TIP3    H115633   1.854   0.111   3.283
 5223TIP3    H215634   1.754   0.153   3.388
 5224TIP3   OH215635   5.398   3.615   4.936
 5224TIP3    H115636   5.449   3.696   4.936
 5224TIP3    H215637   5.453   3.551   4.982
 5225TIP3   OH215638   6.070   1.312   4.993
 5225TIP3    H115639   6.005   1.291   5.061
 5225TIP3    H215640   6.105   1.397   5.019
 5226TIP3   OH215641   4.311   6.284   0.263
 5226TIP3    H115642   4.327   6.370   0.303
 5226TIP3    H215643   4.240   6.300   0.200
 5227TIP3   OH215644   3.131   2.450   4.070
 5227TIP3    H115645   3.064   2.382   4.062
 5227TIP3    H215646   3.181   2.444   3.988
 5228TIP3   OH215647   1.164   5.410   5.298
 5228TIP3    H115648   1.141   5.469   5.226
 5228TIP3    H215649   1.254   5.431   5.320
 5229TIP3   OH215650   0.300   6.159   0.693
 5229TIP3    H115651   0.263   6.146   0.605
 5229TIP3    H215652   0.224   6.171   0.750
 5230TIP3   OH215653   4.597   2.519   4.464
 5230TIP3    H115654   4.679   2.477   4.489
 5230TIP3    H215655   4.529   2.457   4.491
 5231TIP3   OH215656   2.190   1.283   3.404
 5231TIP3    H115657   2.196   1.368   3.361
 5231TIP3    H215658   2.279   1.247   3.397
 5232TIP3   OH215659   2.210   1.439   0.273
 5232TIP3    H115660   2.187   1.532   0.265
 5232TIP3    H215661   2.193   1.403   0.186
 5233TIP3   OH215662   1.355   2.702   2.908
 5233TIP3    H115663   1.367   2.775   2.969
 5233TIP3    H215664   1.373   2.740   2.822
 5234TIP3   OH215665   3.393   4.079   1.610
 5234TIP3    H115666   3.322   4.140   1.591
 5234TIP3    H215667   3.373   4.044   1.697
 5235TIP3   OH215668   6.658   2.760   5.858
 5235TIP3    H115669   6.659   2.806   5.774
 5235TIP3    H215670   6.617   2.822   5.918
 5236TIP3   OH215671   6.239  -0.021   1.513
 5236TIP3    H115672   6.182   0.007   1.584
 5236TIP3    H215673   6.239  -0.117   1.518
 5237TIP3   OH215674   5.403   2.986   3.837
 5237TIP3    H115675   5.456   3.000   3.759
 5237TIP3    H215676   5.317   2.963   3.804
 5238TIP3   OH215677   6.692   5.962   2.852
 5238TIP3    H115678   6.674   6.032   2.790
 5238TIP3    H215679   6.615   5.957   2.907
 5239TIP3   OH215680   1.227   1.355   1.559
 5239TIP3    H115681   1.178   1.273   1.553
 5239TIP3    H215682   1.309   1.331   1.602
 5240TIP3   OH215683   6.495   5.704   2.646
 5240TIP3    H115684   6.519   5.792   2.674
 5240TIP3    H215685   6.578   5.656   2.643
 5241TIP3   OH215686   6.188   0.282   1.985
 5241TIP3    H115687   6.270   0.239   2.008
 5241TIP3    H215688   6.213   0.351   1.923
 5242TIP3   OH215689   0.916   3.010   1.454
 5242TIP3    H115690   0.915   3.093   1.406
 5242TIP3    H215691   0.829   3.005   1.494
 5243TIP3   OH215692   6.064   3.439   2.286
 5243TIP3    H115693   6.098   3.417   2.373
 5243TIP3    H215694   6.032   3.356   2.251
 5244TIP3   OH215695   3.528   0.113   1.194
 5244TIP3    H115696   3.527   0.113   1.290
 5244TIP3    H215697   3.467   0.043   1.170
 5245TIP3   OH215698   4.186   6.305   2.698
 5245TIP3    H115699   4.102   6.271   2.667
 5245TIP3    H215700   4.164   6.387   2.742
 5246TIP3   OH215701   2.901   5.136   4.831
 5246TIP3    H115702   2.884   5.088   4.912
 5246TIP3    H215703   2.902   5.228   4.857
 5247TIP3   OH215704   2.088   4.893   5.274
 5247TIP3    H115705   2.154   4.824   5.275
 5247TIP3    H215706   2.022   4.865   5.337
 5248TIP3   OH215707   4.203   6.624   1.117
 5248TIP3    H115708   4.244   6.707   1.142
 5248TIP3    H215709   4.173   6.587   1.200
 5249TIP3   OH215710   3.293   3.124   5.057
 5249TIP3    H115711   3.322   3.123   5.149
 5249TIP3    H215712   3.290   3.032   5.032
 5250TIP3   OH215713   5.255   6.155   5.735
 5250TIP3    H115714   5.239   6.089   5.802
 5250TIP3    H215715   5.171   6.163   5.689
 5251TIP3   OH215716   5.723   1.095   5.438
 5251TIP3    H115717   5.770   1.115   5.518
 5251TIP3    H215718   5.786   1.044   5.386
 5252TIP3   OH215719   6.904   4.907   0.757
 5252TIP3    H115720   6.834   4.972   0.750
 5252TIP3    H215721   6.984   4.956   0.741
 5253TIP3   OH215722   1.587   5.409   1.011
 5253TIP3    H115723   1.627   5.339   1.063
 5253TIP3    H215724   1.521   5.447   1.069
 5254TIP3   OH215725   1.578   5.804   3.727
 5254TIP3    H115726   1.540   5.797   3.815
 5254TIP3    H215727   1.585   5.713   3.698
 5255TIP3   OH215728   7.220   5.519   3.101
 5255TIP3    H115729   7.146   5.549   3.153
 5255TIP3    H215730   7.229   5.586   3.032
 5256TIP3   OH215731  -0.084   4.899   4.548
 5256TIP3    H115732  -0.008   4.955   4.529
 5256TIP3    H215733  -0.130   4.890   4.465
 5257TIP3   OH215734   4.089   4.129   4.412
 5257TIP3    H115735   4.140   4.069   4.466
 5257TIP3    H215736   4.116   4.109   4.322
 5258TIP3   OH215737   1.978   1.516   4.252
 5258TIP3    H115738   2.032   1.520   4.331
 5258TIP3    H215739   2.040   1.495   4.181
 5259TIP3   OH215740   3.846   6.508   1.518
 5259TIP3    H115741   3.926   6.467   1.485
 5259TIP3    H215742   3.801   6.438   1.565
 5260TIP3   OH215743   5.265   6.204   2.864
 5260TIP3    H115744   5.230   6.130   2.814
 5260TIP3    H215745   5.253   6.179   2.955
 5261TIP3   OH215746   4.983   1.156   4.185
 5261TIP3    H115747   4.971   1.064   4.163
 5261TIP3    H215748   5.059   1.157   4.243
 5262TIP3   OH215749   5.118   3.561   0.795
 5262TIP3    H115750   5.043   3.504   0.778
 5262TIP3    H215751   5.192   3.501   0.802
 5263TIP3   OH215752   1.311   1.997   0.690
 5263TIP3    H115753   1.239   1.939   0.663
 5263TIP3    H215754   1.390   1.955   0.656
 5264TIP3   OH215755   0.524   4.384   5.726
 5264TIP3    H115756   0.579   4.456   5.694
 5264TIP3    H215757   0.522   4.396   5.821
 5265TIP3   OH215758   6.029   4.073   0.959
 5265TIP3    H115759   5.967   4.002   0.972
 5265TIP3    H215760   6.114   4.036   0.982
 5266TIP3   OH215761   1.692   3.995   3.790
 5266TIP3    H115762   1.784   3.972   3.781
 5266TIP3    H215763   1.652   3.967   3.708
 5267TIP3   OH215764   1.395   2.343   5.337
 5267TIP3    H115765   1.343   2.401   5.393
 5267TIP3    H215766   1.441   2.402   5.277
 5268TIP3   OH215767   3.017   0.664   2.718
 5268TIP3    H115768   2.997   0.723   2.645
 5268TIP3    H215769   2.982   0.708   2.795
 5269TIP3   OH215770   0.195   2.625   4.517
 5269TIP3    H115771   0.180   2.597   4.607
 5269TIP3    H215772   0.261   2.564   4.483
 5270TIP3   OH215773   7.059   5.030   5.604
 5270TIP3    H115774   7.083   4.967   5.536
 5270TIP3    H215775   7.111   5.004   5.681
 5271TIP3   OH215776   5.177   1.006   1.638
 5271TIP3    H115777   5.141   1.011   1.549
 5271TIP3    H215778   5.254   0.949   1.630
 5272TIP3   OH215779   3.195   3.963   3.680
 5272TIP3    H115780   3.100   3.966   3.682
 5272TIP3    H215781   3.220   4.025   3.611
 5273TIP3   OH215782   7.155   1.084   2.022
 5273TIP3    H115783   7.232   1.043   2.060
 5273TIP3    H215784   7.166   1.177   2.042
 5274TIP3   OH215785   1.343   1.802   3.209
 5274TIP3    H115786   1.272   1.806   3.145
 5274TIP3    H215787   1.306   1.751   3.282
 5275TIP3   OH215788   1.551   3.139   0.650
 5275TIP3    H115789   1.492   3.148   0.575
 5275TIP3    H215790   1.564   3.229   0.681
 5276TIP3   OH215791   4.039   5.021   2.301
 5276TIP3    H115792   4.065   5.088   2.364
 5276TIP3    H215793   4.034   4.941   2.353
 5277TIP3   OH215794   0.756   3.564   0.337
 5277TIP3    H115795   0.754   3.474   0.371
 5277TIP3    H215796   0.849   3.583   0.327
 5278TIP3   OH215797   3.087   4.825   4.237
 5278TIP3    H115798   3.051   4.913   4.248
 5278TIP3    H215799   3.014   4.771   4.208
 5279TIP3   OH215800   3.769   2.696   0.356
 5279TIP3    H115801   3.703   2.737   0.300
 5279TIP3    H215802   3.727   2.617   0.390
 5280TIP3   OH215803   1.362   2.954   1.203
 5280TIP3    H115804   1.275   2.919   1.223
 5280TIP3    H215805   1.369   2.947   1.108
 5281TIP3   OH215806   5.948   2.981   1.448
 5281TIP3    H115807   5.888   3.049   1.416
 5281TIP3    H215808   6.022   2.986   1.388
 5282TIP3   OH215809   2.625   4.407   4.227
 5282TIP3    H115810   2.608   4.384   4.318
 5282TIP3    H215811   2.553   4.366   4.178
 5283TIP3   OH215812   1.916   5.927   1.426
 5283TIP3    H115813   2.010   5.928   1.445
 5283TIP3    H215814   1.881   6.003   1.473
 5284TIP3   OH215815   6.236   6.209   1.563
 5284TIP3    H115816   6.163   6.221   1.624
 5284TIP3    H215817   6.236   6.289   1.511
 5285TIP3   OH215818   1.711   2.262   4.771
 5285TIP3    H115819   1.773   2.248   4.699
 5285TIP3    H215820   1.625   2.264   4.728
 5286TIP3   OH215821   4.767   5.482   2.336
 5286TIP3    H115822   4.844   5.437   2.301
 5286TIP3    H215823   4.693   5.430   2.305
 5287TIP3   OH215824   3.670   0.905   4.314
 5287TIP3    H115825   3.644   0.996   4.307
 5287TIP3    H215826   3.588   0.856   4.312
 5288TIP3   OH215827   3.132   2.492   2.309
 5288TIP3    H115828   3.214   2.479   2.261
 5288TIP3    H215829   3.115   2.407   2.350
 5289TIP3   OH215830   0.292   4.869   2.588
 5289TIP3    H115831   0.318   4.794   2.534
 5289TIP3    H215832   0.270   4.831   2.673
 5290TIP3   OH215833   4.076   5.047   5.214
 5290TIP3    H115834   4.112   5.121   5.166
 5290TIP3    H215835   4.130   4.973   5.188
 5291TIP3   OH215836   1.168   0.531   2.693
 5291TIP3    H115837   1.206   0.606   2.648
 5291TIP3    H215838   1.244   0.478   2.719
 5292TIP3   OH215839   4.884   6.449   0.136
 5292TIP3    H115840   4.810   6.510   0.136
 5292TIP3    H215841   4.929   6.464   0.219
 5293TIP3   OH215842   6.229   4.334   5.010
 5293TIP3    H115843   6.273   4.412   5.044
 5293TIP3    H215844   6.156   4.369   4.958
 5294TIP3   OH215845   2.695   0.395   5.775
 5294TIP3    H115846   2.700   0.301   5.758
 5294TIP3    H215847   2.603   0.412   5.792
 5295TIP3   OH215848   7.008   4.793   1.417
 5295TIP3    H115849   6.961   4.871   1.446
 5295TIP3    H215850   7.098   4.823   1.405
 5296TIP3   OH215851   3.679   5.333   5.804
 5296TIP3    H115852   3.744   5.399   5.780
 5296TIP3    H215853   3.648   5.360   5.890
 5297TIP3   OH215854   4.849   1.189   5.347
 5297TIP3    H115855   4.868   1.232   5.431
 5297TIP3    H215856   4.931   1.144   5.324
 5298TIP3   OH215857   2.079   2.486   4.527
 5298TIP3    H115858   2.077   2.575   4.493
 5298TIP3    H215859   2.114   2.495   4.616
 5299TIP3   OH215860   2.075   0.857   0.805
 5299TIP3    H115861   2.094   0.903   0.886
 5299TIP3    H215862   2.065   0.766   0.831
 5300TIP3   OH215863   4.650   5.621   3.656
 5300TIP3    H115864   4.715   5.689   3.643
 5300TIP3    H215865   4.647   5.573   3.573
 5301TIP3   OH215866   2.750   6.654   1.600
 5301TIP3    H115867   2.671   6.678   1.552
 5301TIP3    H215868   2.743   6.560   1.614
 5302TIP3   OH215869   4.159   2.937   5.177
 5302TIP3    H115870   4.246   2.934   5.217
 5302TIP3    H215871   4.147   2.849   5.141
 5303TIP3   OH215872   1.105   6.703   4.016
 5303TIP3    H115873   1.182   6.691   3.962
 5303TIP3    H215874   1.053   6.768   3.969
 5304TIP3   OH215875   4.186   3.357   2.601
 5304TIP3    H115876   4.156   3.277   2.643
 5304TIP3    H215877   4.120   3.377   2.534
 5305TIP3   OH215878   3.458   0.843   3.635
 5305TIP3    H115879   3.405   0.767   3.662
 5305TIP3    H215880   3.536   0.838   3.689
 5306TIP3   OH215881   3.037   1.459   5.480
 5306TIP3    H115882   3.004   1.369   5.475
 5306TIP3    H215883   3.001   1.492   5.562
 5307TIP3   OH215884   4.330   6.575   1.560
 5307TIP3    H115885   4.305   6.518   1.632
 5307TIP3    H215886   4.425   6.585   1.569
 5308TIP3   OH215887   5.260   3.957   1.356
 5308TIP3    H115888   5.207   3.881   1.381
 5308TIP3    H215889   5.249   3.964   1.261
 5309TIP3   OH215890   0.766   5.854   0.900
 5309TIP3    H115891   0.731   5.937   0.935
 5309TIP3    H215892   0.776   5.798   0.977
 5310TIP3   OH215893   5.725   0.661   3.305
 5310TIP3    H115894   5.725   0.566   3.290
 5310TIP3    H215895   5.800   0.693   3.255
 5311TIP3   OH215896   6.027   1.966   1.009
 5311TIP3    H115897   6.022   2.008   1.095
 5311TIP3    H215898   6.120   1.963   0.989
 5312TIP3   OH215899   0.092   1.555   3.485
 5312TIP3    H115900   0.044   1.630   3.520
 5312TIP3    H215901   0.037   1.479   3.507
 5313TIP3   OH215902   6.378   6.664   0.914
 5313TIP3    H115903   6.443   6.734   0.913
 5313TIP3    H215904   6.305   6.698   0.862
 5314TIP3   OH215905   1.066   2.512   2.193
 5314TIP3    H115906   1.134   2.486   2.131
 5314TIP3    H215907   1.095   2.597   2.226
 5315TIP3   OH215908   0.113   4.484   4.427
 5315TIP3    H115909   0.026   4.447   4.442
 5315TIP3    H215910   0.120   4.490   4.332
 5316TIP3   OH215911   4.380   4.971   1.899
 5316TIP3    H115912   4.322   4.969   1.823
 5316TIP3    H215913   4.322   4.981   1.974
 5317TIP3   OH215914   4.406   6.456   4.584
 5317TIP3    H115915   4.446   6.541   4.600
 5317TIP3    H215916   4.466   6.412   4.523
 5318TIP3   OH215917   3.050   5.943   4.713
 5318TIP3    H115918   3.104   5.909   4.641
 5318TIP3    H215919   3.108   5.943   4.789
 5319TIP3   OH215920   2.326   1.047   4.469
 5319TIP3    H115921   2.419   1.062   4.485
 5319TIP3    H215922   2.291   1.015   4.552
 5320TIP3   OH215923   1.593   5.748   2.589
 5320TIP3    H115924   1.545   5.821   2.551
 5320TIP3    H215925   1.562   5.744   2.680
 5321TIP3   OH215926   2.643   3.664   1.369
 5321TIP3    H115927   2.726   3.635   1.329
 5321TIP3    H215928   2.635   3.755   1.342
 5322TIP3   OH215929   4.330   6.619   5.097
 5322TIP3    H115930   4.267   6.669   5.150
 5322TIP3    H215931   4.286   6.535   5.083
 5323TIP3   OH215932   0.819   3.910   1.814
 5323TIP3    H115933   0.765   3.914   1.893
 5323TIP3    H215934   0.762   3.870   1.748
 5324TIP3   OH215935   1.752   4.716   5.768
 5324TIP3    H115936   1.794   4.687   5.687
 5324TIP3    H215937   1.806   4.788   5.799
 5325TIP3   OH215938   4.305   4.294   3.796
 5325TIP3    H115939   4.339   4.233   3.862
 5325TIP3    H215940   4.353   4.271   3.716
 5326TIP3   OH215941   2.377   6.556   2.408
 5326TIP3    H115942   2.428   6.532   2.485
 5326TIP3    H215943   2.399   6.648   2.393
 5327TIP3   OH215944   3.910   6.043   3.448
 5327TIP3    H115945   3.822   6.024   3.480
 5327TIP3    H215946   3.967   5.985   3.499
 5328TIP3   OH215947   0.654   2.330   0.487
 5328TIP3    H115948   0.662   2.260   0.552
 5328TIP3    H215949   0.640   2.284   0.404
 5329TIP3   OH215950   5.103   0.520   0.999
 5329TIP3    H115951   5.197   0.524   1.020
 5329TIP3    H215952   5.083   0.607   0.964
 5330TIP3   OH215953   1.976   0.227   3.171
 5330TIP3    H115954   2.059   0.200   3.210
 5330TIP3    H215955   1.989   0.219   3.077
 5331TIP3   OH215956   4.091   1.657   1.370
 5331TIP3    H115957   4.155   1.718   1.406
 5331TIP3    H215958   4.010   1.707   1.364
 5332TIP3   OH215959   3.850   0.804   1.941
 5332TIP3    H115960   3.817   0.832   1.856
 5332TIP3    H215961   3.804   0.722   1.959
 5333TIP3   OH215962   3.558   3.457   3.602
 5333TIP3    H115963   3.624   3.521   3.578
 5333TIP3    H215964   3.508   3.498   3.672
 5334TIP3   OH215965   4.599   6.487   3.648
 5334TIP3    H115966   4.556   6.441   3.721
 5334TIP3    H215967   4.549   6.568   3.639
 5335TIP3   OH215968   5.080   1.374   2.571
 5335TIP3    H115969   5.074   1.280   2.556
 5335TIP3    H215970   5.008   1.393   2.631
 5336TIP3   OH215971   3.293   2.016   1.432
 5336TIP3    H115972   3.255   1.997   1.517
 5336TIP3    H215973   3.350   2.091   1.446
 5337TIP3   OH215974   5.850   3.984   3.970
 5337TIP3    H115975   5.862   3.891   3.948
 5337TIP3    H215976   5.857   3.987   4.065
 5338TIP3   OH215977   2.704   0.746   3.264
 5338TIP3    H115978   2.665   0.672   3.310
 5338TIP3    H215979   2.798   0.728   3.266
 5339TIP3   OH215980   5.296   6.596   3.071
 5339TIP3    H115981   5.360   6.565   3.007
 5339TIP3    H215982   5.298   6.529   3.141
 5340TIP3   OH215983   0.854   1.478   0.014
 5340TIP3    H115984   0.845   1.406   0.077
 5340TIP3    H215985   0.764   1.498  -0.014
 5341TIP3   OH215986   0.446   5.605   5.194
 5341TIP3    H115987   0.432   5.511   5.207
 5341TIP3    H215988   0.503   5.610   5.117
 5342TIP3   OH215989   2.455   1.598   5.838
 5342TIP3    H115990   2.426   1.584   5.748
 5342TIP3    H215991   2.539   1.553   5.844
 5343TIP3   OH215992   7.059   4.236   1.780
 5343TIP3    H115993   7.078   4.329   1.792
 5343TIP3    H215994   7.029   4.206   1.865
 5344TIP3   OH215995   4.262   2.928   3.798
 5344TIP3    H115996   4.290   2.837   3.787
 5344TIP3    H215997   4.189   2.922   3.860
 5345TIP3   OH215998   2.010   2.958   3.052
 5345TIP3    H115999   2.065   2.891   3.011
 5345TIP3    H216000   2.067   3.035   3.060
 5346TIP3   OH216001   3.334   5.686   3.796
 5346TIP3    H116002   3.381   5.662   3.876
 5346TIP3    H216003   3.361   5.621   3.732
 5347TIP3   OH216004   0.518   5.670   4.470
 5347TIP3    H116005   0.500   5.579   4.447
 5347TIP3    H216006   0.524   5.716   4.386
 5348TIP3   OH216007   6.549   1.635   5.217
 5348TIP3    H116008   6.606   1.558   5.210
 5348TIP3    H216009   6.581   1.681   5.295
 5349TIP3   OH216010   1.264   0.456   3.496
 5349TIP3    H116011   1.224   0.517   3.558
 5349TIP3    H216012   1.280   0.507   3.417
 5350TIP3   OH216013   1.257   5.401   3.243
 5350TIP3    H116014   1.347   5.389   3.272
 5350TIP3    H216015   1.208   5.331   3.285
 5351TIP3   OH216016   6.434   6.242   4.959
 5351TIP3    H116017   6.440   6.195   5.042
 5351TIP3    H216018   6.430   6.334   4.984
 5352TIP3   OH216019   2.929   3.821   2.323
 5352TIP3    H116020   2.928   3.907   2.365
 5352TIP3    H216021   3.003   3.825   2.262
 5353TIP3   OH216022   4.528   0.687   3.251
 5353TIP3    H116023   4.523   0.673   3.157
 5353TIP3    H216024   4.455   0.637   3.287
 5354TIP3   OH216025   1.050   0.766   3.342
 5354TIP3    H116026   0.960   0.783   3.370
 5354TIP3    H216027   1.097   0.750   3.424
 5355TIP3   OH216028   1.349   3.325   3.013
 5355TIP3    H116029   1.358   3.253   3.075
 5355TIP3    H216030   1.273   3.301   2.959
 5356TIP3   OH216031   4.964   0.451   3.026
 5356TIP3    H116032   4.955   0.544   3.043
 5356TIP3    H216033   4.898   0.432   2.959
 5357TIP3   OH216034   2.434   1.232   0.235
 5357TIP3    H116035   2.363   1.224   0.171
 5357TIP3    H216036   2.429   1.322   0.265
 5358TIP3   OH216037   1.761   5.718   1.334
 5358TIP3    H116038   1.785   5.796   1.385
 5358TIP3    H216039   1.717   5.753   1.256
 5359TIP3   OH216040   3.252   2.527   5.023
 5359TIP3    H116041   3.277   2.442   5.057
 5359TIP3    H216042   3.226   2.578   5.100
 5360TIP3   OH216043   4.888   0.318   2.176
 5360TIP3    H116044   4.831   0.295   2.250
 5360TIP3    H216045   4.838   0.382   2.126
 5361TIP3   OH216046   0.768   3.091   0.164
 5361TIP3    H116047   0.710   3.080   0.240
 5361TIP3    H216048   0.713   3.132   0.098
 5362TIP3   OH216049   6.500   0.248   5.517
 5362TIP3    H116050   6.567   0.179   5.513
 5362TIP3    H216051   6.503   0.289   5.431
 5363TIP3   OH216052   0.566   6.239   2.607
 5363TIP3    H116053   0.578   6.150   2.574
 5363TIP3    H216054   0.605   6.237   2.695
 5364TIP3   OH216055   4.612   0.916   5.602
 5364TIP3    H116056   4.610   0.827   5.638
 5364TIP3    H216057   4.543   0.962   5.649
 5365TIP3   OH216058   5.772   3.648   1.612
 5365TIP3    H116059   5.834   3.625   1.543
 5365TIP3    H216060   5.714   3.712   1.572
 5366TIP3   OH216061   6.349   2.514   4.108
 5366TIP3    H116062   6.323   2.500   4.200
 5366TIP3    H216063   6.335   2.608   4.094
 5367TIP3   OH216064   5.729   1.541   4.726
 5367TIP3    H116065   5.812   1.589   4.722
 5367TIP3    H216066   5.663   1.608   4.742
 5368TIP3   OH216067   4.274   1.217   4.437
 5368TIP3    H116068   4.258   1.138   4.385
 5368TIP3    H216069   4.190   1.263   4.435
 5369TIP3   OH216070   3.879   4.958   5.823
 5369TIP3    H116071   3.811   5.013   5.784
 5369TIP3    H216072   3.843   4.935   5.909
 5370TIP3   OH216073   0.876   2.542   0.492
 5370TIP3    H116074   0.801   2.483   0.492
 5370TIP3    H216075   0.948   2.489   0.528
 5371TIP3   OH216076   1.156   5.641   4.485
 5371TIP3    H116077   1.164   5.728   4.523
 5371TIP3    H216078   1.215   5.587   4.538
 5372TIP3   OH216079   1.737   6.378   5.354
 5372TIP3    H116080   1.687   6.298   5.335
 5372TIP3    H216081   1.787   6.357   5.433
 5373TIP3   OH216082   7.059   2.670   3.829
 5373TIP3    H116083   7.046   2.679   3.924
 5373TIP3    H216084   7.131   2.730   3.809
 5374TIP3   OH216085   7.137   4.558   5.573
 5374TIP3    H116086   7.189   4.542   5.652
 5374TIP3    H216087   7.155   4.482   5.517
 5375TIP3   OH216088   1.117   6.329   1.798
 5375TIP3    H116089   1.039   6.310   1.747
 5375TIP3    H216090   1.085   6.374   1.876
 5376TIP3   OH216091   0.355   2.325   3.574
 5376TIP3    H116092   0.330   2.331   3.481
 5376TIP3    H216093   0.271   2.319   3.620
 5377TIP3   OH216094   5.879   3.383   5.080
 5377TIP3    H116095   5.835   3.339   5.153
 5377TIP3    H216096   5.972   3.376   5.100
 5378TIP3   OH216097   0.996   6.250   3.424
 5378TIP3    H116098   1.074   6.218   3.470
 5378TIP3    H216099   1.003   6.345   3.429
 5379TIP3   OH216100   6.908   2.808   4.380
 5379TIP3    H116101   6.859   2.868   4.436
 5379TIP3    H216102   6.850   2.788   4.307
 5380TIP3   OH216103   6.940   3.841   0.582
 5380TIP3    H116104   7.017   3.815   0.632
 5380TIP3    H216105   6.957   3.932   0.557
 5381TIP3   OH216106   5.475   1.308   4.979
 5381TIP3    H116107   5.534   1.263   5.039
 5381TIP3    H216108   5.415   1.355   5.036
 5382TIP3   OH216109   4.687   4.958   3.066
 5382TIP3    H116110   4.679   4.865   3.088
 5382TIP3    H216111   4.609   4.998   3.103
 5383TIP3   OH216112   0.909   4.104   3.976
 5383TIP3    H116113   0.842   4.071   3.916
 5383TIP3    H216114   0.981   4.131   3.919
 5384TIP3   OH216115   3.157   5.472   1.800
 5384TIP3    H116116   3.230   5.509   1.750
 5384TIP3    H216117   3.117   5.547   1.844
 5385TIP3   OH216118   5.956   3.421   0.336
 5385TIP3    H116119   5.933   3.443   0.426
 5385TIP3    H216120   5.895   3.470   0.282
 5386TIP3   OH216121   0.773   6.568   1.703
 5386TIP3    H116122   0.732   6.504   1.760
 5386TIP3    H216123   0.835   6.614   1.759
 5387TIP3   OH216124   4.110   4.409   5.772
 5387TIP3    H116125   4.066   4.383   5.692
 5387TIP3    H216126   4.046   4.462   5.819
 5388TIP3   OH216127   1.131   0.106   4.714
 5388TIP3    H116128   1.222   0.134   4.704
 5388TIP3    H216129   1.106   0.075   4.627
 5389TIP3   OH216130   5.327   1.362   0.589
 5389TIP3    H116131   5.407   1.412   0.578
 5389TIP3    H216132   5.354   1.284   0.638
 5390TIP3   OH216133   2.574   6.056   3.381
 5390TIP3    H116134   2.597   5.965   3.401
 5390TIP3    H216135   2.478   6.055   3.376
 5391TIP3   OH216136   7.076   4.618   4.110
 5391TIP3    H116137   7.051   4.527   4.096
 5391TIP3    H216138   6.996   4.660   4.142
 5392TIP3   OH216139   6.962   4.300   3.222
 5392TIP3    H116140   7.030   4.307   3.290
 5392TIP3    H216141   6.903   4.373   3.239
 5393TIP3   OH216142   2.328   1.728   1.941
 5393TIP3    H116143   2.386   1.761   1.872
 5393TIP3    H216144   2.251   1.695   1.894
 5394TIP3   OH216145   1.650   2.447   2.483
 5394TIP3    H116146   1.646   2.423   2.576
 5394TIP3    H216147   1.600   2.378   2.439
 5395TIP3   OH216148   1.297   3.611   2.582
 5395TIP3    H116149   1.257   3.537   2.536
 5395TIP3    H216150   1.228   3.641   2.642
 5396TIP3   OH216151   1.530   1.395   1.089
 5396TIP3    H116152   1.524   1.489   1.071
 5396TIP3    H216153   1.482   1.384   1.171
 5397TIP3   OH216154   6.615   3.583   1.268
 5397TIP3    H116155   6.662   3.631   1.337
 5397TIP3    H216156   6.529   3.565   1.307
 5398TIP3   OH216157   2.426   3.189   3.517
 5398TIP3    H116158   2.478   3.186   3.597
 5398TIP3    H216159   2.393   3.100   3.506
 5399TIP3   OH216160   3.321   4.864   2.916
 5399TIP3    H116161   3.379   4.788   2.917
 5399TIP3    H216162   3.371   4.933   2.960
 5400TIP3   OH216163   4.767   6.177   5.860
 5400TIP3    H116164   4.732   6.266   5.869
 5400TIP3    H216165   4.739   6.132   5.939
 5401TIP3   OH216166   6.726   6.041   5.214
 5401TIP3    H116167   6.736   6.123   5.262
 5401TIP3    H216168   6.672   5.986   5.271
 5402TIP3   OH216169   0.848   4.633   5.822
 5402TIP3    H116170   0.926   4.689   5.813
 5402TIP3    H216171   0.779   4.681   5.777
 5403TIP3   OH216172   0.668   5.304   3.236
 5403TIP3    H116173   0.692   5.276   3.147
 5403TIP3    H216174   0.751   5.327   3.277
 5404TIP3   OH216175   1.062   3.924   1.469
 5404TIP3    H116176   1.028   3.998   1.519
 5404TIP3    H216177   1.144   3.901   1.514
 5405TIP3   OH216178   2.575   0.454   2.518
 5405TIP3    H116179   2.610   0.410   2.595
 5405TIP3    H216180   2.538   0.536   2.552
 5406TIP3   OH216181   5.211   3.506   5.590
 5406TIP3    H116182   5.261   3.507   5.671
 5406TIP3    H216183   5.188   3.598   5.574
 5407TIP3   OH216184   3.756   6.346   5.095
 5407TIP3    H116185   3.849   6.336   5.115
 5407TIP3    H216186   3.752   6.417   5.031
 5408TIP3   OH216187   0.231   0.159   1.302
 5408TIP3    H116188   0.218   0.162   1.207
 5408TIP3    H216189   0.166   0.219   1.337
 5409TIP3   OH216190   4.524   3.574   2.719
 5409TIP3    H116191   4.582   3.591   2.794
 5409TIP3    H216192   4.457   3.642   2.725
 5410TIP3   OH216193   2.794   0.826   2.302
 5410TIP3    H116194   2.761   0.737   2.295
 5410TIP3    H216195   2.857   0.834   2.231
 5411TIP3   OH216196   5.582   3.524   0.022
 5411TIP3    H116197   5.645   3.555   0.087
 5411TIP3    H216198   5.504   3.502   0.073
 5412TIP3   OH216199   2.004   2.326   2.814
 5412TIP3    H116200   1.935   2.265   2.841
 5412TIP3    H216201   1.959   2.390   2.758
 5413TIP3   OH216202   5.839   1.987   0.819
 5413TIP3    H116203   5.820   1.895   0.834
 5413TIP3    H216204   5.903   2.010   0.886
 5414TIP3   OH216205   2.079   1.909   3.925
 5414TIP3    H116206   2.159   1.956   3.949
 5414TIP3    H216207   2.013   1.943   3.984
 5415TIP3   OH216208   0.136   0.896   2.118
 5415TIP3    H116209   0.098   0.809   2.134
 5415TIP3    H216210   0.201   0.907   2.187
 5416TIP3   OH216211   1.408   3.320   5.034
 5416TIP3    H116212   1.468   3.249   5.058
 5416TIP3    H216213   1.373   3.294   4.949
 5417TIP3   OH216214   6.632   1.668   0.521
 5417TIP3    H116215   6.540   1.667   0.493
 5417TIP3    H216216   6.651   1.577   0.543
 5418TIP3   OH216217   3.117   6.033   3.046
 5418TIP3    H116218   3.076   5.973   2.984
 5418TIP3    H216219   3.158   5.976   3.112
 5419TIP3   OH216220   3.324   0.650   4.109
 5419TIP3    H116221   3.322   0.746   4.106
 5419TIP3    H216222   3.233   0.624   4.122
 5420TIP3   OH216223   5.274   2.952   2.606
 5420TIP3    H116224   5.205   2.887   2.614
 5420TIP3    H216225   5.342   2.922   2.666
 5421TIP3   OH216226   1.960   5.783   1.062
 5421TIP3    H116227   2.008   5.864   1.080
 5421TIP3    H216228   1.970   5.731   1.142
 5422TIP3   OH216229   0.845   1.613   4.305
 5422TIP3    H116230   0.896   1.555   4.360
 5422TIP3    H216231   0.904   1.638   4.234
 5423TIP3   OH216232   2.336   6.669   4.754
 5423TIP3    H116233   2.281   6.739   4.787
 5423TIP3    H216234   2.384   6.638   4.830
 5424TIP3   OH216235   2.907   2.848   2.331
 5424TIP3    H116236   2.910   2.892   2.246
 5424TIP3    H216237   2.972   2.893   2.384
 5425TIP3   OH216238   0.743   2.694   3.302
 5425TIP3    H116239   0.809   2.633   3.336
 5425TIP3    H216240   0.783   2.780   3.310
 5426TIP3   OH216241   5.852   5.712   0.241
 5426TIP3    H116242   5.765   5.741   0.268
 5426TIP3    H216243   5.843   5.693   0.147
 5427TIP3   OH216244   3.469   2.860   3.391
 5427TIP3    H116245   3.496   2.948   3.420
 5427TIP3    H216246   3.539   2.832   3.333
 5428TIP3   OH216247   3.145   1.238   2.500
 5428TIP3    H116248   3.107   1.178   2.564
 5428TIP3    H216249   3.188   1.181   2.436
 5429TIP3   OH216250   5.087   6.299   3.498
 5429TIP3    H116251   4.999   6.308   3.460
 5429TIP3    H216252   5.136   6.249   3.433
 5430TIP3   OH216253   0.410   5.340   5.255
 5430TIP3    H116254   0.486   5.288   5.232
 5430TIP3    H216255   0.403   5.331   5.350
 5431TIP3   OH216256   0.358   0.419   1.693
 5431TIP3    H116257   0.299   0.345   1.702
 5431TIP3    H216258   0.380   0.422   1.600
 5432TIP3   OH216259   3.913   1.928   3.439
 5432TIP3    H116260   3.886   1.887   3.356
 5432TIP3    H216261   3.842   1.987   3.462
 5433TIP3   OH216262   6.549   6.310   1.697
 5433TIP3    H116263   6.543   6.397   1.659
 5433TIP3    H216264   6.527   6.251   1.624
 5434TIP3   OH216265   6.854   4.179   2.554
 5434TIP3    H116266   6.872   4.220   2.639
 5434TIP3    H216267   6.832   4.252   2.496
 5435TIP3   OH216268   6.301   3.555   3.481
 5435TIP3    H116269   6.262   3.609   3.550
 5435TIP3    H216270   6.226   3.524   3.430
 5436TIP3   OH216271   1.504   2.143   2.883
 5436TIP3    H116272   1.573   2.077   2.893
 5436TIP3    H216273   1.430   2.094   2.847
 5437TIP3   OH216274   4.127   4.647   1.173
 5437TIP3    H116275   4.047   4.675   1.130
 5437TIP3    H216276   4.197   4.682   1.118
 5438TIP3   OH216277   0.643   4.700   2.535
 5438TIP3    H116278   0.693   4.644   2.476
 5438TIP3    H216279   0.590   4.755   2.478
 5439TIP3   OH216280   6.680   6.182   4.707
 5439TIP3    H116281   6.693   6.276   4.710
 5439TIP3    H216282   6.595   6.170   4.663
 5440TIP3   OH216283   6.302   0.866   4.601
 5440TIP3    H116284   6.310   0.771   4.603
 5440TIP3    H216285   6.392   0.898   4.614
 5441TIP3   OH216286   6.703   5.810   1.038
 5441TIP3    H116287   6.735   5.729   1.000
 5441TIP3    H216288   6.766   5.877   1.011
 5442TIP3   OH216289   1.258   4.753   3.671
 5442TIP3    H116290   1.332   4.760   3.609
 5442TIP3    H216291   1.294   4.705   3.745
 5443TIP3   OH216292   2.904   0.245   4.724
 5443TIP3    H116293   2.863   0.159   4.710
 5443TIP3    H216294   2.863   0.301   4.659
 5444TIP3   OH216295   2.379   2.650   0.235
 5444TIP3    H116296   2.442   2.693   0.292
 5444TIP3    H216297   2.431   2.588   0.184
 5445TIP3   OH216298   3.243   0.337   3.649
 5445TIP3    H116299   3.152   0.355   3.628
 5445TIP3    H216300   3.243   0.248   3.684
 5446TIP3   OH216301   4.851   5.880   1.364
 5446TIP3    H116302   4.886   5.881   1.453
 5446TIP3    H216303   4.928   5.871   1.308
 5447TIP3   OH216304   4.038   4.169   3.852
 5447TIP3    H116305   4.104   4.226   3.813
 5447TIP3    H216306   4.004   4.119   3.778
 5448TIP3   OH216307   5.454   4.761   5.854
 5448TIP3    H116308   5.388   4.810   5.903
 5448TIP3    H216309   5.489   4.699   5.918
 5449TIP3   OH216310   1.230   6.621   0.588
 5449TIP3    H116311   1.238   6.713   0.613
 5449TIP3    H216312   1.137   6.609   0.569
 5450TIP3   OH216313   6.320   4.109   3.367
 5450TIP3    H116314   6.343   4.181   3.426
 5450TIP3    H216315   6.238   4.136   3.327
 5451TIP3   OH216316   6.559   6.623   5.001
 5451TIP3    H116317   6.654   6.609   5.002
 5451TIP3    H216318   6.548   6.713   5.031
 5452TIP3   OH216319   6.182   5.642   5.671
 5452TIP3    H116320   6.096   5.618   5.638
 5452TIP3    H216321   6.205   5.721   5.623
 5453TIP3   OH216322   3.392   0.139   1.724
 5453TIP3    H116323   3.344   0.069   1.769
 5453TIP3    H216324   3.484   0.114   1.730
 5454TIP3   OH216325   2.227   1.814   4.224
 5454TIP3    H116326   2.212   1.771   4.308
 5454TIP3    H216327   2.287   1.885   4.243
 5455TIP3   OH216328   0.563   4.310   4.224
 5455TIP3    H116329   0.473   4.309   4.254
 5455TIP3    H216330   0.606   4.376   4.278
 5456TIP3   OH216331   6.181   1.284   5.721
 5456TIP3    H116332   6.168   1.240   5.805
 5456TIP3    H216333   6.102   1.336   5.709
 5457TIP3   OH216334   0.553   0.579   5.338
 5457TIP3    H116335   0.546   0.495   5.382
 5457TIP3    H216336   0.629   0.621   5.378
 5458TIP3   OH216337   2.897   2.544   2.139
 5458TIP3    H116338   2.959   2.496   2.193
 5458TIP3    H216339   2.830   2.576   2.200
 5459TIP3   OH216340   4.623   0.148   4.531
 5459TIP3    H116341   4.598   0.061   4.502
 5459TIP3    H216342   4.714   0.158   4.501
 5460TIP3   OH216343   0.241   4.607   0.651
 5460TIP3    H116344   0.316   4.603   0.591
 5460TIP3    H216345   0.279   4.609   0.738
 5461TIP3   OH216346   5.578   2.957   1.282
 5461TIP3    H116347   5.483   2.963   1.275
 5461TIP3    H216348   5.604   2.897   1.213
 5462TIP3   OH216349   2.429   3.125   2.869
 5462TIP3    H116350   2.373   3.194   2.833
 5462TIP3    H216351   2.388   3.103   2.952
 5463TIP3   OH216352   1.389   1.143   3.939
 5463TIP3    H116353   1.337   1.138   3.859
 5463TIP3    H216354   1.356   1.221   3.984
 5464TIP3   OH216355   1.981   1.518   0.865
 5464TIP3    H116356   1.956   1.546   0.953
 5464TIP3    H216357   2.055   1.573   0.842
 5465TIP3   OH216358   7.084   1.260   4.270
 5465TIP3    H116359   7.140   1.330   4.304
 5465TIP3    H216360   7.043   1.222   4.349
 5466TIP3   OH216361   6.313   2.025   5.584
 5466TIP3    H116362   6.221   2.050   5.589
 5466TIP3    H216363   6.358   2.104   5.555
 5467TIP3   OH216364   4.285   4.898   2.628
 5467TIP3    H116365   4.202   4.945   2.630
 5467TIP3    H216366   4.270   4.825   2.568
 5468TIP3   OH216367   1.763   6.473   2.565
 5468TIP3    H116368   1.829   6.494   2.631
 5468TIP3    H216369   1.813   6.431   2.494
 5469TIP3   OH216370   6.806   4.178   0.883
 5469TIP3    H116371   6.782   4.113   0.949
 5469TIP3    H216372   6.736   4.242   0.886
 5470TIP3   OH216373   6.550   2.101   5.222
 5470TIP3    H116374   6.523   2.189   5.247
 5470TIP3    H216375   6.512   2.087   5.136
 5471TIP3   OH216376   4.400   5.427   0.306
 5471TIP3    H116377   4.372   5.353   0.361
 5471TIP3    H216378   4.481   5.396   0.265
 5472TIP3   OH216379   5.240   1.103   4.860
 5472TIP3    H116380   5.276   1.068   4.941
 5472TIP3    H216381   5.208   1.026   4.812
 5473TIP3   OH216382   1.362   0.218   0.506
 5473TIP3    H116383   1.438   0.160   0.503
 5473TIP3    H216384   1.325   0.203   0.593
 5474TIP3   OH216385   1.764   1.712   2.686
 5474TIP3    H116386   1.671   1.731   2.675
 5474TIP3    H216387   1.809   1.784   2.643
 5475TIP3   OH216388   1.165   1.894   2.442
 5475TIP3    H116389   1.147   1.976   2.489
 5475TIP3    H216390   1.080   1.866   2.409
 5476TIP3   OH216391   4.721   4.753   3.657
 5476TIP3    H116392   4.704   4.730   3.565
 5476TIP3    H216393   4.805   4.798   3.656
 5477TIP3   OH216394   4.086   3.155   5.516
 5477TIP3    H116395   4.045   3.166   5.430
 5477TIP3    H216396   4.180   3.151   5.497
 5478TIP3   OH216397   4.499   6.225   5.096
 5478TIP3    H116398   4.530   6.288   5.032
 5478TIP3    H216399   4.404   6.220   5.081
 5479TIP3   OH216400   3.916   0.896   2.937
 5479TIP3    H116401   3.841   0.839   2.922
 5479TIP3    H216402   3.894   0.976   2.889
 5480TIP3   OH216403   5.644   5.215   3.041
 5480TIP3    H116404   5.667   5.182   3.128
 5480TIP3    H216405   5.579   5.283   3.058
 5481TIP3   OH216406   5.872   3.445   1.174
 5481TIP3    H116407   5.959   3.404   1.180
 5481TIP3    H216408   5.853   3.446   1.080
 5482TIP3   OH216409   4.789   6.776   3.969
 5482TIP3    H116410   4.876   6.783   4.008
 5482TIP3    H216411   4.805   6.770   3.875
 5483TIP3   OH216412   4.763   1.090   5.068
 5483TIP3    H116413   4.759   1.023   5.001
 5483TIP3    H216414   4.855   1.119   5.068
 5484TIP3   OH216415   6.796   2.161   5.122
 5484TIP3    H116416   6.825   2.184   5.210
 5484TIP3    H216417   6.713   2.115   5.135
 5485TIP3   OH216418   6.529   4.267   1.883
 5485TIP3    H116419   6.470   4.209   1.930
 5485TIP3    H216420   6.584   4.209   1.831
 5486TIP3   OH216421   5.819   4.508   4.160
 5486TIP3    H116422   5.827   4.471   4.248
 5486TIP3    H216423   5.821   4.603   4.173
 5487TIP3   OH216424   4.363   3.154   3.669
 5487TIP3    H116425   4.313   3.228   3.703
 5487TIP3    H216426   4.327   3.078   3.715
 5488TIP3   OH216427   3.604   3.277   3.872
 5488TIP3    H116428   3.581   3.206   3.812
 5488TIP3    H216429   3.565   3.355   3.832
 5489TIP3   OH216430   4.267   5.678   5.262
 5489TIP3    H116431   4.268   5.659   5.356
 5489TIP3    H216432   4.305   5.600   5.221
 5490TIP3   OH216433   3.443   2.134   2.895
 5490TIP3    H116434   3.533   2.166   2.901
 5490TIP3    H216435   3.389   2.213   2.893
 5491TIP3   OH216436   0.474   6.417   3.384
 5491TIP3    H116437   0.508   6.333   3.413
 5491TIP3    H216438   0.511   6.429   3.296
 5492TIP3   OH216439   5.073   1.357   4.855
 5492TIP3    H116440   5.111   1.270   4.860
 5492TIP3    H216441   5.145   1.414   4.826
 5493TIP3   OH216442   2.158   1.531   3.287
 5493TIP3    H116443   2.196   1.618   3.275
 5493TIP3    H216444   2.082   1.530   3.229
 5494TIP3   OH216445   4.768   0.062   4.261
 5494TIP3    H116446   4.801  -0.004   4.321
 5494TIP3    H216447   4.743   0.013   4.182
 5495TIP3   OH216448   3.989   1.348   0.141
 5495TIP3    H116449   4.055   1.295   0.185
 5495TIP3    H216450   3.996   1.323   0.049
 5496TIP3   OH216451   5.238   0.445   2.356
 5496TIP3    H116452   5.280   0.426   2.271
 5496TIP3    H216453   5.310   0.474   2.412
 5497TIP3   OH216454   4.744   5.526   0.928
 5497TIP3    H116455   4.676   5.487   0.984
 5497TIP3    H216456   4.799   5.576   0.989
 5498TIP3   OH216457   0.738   1.342   2.382
 5498TIP3    H116458   0.773   1.351   2.293
 5498TIP3    H216459   0.740   1.431   2.418
 5499TIP3   OH216460   6.926   0.529   4.554
 5499TIP3    H116461   6.945   0.507   4.645
 5499TIP3    H216462   6.994   0.592   4.530
 5500TIP3   OH216463   3.005   4.783   4.563
 5500TIP3    H116464   3.058   4.725   4.508
 5500TIP3    H216465   3.043   4.775   4.650
 5501TIP3   OH216466   5.563   5.153   2.787
 5501TIP3    H116467   5.534   5.062   2.799
 5501TIP3    H216468   5.599   5.178   2.872
 5502TIP3   OH216469   5.062   0.513   5.519
 5502TIP3    H116470   4.976   0.534   5.555
 5502TIP3    H216471   5.068   0.568   5.441
 5503TIP3   OH216472   1.142   1.442   0.902
 5503TIP3    H116473   1.102   1.453   0.816
 5503TIP3    H216474   1.086   1.379   0.947
 5504TIP3   OH216475   3.343   5.082   2.680
 5504TIP3    H116476   3.375   5.131   2.605
 5504TIP3    H216477   3.408   5.012   2.693
 5505TIP3   OH216478   0.778   1.105   5.226
 5505TIP3    H116479   0.767   1.080   5.134
 5505TIP3    H216480   0.846   1.046   5.259
 5506TIP3   OH216481   1.889   4.378   1.279
 5506TIP3    H116482   1.970   4.335   1.307
 5506TIP3    H216483   1.919   4.456   1.232
 5507TIP3   OH216484   6.622   4.641   5.539
 5507TIP3    H116485   6.637   4.734   5.555
 5507TIP3    H216486   6.643   4.599   5.622
 5508TIP3   OH216487   1.856   2.560   4.163
 5508TIP3    H116488   1.939   2.599   4.189
 5508TIP3    H216489   1.855   2.475   4.209
 5509TIP3   OH216490   2.871   3.999   0.363
 5509TIP3    H116491   2.782   4.000   0.328
 5509TIP3    H216492   2.901   3.909   0.349
 5510TIP3   OH216493   5.408   2.812   1.725
 5510TIP3    H116494   5.374   2.900   1.743
 5510TIP3    H216495   5.468   2.825   1.651
 5511TIP3   OH216496   4.736  -0.027   0.262
 5511TIP3    H116497   4.773  -0.088   0.199
 5511TIP3    H216498   4.692   0.039   0.209
 5512TIP3   OH216499   2.205   4.212   3.484
 5512TIP3    H116500   2.193   4.148   3.413
 5512TIP3    H216501   2.244   4.161   3.555
 5513TIP3   OH216502   1.163   1.818   5.347
 5513TIP3    H116503   1.159   1.860   5.262
 5513TIP3    H216504   1.228   1.748   5.337
 5514TIP3   OH216505   6.241   5.701   1.700
 5514TIP3    H116506   6.158   5.689   1.654
 5514TIP3    H216507   6.297   5.630   1.666
 5515TIP3   OH216508   3.203   1.219   2.790
 5515TIP3    H116509   3.149   1.268   2.852
 5515TIP3    H216510   3.255   1.286   2.746
 5516TIP3   OH216511   7.030   0.441   3.544
 5516TIP3    H116512   7.063   0.530   3.534
 5516TIP3    H216513   6.935   0.451   3.548
 5517TIP3   OH216514   0.975   3.363   3.421
 5517TIP3    H116515   0.894   3.338   3.376
 5517TIP3    H216516   0.990   3.454   3.394
 5518TIP3   OH216517   4.941   5.203   5.685
 5518TIP3    H116518   4.903   5.124   5.646
 5518TIP3    H216519   4.931   5.269   5.616
 5519TIP3   OH216520   3.090   0.976   5.519
 5519TIP3    H116521   3.085   0.885   5.491
 5519TIP3    H216522   3.122   0.972   5.609
 5520TIP3   OH216523   3.163   0.806   2.315
 5520TIP3    H116524   3.170   0.726   2.366
 5520TIP3    H216525   3.227   0.796   2.245
 5521TIP3   OH216526   2.468   4.408   3.181
 5521TIP3    H116527   2.555   4.428   3.147
 5521TIP3    H216528   2.484   4.375   3.270
 5522TIP3   OH216529   2.963   3.912   5.609
 5522TIP3    H116530   2.944   4.001   5.637
 5522TIP3    H216531   2.877   3.872   5.596
 5523TIP3   OH216532   5.605   4.124   1.881
 5523TIP3    H116533   5.511   4.121   1.862
 5523TIP3    H216534   5.629   4.033   1.898
 5524TIP3   OH216535   0.467   1.117   5.327
 5524TIP3    H116536   0.537   1.079   5.274
 5524TIP3    H216537   0.474   1.211   5.311
 5525TIP3   OH216538   3.632   3.946   3.978
 5525TIP3    H116539   3.689   4.023   3.984
 5525TIP3    H216540   3.546   3.978   4.006
 5526TIP3   OH216541   2.174   4.108   5.904
 5526TIP3    H116542   2.171   4.066   5.819
 5526TIP3    H216543   2.082   4.108   5.934
 5527TIP3   OH216544   5.178   5.677   0.565
 5527TIP3    H116545   5.134   5.758   0.588
 5527TIP3    H216546   5.128   5.642   0.491
 5528TIP3   OH216547   2.068   1.248   5.773
 5528TIP3    H116548   2.129   1.321   5.779
 5528TIP3    H216549   2.114   1.175   5.815
 5529TIP3   OH216550   6.495   2.045   2.392
 5529TIP3    H116551   6.574   2.034   2.340
 5529TIP3    H216552   6.525   2.048   2.483
 5530TIP3   OH216553   2.899   3.287   3.136
 5530TIP3    H116554   2.859   3.342   3.069
 5530TIP3    H216555   2.989   3.319   3.143
 5531TIP3   OH216556   3.678   4.968   3.299
 5531TIP3    H116557   3.671   4.884   3.343
 5531TIP3    H216558   3.697   4.947   3.208
 5532TIP3   OH216559   0.337   4.085   2.876
 5532TIP3    H116560   0.362   4.129   2.957
 5532TIP3    H216561   0.404   4.111   2.813
 5533TIP3   OH216562   3.242   2.580   2.719
 5533TIP3    H116563   3.192   2.500   2.705
 5533TIP3    H216564   3.219   2.608   2.808
 5534TIP3   OH216565   1.419   5.324   4.313
 5534TIP3    H116566   1.348   5.266   4.341
 5534TIP3    H216567   1.496   5.268   4.310
 5535TIP3   OH216568   5.649   1.685   2.474
 5535TIP3    H116569   5.732   1.649   2.441
 5535TIP3    H216570   5.582   1.640   2.422
 5536TIP3   OH216571   2.338   4.199   4.966
 5536TIP3    H116572   2.247   4.229   4.962
 5536TIP3    H216573   2.376   4.249   5.038
 5537TIP3   OH216574   5.762   4.349   0.679
 5537TIP3    H116575   5.689   4.295   0.648
 5537TIP3    H216576   5.725   4.437   0.689
 5538TIP3   OH216577   6.463   4.966   3.419
 5538TIP3    H116578   6.368   4.961   3.422
 5538TIP3    H216579   6.493   4.883   3.456
 5539TIP3   OH216580   0.328   1.494   1.253
 5539TIP3    H116581   0.268   1.567   1.234
 5539TIP3    H216582   0.388   1.529   1.318
 5540TIP3   OH216583   5.525   4.277   5.028
 5540TIP3    H116584   5.592   4.219   5.063
 5540TIP3    H216585   5.463   4.288   5.100
 5541TIP3   OH216586   5.791   4.359   0.192
 5541TIP3    H116587   5.849   4.384   0.264
 5541TIP3    H216588   5.724   4.304   0.233
 5542TIP3   OH216589   6.384   1.656   4.090
 5542TIP3    H116590   6.364   1.741   4.050
 5542TIP3    H216591   6.421   1.678   4.175
 5543TIP3   OH216592   1.291   6.529   5.682
 5543TIP3    H116593   1.343   6.603   5.651
 5543TIP3    H216594   1.327   6.453   5.635
 5544TIP3   OH216595   0.542   3.188   3.542
 5544TIP3    H116596   0.503   3.267   3.578
 5544TIP3    H216597   0.504   3.180   3.455
 5545TIP3   OH216598   3.838   2.481   1.376
 5545TIP3    H116599   3.917   2.523   1.341
 5545TIP3    H216600   3.838   2.502   1.469
 5546TIP3   OH216601   5.469   1.335   3.960
 5546TIP3    H116602   5.415   1.260   3.935
 5546TIP3    H216603   5.440   1.358   4.048
 5547TIP3   OH216604   2.102   4.624   1.881
 5547TIP3    H116605   2.116   4.664   1.966
 5547TIP3    H216606   2.075   4.534   1.901
 5548TIP3   OH216607   1.972   3.065   5.586
 5548TIP3    H116608   2.013   3.023   5.510
 5548TIP3    H216609   1.915   2.997   5.623
 5549TIP3   OH216610   7.144   2.430   1.671
 5549TIP3    H116611   7.113   2.520   1.660
 5549TIP3    H216612   7.235   2.439   1.698
 5550TIP3   OH216613   5.901   2.111   2.902
 5550TIP3    H116614   5.859   2.044   2.848
 5550TIP3    H216615   5.888   2.081   2.992
 5551TIP3   OH216616   2.326   6.145   4.625
 5551TIP3    H116617   2.400   6.093   4.593
 5551TIP3    H216618   2.366   6.212   4.681
 5552TIP3   OH216619   6.448   0.188   2.054
 5552TIP3    H116620   6.473   0.098   2.076
 5552TIP3    H216621   6.529   0.229   2.023
 5553TIP3   OH216622   0.232   1.186   3.814
 5553TIP3    H116623   0.289   1.141   3.752
 5553TIP3    H216624   0.289   1.209   3.888
 5554TIP3   OH216625   2.038   2.012   2.925
 5554TIP3    H116626   2.006   1.922   2.935
 5554TIP3    H216627   2.077   2.014   2.838
 5555TIP3   OH216628   1.011  -0.026   4.534
 5555TIP3    H116629   0.998  -0.086   4.461
 5555TIP3    H216630   0.929  -0.030   4.583
 5556TIP3   OH216631   1.815   3.224   4.072
 5556TIP3    H116632   1.873   3.149   4.083
 5556TIP3    H216633   1.801   3.257   4.161
 5557TIP3   OH216634   2.097   4.145   2.349
 5557TIP3    H116635   2.124   4.054   2.336
 5557TIP3    H216636   2.177   4.191   2.375
 5558TIP3   OH216637   3.530   4.770   3.465
 5558TIP3    H116638   3.515   4.678   3.445
 5558TIP3    H216639   3.523   4.775   3.561
 5559TIP3   OH216640   0.169   4.689   1.759
 5559TIP3    H116641   0.179   4.784   1.773
 5559TIP3    H216642   0.077   4.672   1.781
 5560TIP3   OH216643   0.054   3.646   0.241
 5560TIP3    H116644   0.082   3.673   0.328
 5560TIP3    H216645   0.003   3.567   0.255
 5561TIP3   OH216646   6.731   5.656   4.260
 5561TIP3    H116647   6.706   5.589   4.195
 5561TIP3    H216648   6.823   5.674   4.241
 5562TIP3   OH216649   3.942   3.417   3.458
 5562TIP3    H116650   3.881   3.482   3.493
 5562TIP3    H216651   4.027   3.461   3.459
 5563TIP3   OH216652   6.612   5.311   5.203
 5563TIP3    H116653   6.562   5.233   5.181
 5563TIP3    H216654   6.546   5.376   5.228
 5564TIP3   OH216655   5.786   1.112   5.011
 5564TIP3    H116656   5.784   1.178   4.941
 5564TIP3    H216657   5.703   1.123   5.056
 5565TIP3   OH216658   5.563   3.960   2.524
 5565TIP3    H116659   5.651   3.987   2.497
 5565TIP3    H216660   5.504   4.024   2.484
 5566TIP3   OH216661   7.122   5.968  -0.026
 5566TIP3    H116662   7.197   6.024  -0.043
 5566TIP3    H216663   7.075   5.965  -0.109
 5567TIP3   OH216664   4.963   2.303   2.203
 5567TIP3    H116665   4.954   2.349   2.120
 5567TIP3    H216666   5.057   2.306   2.222
 5568TIP3   OH216667   6.002   5.271   0.473
 5568TIP3    H116668   6.088   5.303   0.499
 5568TIP3    H216669   5.942   5.308   0.538
 5569TIP3   OH216670   1.605   6.372   0.979
 5569TIP3    H116671   1.626   6.364   0.886
 5569TIP3    H216672   1.676   6.426   1.015
 5570TIP3   OH216673   1.152   4.202   4.669
 5570TIP3    H116674   1.105   4.268   4.719
 5570TIP3    H216675   1.113   4.119   4.696
 5571TIP3   OH216676   2.229   0.128   2.697
 5571TIP3    H116677   2.287   0.067   2.743
 5571TIP3    H216678   2.255   0.120   2.605
 5572TIP3   OH216679   3.249   5.396   0.029
 5572TIP3    H116680   3.157   5.420   0.013
 5572TIP3    H216681   3.264   5.418   0.121
 5573TIP3   OH216682   2.444   4.895   1.082
 5573TIP3    H116683   2.359   4.916   1.043
 5573TIP3    H216684   2.450   4.800   1.078
 5574TIP3   OH216685   4.988   4.479   4.549
 5574TIP3    H116686   5.002   4.530   4.469
 5574TIP3    H216687   4.893   4.485   4.564
 5575TIP3   OH216688   3.833   0.393   3.861
 5575TIP3    H116689   3.874   0.345   3.933
 5575TIP3    H216690   3.866   0.483   3.869
 5576TIP3   OH216691   3.469   0.881   5.832
 5576TIP3    H116692   3.424   0.901   5.914
 5576TIP3    H216693   3.516   0.799   5.850
 5577TIP3   OH216694   5.495   0.141   2.106
 5577TIP3    H116695   5.516   0.055   2.142
 5577TIP3    H216696   5.420   0.170   2.157
 5578TIP3   OH216697   2.029   0.100   0.289
 5578TIP3    H116698   2.031   0.175   0.231
 5578TIP3    H216699   2.047   0.025   0.233
 5579TIP3   OH216700   3.319   1.701   1.976
 5579TIP3    H116701   3.301   1.679   2.067
 5579TIP3    H216702   3.232   1.713   1.937
 5580TIP3   OH216703   3.272   1.271   0.769
 5580TIP3    H116704   3.278   1.288   0.863
 5580TIP3    H216705   3.356   1.300   0.734
 5581TIP3   OH216706   3.667   0.050   1.648
 5581TIP3    H116707   3.663   0.033   1.554
 5581TIP3    H216708   3.698  -0.033   1.685
 5582TIP3   OH216709   3.368   3.661   4.521
 5582TIP3    H116710   3.311   3.628   4.452
 5582TIP3    H216711   3.416   3.733   4.480
 5583TIP3   OH216712   3.053   5.624   5.848
 5583TIP3    H116713   3.059   5.648   5.941
 5583TIP3    H216714   3.142   5.637   5.815
 5584TIP3   OH216715   1.712   0.671   2.652
 5584TIP3    H116716   1.664   0.694   2.732
 5584TIP3    H216717   1.798   0.643   2.684
 5585TIP3   OH216718   3.939   4.155   2.319
 5585TIP3    H116719   3.998   4.104   2.264
 5585TIP3    H216720   3.854   4.150   2.274
 5586TIP3   OH216721   6.683   0.407   2.961
 5586TIP3    H116722   6.716   0.352   3.032
 5586TIP3    H216723   6.736   0.385   2.885
 5587TIP3   OH216724   3.935   3.129   2.469
 5587TIP3    H116725   4.015   3.129   2.417
 5587TIP3    H216726   3.895   3.214   2.452
 5588TIP3   OH216727   5.063   1.957   3.621
 5588TIP3    H116728   5.031   1.869   3.640
 5588TIP3    H216729   5.044   1.970   3.528
 5589TIP3   OH216730   2.319   4.973   0.528
 5589TIP3    H116731   2.370   4.893   0.535
 5589TIP3    H216732   2.382   5.040   0.502
 5590TIP3   OH216733   3.962   1.900   4.812
 5590TIP3    H116734   3.944   1.978   4.866
 5590TIP3    H216735   4.022   1.932   4.744
 5591TIP3   OH216736   0.927   6.166   4.199
 5591TIP3    H116737   0.963   6.200   4.117
 5591TIP3    H216738   0.878   6.240   4.236
 5592TIP3   OH216739   1.193   1.183   3.578
 5592TIP3    H116740   1.150   1.174   3.663
 5592TIP3    H216741   1.134   1.138   3.517
 5593TIP3   OH216742   0.477   4.959   0.346
 5593TIP3    H116743   0.397   4.972   0.296
 5593TIP3    H216744   0.515   5.046   0.356
 5594TIP3   OH216745   6.611   3.596   2.887
 5594TIP3    H116746   6.617   3.662   2.818
 5594TIP3    H216747   6.520   3.600   2.915
 5595TIP3   OH216748   4.093   2.764   5.494
 5595TIP3    H116749   4.039   2.827   5.543
 5595TIP3    H216750   4.032   2.694   5.471
 5596TIP3   OH216751   5.730   4.809   5.001
 5596TIP3    H116752   5.728   4.870   5.075
 5596TIP3    H216753   5.721   4.864   4.924
 5597TIP3   OH216754   6.966   5.679   5.320
 5597TIP3    H116755   6.942   5.602   5.269
 5597TIP3    H216756   6.941   5.753   5.264
 5598TIP3   OH216757   6.752   5.331   0.687
 5598TIP3    H116758   6.824   5.388   0.662
 5598TIP3    H216759   6.780   5.291   0.769
 5599TIP3   OH216760   3.899   5.540   4.069
 5599TIP3    H116761   3.878   5.560   4.160
 5599TIP3    H216762   3.829   5.483   4.039
 5600TIP3   OH216763   1.437   4.496   3.822
 5600TIP3    H116764   1.499   4.558   3.860
 5600TIP3    H216765   1.488   4.416   3.809
 5601TIP3   OH216766   2.083   6.081   3.193
 5601TIP3    H116767   2.025   6.044   3.259
 5601TIP3    H216768   2.029   6.144   3.146
 5602TIP3   OH216769   3.200   4.606   4.498
 5602TIP3    H116770   3.261   4.630   4.568
 5602TIP3    H216771   3.255   4.599   4.420
 5603TIP3   OH216772   1.122   4.541   4.102
 5603TIP3    H116773   1.048   4.594   4.133
 5603TIP3    H216774   1.105   4.454   4.138
 5604TIP3   OH216775   1.887   5.646   3.150
 5604TIP3    H116776   1.926   5.722   3.106
 5604TIP3    H216777   1.915   5.571   3.097
 5605TIP3   OH216778   6.331   1.967   4.108
 5605TIP3    H116779   6.312   2.051   4.066
 5605TIP3    H216780   6.398   1.987   4.173
 5606TIP3   OH216781   1.871   1.484   5.476
 5606TIP3    H116782   1.877   1.566   5.426
 5606TIP3    H216783   1.837   1.420   5.413
 5607TIP3   OH216784   1.117   1.146   1.999
 5607TIP3    H116785   1.102   1.062   1.956
 5607TIP3    H216786   1.073   1.137   2.084
 5608TIP3   OH216787   1.085   2.266   2.294
 5608TIP3    H116788   1.097   2.357   2.267
 5608TIP3    H216789   1.042   2.225   2.218
 5609TIP3   OH216790   4.931   3.667   4.847
 5609TIP3    H116791   4.914   3.759   4.869
 5609TIP3    H216792   4.888   3.654   4.763
 5610TIP3   OH216793   0.921   0.706   2.938
 5610TIP3    H116794   0.894   0.720   2.847
 5610TIP3    H216795   0.839   0.694   2.986
 5611TIP3   OH216796   0.031   1.666   5.004
 5611TIP3    H116797   0.074   1.680   5.089
 5611TIP3    H216798   0.097   1.618   4.952
 5612TIP3   OH216799   4.310   5.536   4.065
 5612TIP3    H116800   4.369   5.490   4.125
 5612TIP3    H216801   4.304   5.479   3.989
 5613TIP3   OH216802   5.651   4.484   3.423
 5613TIP3    H116803   5.625   4.404   3.469
 5613TIP3    H216804   5.708   4.453   3.353
 5614TIP3   OH216805   7.199   6.475   1.655
 5614TIP3    H116806   7.225   6.555   1.609
 5614TIP3    H216807   7.104   6.484   1.666
 5615TIP3   OH216808   3.111   5.602   1.375
 5615TIP3    H116809   3.033   5.621   1.322
 5615TIP3    H216810   3.080   5.542   1.443
 5616TIP3   OH216811   3.496   0.266   5.682
 5616TIP3    H116812   3.480   0.185   5.634
 5616TIP3    H216813   3.541   0.239   5.761
 5617TIP3   OH216814   0.156   4.128   1.866
 5617TIP3    H116815   0.118   4.056   1.916
 5617TIP3    H216816   0.148   4.204   1.923
 5618TIP3   OH216817   3.132   1.670   0.252
 5618TIP3    H116818   3.203   1.728   0.281
 5618TIP3    H216819   3.173   1.613   0.187
 5619TIP3   OH216820   2.789   2.852   5.727
 5619TIP3    H116821   2.735   2.817   5.799
 5619TIP3    H216822   2.775   2.790   5.655
 5620TIP3   OH216823   5.747   2.081   3.423
 5620TIP3    H116824   5.680   2.147   3.405
 5620TIP3    H216825   5.734   2.058   3.515
 5621TIP3   OH216826   3.721   3.533   1.318
 5621TIP3    H116827   3.735   3.576   1.234
 5621TIP3    H216828   3.627   3.542   1.335
 5622TIP3   OH216829   6.917   6.040   2.597
 5622TIP3    H116830   6.859   6.112   2.619
 5622TIP3    H216831   6.869   5.961   2.623
 5623TIP3   OH216832   5.094   0.236   5.507
 5623TIP3    H116833   5.159   0.274   5.566
 5623TIP3    H216834   5.054   0.312   5.464
 5624TIP3   OH216835   0.782   4.519   0.738
 5624TIP3    H116836   0.813   4.548   0.824
 5624TIP3    H216837   0.816   4.430   0.729
 5625TIP3   OH216838   0.282   6.437   1.265
 5625TIP3    H116839   0.334   6.512   1.236
 5625TIP3    H216840   0.191   6.461   1.245
 5626TIP3   OH216841   3.792   4.120   5.286
 5626TIP3    H116842   3.729   4.133   5.216
 5626TIP3    H216843   3.747   4.065   5.350
 5627TIP3   OH216844   1.286   2.685   5.283
 5627TIP3    H116845   1.371   2.708   5.247
 5627TIP3    H216846   1.265   2.601   5.243
 5628TIP3   OH216847   4.327   5.546   1.160
 5628TIP3    H116848   4.416   5.519   1.136
 5628TIP3    H216849   4.327   5.549   1.256
 5629TIP3   OH216850   2.440   2.232   4.761
 5629TIP3    H116851   2.414   2.180   4.685
 5629TIP3    H216852   2.475   2.168   4.823
 5630TIP3   OH216853   4.076   6.158   2.343
 5630TIP3    H116854   4.151   6.204   2.305
 5630TIP3    H216855   4.046   6.101   2.272
 5631TIP3   OH216856   4.378   2.866   4.305
 5631TIP3    H116857   4.410   2.888   4.218
 5631TIP3    H216858   4.319   2.792   4.291
 5632TIP3   OH216859   5.290   5.931   1.361
 5632TIP3    H116860   5.239   5.947   1.441
 5632TIP3    H216861   5.327   6.017   1.339
 5633TIP3   OH216862   3.958   3.359   1.403
 5633TIP3    H116863   3.908   3.435   1.374
 5633TIP3    H216864   4.028   3.395   1.458
 5634TIP3   OH216865   0.315   2.278   1.859
 5634TIP3    H116866   0.361   2.350   1.902
 5634TIP3    H216867   0.263   2.238   1.929
 5635TIP3   OH216868   3.118   1.470   2.357
 5635TIP3    H116869   3.036   1.477   2.308
 5635TIP3    H216870   3.106   1.392   2.412
 5636TIP3   OH216871   5.440   5.401   0.266
 5636TIP3    H116872   5.473   5.318   0.301
 5636TIP3    H216873   5.450   5.392   0.171
 5637TIP3   OH216874   3.211   1.136   5.330
 5637TIP3    H116875   3.254   1.190   5.397
 5637TIP3    H216876   3.153   1.078   5.380
 5638TIP3   OH216877   4.563   4.570   5.479
 5638TIP3    H116878   4.519   4.491   5.445
 5638TIP3    H216879   4.580   4.550   5.571
 5639TIP3   OH216880   6.553   3.182   4.481
 5639TIP3    H116881   6.530   3.092   4.458
 5639TIP3    H216882   6.630   3.201   4.427
 5640TIP3   OH216883   5.864   5.845   1.568
 5640TIP3    H116884   5.835   5.884   1.486
 5640TIP3    H216885   5.872   5.919   1.628
 5641TIP3   OH216886   2.615   6.680   2.860
 5641TIP3    H116887   2.658   6.659   2.943
 5641TIP3    H216888   2.597   6.594   2.821
 5642TIP3   OH216889   5.785   1.388   0.650
 5642TIP3    H116890   5.828   1.306   0.627
 5642TIP3    H216891   5.842   1.428   0.716
 5643TIP3   OH216892   1.236   5.820   2.994
 5643TIP3    H116893   1.292   5.763   3.047
 5643TIP3    H216894   1.213   5.768   2.918
 5644TIP3   OH216895   2.626   2.663   1.318
 5644TIP3    H116896   2.607   2.757   1.317
 5644TIP3    H216897   2.543   2.621   1.294
 5645TIP3   OH216898   0.605   5.930   2.956
 5645TIP3    H116899   0.515   5.958   2.941
 5645TIP3    H216900   0.598   5.835   2.971
 5646TIP3   OH216901   5.873   5.777   4.219
 5646TIP3    H116902   5.897   5.804   4.308
 5646TIP3    H216903   5.940   5.714   4.194
 5647TIP3   OH216904   3.086   1.182   1.927
 5647TIP3    H116905   3.100   1.274   1.903
 5647TIP3    H216906   3.164   1.158   1.978
 5648TIP3   OH216907   6.010   5.482   1.054
 5648TIP3    H116908   5.915   5.481   1.068
 5648TIP3    H216909   6.028   5.573   1.028
 5649TIP3   OH216910   2.694   3.113   2.925
 5649TIP3    H116911   2.605   3.138   2.898
 5649TIP3    H216912   2.743   3.195   2.925
 5650TIP3   OH216913   5.019   4.372   2.480
 5650TIP3    H116914   5.101   4.387   2.528
 5650TIP3    H216915   5.036   4.406   2.392
 5651TIP3   OH216916   2.515   0.801   1.588
 5651TIP3    H116917   2.578   0.746   1.634
 5651TIP3    H216918   2.486   0.747   1.514
 5652TIP3   OH216919   4.237   4.904   1.053
 5652TIP3    H116920   4.248   4.891   0.958
 5652TIP3    H216921   4.144   4.890   1.068
 5653TIP3   OH216922   6.833   1.031   2.445
 5653TIP3    H116923   6.905   1.021   2.507
 5653TIP3    H216924   6.873   1.069   2.367
 5654TIP3   OH216925   3.144   5.604   4.321
 5654TIP3    H116926   3.075   5.620   4.385
 5654TIP3    H216927   3.142   5.509   4.307
 5655TIP3   OH216928   2.207   6.816   2.669
 5655TIP3    H116929   2.249   6.762   2.737
 5655TIP3    H216930   2.175   6.753   2.605
 5656TIP3   OH216931   1.836   3.690   5.262
 5656TIP3    H116932   1.805   3.634   5.190
 5656TIP3    H216933   1.778   3.670   5.335
 5657TIP3   OH216934   1.332   3.275   5.564
 5657TIP3    H116935   1.299   3.203   5.512
 5657TIP3    H216936   1.404   3.238   5.615
 5658TIP3   OH216937   6.845   0.221   3.463
 5658TIP3    H116938   6.815   0.141   3.422
 5658TIP3    H216939   6.915   0.194   3.521
 5659TIP3   OH216940   4.244   6.197   1.546
 5659TIP3    H116941   4.277   6.250   1.472
 5659TIP3    H216942   4.158   6.168   1.518
 5660TIP3   OH216943   6.554   5.794   0.698
 5660TIP3    H116944   6.513   5.797   0.611
 5660TIP3    H216945   6.491   5.749   0.753
 5661TIP3   OH216946   1.766   4.392   0.645
 5661TIP3    H116947   1.753   4.343   0.564
 5661TIP3    H216948   1.861   4.395   0.656
 5662TIP3   OH216949   5.184   3.856   3.667
 5662TIP3    H116950   5.213   3.843   3.577
 5662TIP3    H216951   5.139   3.775   3.690
 5663TIP3   OH216952   6.364   4.625   4.294
 5663TIP3    H116953   6.394   4.552   4.347
 5663TIP3    H216954   6.339   4.586   4.210
 5664TIP3   OH216955   0.441   3.439   3.641
 5664TIP3    H116956   0.524   3.463   3.599
 5664TIP3    H216957   0.452   3.465   3.732
 5665TIP3   OH216958   0.753   2.039   5.103
 5665TIP3    H116959   0.703   1.984   5.163
 5665TIP3    H216960   0.715   2.126   5.113
 5666TIP3   OH216961   1.821   0.715   5.800
 5666TIP3    H116962   1.868   0.706   5.883
 5666TIP3    H216963   1.750   0.776   5.820
 5667TIP3   OH216964   6.680   0.721   4.037
 5667TIP3    H116965   6.633   0.804   4.042
 5667TIP3    H216966   6.626   0.659   4.085
 5668TIP3   OH216967   2.042   0.777   5.401
 5668TIP3    H116968   2.031   0.690   5.437
 5668TIP3    H216969   2.011   0.836   5.469
 5669TIP3   OH216970   1.118   3.918   5.274
 5669TIP3    H116971   1.141   3.949   5.361
 5669TIP3    H216972   1.088   3.828   5.287
 5670TIP3   OH216973   0.461   5.613   2.247
 5670TIP3    H116974   0.429   5.669   2.176
 5670TIP3    H216975   0.442   5.662   2.327
 5671TIP3   OH216976   4.608   0.620   1.693
 5671TIP3    H116977   4.622   0.657   1.780
 5671TIP3    H216978   4.685   0.647   1.642
 5672TIP3   OH216979   1.277   5.668   0.345
 5672TIP3    H116980   1.352   5.666   0.285
 5672TIP3    H216981   1.244   5.757   0.340
 5673TIP3   OH216982   5.278   5.701   4.323
 5673TIP3    H116983   5.280   5.631   4.258
 5673TIP3    H216984   5.345   5.676   4.387
 5674TIP3   OH216985   4.077   0.119   2.232
 5674TIP3    H116986   3.985   0.103   2.254
 5674TIP3    H216987   4.076   0.135   2.138
 5675TIP3   OH216988   1.819   6.066   5.774
 5675TIP3    H116989   1.882   6.075   5.846
 5675TIP3    H216990   1.852   5.992   5.723
 5676TIP3   OH216991   1.435   6.011   0.874
 5676TIP3    H116992   1.456   5.918   0.880
 5676TIP3    H216993   1.469   6.039   0.789
 5677TIP3   OH216994   5.266   0.697   3.640
 5677TIP3    H116995   5.241   0.607   3.660
 5677TIP3    H216996   5.291   0.695   3.548
 5678TIP3   OH216997   1.876   5.937   2.653
 5678TIP3    H116998   1.840   5.988   2.726
 5678TIP3    H216999   1.799   5.909   2.604
 5679TIP3   OH217000   1.463   4.436   0.320
 5679TIP3    H117001   1.555   4.412   0.319
 5679TIP3    H217002   1.418   4.360   0.356
 5680TIP3   OH217003   0.281   0.550   2.192
 5680TIP3    H117004   0.302   0.472   2.142
 5680TIP3    H217005   0.208   0.590   2.146
 5681TIP3   OH217006   6.649   6.294   0.732
 5681TIP3    H117007   6.583   6.234   0.698
 5681TIP3    H217008   6.625   6.379   0.695
 5682TIP3   OH217009   0.699   2.807   1.461
 5682TIP3    H117010   0.642   2.730   1.453
 5682TIP3    H217011   0.718   2.832   1.371
 5683TIP3   OH217012   4.104   0.714   2.789
 5683TIP3    H117013   4.149   0.795   2.766
 5683TIP3    H217014   4.049   0.738   2.863
 5684TIP3   OH217015   5.067   5.632   3.861
 5684TIP3    H117016   5.107   5.545   3.871
 5684TIP3    H217017   5.071   5.671   3.948
 5685TIP3   OH217018   5.774   4.086   3.159
 5685TIP3    H117019   5.716   4.032   3.106
 5685TIP3    H217020   5.719   4.114   3.232
 5686TIP3   OH217021   6.016   1.779   1.838
 5686TIP3    H117022   6.052   1.722   1.770
 5686TIP3    H217023   6.063   1.754   1.917
 5687TIP3   OH217024   3.431   2.336   4.113
 5687TIP3    H117025   3.474   2.366   4.193
 5687TIP3    H217026   3.358   2.282   4.145
 5688TIP3   OH217027   4.148   1.874   5.145
 5688TIP3    H117028   4.059   1.908   5.149
 5688TIP3    H217029   4.142   1.797   5.089
 5689TIP3   OH217030   2.690   2.098   0.298
 5689TIP3    H117031   2.751   2.025   0.310
 5689TIP3    H217032   2.708   2.129   0.210
 5690TIP3   OH217033   6.577   5.642   1.434
 5690TIP3    H117034   6.646   5.695   1.391
 5690TIP3    H217035   6.497   5.693   1.421
 5691TIP3   OH217036   6.808   5.152   4.477
 5691TIP3    H117037   6.715   5.155   4.500
 5691TIP3    H217038   6.812   5.100   4.397
 5692TIP3   OH217039   6.751   1.261   3.847
 5692TIP3    H117040   6.809   1.279   3.921
 5692TIP3    H217041   6.728   1.348   3.813
 5693TIP3   OH217042   1.701   3.971   2.217
 5693TIP3    H117043   1.719   4.060   2.249
 5693TIP3    H217044   1.620   3.979   2.168
 5694TIP3   OH217045   4.487   6.802   4.274
 5694TIP3    H117046   4.531   6.727   4.233
 5694TIP3    H217047   4.487   6.781   4.368
 5695TIP3   OH217048   3.238   3.073   5.694
 5695TIP3    H117049   3.144   3.052   5.696
 5695TIP3    H217050   3.249   3.139   5.763
 5696TIP3   OH217051   4.738   6.260   4.860
 5696TIP3    H117052   4.669   6.242   4.796
 5696TIP3    H217053   4.706   6.336   4.909
 5697TIP3   OH217054   2.752   6.773   0.525
 5697TIP3    H117055   2.796   6.796   0.607
 5697TIP3    H217056   2.776   6.681   0.510
 5698TIP3   OH217057   1.597   4.926   2.831
 5698TIP3    H117058   1.518   4.936   2.778
 5698TIP3    H217059   1.569   4.946   2.920
 5699TIP3   OH217060   2.847   4.002   0.915
 5699TIP3    H117061   2.939   4.019   0.893
 5699TIP3    H217062   2.800   4.072   0.870
 5700TIP3   OH217063   0.556   0.347   5.452
 5700TIP3    H117064   0.528   0.293   5.526
 5700TIP3    H217065   0.621   0.294   5.407
 5701TIP3   OH217066   6.712   6.036   4.947
 5701TIP3    H117067   6.655   6.100   4.905
 5701TIP3    H217068   6.708   6.057   5.040
 5702TIP3   OH217069   2.572   6.805   3.391
 5702TIP3    H117070   2.646   6.775   3.443
 5702TIP3    H217071   2.553   6.732   3.332
 5703TIP3   OH217072   2.245   5.236   5.717
 5703TIP3    H117073   2.263   5.263   5.807
 5703TIP3    H217074   2.240   5.141   5.721
 5704TIP3   OH217075   3.174   6.441   1.657
 5704TIP3    H117076   3.130   6.518   1.624
 5704TIP3    H217077   3.112   6.369   1.645
 5705TIP3   OH217078   0.285   3.182   2.863
 5705TIP3    H117079   0.320   3.108   2.913
 5705TIP3    H217080   0.227   3.143   2.798
 5706TIP3   OH217081   0.329   5.848   5.067
 5706TIP3    H117082   0.412   5.801   5.075
 5706TIP3    H217083   0.268   5.798   5.121
 5707TIP3   OH217084   0.333   4.960   0.100
 5707TIP3    H117085   0.378   4.949   0.017
 5707TIP3    H217086   0.258   5.017   0.080
 5708TIP3   OH217087   1.648   3.851   4.379
 5708TIP3    H117088   1.592   3.889   4.311
 5708TIP3    H217089   1.699   3.924   4.413
 5709TIP3   OH217090   4.340   4.165   5.176
 5709TIP3    H117091   4.261   4.143   5.224
 5709TIP3    H217092   4.335   4.260   5.164
 5710TIP3   OH217093   1.758   3.234   1.037
 5710TIP3    H117094   1.840   3.209   0.995
 5710TIP3    H217095   1.690   3.191   0.984
 5711TIP3   OH217096   1.828   4.141   5.538
 5711TIP3    H117097   1.850   4.051   5.561
 5711TIP3    H217098   1.739   4.136   5.504
 5712TIP3   OH217099   4.843   6.467   3.774
 5712TIP3    H117100   4.755   6.466   3.738
 5712TIP3    H217101   4.894   6.518   3.710
 5713TIP3   OH217102   2.859   0.799   4.200
 5713TIP3    H117103   2.875   0.796   4.106
 5713TIP3    H217104   2.778   0.750   4.213
 5714TIP3   OH217105   4.865   6.580   5.858
 5714TIP3    H117106   4.860   6.510   5.923
 5714TIP3    H217107   4.776   6.616   5.856
 5715TIP3   OH217108   4.604   6.664   5.856
 5715TIP3    H117109   4.575   6.685   5.767
 5715TIP3    H217110   4.530   6.689   5.911
 5716TIP3   OH217111   1.495   6.028   5.333
 5716TIP3    H117112   1.435   6.056   5.402
 5716TIP3    H217113   1.524   6.110   5.292
 5717TIP3   OH217114   6.952   5.206   3.546
 5717TIP3    H117115   6.993   5.124   3.573
 5717TIP3    H217116   6.865   5.180   3.513
 5718TIP3   OH217117   0.921   2.910   2.052
 5718TIP3    H117118   0.883   2.947   2.131
 5718TIP3    H217119   0.887   2.965   1.981
 5719TIP3   OH217120   1.198   4.182   3.776
 5719TIP3    H117121   1.234   4.173   3.864
 5719TIP3    H217122   1.192   4.276   3.761
 5720TIP3   OH217123   4.699   0.749   1.926
 5720TIP3    H117124   4.735   0.746   2.015
 5720TIP3    H217125   4.750   0.816   1.881
 5721TIP3   OH217126   7.132   6.260   3.876
 5721TIP3    H117127   7.076   6.251   3.799
 5721TIP3    H217128   7.114   6.181   3.927
 5722TIP3   OH217129   4.520   4.717   4.190
 5722TIP3    H117130   4.490   4.628   4.169
 5722TIP3    H217131   4.453   4.774   4.153
 5723TIP3   OH217132   3.150   4.065   3.223
 5723TIP3    H117133   3.075   4.119   3.250
 5723TIP3    H217134   3.181   4.106   3.143
 5724TIP3   OH217135   4.466   5.062   5.150
 5724TIP3    H117136   4.478   5.153   5.123
 5724TIP3    H217137   4.383   5.036   5.110
 5725TIP3   OH217138  -0.038   6.732   0.149
 5725TIP3    H117139  -0.041   6.657   0.089
 5725TIP3    H217140   0.010   6.799   0.100
 5726TIP3   OH217141   0.120   6.186   5.005
 5726TIP3    H117142   0.126   6.159   4.914
 5726TIP3    H217143   0.073   6.115   5.049
 5727TIP3   OH217144   6.573   1.169   4.895
 5727TIP3    H117145   6.501   1.146   4.954
 5727TIP3    H217146   6.626   1.089   4.889
 5728TIP3   OH217147   0.139   0.749   4.665
 5728TIP3    H117148   0.129   0.824   4.724
 5728TIP3    H217149   0.050   0.717   4.651
 5729TIP3   OH217150   2.535   1.786   5.603
 5729TIP3    H117151   2.630   1.774   5.612
 5729TIP3    H217152   2.500   1.697   5.597
 5730TIP3   OH217153   0.685   1.283   1.092
 5730TIP3    H117154   0.667   1.350   1.158
 5730TIP3    H217155   0.780   1.275   1.092
 5731TIP3   OH217156   0.609   5.529   3.011
 5731TIP3    H117157   0.586   5.437   3.024
 5731TIP3    H217158   0.535   5.578   3.046
 5732TIP3   OH217159   0.076   0.370   1.917
 5732TIP3    H117160   0.167   0.370   1.949
 5732TIP3    H217161   0.044   0.458   1.933
 5733TIP3   OH217162   4.919   1.417   4.618
 5733TIP3    H117163   4.913   1.457   4.705
 5733TIP3    H217164   4.922   1.322   4.635
 5734TIP3   OH217165   7.263   2.038   1.035
 5734TIP3    H117166   7.303   2.091   1.104
 5734TIP3    H217167   7.240   1.956   1.077
 5735TIP3   OH217168   1.971   3.553   3.244
 5735TIP3    H117169   1.909   3.484   3.220
 5735TIP3    H217170   1.923   3.608   3.306
 5736TIP3   OH217171   5.759   2.219   5.259
 5736TIP3    H117172   5.735   2.185   5.346
 5736TIP3    H217173   5.715   2.303   5.253
 5737TIP3   OH217174   6.756   3.741   3.422
 5737TIP3    H117175   6.838   3.756   3.469
 5737TIP3    H217176   6.757   3.808   3.353
 5738TIP3   OH217177   5.237   4.357   3.451
 5738TIP3    H117178   5.217   4.293   3.519
 5738TIP3    H217179   5.252   4.439   3.498
 5739TIP3   OH217180   4.108   3.837   3.852
 5739TIP3    H117181   4.111   3.748   3.816
 5739TIP3    H217182   4.068   3.827   3.938
 5740TIP3   OH217183   1.032   0.999   2.759
 5740TIP3    H117184   0.975   0.923   2.747
 5740TIP3    H217185   0.972   1.073   2.772
 5741TIP3   OH217186   1.515   3.655   1.516
 5741TIP3    H117187   1.604   3.690   1.510
 5741TIP3    H217188   1.528   3.560   1.525
 5742TIP3   OH217189   5.034   3.458   1.567
 5742TIP3    H117190   5.100   3.526   1.567
 5742TIP3    H217191   4.993   3.463   1.654
 5743TIP3   OH217192   5.268   4.220   4.025
 5743TIP3    H117193   5.257   4.133   3.989
 5743TIP3    H217194   5.186   4.265   4.006
 5744TIP3   OH217195   0.908   0.307   0.231
 5744TIP3    H117196   0.963   0.360   0.173
 5744TIP3    H217197   0.818   0.330   0.206
 5745TIP3   OH217198   4.620   4.364   5.196
 5745TIP3    H117199   4.535   4.321   5.211
 5745TIP3    H217200   4.665   4.359   5.280
 5746TIP3   OH217201   4.908   1.486   1.359
 5746TIP3    H117202   4.855   1.464   1.283
 5746TIP3    H217203   4.969   1.413   1.368
 5747TIP3   OH217204   6.126   2.641   4.348
 5747TIP3    H117205   6.037   2.657   4.317
 5747TIP3    H217206   6.179   2.708   4.305
 5748TIP3   OH217207   1.862   6.331   3.493
 5748TIP3    H117208   1.843   6.407   3.438
 5748TIP3    H217209   1.781   6.315   3.540
 5749TIP3   OH217210   6.322   5.804   0.113
 5749TIP3    H117211   6.338   5.863   0.040
 5749TIP3    H217212   6.333   5.859   0.191
 5750TIP3   OH217213   4.549   5.717   4.558
 5750TIP3    H117214   4.531   5.795   4.505
 5750TIP3    H217215   4.577   5.651   4.495
 5751TIP3   OH217216   6.512   5.276   2.345
 5751TIP3    H117217   6.419   5.288   2.365
 5751TIP3    H217218   6.542   5.214   2.412
 5752TIP3   OH217219   2.108   1.259   0.885
 5752TIP3    H117220   2.200   1.277   0.867
 5752TIP3    H217221   2.063   1.341   0.864
 5753TIP3   OH217222   0.181   4.656   3.697
 5753TIP3    H117223   0.095   4.651   3.739
 5753TIP3    H217224   0.181   4.740   3.652
 5754TIP3   OH217225   3.476   4.883   4.032
 5754TIP3    H117226   3.404   4.823   4.012
 5754TIP3    H217227   3.499   4.863   4.123
 5755TIP3   OH217228   5.842   3.095   1.089
 5755TIP3    H117229   5.829   3.142   1.172
 5755TIP3    H217230   5.937   3.086   1.082
 5756TIP3   OH217231   4.020   3.102   1.272
 5756TIP3    H117232   3.967   3.172   1.309
 5756TIP3    H217233   3.957   3.041   1.234
 5757TIP3   OH217234   5.738   5.532   5.314
 5757TIP3    H117235   5.648   5.515   5.286
 5757TIP3    H217236   5.781   5.568   5.237
 5758TIP3   OH217237   3.203   3.101   4.120
 5758TIP3    H117238   3.250   3.184   4.119
 5758TIP3    H217239   3.191   3.079   4.028
 5759TIP3   OH217240   2.468   2.375   2.037
 5759TIP3    H117241   2.495   2.372   2.128
 5759TIP3    H217242   2.530   2.435   1.995
 5760TIP3   OH217243   3.804   3.912   4.608
 5760TIP3    H117244   3.805   3.977   4.678
 5760TIP3    H217245   3.882   3.858   4.624
 5761TIP3   OH217246   1.696   4.884   4.929
 5761TIP3    H117247   1.621   4.844   4.974
 5761TIP3    H217248   1.766   4.883   4.993
 5762TIP3   OH217249   6.594   2.046   1.001
 5762TIP3    H117250   6.642   1.971   1.037
 5762TIP3    H217251   6.656   2.087   0.942
 5763TIP3   OH217252   3.928   6.186   1.151
 5763TIP3    H117253   4.012   6.162   1.113
 5763TIP3    H217254   3.916   6.278   1.129
 5764TIP3   OH217255   0.215   0.261   0.337
 5764TIP3    H117256   0.205   0.356   0.327
 5764TIP3    H217257   0.299   0.250   0.382
 5765TIP3   OH217258   4.994   0.781   3.656
 5765TIP3    H117259   4.980   0.869   3.692
 5765TIP3    H217260   5.087   0.764   3.670
 5766TIP3   OH217261   5.030   4.378   1.453
 5766TIP3    H117262   5.100   4.314   1.462
 5766TIP3    H217263   4.986   4.378   1.538
 5767TIP3   OH217264   7.200   6.304   3.002
 5767TIP3    H117265   7.125   6.301   3.061
 5767TIP3    H217266   7.169   6.259   2.923
 5768TIP3   OH217267   1.981   3.494   0.499
 5768TIP3    H117268   2.073   3.517   0.509
 5768TIP3    H217269   1.946   3.559   0.437
 5769TIP3   OH217270   2.441   5.035   2.768
 5769TIP3    H117271   2.449   5.120   2.727
 5769TIP3    H217272   2.355   5.002   2.742
 5770TIP3   OH217273   2.787   2.457   1.104
 5770TIP3    H117274   2.691   2.461   1.101
 5770TIP3    H217275   2.814   2.442   1.014
 5771TIP3   OH217276   5.658   2.321   2.373
 5771TIP3    H117277   5.711   2.250   2.411
 5771TIP3    H217278   5.714   2.398   2.381
 5772TIP3   OH217279   5.548   2.576   4.627
 5772TIP3    H117280   5.554   2.483   4.648
 5772TIP3    H217281   5.564   2.580   4.533
 5773TIP3   OH217282   6.813   4.805   4.053
 5773TIP3    H117283   6.861   4.795   3.970
 5773TIP3    H217284   6.751   4.732   4.053
 5774TIP3   OH217285   2.264   3.136   3.087
 5774TIP3    H117286   2.216   3.171   3.011
 5774TIP3    H217287   2.276   3.212   3.144
 5775TIP3   OH217288   5.840   5.516   2.077
 5775TIP3    H117289   5.781   5.577   2.035
 5775TIP3    H217290   5.891   5.570   2.138
 5776TIP3   OH217291   6.969   4.652   4.402
 5776TIP3    H117292   6.913   4.692   4.469
 5776TIP3    H217293   6.969   4.559   4.425
 5777TIP3   OH217294   6.232   6.007   1.834
 5777TIP3    H117295   6.265   5.923   1.803
 5777TIP3    H217296   6.165   6.032   1.770
 5778TIP3   OH217297   6.241   5.677   4.367
 5778TIP3    H117298   6.235   5.604   4.429
 5778TIP3    H217299   6.182   5.652   4.296
 5779TIP3   OH217300   3.666   1.998   2.010
 5779TIP3    H117301   3.690   2.016   2.101
 5779TIP3    H217302   3.572   2.017   2.005
 5780TIP3   OH217303   0.339   6.715   1.468
 5780TIP3    H117304   0.421   6.667   1.476
 5780TIP3    H217305   0.306   6.722   1.558
 5781TIP3   OH217306   4.631   3.214   1.114
 5781TIP3    H117307   4.596   3.285   1.059
 5781TIP3    H217308   4.625   3.249   1.204
 5782TIP3   OH217309   1.523   3.776   1.760
 5782TIP3    H117310   1.523   3.708   1.693
 5782TIP3    H217311   1.431   3.789   1.782
 5783TIP3   OH217312   2.903   6.137   2.051
 5783TIP3    H117313   2.897   6.042   2.042
 5783TIP3    H217314   2.865   6.172   1.970
 5784TIP3   OH217315   2.725   4.773   1.982
 5784TIP3    H117316   2.650   4.721   2.011
 5784TIP3    H217317   2.768   4.800   2.063
 5785TIP3   OH217318   7.015   3.018   1.910
 5785TIP3    H117319   6.985   3.020   1.819
 5785TIP3    H217320   6.996   2.930   1.940
 5786TIP3   OH217321   6.611   0.915   4.946
 5786TIP3    H117322   6.545   0.865   4.994
 5786TIP3    H217323   6.694   0.876   4.972
 5787TIP3   OH217324   2.792   5.891   5.049
 5787TIP3    H117325   2.840   5.927   5.123
 5787TIP3    H217326   2.855   5.834   5.005
 5788TIP3   OH217327   0.930   4.067   3.501
 5788TIP3    H117328   0.982   4.148   3.499
 5788TIP3    H217329   0.995   3.998   3.510
 5789TIP3   OH217330   0.822   2.970   3.330
 5789TIP3    H117331   0.912   2.978   3.362
 5789TIP3    H217332   0.798   3.059   3.305
 5790TIP3   OH217333   0.348   4.247   2.156
 5790TIP3    H117334   0.279   4.302   2.119
 5790TIP3    H217335   0.375   4.292   2.236
 5791TIP3   OH217336   4.388   1.564   5.561
 5791TIP3    H117337   4.363   1.627   5.494
 5791TIP3    H217338   4.484   1.558   5.555
 5792TIP3   OH217339   1.834   4.015   4.498
 5792TIP3    H117340   1.922   3.987   4.473
 5792TIP3    H217341   1.845   4.106   4.525
 5793TIP3   OH217342   0.351   6.464   5.636
 5793TIP3    H117343   0.403   6.472   5.716
 5793TIP3    H217344   0.350   6.371   5.617
 5794TIP3   OH217345   2.025   3.029   4.572
 5794TIP3    H117346   2.107   3.044   4.619
 5794TIP3    H217347   1.967   3.099   4.603
 5795TIP3   OH217348   3.008   0.169   2.662
 5795TIP3    H117349   2.961   0.249   2.686
 5795TIP3    H217350   3.047   0.188   2.577
 5796TIP3   OH217351   1.175   1.209   5.006
 5796TIP3    H117352   1.100   1.190   4.949
 5796TIP3    H217353   1.250   1.209   4.947
 5797TIP3   OH217354   3.437   0.669   1.430
 5797TIP3    H117355   3.352   0.691   1.469
 5797TIP3    H217356   3.431   0.699   1.340
 5798TIP3   OH217357   1.934   4.598   0.252
 5798TIP3    H117358   1.998   4.571   0.318
 5798TIP3    H217359   1.896   4.516   0.220
 5799TIP3   OH217360   2.118   1.649   1.768
 5799TIP3    H117361   2.112   1.734   1.724
 5799TIP3    H217362   2.028   1.622   1.783
 5800TIP3   OH217363   6.672   2.250   1.223
 5800TIP3    H117364   6.765   2.229   1.221
 5800TIP3    H217365   6.628   2.165   1.218
 5801TIP3   OH217366   3.777   0.684   4.693
 5801TIP3    H117367   3.770   0.608   4.751
 5801TIP3    H217368   3.688   0.697   4.660
 5802TIP3   OH217369   4.602   5.386   1.941
 5802TIP3    H117370   4.674   5.327   1.918
 5802TIP3    H217371   4.528   5.327   1.961
 5803TIP3   OH217372   3.143   5.453   2.610
 5803TIP3    H117373   3.097   5.537   2.618
 5803TIP3    H217374   3.075   5.391   2.582
 5804TIP3   OH217375   0.668   2.820   1.174
 5804TIP3    H117376   0.621   2.904   1.181
 5804TIP3    H217377   0.612   2.766   1.118
 5805TIP3   OH217378   3.022   6.537   1.291
 5805TIP3    H117379   3.096   6.495   1.245
 5805TIP3    H217380   3.054   6.624   1.313
 5806TIP3   OH217381   2.733   6.120   1.267
 5806TIP3    H117382   2.822   6.155   1.264
 5806TIP3    H217383   2.736   6.053   1.335
 5807TIP3   OH217384   2.904   3.910   1.179
 5807TIP3    H117385   2.888   3.816   1.168
 5807TIP3    H217386   2.850   3.951   1.112
 5808TIP3   OH217387   3.704   1.935   4.970
 5808TIP3    H117388   3.641   1.884   4.920
 5808TIP3    H217389   3.701   2.023   4.931
 5809TIP3   OH217390   4.884   5.272   1.890
 5809TIP3    H117391   4.833   5.235   1.818
 5809TIP3    H217392   4.975   5.262   1.864
 5810TIP3   OH217393   2.002   0.567   5.594
 5810TIP3    H117394   1.930   0.621   5.627
 5810TIP3    H217395   2.041   0.529   5.673
 5811TIP3   OH217396   6.712   4.436   0.949
 5811TIP3    H117397   6.714   4.516   1.000
 5811TIP3    H217398   6.804   4.414   0.933
 5812TIP3   OH217399   6.540   0.346   2.439
 5812TIP3    H117400   6.609   0.400   2.477
 5812TIP3    H217401   6.580   0.260   2.426
 5813TIP3   OH217402   2.313   0.098   2.453
 5813TIP3    H117403   2.400   0.059   2.466
 5813TIP3    H217404   2.328   0.167   2.388
 5814TIP3   OH217405   0.009   5.070   2.241
 5814TIP3    H117406   0.024   5.044   2.332
 5814TIP3    H217407   0.095   5.094   2.208
 5815TIP3   OH217408   3.692   6.742   4.679
 5815TIP3    H117409   3.651   6.706   4.601
 5815TIP3    H217410   3.785   6.720   4.671
 5816TIP3   OH217411   6.706   1.693   3.509
 5816TIP3    H117412   6.743   1.653   3.430
 5816TIP3    H217413   6.615   1.714   3.485
 5817TIP3   OH217414   6.443   3.321   3.517
 5817TIP3    H117415   6.410   3.410   3.501
 5817TIP3    H217416   6.486   3.326   3.602
 5818TIP3   OH217417   3.260   3.594   1.882
 5818TIP3    H117418   3.298   3.511   1.910
 5818TIP3    H217419   3.206   3.623   1.956
 5819TIP3   OH217420   6.362   0.874   2.106
 5819TIP3    H117421   6.335   0.783   2.104
 5819TIP3    H217422   6.305   0.918   2.043
 5820TIP3   OH217423   3.386   2.286   5.351
 5820TIP3    H117424   3.388   2.374   5.388
 5820TIP3    H217425   3.382   2.300   5.256
 5821TIP3   OH217426   2.375   5.147   0.111
 5821TIP3    H117427   2.434   5.082   0.150
 5821TIP3    H217428   2.355   5.112   0.024
 5822TIP3   OH217429   1.298   2.511   0.700
 5822TIP3    H117430   1.279   2.418   0.698
 5822TIP3    H217431   1.224   2.552   0.655
 5823TIP3   OH217432   5.837   2.395   3.131
 5823TIP3    H117433   5.911   2.426   3.183
 5823TIP3    H217434   5.850   2.300   3.124
 5824TIP3   OH217435   3.448   0.433   0.704
 5824TIP3    H117436   3.512   0.453   0.635
 5824TIP3    H217437   3.384   0.376   0.661
 5825TIP3   OH217438   2.523   1.641   2.114
 5825TIP3    H117439   2.569   1.600   2.041
 5825TIP3    H217440   2.452   1.690   2.073
 5826TIP3   OH217441   1.317   4.718   1.720
 5826TIP3    H117442   1.365   4.644   1.684
 5826TIP3    H217443   1.308   4.779   1.647
 5827TIP3   OH217444   2.176   5.803   4.170
 5827TIP3    H117445   2.173   5.897   4.187
 5827TIP3    H217446   2.221   5.766   4.246
 5828TIP3   OH217447   2.294   2.780   2.022
 5828TIP3    H117448   2.272   2.708   1.963
 5828TIP3    H217449   2.353   2.836   1.971
 5829TIP3   OH217450   6.502   4.515   2.036
 5829TIP3    H117451   6.492   4.431   1.992
 5829TIP3    H217452   6.413   4.550   2.042
 5830TIP3   OH217453   6.492   1.492   1.462
 5830TIP3    H117454   6.482   1.397   1.468
 5830TIP3    H217455   6.585   1.505   1.450
 5831TIP3   OH217456   6.231   4.608  -0.024
 5831TIP3    H117457   6.187   4.605   0.061
 5831TIP3    H217458   6.275   4.693  -0.024
 5832TIP3   OH217459   6.762   3.408   4.962
 5832TIP3    H117460   6.694   3.341   4.955
 5832TIP3    H217461   6.714   3.491   4.961
 5833TIP3   OH217462   5.018   3.077   2.602
 5833TIP3    H117463   5.096   3.049   2.553
 5833TIP3    H217464   4.945   3.031   2.559
 5834TIP3   OH217465   0.371   3.318   4.121
 5834TIP3    H117466   0.306   3.366   4.070
 5834TIP3    H217467   0.370   3.229   4.084
 5835TIP3   OH217468   1.935   1.340   2.996
 5835TIP3    H117469   1.867   1.302   3.052
 5835TIP3    H217470   1.901   1.329   2.907
 5836TIP3   OH217471   5.832   4.063   2.094
 5836TIP3    H117472   5.829   3.982   2.043
 5836TIP3    H217473   5.817   4.132   2.029
 5837TIP3   OH217474   4.894   4.078   3.354
 5837TIP3    H117475   4.905   4.108   3.444
 5837TIP3    H217476   4.915   3.985   3.356
 5838TIP3   OH217477   0.204   0.038   0.990
 5838TIP3    H117478   0.210  -0.051   1.023
 5838TIP3    H217479   0.120   0.071   1.022
 5839TIP3   OH217480   6.101   5.340   5.678
 5839TIP3    H117481   6.038   5.412   5.681
 5839TIP3    H217482   6.184   5.380   5.705
 5840TIP3   OH217483   2.542   4.088   5.491
 5840TIP3    H117484   2.567   4.157   5.429
 5840TIP3    H217485   2.447   4.079   5.479
 5841TIP3   OH217486   6.803   1.488   4.146
 5841TIP3    H117487   6.845   1.481   4.060
 5841TIP3    H217488   6.776   1.398   4.166
 5842TIP3   OH217489   2.737   2.890   3.574
 5842TIP3    H117490   2.775   2.816   3.622
 5842TIP3    H217491   2.689   2.850   3.502
 5843TIP3   OH217492   5.121   3.403   3.343
 5843TIP3    H117493   5.099   3.318   3.305
 5843TIP3    H217494   5.080   3.467   3.284
 5844TIP3   OH217495   4.494   5.399   3.479
 5844TIP3    H117496   4.458   5.424   3.394
 5844TIP3    H217497   4.423   5.415   3.541
 5845TIP3   OH217498   2.007   2.775   3.776
 5845TIP3    H117499   1.927   2.826   3.789
 5845TIP3    H217500   2.077   2.836   3.796
 5846TIP3   OH217501   6.009   5.228   2.224
 5846TIP3    H117502   6.086   5.186   2.262
 5846TIP3    H217503   5.983   5.171   2.151
 5847TIP3   OH217504   3.039   1.717   5.649
 5847TIP3    H117505   3.101   1.789   5.651
 5847TIP3    H217506   2.976   1.741   5.581
 5848TIP3   OH217507   0.066   2.919   5.015
 5848TIP3    H117508   0.027   2.971   5.085
 5848TIP3    H217509   0.095   2.984   4.951
 5849TIP3   OH217510   3.323   1.043   1.536
 5849TIP3    H117511   3.232   1.071   1.548
 5849TIP3    H217512   3.355   1.096   1.463
 5850TIP3   OH217513   2.065   0.631   4.977
 5850TIP3    H117514   2.124   0.699   5.008
 5850TIP3    H217515   2.086   0.554   5.029
 5851TIP3   OH217516   6.122   5.346   5.039
 5851TIP3    H117517   6.104   5.327   5.131
 5851TIP3    H217518   6.051   5.303   4.992
 5852TIP3   OH217519   1.958   0.281   1.830
 5852TIP3    H117520   2.014   0.345   1.875
 5852TIP3    H217521   1.890   0.334   1.789
 5853TIP3   OH217522   1.850   5.793   0.357
 5853TIP3    H117523   1.882   5.765   0.443
 5853TIP3    H217524   1.761   5.824   0.374
 5854TIP3   OH217525   3.528   1.282   3.539
 5854TIP3    H117526   3.613   1.282   3.583
 5854TIP3    H217527   3.464   1.271   3.610
 5855TIP3   OH217528   4.102   5.113   0.143
 5855TIP3    H117529   4.175   5.057   0.169
 5855TIP3    H217530   4.042   5.055   0.098
 5856TIP3   OH217531   4.743   5.060   4.269
 5856TIP3    H117532   4.817   5.015   4.229
 5856TIP3    H217533   4.776   5.147   4.289
 5857TIP3   OH217534   4.381   1.008   1.960
 5857TIP3    H117535   4.456   1.050   2.003
 5857TIP3    H217536   4.367   1.058   1.880
 5858TIP3   OH217537   5.299   4.382   1.221
 5858TIP3    H117538   5.335   4.390   1.309
 5858TIP3    H217539   5.294   4.288   1.205
 5859TIP3   OH217540   2.932   1.791   0.800
 5859TIP3    H117541   2.854   1.763   0.753
 5859TIP3    H217542   2.993   1.818   0.731
 5860TIP3   OH217543   4.479   4.926   0.444
 5860TIP3    H117544   4.470   4.834   0.469
 5860TIP3    H217545   4.549   4.960   0.500
 5861TIP3   OH217546   7.171   0.013   1.117
 5861TIP3    H117547   7.084  -0.012   1.087
 5861TIP3    H217548   7.219  -0.069   1.124
 5862TIP3   OH217549   6.697   0.973   3.522
 5862TIP3    H117550   6.602   0.961   3.517
 5862TIP3    H217551   6.717   0.965   3.615
 5863TIP3   OH217552   3.048   3.538   3.151
 5863TIP3    H117553   3.077   3.556   3.241
 5863TIP3    H217554   3.042   3.624   3.110
 5864TIP3   OH217555   0.549   5.631   1.418
 5864TIP3    H117556   0.626   5.575   1.407
 5864TIP3    H217557   0.501   5.592   1.490
 5865TIP3   OH217558   4.382   2.335   1.014
 5865TIP3    H117559   4.466   2.328   1.060
 5865TIP3    H217560   4.406   2.330   0.921
 5866TIP3   OH217561   5.696   1.729   4.252
 5866TIP3    H117562   5.627   1.753   4.313
 5866TIP3    H217563   5.777   1.737   4.303
 5867TIP3   OH217564   0.173   2.557   3.352
 5867TIP3    H117565   0.254   2.606   3.338
 5867TIP3    H217566   0.158   2.562   3.447
 5868TIP3   OH217567   1.541   6.377   1.421
 5868TIP3    H117568   1.494   6.299   1.451
 5868TIP3    H217569   1.528   6.440   1.492
 5869TIP3   OH217570   4.798   0.327   5.253
 5869TIP3    H117571   4.769   0.300   5.340
 5869TIP3    H217572   4.770   0.418   5.246
 5870TIP3   OH217573   4.874   4.373   0.928
 5870TIP3    H117574   4.882   4.307   0.996
 5870TIP3    H217575   4.784   4.363   0.895
 5871TIP3   OH217576   1.211   0.681   1.775
 5871TIP3    H117577   1.126   0.636   1.774
 5871TIP3    H217578   1.272   0.618   1.737
 5872TIP3   OH217579   1.252   2.124   4.030
 5872TIP3    H117580   1.185   2.066   4.065
 5872TIP3    H217581   1.324   2.066   4.006
 5873TIP3   OH217582   0.562   3.717   4.108
 5873TIP3    H117583   0.543   3.674   4.191
 5873TIP3    H217584   0.495   3.785   4.099
 5874TIP3   OH217585   0.968   0.188   4.920
 5874TIP3    H117586   1.010   0.134   4.853
 5874TIP3    H217587   0.885   0.215   4.881
 5875TIP3   OH217588   2.947   3.685   0.947
 5875TIP3    H117589   2.910   3.751   0.888
 5875TIP3    H217590   3.011   3.734   0.999
 5876TIP3   OH217591   4.392   6.406   0.995
 5876TIP3    H117592   4.401   6.380   1.087
 5876TIP3    H217593   4.331   6.480   0.997
 5877TIP3   OH217594   2.714   4.232   4.732
 5877TIP3    H117595   2.625   4.233   4.767
 5877TIP3    H217596   2.735   4.139   4.724
 5878TIP3   OH217597   2.174   6.475   3.176
 5878TIP3    H117598   2.253   6.503   3.130
 5878TIP3    H217599   2.164   6.540   3.246
 5879TIP3   OH217600   0.419   3.397   2.459
 5879TIP3    H117601   0.473   3.375   2.384
 5879TIP3    H217602   0.473   3.378   2.535
 5880TIP3   OH217603   6.395   2.897   2.550
 5880TIP3    H117604   6.463   2.831   2.559
 5880TIP3    H217605   6.341   2.888   2.628
 5881TIP3   OH217606   1.727   5.656   5.771
 5881TIP3    H117607   1.684   5.718   5.713
 5881TIP3    H217608   1.794   5.707   5.816
 5882TIP3   OH217609   5.262   1.842   1.887
 5882TIP3    H117610   5.356   1.857   1.880
 5882TIP3    H217611   5.254   1.757   1.932
 5883TIP3   OH217612   2.983   5.497   3.061
 5883TIP3    H117613   3.066   5.504   3.014
 5883TIP3    H217614   3.008   5.486   3.153
 5884TIP3   OH217615   4.071   5.112   0.446
 5884TIP3    H117616   4.055   5.120   0.352
 5884TIP3    H217617   4.015   5.040   0.474
 5885TIP3   OH217618   1.957   1.831   2.284
 5885TIP3    H117619   1.894   1.869   2.222
 5885TIP3    H217620   1.996   1.758   2.236
 5886TIP3   OH217621   1.688   2.606   4.992
 5886TIP3    H117622   1.720   2.516   5.000
 5886TIP3    H217623   1.680   2.619   4.897
 5887TIP3   OH217624   1.400   2.518   4.314
 5887TIP3    H117625   1.491   2.495   4.294
 5887TIP3    H217626   1.348   2.454   4.265
 5888TIP3   OH217627   2.186   2.303   1.727
 5888TIP3    H117628   2.242   2.265   1.660
 5888TIP3    H217629   2.100   2.311   1.685
 5889TIP3   OH217630   1.575   6.284   3.524
 5889TIP3    H117631   1.526   6.349   3.473
 5889TIP3    H217632   1.557   6.201   3.479
 5890TIP3   OH217633   6.806   1.885   2.937
 5890TIP3    H117634   6.872   1.844   2.992
 5890TIP3    H217635   6.851   1.958   2.894
 5891TIP3   OH217636   6.005   1.052   3.415
 5891TIP3    H117637   5.918   1.026   3.385
 5891TIP3    H217638   6.012   1.145   3.393
 5892TIP3   OH217639   2.630   6.263   5.779
 5892TIP3    H117640   2.535   6.276   5.772
 5892TIP3    H217641   2.661   6.342   5.824
 5893TIP3   OH217642   2.254   4.911   5.821
 5893TIP3    H117643   2.273   4.876   5.734
 5893TIP3    H217644   2.160   4.902   5.831
 5894TIP3   OH217645   6.676   5.323   0.431
 5894TIP3    H117646   6.635   5.241   0.403
 5894TIP3    H217647   6.680   5.316   0.526
 5895TIP3   OH217648   6.486   6.122   0.592
 5895TIP3    H117649   6.426   6.055   0.625
 5895TIP3    H217650   6.461   6.134   0.500
 5896TIP3   OH217651   3.127   2.835   3.286
 5896TIP3    H117652   3.105   2.918   3.243
 5896TIP3    H217653   3.060   2.774   3.256
 5897TIP3   OH217654   4.278   0.096   5.310
 5897TIP3    H117655   4.350   0.053   5.262
 5897TIP3    H217656   4.317   0.175   5.345
 5898TIP3   OH217657   6.253   5.680   3.284
 5898TIP3    H117658   6.176   5.736   3.292
 5898TIP3    H217659   6.233   5.603   3.337
 5899TIP3   OH217660   6.136   4.532   5.800
 5899TIP3    H117661   6.220   4.578   5.802
 5899TIP3    H217662   6.074   4.597   5.766
 5900TIP3   OH217663   1.254   2.247   0.764
 5900TIP3    H117664   1.301   2.165   0.750
 5900TIP3    H217665   1.192   2.251   0.691
 5901TIP3   OH217666   0.962   4.963   1.762
 5901TIP3    H117667   0.910   5.041   1.781
 5901TIP3    H217668   0.916   4.892   1.807
 5902TIP3   OH217669   4.993   6.625   3.337
 5902TIP3    H117670   5.054   6.630   3.411
 5902TIP3    H217671   4.927   6.561   3.365
 5903TIP3   OH217672   5.075   1.488   5.354
 5903TIP3    H117673   5.043   1.474   5.443
 5903TIP3    H217674   5.023   1.428   5.300
 5904TIP3   OH217675   4.980   3.157   0.533
 5904TIP3    H117676   4.972   3.070   0.573
 5904TIP3    H217677   5.029   3.143   0.453
 5905TIP3   OH217678   0.498   3.770   1.417
 5905TIP3    H117679   0.411   3.806   1.403
 5905TIP3    H217680   0.557   3.842   1.396
 5906TIP3   OH217681   1.033   6.410   5.565
 5906TIP3    H117682   1.101   6.473   5.589
 5906TIP3    H217683   1.036   6.344   5.634
 5907TIP3   OH217684   5.522   0.260   1.019
 5907TIP3    H117685   5.509   0.172   1.054
 5907TIP3    H217686   5.510   0.318   1.094
 5908TIP3   OH217687   4.273   6.508   3.034
 5908TIP3    H117688   4.241   6.480   2.948
 5908TIP3    H217689   4.196   6.502   3.091
 5909TIP3   OH217690   2.545   1.239   1.263
 5909TIP3    H117691   2.459   1.282   1.264
 5909TIP3    H217692   2.551   1.201   1.175
 5910TIP3   OH217693   6.087   0.449   4.065
 5910TIP3    H117694   6.154   0.475   4.128
 5910TIP3    H217695   6.005   0.481   4.102
 5911TIP3   OH217696   5.889   5.062   1.635
 5911TIP3    H117697   5.914   5.087   1.546
 5911TIP3    H217698   5.811   5.114   1.654
 5912TIP3   OH217699   4.459   6.212   1.705
 5912TIP3    H117700   4.393   6.156   1.665
 5912TIP3    H217701   4.513   6.152   1.757
 5913TIP3   OH217702   2.986   5.843   2.294
 5913TIP3    H117703   2.899   5.821   2.262
 5913TIP3    H217704   2.971   5.911   2.360
 5914TIP3   OH217705   5.616   1.742   5.473
 5914TIP3    H117706   5.680   1.794   5.423
 5914TIP3    H217707   5.548   1.805   5.498
 5915TIP3   OH217708   4.312   4.569   0.324
 5915TIP3    H117709   4.312   4.568   0.228
 5915TIP3    H217710   4.405   4.574   0.347
 5916TIP3   OH217711   2.096   2.713   4.224
 5916TIP3    H117712   2.097   2.808   4.234
 5916TIP3    H217713   2.188   2.688   4.220
 5917TIP3   OH217714   6.109   5.921   4.794
 5917TIP3    H117715   6.068   5.835   4.803
 5917TIP3    H217716   6.174   5.910   4.724
 5918TIP3   OH217717   5.496   3.048   0.321
 5918TIP3    H117718   5.446   3.000   0.256
 5918TIP3    H217719   5.586   3.016   0.311
 5919TIP3   OH217720   4.309   2.396   2.388
 5919TIP3    H117721   4.223   2.367   2.359
 5919TIP3    H217722   4.301   2.491   2.394
 5920TIP3   OH217723   3.859   1.243   4.129
 5920TIP3    H117724   3.836   1.211   4.216
 5920TIP3    H217725   3.914   1.174   4.092
 5921TIP3   OH217726   4.662   1.482   5.760
 5921TIP3    H117727   4.636   1.390   5.756
 5921TIP3    H217728   4.632   1.519   5.676
 5922TIP3   OH217729   6.086   3.150   1.186
 5922TIP3    H117730   6.099   3.239   1.219
 5922TIP3    H217731   6.156   3.099   1.228
 5923TIP3   OH217732   4.073   5.242   4.591
 5923TIP3    H117733   4.094   5.154   4.623
 5923TIP3    H217734   4.059   5.231   4.497
 5924TIP3   OH217735   7.137   6.142   4.619
 5924TIP3    H117736   7.102   6.193   4.546
 5924TIP3    H217737   7.063   6.088   4.648
 5925TIP3   OH217738   4.769   0.681   4.328
 5925TIP3    H117739   4.750   0.775   4.332
 5925TIP3    H217740   4.711   0.647   4.260
 5926TIP3   OH217741   5.846   4.234   3.852
 5926TIP3    H117742   5.876   4.230   3.762
 5926TIP3    H217743   5.842   4.143   3.881
 5927TIP3   OH217744   6.541   5.763   3.269
 5927TIP3    H117745   6.573   5.806   3.348
 5927TIP3    H217746   6.461   5.718   3.297
 5928TIP3   OH217747   1.983   2.674   0.572
 5928TIP3    H117748   1.921   2.724   0.518
 5928TIP3    H217749   2.004   2.733   0.644
 5929TIP3   OH217750   6.858   3.691   0.358
 5929TIP3    H117751   6.780   3.734   0.323
 5929TIP3    H217752   6.892   3.754   0.422
 5930TIP3   OH217753   4.400   4.242   3.534
 5930TIP3    H117754   4.324   4.281   3.492
 5930TIP3    H217755   4.471   4.253   3.471
 5931TIP3   OH217756   4.139   2.340   2.712
 5931TIP3    H117757   4.158   2.284   2.788
 5931TIP3    H217758   4.121   2.278   2.641
 5932TIP3   OH217759   6.597   4.511   5.787
 5932TIP3    H117760   6.556   4.430   5.818
 5932TIP3    H217761   6.681   4.515   5.833
 5933TIP3   OH217762   2.330   2.779   5.559
 5933TIP3    H117763   2.418   2.808   5.534
 5933TIP3    H217764   2.336   2.683   5.559
 5934TIP3   OH217765   3.079  -0.026   1.244
 5934TIP3    H117766   3.045   0.046   1.296
 5934TIP3    H217767   3.097   0.012   1.158
 5935TIP3   OH217768   5.996   2.338   3.981
 5935TIP3    H117769   6.044   2.375   3.907
 5935TIP3    H217770   5.913   2.384   3.981
 5936TIP3   OH217771   7.081   2.013   3.662
 5936TIP3    H117772   7.108   2.063   3.585
 5936TIP3    H217773   6.995   2.047   3.683
 5937TIP3   OH217774   3.998   2.240   0.426
 5937TIP3    H117775   3.996   2.172   0.358
 5937TIP3    H217776   3.989   2.322   0.377
 5938TIP3   OH217777   2.058   0.950   4.963
 5938TIP3    H117778   2.109   0.945   5.044
 5938TIP3    H217779   1.972   0.983   4.991
 5939TIP3   OH217780   1.579   1.120   3.024
 5939TIP3    H117781   1.511   1.102   2.958
 5939TIP3    H217782   1.660   1.125   2.973
 5940TIP3   OH217783   5.823   0.387   3.658
 5940TIP3    H117784   5.769   0.315   3.691
 5940TIP3    H217785   5.913   0.361   3.681
 5941TIP3   OH217786   2.459   2.429   4.413
 5941TIP3    H117787   2.537   2.396   4.458
 5941TIP3    H217788   2.414   2.482   4.478
 5942TIP3   OH217789   1.387   0.862   1.342
 5942TIP3    H117790   1.353   0.830   1.258
 5942TIP3    H217791   1.455   0.799   1.366
 5943TIP3   OH217792   5.083   5.606   0.277
 5943TIP3    H117793   5.084   5.523   0.323
 5943TIP3    H217794   5.117   5.585   0.189
 5944TIP3   OH217795   1.196   6.428   4.083
 5944TIP3    H117796   1.189   6.514   4.042
 5944TIP3    H217797   1.143   6.371   4.026
 5945TIP3   OH217798   3.456   6.540   2.210
 5945TIP3    H117799   3.430   6.568   2.298
 5945TIP3    H217800   3.474   6.622   2.163
 5946TIP3   OH217801   3.553   4.523   5.258
 5946TIP3    H117802   3.600   4.485   5.332
 5946TIP3    H217803   3.613   4.514   5.184
 5947TIP3   OH217804   3.080   3.646   5.052
 5947TIP3    H117805   3.142   3.718   5.056
 5947TIP3    H217806   3.125   3.578   5.002
 5948TIP3   OH217807   4.162   3.340   3.702
 5948TIP3    H117808   4.143   3.321   3.794
 5948TIP3    H217809   4.077   3.365   3.665
 5949TIP3   OH217810   5.587   1.725   3.053
 5949TIP3    H117811   5.519   1.658   3.045
 5949TIP3    H217812   5.581   1.775   2.971
 5950TIP3   OH217813   4.780   3.703   4.001
 5950TIP3    H117814   4.875   3.692   4.010
 5950TIP3    H217815   4.748   3.706   4.091
 5951TIP3   OH217816   1.555   2.059   1.219
 5951TIP3    H117817   1.604   2.141   1.230
 5951TIP3    H217818   1.471   2.086   1.182
 5952TIP3   OH217819   6.773   1.364   4.915
 5952TIP3    H117820   6.693   1.311   4.912
 5952TIP3    H217821   6.785   1.393   4.824
 5953TIP3   OH217822   5.775   4.709   0.964
 5953TIP3    H117823   5.786   4.643   1.032
 5953TIP3    H217824   5.730   4.781   1.008
 5954TIP3   OH217825   5.472   2.358   5.065
 5954TIP3    H117826   5.555   2.359   5.019
 5954TIP3    H217827   5.451   2.451   5.078
 5955TIP3   OH217828   5.501   1.169   5.737
 5955TIP3    H117829   5.445   1.116   5.793
 5955TIP3    H217830   5.479   1.141   5.648
 5956TIP3   OH217831   1.958   1.979   5.199
 5956TIP3    H117832   1.903   2.019   5.131
 5956TIP3    H217833   1.978   1.892   5.165
 5957TIP3   OH217834   6.080   2.876   4.576
 5957TIP3    H117835   6.096   2.941   4.507
 5957TIP3    H217836   6.038   2.925   4.647
 5958TIP3   OH217837   6.724   2.163   0.279
 5958TIP3    H117838   6.663   2.224   0.237
 5958TIP3    H217839   6.701   2.166   0.372
 5959TIP3   OH217840   1.694   3.409   4.589
 5959TIP3    H117841   1.659   3.347   4.654
 5959TIP3    H217842   1.642   3.488   4.602
 5960TIP3   OH217843   3.815   3.608   4.754
 5960TIP3    H117844   3.733   3.588   4.708
 5960TIP3    H217845   3.796   3.591   4.846
 5961TIP3   OH217846   5.953   0.540   1.797
 5961TIP3    H117847   6.041   0.504   1.798
 5961TIP3    H217848   5.960   0.619   1.743
 5962TIP3   OH217849   5.501   6.037   5.654
 5962TIP3    H117850   5.570   6.099   5.632
 5962TIP3    H217851   5.423   6.091   5.668
 5963TIP3   OH217852   1.296   3.161   0.815
 5963TIP3    H117853   1.267   3.195   0.731
 5963TIP3    H217854   1.365   3.221   0.843
 5964TIP3   OH217855   6.810   1.898   1.111
 5964TIP3    H117856   6.842   1.985   1.132
 5964TIP3    H217857   6.881   1.857   1.062
 5965TIP3   OH217858   4.916   6.356   0.956
 5965TIP3    H117859   4.823   6.367   0.979
 5965TIP3    H217860   4.918   6.275   0.905
 5966TIP3   OH217861   0.272   6.673   5.089
 5966TIP3    H117862   0.229   6.709   5.167
 5966TIP3    H217863   0.219   6.702   5.016
 5967TIP3   OH217864   5.711   1.270   3.821
 5967TIP3    H117865   5.797   1.256   3.780
 5967TIP3    H217866   5.652   1.211   3.775
 5968TIP3   OH217867   1.260   5.412   2.327
 5968TIP3    H117868   1.322   5.350   2.365
 5968TIP3    H217869   1.236   5.374   2.243
 5969TIP3   OH217870   1.087   0.904   4.676
 5969TIP3    H117871   1.109   0.813   4.695
 5969TIP3    H217872   0.993   0.903   4.658
 5970TIP3   OH217873   2.625   1.021   4.189
 5970TIP3    H117874   2.551   1.000   4.131
 5970TIP3    H217875   2.650   0.937   4.227
 5971TIP3   OH217876   3.869   4.799   5.217
 5971TIP3    H117877   3.920   4.877   5.238
 5971TIP3    H217878   3.780   4.819   5.246
 5972TIP3   OH217879   6.953   5.394   2.485
 5972TIP3    H117880   6.992   5.372   2.401
 5972TIP3    H217881   6.933   5.309   2.525
 5973TIP3   OH217882   1.036   0.450   4.135
 5973TIP3    H117883   1.010   0.367   4.175
 5973TIP3    H217884   0.958   0.479   4.088
 5974TIP3   OH217885   0.796   0.764   5.754
 5974TIP3    H117886   0.791   0.860   5.753
 5974TIP3    H217887   0.835   0.743   5.839
 5975TIP3   OH217888   2.111   3.238   5.752
 5975TIP3    H117889   2.071   3.181   5.686
 5975TIP3    H217890   2.174   3.291   5.703
 5976TIP3   OH217891   3.073   0.140   0.122
 5976TIP3    H117892   3.100   0.232   0.119
 5976TIP3    H217893   3.137   0.094   0.068
 5977TIP3   OH217894   6.677   1.369   5.266
 5977TIP3    H117895   6.630   1.289   5.244
 5977TIP3    H217896   6.734   1.344   5.339
 5978TIP3   OH217897   2.701   1.505   0.389
 5978TIP3    H117898   2.701   1.588   0.341
 5978TIP3    H217899   2.608   1.486   0.403
 5979TIP3   OH217900   6.937   1.617   5.527
 5979TIP3    H117901   7.003   1.608   5.458
 5979TIP3    H217902   6.890   1.534   5.525
 5980TIP3   OH217903   7.070   3.672   5.768
 5980TIP3    H117904   7.090   3.621   5.689
 5980TIP3    H217905   6.975   3.663   5.778
 5981TIP3   OH217906   6.135   0.187   4.002
 5981TIP3    H117907   6.199   0.156   4.065
 5981TIP3    H217908   6.108   0.272   4.036
 5982TIP3   OH217909   5.729   5.538   3.164
 5982TIP3    H117910   5.692   5.550   3.251
 5982TIP3    H217911   5.782   5.459   3.171
 5983TIP3   OH217912   4.755   1.909   3.467
 5983TIP3    H117913   4.685   1.959   3.508
 5983TIP3    H217914   4.808   1.974   3.420
 5984TIP3   OH217915   4.432   3.316   2.796
 5984TIP3    H117916   4.503   3.276   2.847
 5984TIP3    H217917   4.467   3.402   2.771
 5985TIP3   OH217918   3.167   4.968   1.207
 5985TIP3    H117919   3.246   4.919   1.230
 5985TIP3    H217920   3.200   5.047   1.164
 5986TIP3   OH217921   4.294   3.737   0.556
 5986TIP3    H117922   4.386   3.715   0.564
 5986TIP3    H217923   4.274   3.790   0.634
 5987TIP3   OH217924   6.447   4.195   0.589
 5987TIP3    H117925   6.357   4.229   0.582
 5987TIP3    H217926   6.498   4.251   0.531
 5988TIP3   OH217927   2.506   4.218   5.233
 5988TIP3    H117928   2.597   4.241   5.217
 5988TIP3    H217929   2.498   4.128   5.201
 5989TIP3   OH217930   6.708   0.462  -0.002
 5989TIP3    H117931   6.672   0.545   0.027
 5989TIP3    H217932   6.647   0.396   0.031
 5990TIP3   OH217933   2.215   2.250   4.375
 5990TIP3    H117934   2.169   2.328   4.405
 5990TIP3    H217935   2.294   2.283   4.333
 5991TIP3   OH217936   1.763   0.727   1.118
 5991TIP3    H117937   1.763   0.746   1.024
 5991TIP3    H217938   1.725   0.805   1.158
 5992TIP3   OH217939   1.694   3.810   4.069
 5992TIP3    H117940   1.694   3.855   3.984
 5992TIP3    H217941   1.601   3.791   4.086
 5993TIP3   OH217942   6.708   2.125   1.938
 5993TIP3    H117943   6.721   2.075   2.018
 5993TIP3    H217944   6.696   2.058   1.870
 5994TIP3   OH217945   0.923   0.887   1.613
 5994TIP3    H117946   0.911   0.837   1.533
 5994TIP3    H217947   0.919   0.822   1.683
 5995TIP3   OH217948   6.263   2.621   5.583
 5995TIP3    H117949   6.320   2.669   5.644
 5995TIP3    H217950   6.180   2.613   5.630
 5996TIP3   OH217951   1.085   0.938   1.832
 5996TIP3    H117952   1.047   0.937   1.744
 5996TIP3    H217953   1.152   0.869   1.830
 5997TIP3   OH217954   4.143   1.742   0.753
 5997TIP3    H117955   4.165   1.658   0.794
 5997TIP3    H217956   4.188   1.807   0.807
 5998TIP3   OH217957   7.181   5.370   2.034
 5998TIP3    H117958   7.168   5.304   1.966
 5998TIP3    H217959   7.169   5.453   1.989
 5999TIP3   OH217960   4.407   5.825   2.864
 5999TIP3    H117961   4.431   5.795   2.776
 5999TIP3    H217962   4.336   5.888   2.849
 6000TIP3   OH217963   0.467   4.730   5.835
 6000TIP3    H117964   0.529   4.699   5.770
 6000TIP3    H217965   0.484   4.824   5.842
 6001TIP3   OH217966   6.708   4.580   4.991
 6001TIP3    H117967   6.723   4.663   4.946
 6001TIP3    H217968   6.701   4.604   5.083
 6002TIP3   OH217969   1.322   5.222   0.341
 6002TIP3    H117970   1.254   5.289   0.339
 6002TIP3    H217971   1.398   5.263   0.299
 6003TIP3   OH217972   3.754   2.418   3.721
 6003TIP3    H117973   3.723   2.331   3.746
 6003TIP3    H217974   3.835   2.400   3.673
 6004TIP3   OH217975   2.230   3.160   1.986
 6004TIP3    H117976   2.252   3.109   2.064
 6004TIP3    H217977   2.314   3.173   1.941
 6005TIP3   OH217978   7.116   3.317   3.329
 6005TIP3    H117979   7.136   3.409   3.314
 6005TIP3    H217980   7.114   3.308   3.424
 6006TIP3   OH217981   6.982   3.665   4.278
 6006TIP3    H117982   7.022   3.586   4.243
 6006TIP3    H217983   6.956   3.642   4.367
 6007TIP3   OH217984   2.592   1.372   2.796
 6007TIP3    H117985   2.528   1.430   2.754
 6007TIP3    H217986   2.673   1.387   2.747
 6008TIP3   OH217987   5.895   3.625   5.898
 6008TIP3    H117988   5.962   3.558   5.912
 6008TIP3    H217989   5.888   3.632   5.802
 6009TIP3   OH217990   6.747   4.154   0.426
 6009TIP3    H117991   6.784   4.180   0.510
 6009TIP3    H217992   6.675   4.216   0.411
 6010TIP3   OH217993   1.113   1.083   0.495
 6010TIP3    H117994   1.180   1.037   0.445
 6010TIP3    H217995   1.089   1.158   0.440
 6011TIP3   OH217996   1.086   6.096   4.406
 6011TIP3    H117997   1.029   6.095   4.329
 6011TIP3    H217998   1.113   6.188   4.413
 6012TIP3   OH217999   6.292   2.383   0.787
 6012TIP3    H118000   6.221   2.319   0.796
 6012TIP3    H218001   6.287   2.436   0.866
 6013TIP3   OH218002   6.095   0.026   1.770
 6013TIP3    H118003   6.126   0.009   1.859
 6013TIP3    H218004   6.024   0.088   1.780
 6014TIP3   OH218005   0.283   2.758   4.840
 6014TIP3    H118006   0.242   2.836   4.801
 6014TIP3    H218007   0.242   2.685   4.794
 6015TIP3   OH218008   3.870   3.259   5.316
 6015TIP3    H118009   3.788   3.266   5.268
 6015TIP3    H218010   3.854   3.192   5.382
 6016TIP3   OH218011   0.540   3.297   0.105
 6016TIP3    H118012   0.586   3.362   0.159
 6016TIP3    H218013   0.492   3.349   0.040
 6017TIP3   OH218014   4.056   5.385   4.268
 6017TIP3    H118015   3.972   5.370   4.226
 6017TIP3    H218016   4.119   5.335   4.216
 6018TIP3   OH218017   5.349   2.879   0.121
 6018TIP3    H118018   5.410   2.809   0.099
 6018TIP3    H218019   5.263   2.844   0.101
 6019TIP3   OH218020   7.130   3.131   5.156
 6019TIP3    H118021   7.047   3.129   5.204
 6019TIP3    H218022   7.105   3.151   5.066
 6020TIP3   OH218023   4.357   0.344   0.127
 6020TIP3    H118024   4.384   0.384   0.210
 6020TIP3    H218025   4.262   0.339   0.134
 6021TIP3   OH218026   1.982   6.690   4.194
 6021TIP3    H118027   1.949   6.661   4.109
 6021TIP3    H218028   1.917   6.657   4.257
 6022TIP3   OH218029   4.665   3.176   0.593
 6022TIP3    H118030   4.699   3.107   0.651
 6022TIP3    H218031   4.570   3.172   0.605
 6023TIP3   OH218032   2.599   0.184   1.423
 6023TIP3    H118033   2.554   0.232   1.353
 6023TIP3    H218034   2.675   0.238   1.443
 6024TIP3   OH218035   2.810   0.107   2.119
 6024TIP3    H118036   2.721   0.093   2.151
 6024TIP3    H218037   2.800   0.113   2.024
 6025TIP3   OH218038   0.211   5.352   5.801
 6025TIP3    H118039   0.158   5.276   5.777
 6025TIP3    H218040   0.235   5.337   5.892
 6026TIP3   OH218041   4.224   0.671   5.060
 6026TIP3    H118042   4.192   0.580   5.064
 6026TIP3    H218043   4.317   0.662   5.039
 6027TIP3   OH218044   5.582   2.300   3.669
 6027TIP3    H118045   5.568   2.296   3.575
 6027TIP3    H218046   5.495   2.286   3.707
 6028TIP3   OH218047   2.132   3.742   4.907
 6028TIP3    H118048   2.129   3.650   4.932
 6028TIP3    H218049   2.209   3.777   4.952
 6029TIP3   OH218050   0.593   0.620   3.766
 6029TIP3    H118051   0.586   0.545   3.706
 6029TIP3    H218052   0.509   0.621   3.812
 6030TIP3   OH218053   4.048   1.321   0.750
 6030TIP3    H118054   4.109   1.376   0.800
 6030TIP3    H218055   4.050   1.358   0.662
 6031TIP3   OH218056   4.463   2.292   4.558
 6031TIP3    H118057   4.509   2.298   4.642
 6031TIP3    H218058   4.377   2.256   4.580
 6032TIP3   OH218059   1.247   5.948   5.167
 6032TIP3    H118060   1.230   6.015   5.233
 6032TIP3    H218061   1.287   5.996   5.094
 6033TIP3   OH218062   6.254   4.605   2.785
 6033TIP3    H118063   6.187   4.639   2.844
 6033TIP3    H218064   6.210   4.536   2.735
 6034TIP3   OH218065   5.079   0.971   1.376
 6034TIP3    H118066   5.049   0.971   1.285
 6034TIP3    H218067   5.099   0.880   1.395
 6035TIP3   OH218068   6.759   5.130   1.735
 6035TIP3    H118069   6.706   5.195   1.689
 6035TIP3    H218070   6.802   5.179   1.805
 6036TIP3   OH218071   0.925   4.389   3.724
 6036TIP3    H118072   0.914   4.428   3.637
 6036TIP3    H218073   1.016   4.406   3.748
 6037TIP3   OH218074   4.205   1.087   4.123
 6037TIP3    H118075   4.133   1.076   4.061
 6037TIP3    H218076   4.193   1.017   4.187
 6038TIP3   OH218077   4.541   2.115   0.200
 6038TIP3    H118078   4.559   2.208   0.211
 6038TIP3    H218079   4.456   2.112   0.157
 6039TIP3   OH218080   5.256   1.024   0.595
 6039TIP3    H118081   5.214   1.106   0.567
 6039TIP3    H218082   5.348   1.036   0.574
 6040TIP3   OH218083   1.146   4.363   0.597
 6040TIP3    H118084   1.139   4.458   0.603
 6040TIP3    H218085   1.058   4.331   0.616
 6041TIP3   OH218086   6.582   4.021   3.322
 6041TIP3    H118087   6.627   4.105   3.315
 6041TIP3    H218088   6.489   4.043   3.313
 6042TIP3   OH218089   5.939   4.185   4.560
 6042TIP3    H118090   5.931   4.100   4.603
 6042TIP3    H218091   6.033   4.205   4.564
 6043TIP3   OH218092   7.114   6.724   5.178
 6043TIP3    H118093   7.198   6.715   5.224
 6043TIP3    H218094   7.077   6.806   5.212
 6044TIP3   OH218095   6.118   5.136   5.826
 6044TIP3    H118096   6.134   5.219   5.782
 6044TIP3    H218097   6.171   5.140   5.906
 6045TIP3   OH218098   3.925   5.756   3.330
 6045TIP3    H118099   3.881   5.821   3.384
 6045TIP3    H218100   3.857   5.691   3.311
 6046TIP3   OH218101   6.042   2.434   0.286
 6046TIP3    H118102   6.128   2.421   0.324
 6046TIP3    H218103   6.044   2.383   0.205
 6047TIP3   OH218104   6.769   2.387   4.965
 6047TIP3    H118105   6.848   2.386   4.911
 6047TIP3    H218106   6.776   2.307   5.018
 6048TIP3   OH218107   2.009   3.812   2.530
 6048TIP3    H118108   1.940   3.827   2.465
 6048TIP3    H218109   2.050   3.730   2.503
 6049TIP3   OH218110   2.392   4.600   0.814
 6049TIP3    H118111   2.465   4.647   0.855
 6049TIP3    H218112   2.425   4.511   0.802
 6050TIP3   OH218113   1.193   4.885   0.487
 6050TIP3    H118114   1.205   4.791   0.503
 6050TIP3    H218115   1.280   4.916   0.460
 6051TIP3   OH218116   3.158  -0.085   2.602
 6051TIP3    H118117   3.091  -0.018   2.591
 6051TIP3    H218118   3.206  -0.084   2.519
 6052TIP3   OH218119   1.879   6.023   5.200
 6052TIP3    H118120   1.941   5.957   5.168
 6052TIP3    H218121   1.905   6.037   5.291
 6053TIP3   OH218122   5.663   6.612   2.809
 6053TIP3    H118123   5.636   6.685   2.754
 6053TIP3    H218124   5.659   6.647   2.898
 6054TIP3   OH218125   6.448   1.216   1.453
 6054TIP3    H118126   6.375   1.182   1.504
 6054TIP3    H218127   6.430   1.187   1.364
 6055TIP3   OH218128   4.833   2.847   1.298
 6055TIP3    H118129   4.796   2.761   1.279
 6055TIP3    H218130   4.756   2.905   1.305
 6056TIP3   OH218131   2.224   4.688   3.471
 6056TIP3    H118132   2.278   4.664   3.395
 6056TIP3    H218133   2.135   4.693   3.436
 6057TIP3   OH218134   2.332   2.339   3.446
 6057TIP3    H118135   2.258   2.283   3.469
 6057TIP3    H218136   2.403   2.278   3.428
 6058TIP3   OH218137   6.072   4.691   4.321
 6058TIP3    H118138   6.167   4.678   4.328
 6058TIP3    H218139   6.055   4.689   4.227
 6059TIP3   OH218140   4.269   1.674   3.498
 6059TIP3    H118141   4.342   1.671   3.559
 6059TIP3    H218142   4.234   1.763   3.506
 6060TIP3   OH218143   4.175   1.926   3.538
 6060TIP3    H118144   4.097   1.882   3.505
 6060TIP3    H218145   4.148   1.966   3.620
 6061TIP3   OH218146   4.475   1.655   1.634
 6061TIP3    H118147   4.467   1.665   1.729
 6061TIP3    H218148   4.569   1.662   1.617
 6062TIP3   OH218149   4.253   3.821   4.228
 6062TIP3    H118150   4.284   3.746   4.177
 6062TIP3    H218151   4.283   3.804   4.317
 6063TIP3   OH218152   5.177   5.858   0.277
 6063TIP3    H118153   5.086   5.885   0.285
 6063TIP3    H218154   5.174   5.765   0.254
 6064TIP3   OH218155   1.758   2.738   1.766
 6064TIP3    H118156   1.684   2.706   1.714
 6064TIP3    H218157   1.804   2.658   1.792
 6065TIP3   OH218158   4.444   2.994   1.160
 6065TIP3    H118159   4.499   3.070   1.142
 6065TIP3    H218160   4.437   2.991   1.255
 6066TIP3   OH218161   3.385   2.282   1.681
 6066TIP3    H118162   3.384   2.187   1.687
 6066TIP3    H218163   3.474   2.303   1.652
 6067TIP3   OH218164   6.687   6.306   0.170
 6067TIP3    H118165   6.757   6.372   0.171
 6067TIP3    H218166   6.674   6.283   0.262
 6068TIP3   OH218167   6.444   3.020   5.832
 6068TIP3    H118168   6.456   3.115   5.825
 6068TIP3    H218169   6.486   2.997   5.915
 6069TIP3   OH218170   5.657   4.073   0.780
 6069TIP3    H118171   5.656   4.123   0.698
 6069TIP3    H218172   5.608   4.128   0.841
 6070TIP3   OH218173   0.502   5.717   0.946
 6070TIP3    H118174   0.559   5.741   1.020
 6070TIP3    H218175   0.465   5.799   0.917
 6071TIP3   OH218176   0.105   6.637   1.888
 6071TIP3    H118177   0.062   6.579   1.825
 6071TIP3    H218178   0.038   6.700   1.913
 6072TIP3   OH218179   5.118  -0.005   1.331
 6072TIP3    H118180   5.160  -0.033   1.250
 6072TIP3    H218181   5.027  -0.034   1.322
 6073TIP3   OH218182   2.999   0.399   1.379
 6073TIP3    H118183   3.061   0.328   1.392
 6073TIP3    H218184   2.914   0.361   1.400
 6074TIP3   OH218185   4.009   1.335   1.772
 6074TIP3    H118186   4.100   1.318   1.746
 6074TIP3    H218187   3.981   1.407   1.716
 6075TIP3   OH218188   0.802   5.728   2.675
 6075TIP3    H118189   0.836   5.752   2.760
 6075TIP3    H218190   0.707   5.719   2.688
 6076TIP3   OH218191   3.510   4.222   0.853
 6076TIP3    H118192   3.529   4.194   0.763
 6076TIP3    H218193   3.571   4.172   0.907
 6077TIP3   OH218194   3.372   6.103   3.551
 6077TIP3    H118195   3.357   6.039   3.620
 6077TIP3    H218196   3.291   6.154   3.547
 6078TIP3   OH218197   5.667   5.124   0.624
 6078TIP3    H118198   5.619   5.199   0.660
 6078TIP3    H218199   5.758   5.139   0.650
 6079TIP3   OH218200   1.649   4.418   2.116
 6079TIP3    H118201   1.650   4.333   2.160
 6079TIP3    H218202   1.633   4.398   2.024
 6080TIP3   OH218203   6.477   2.223   2.045
 6080TIP3    H118204   6.510   2.182   2.125
 6080TIP3    H218205   6.555   2.235   1.991
 6081TIP3   OH218206   5.690   6.658   5.820
 6081TIP3    H118207   5.767   6.657   5.876
 6081TIP3    H218208   5.692   6.745   5.779
 6082TIP3   OH218209   4.143   5.603   0.168
 6082TIP3    H118210   4.204   5.548   0.118
 6082TIP3    H218211   4.199   5.659   0.221
 6083TIP3   OH218212   7.243   3.275   5.716
 6083TIP3    H118213   7.242   3.345   5.652
 6083TIP3    H218214   7.189   3.206   5.677
 6084TIP3   OH218215   0.480   2.714   4.559
 6084TIP3    H118216   0.477   2.655   4.633
 6084TIP3    H218217   0.479   2.657   4.482
 6085TIP3   OH218218   3.874   2.598   4.243
 6085TIP3    H118219   3.888   2.504   4.231
 6085TIP3    H218220   3.849   2.606   4.335
 6086TIP3   OH218221   1.905   6.659   3.042
 6086TIP3    H118222   1.815   6.654   3.012
 6086TIP3    H218223   1.948   6.584   3.001
 6087TIP3   OH218224   5.733   6.174   0.259
 6087TIP3    H118225   5.731   6.254   0.311
 6087TIP3    H218226   5.762   6.107   0.321
 6088TIP3   OH218227   5.274   5.685   2.907
 6088TIP3    H118228   5.255   5.604   2.955
 6088TIP3    H218229   5.326   5.737   2.968
 6089TIP3   OH218230   1.570   4.829   4.500
 6089TIP3    H118231   1.537   4.815   4.588
 6089TIP3    H218232   1.663   4.850   4.512
 6090TIP3   OH218233   2.211   5.680   3.452
 6090TIP3    H118234   2.262   5.756   3.482
 6090TIP3    H218235   2.131   5.683   3.506
 6091TIP3   OH218236   6.118   1.922   4.288
 6091TIP3    H118237   6.039   1.967   4.258
 6091TIP3    H218238   6.188   1.959   4.235
 6092TIP3   OH218239   5.430   2.336   1.660
 6092TIP3    H118240   5.495   2.374   1.600
 6092TIP3    H218241   5.467   2.251   1.683
 6093TIP3   OH218242   1.288   3.274   4.769
 6093TIP3    H118243   1.234   3.200   4.797
 6093TIP3    H218244   1.235   3.320   4.704
 6094TIP3   OH218245   2.400   3.774   3.480
 6094TIP3    H118246   2.488   3.752   3.509
 6094TIP3    H218247   2.349   3.780   3.560
 6095TIP3   OH218248   1.882   4.609   5.084
 6095TIP3    H118249   1.827   4.627   5.007
 6095TIP3    H218250   1.947   4.680   5.084
 6096TIP3   OH218251   0.315   1.197   0.239
 6096TIP3    H118252   0.315   1.116   0.290
 6096TIP3    H218253   0.258   1.179   0.164
 6097TIP3   OH218254   7.177   5.770   5.882
 6097TIP3    H118255   7.215   5.821   5.811
 6097TIP3    H218256   7.142   5.692   5.839
 6098TIP3   OH218257   3.519   5.659   4.713
 6098TIP3    H118258   3.434   5.637   4.752
 6098TIP3    H218259   3.534   5.750   4.738
 6099TIP3   OH218260   3.708   2.939   1.814
 6099TIP3    H118261   3.637   2.878   1.832
 6099TIP3    H218262   3.700   2.958   1.721
 6100TIP3   OH218263   2.817   3.420   2.899
 6100TIP3    H118264   2.797   3.513   2.908
 6100TIP3    H218265   2.893   3.417   2.841
 6101TIP3   OH218266   4.873   0.275   3.221
 6101TIP3    H118267   4.913   0.290   3.307
 6101TIP3    H218268   4.880   0.360   3.176
 6102TIP3   OH218269   4.310   1.004   0.580
 6102TIP3    H118270   4.341   0.950   0.507
 6102TIP3    H218271   4.214   1.001   0.573
 6103TIP3   OH218272   4.994   4.783   3.564
 6103TIP3    H118273   5.028   4.769   3.476
 6103TIP3    H218274   4.970   4.875   3.566
 6104TIP3   OH218275   5.914   2.487   1.435
 6104TIP3    H118276   6.004   2.515   1.448
 6104TIP3    H218277   5.900   2.496   1.341
 6105TIP3   OH218278   2.760   2.058   3.990
 6105TIP3    H118279   2.707   2.131   4.022
 6105TIP3    H218280   2.732   1.983   4.043
 6106TIP3   OH218281  -0.013   5.857   2.545
 6106TIP3    H118282   0.040   5.937   2.549
 6106TIP3    H218283  -0.095   5.880   2.589
 6107TIP3   OH218284   5.510   5.539   2.805
 6107TIP3    H118285   5.580   5.513   2.746
 6107TIP3    H218286   5.434   5.551   2.748
 6108TIP3   OH218287   2.703   0.163   0.515
 6108TIP3    H118288   2.608   0.156   0.503
 6108TIP3    H218289   2.739   0.124   0.435
 6109TIP3   OH218290   6.167   4.905   3.336
 6109TIP3    H118291   6.173   4.833   3.274
 6109TIP3    H218292   6.170   4.863   3.422
 6110TIP3   OH218293   4.110   0.344   3.579
 6110TIP3    H118294   4.142   0.366   3.667
 6110TIP3    H218295   4.015   0.357   3.585
 6111TIP3   OH218296   6.093   2.162   5.539
 6111TIP3    H118297   6.020   2.101   5.545
 6111TIP3    H218298   6.075   2.227   5.608
 6112TIP3   OH218299   2.663   5.010   3.867
 6112TIP3    H118300   2.593   4.954   3.834
 6112TIP3    H218301   2.621   5.064   3.934
 6113TIP3   OH218302   3.447   4.920   0.827
 6113TIP3    H118303   3.356   4.926   0.855
 6113TIP3    H218304   3.465   4.826   0.821
 6114TIP3   OH218305   3.352   4.553   4.274
 6114TIP3    H118306   3.437   4.569   4.234
 6114TIP3    H218307   3.289   4.584   4.209
 6115TIP3   OH218308   2.694   5.442   0.947
 6115TIP3    H118309   2.653   5.380   0.887
 6115TIP3    H218310   2.748   5.387   1.005
 6116TIP3   OH218311   4.923   6.233   3.272
 6116TIP3    H118312   4.945   6.254   3.181
 6116TIP3    H218313   4.861   6.161   3.265
 6117TIP3   OH218314   0.211   3.511   3.969
 6117TIP3    H118315   0.136   3.480   3.920
 6117TIP3    H218316   0.228   3.599   3.937
 6118TIP3   OH218317   3.448   1.573   5.099
 6118TIP3    H118318   3.361   1.565   5.059
 6118TIP3    H218319   3.487   1.486   5.087
 6119TIP3   OH218320   0.883   4.606   1.000
 6119TIP3    H118321   0.941   4.531   1.014
 6119TIP3    H218322   0.875   4.646   1.087
 6120TIP3   OH218323   2.990   1.455   0.406
 6120TIP3    H118324   2.895   1.467   0.406
 6120TIP3    H218325   3.023   1.524   0.348
 6121TIP3   OH218326   3.885   3.799   3.699
 6121TIP3    H118327   3.940   3.872   3.729
 6121TIP3    H218328   3.919   3.723   3.745
 6122TIP3   OH218329   2.101   0.490   4.213
 6122TIP3    H118330   2.181   0.501   4.265
 6122TIP3    H218331   2.046   0.432   4.265
 6123TIP3   OH218332   4.570   3.436   5.147
 6123TIP3    H118333   4.568   3.521   5.104
 6123TIP3    H218334   4.509   3.382   5.097
 6124TIP3   OH218335   3.287   0.121   4.972
 6124TIP3    H118336   3.379   0.141   4.990
 6124TIP3    H218337   3.281   0.119   4.877
 6125TIP3   OH218338   6.544   3.330   0.372
 6125TIP3    H118339   6.620   3.339   0.430
 6125TIP3    H218340   6.540   3.237   0.352
 6126TIP3   OH218341   5.356   1.912   1.045
 6126TIP3    H118342   5.400   1.973   0.988
 6126TIP3    H218343   5.263   1.920   1.022
 6127TIP3   OH218344   2.460   0.420   5.528
 6127TIP3    H118345   2.523   0.488   5.553
 6127TIP3    H218346   2.412   0.401   5.609
 6128TIP3   OH218347   3.565   1.840   3.899
 6128TIP3    H118348   3.551   1.914   3.958
 6128TIP3    H218349   3.536   1.763   3.948
 6129TIP3   OH218350   3.375   0.949   1.852
 6129TIP3    H118351   3.333   1.013   1.794
 6129TIP3    H218352   3.423   0.891   1.793
 6130TIP3   OH218353   2.860   1.581   5.039
 6130TIP3    H118354   2.863   1.597   5.133
 6130TIP3    H218355   2.767   1.584   5.017
 6131TIP3   OH218356   2.933   0.655   3.375
 6131TIP3    H118357   2.931   0.594   3.449
 6131TIP3    H218358   3.027   0.667   3.357
 6132TIP3   OH218359   0.225   0.404   4.794
 6132TIP3    H118360   0.265   0.486   4.823
 6132TIP3    H218361   0.139   0.429   4.761
 6133TIP3   OH218362   0.703   6.518   0.087
 6133TIP3    H118363   0.789   6.514   0.046
 6133TIP3    H218364   0.720   6.543   0.178
 6134TIP3   OH218365   3.002   0.843   2.108
 6134TIP3    H118366   3.060   0.908   2.070
 6134TIP3    H218367   3.043   0.821   2.192
 6135TIP3   OH218368   2.283   5.663   5.700
 6135TIP3    H118369   2.236   5.745   5.688
 6135TIP3    H218370   2.327   5.673   5.785
 6136TIP3   OH218371   4.636   5.466   4.906
 6136TIP3    H118372   4.678   5.424   4.831
 6136TIP3    H218373   4.637   5.559   4.885
 6137TIP3   OH218374   7.112   5.990   2.842
 6137TIP3    H118375   7.177   5.995   2.912
 6137TIP3    H218376   7.118   6.074   2.797
 6138TIP3   OH218377   6.924   2.284   1.870
 6138TIP3    H118378   6.978   2.260   1.946
 6138TIP3    H218379   6.838   2.248   1.889
 6139TIP3   OH218380   3.549   1.897   4.273
 6139TIP3    H118381   3.556   1.907   4.368
 6139TIP3    H218382   3.610   1.826   4.252
 6140TIP3   OH218383   5.404   1.030   1.383
 6140TIP3    H118384   5.473   1.087   1.417
 6140TIP3    H218385   5.376   0.979   1.458
 6141TIP3   OH218386   6.384   0.896   1.289
 6141TIP3    H118387   6.445   0.964   1.319
 6141TIP3    H218388   6.441   0.823   1.264
 6142TIP3   OH218389   3.206   3.582   2.349
 6142TIP3    H118390   3.261   3.637   2.404
 6142TIP3    H218391   3.254   3.499   2.340
 6143TIP3   OH218392   0.075   3.498   5.864
 6143TIP3    H118393   0.010   3.545   5.811
 6143TIP3    H218394   0.083   3.413   5.822
 6144TIP3   OH218395   1.611   5.818   1.134
 6144TIP3    H118396   1.666   5.890   1.102
 6144TIP3    H218397   1.604   5.758   1.060
 6145TIP3   OH218398   0.826   3.462   1.369
 6145TIP3    H118399   0.733   3.441   1.357
 6145TIP3    H218400   0.832   3.555   1.347
 6146TIP3   OH218401   4.887   2.572   5.624
 6146TIP3    H118402   4.813   2.530   5.580
 6146TIP3    H218403   4.932   2.500   5.669
 6147TIP3   OH218404   1.179   1.570   4.752
 6147TIP3    H118405   1.177   1.665   4.760
 6147TIP3    H218406   1.220   1.540   4.833
 6148TIP3   OH218407   4.465   5.005   3.621
 6148TIP3    H118408   4.539   5.066   3.617
 6148TIP3    H218409   4.435   4.997   3.530
 6149TIP3   OH218410   1.111   1.864   2.740
 6149TIP3    H118411   1.158   1.933   2.787
 6149TIP3    H218412   1.163   1.786   2.753
 6150TIP3   OH218413   3.863   5.180   2.547
 6150TIP3    H118414   3.771   5.159   2.530
 6150TIP3    H218415   3.904   5.096   2.567
 6151TIP3   OH218416   6.397   2.612   0.023
 6151TIP3    H118417   6.385   2.646   0.112
 6151TIP3    H218418   6.492   2.614   0.009
 6152TIP3   OH218419   6.932   3.490   3.514
 6152TIP3    H118420   6.894   3.521   3.433
 6152TIP3    H218421   6.904   3.398   3.520
 6153TIP3   OH218422   1.217   5.556   0.959
 6153TIP3    H118423   1.145   5.555   1.022
 6153TIP3    H218424   1.181   5.600   0.882
 6154TIP3   OH218425   1.662   2.219   1.720
 6154TIP3    H118426   1.730   2.154   1.703
 6154TIP3    H218427   1.710   2.302   1.729
 6155TIP3   OH218428   1.509   6.087   3.946
 6155TIP3    H118429   1.584   6.054   3.897
 6155TIP3    H218430   1.494   6.175   3.911
 6156TIP3   OH218431   2.298   2.365   0.214
 6156TIP3    H118432   2.349   2.396   0.289
 6156TIP3    H218433   2.209   2.392   0.234
 6157TIP3   OH218434   3.667   4.430   2.908
 6157TIP3    H118435   3.639   4.385   2.988
 6157TIP3    H218436   3.609   4.505   2.901
 6158TIP3   OH218437   1.919   3.578   0.235
 6158TIP3    H118438   1.880   3.598   0.150
 6158TIP3    H218439   1.973   3.654   0.255
 6159TIP3   OH218440   1.690   1.547   1.716
 6159TIP3    H118441   1.781   1.529   1.739
 6159TIP3    H218442   1.659   1.609   1.782
 6160TIP3   OH218443   4.471   2.935   0.861
 6160TIP3    H118444   4.408   3.003   0.882
 6160TIP3    H218445   4.457   2.868   0.928
 6161TIP3   OH218446   0.168   6.644   4.077
 6161TIP3    H118447   0.097   6.583   4.060
 6161TIP3    H218448   0.240   6.613   4.021
 6162TIP3   OH218449   2.887   6.394   5.466
 6162TIP3    H118450   2.975   6.361   5.446
 6162TIP3    H218451   2.902   6.475   5.515
 6163TIP3   OH218452   3.255   0.388   0.149
 6163TIP3    H118453   3.331   0.394   0.208
 6163TIP3    H218454   3.293   0.387   0.061
 6164TIP3   OH218455   6.754   1.967   2.297
 6164TIP3    H118456   6.837   1.952   2.342
 6164TIP3    H218457   6.756   2.059   2.273
 6165TIP3   OH218458   2.882   1.142   5.783
 6165TIP3    H118459   2.837   1.059   5.764
 6165TIP3    H218460   2.859   1.199   5.710
 6166TIP3   OH218461   1.569   5.875   0.414
 6166TIP3    H118462   1.580   5.832   0.499
 6166TIP3    H218463   1.544   5.965   0.434
 6167TIP3   OH218464   3.090   3.135   1.611
 6167TIP3    H118465   3.175   3.178   1.598
 6167TIP3    H218466   3.054   3.178   1.689
 6168TIP3   OH218467   2.556   4.975   4.992
 6168TIP3    H118468   2.526   4.886   4.975
 6168TIP3    H218469   2.483   5.030   4.964
 6169TIP3   OH218470   0.919   0.219   4.285
 6169TIP3    H118471   0.862   0.215   4.362
 6169TIP3    H218472   0.955   0.130   4.277
 6170TIP3   OH218473   5.897   4.609   3.628
 6170TIP3    H118474   5.958   4.535   3.633
 6170TIP3    H218475   5.812   4.572   3.652
 6171TIP3   OH218476   5.582   6.771   1.784
 6171TIP3    H118477   5.565   6.681   1.758
 6171TIP3    H218478   5.676   6.782   1.775
 6172TIP3   OH218479   5.756   0.570   1.507
 6172TIP3    H118480   5.722   0.525   1.584
 6172TIP3    H218481   5.847   0.539   1.500
 6173TIP3   OH218482   3.680   5.885   2.178
 6173TIP3    H118483   3.630   5.832   2.115
 6173TIP3    H218484   3.664   5.843   2.262
 6174TIP3   OH218485   6.082   0.956   2.682
 6174TIP3    H118486   6.098   0.863   2.701
 6174TIP3    H218487   6.064   0.958   2.588
 6175TIP3   OH218488   1.750   6.380   1.627
 6175TIP3    H118489   1.729   6.473   1.616
 6175TIP3    H218490   1.668   6.334   1.607
 6176TIP3   OH218491   3.684   2.054   5.529
 6176TIP3    H118492   3.661   2.109   5.603
 6176TIP3    H218493   3.687   2.114   5.454
 6177TIP3   OH218494   5.170   2.188   0.620
 6177TIP3    H118495   5.115   2.189   0.541
 6177TIP3    H218496   5.224   2.109   0.610
 6178TIP3   OH218497   2.964   4.428   5.766
 6178TIP3    H118498   2.948   4.467   5.852
 6178TIP3    H218499   2.923   4.488   5.704
 6179TIP3   OH218500   5.482   0.595   1.855
 6179TIP3    H118501   5.454   0.664   1.796
 6179TIP3    H218502   5.571   0.572   1.826
 6180TIP3   OH218503   6.290   0.268   4.298
 6180TIP3    H118504   6.365   0.247   4.353
 6180TIP3    H218505   6.256   0.350   4.335
 6181TIP3   OH218506   4.431   6.726   3.619
 6181TIP3    H118507   4.342   6.698   3.600
 6181TIP3    H218508   4.468   6.750   3.535
 6182TIP3   OH218509   3.183   6.741   1.853
 6182TIP3    H118510   3.120   6.694   1.908
 6182TIP3    H218511   3.144   6.739   1.765
 6183TIP3   OH218512   7.071   0.426   5.864
 6183TIP3    H118513   7.030   0.354   5.816
 6183TIP3    H218514   7.135   0.461   5.802
 6184TIP3   OH218515   1.860   3.812   4.911
 6184TIP3    H118516   1.838   3.735   4.964
 6184TIP3    H218517   1.955   3.808   4.901
 6185TIP3   OH218518   2.214   1.328   2.623
 6185TIP3    H118519   2.292   1.379   2.603
 6185TIP3    H218520   2.189   1.289   2.540
 6186TIP3   OH218521   1.392   1.572   4.053
 6186TIP3    H118522   1.422   1.625   4.127
 6186TIP3    H218523   1.455   1.591   3.983
 6187TIP3   OH218524   3.091   2.493   3.517
 6187TIP3    H118525   3.155   2.564   3.523
 6187TIP3    H218526   3.124   2.437   3.446
 6188TIP3   OH218527   6.072   3.788   5.279
 6188TIP3    H118528   6.117   3.741   5.349
 6188TIP3    H218529   6.097   3.742   5.199
 6189TIP3   OH218530   2.717   3.540   5.456
 6189TIP3    H118531   2.775   3.563   5.384
 6189TIP3    H218532   2.773   3.497   5.520
 6190TIP3   OH218533   4.048   5.748   5.124
 6190TIP3    H118534   4.099   5.787   5.053
 6190TIP3    H218535   4.111   5.738   5.196
 6191TIP3   OH218536   2.372   2.280   1.542
 6191TIP3    H118537   2.397   2.251   1.454
 6191TIP3    H218538   2.453   2.273   1.593
 6192TIP3   OH218539   0.125   1.416   0.942
 6192TIP3    H118540   0.167   1.343   0.987
 6192TIP3    H218541   0.031   1.399   0.949
 6193TIP3   OH218542   1.396   3.792   2.383
 6193TIP3    H118543   1.362   3.746   2.460
 6193TIP3    H218544   1.318   3.828   2.341
 6194TIP3   OH218545   4.303   2.997   4.544
 6194TIP3    H118546   4.250   3.064   4.501
 6194TIP3    H218547   4.329   2.938   4.474
 6195TIP3   OH218548   2.072   3.620   3.002
 6195TIP3    H118549   2.135   3.679   3.043
 6195TIP3    H218550   2.022   3.584   3.075
 6196TIP3   OH218551   2.981   6.326   1.473
 6196TIP3    H118552   3.022   6.260   1.417
 6196TIP3    H218553   2.962   6.399   1.414
 6197TIP3   OH218554   0.942   1.085   4.872
 6197TIP3    H118555   0.852   1.055   4.858
 6197TIP3    H218556   0.941   1.176   4.842
 6198TIP3   OH218557   5.164   5.127   2.211
 6198TIP3    H118558   5.240   5.083   2.248
 6198TIP3    H218559   5.151   5.085   2.126
 6199TIP3   OH218560   0.025   4.132   1.280
 6199TIP3    H118561   0.071   4.215   1.273
 6199TIP3    H218562  -0.002   4.127   1.371
 6200TIP3   OH218563   0.824   4.968   0.735
 6200TIP3    H118564   0.826   5.054   0.693
 6200TIP3    H218565   0.895   4.920   0.694
 6201TIP3   OH218566   5.582   4.283   1.137
 6201TIP3    H118567   5.563   4.213   1.200
 6201TIP3    H218568   5.542   4.252   1.055
 6202TIP3   OH218569   0.968   4.748   3.064
 6202TIP3    H118570   0.978   4.771   3.156
 6202TIP3    H218571   0.878   4.775   3.042
 6203TIP3   OH218572   4.854   6.003   3.071
 6203TIP3    H118573   4.798   6.079   3.058
 6203TIP3    H218574   4.799   5.928   3.049
 6204TIP3   OH218575   5.918   4.607   2.464
 6204TIP3    H118576   5.998   4.566   2.495
 6204TIP3    H218577   5.947   4.688   2.422
 6205TIP3   OH218578   3.411   6.042   4.219
 6205TIP3    H118579   3.378   5.960   4.183
 6205TIP3    H218580   3.377   6.110   4.161
 6206TIP3   OH218581   4.632   4.954   2.222
 6206TIP3    H118582   4.661   5.006   2.297
 6206TIP3    H218583   4.556   5.001   2.188
 6207TIP3   OH218584   3.642   5.450   2.244
 6207TIP3    H118585   3.623   5.431   2.336
 6207TIP3    H218586   3.696   5.376   2.215
 6208TIP3   OH218587   4.736   4.285   4.393
 6208TIP3    H118588   4.669   4.348   4.365
 6208TIP3    H218589   4.785   4.265   4.313
 6209TIP3   OH218590   0.497   5.261   2.930
 6209TIP3    H118591   0.494   5.283   2.837
 6209TIP3    H218592   0.587   5.230   2.944
 6210TIP3   OH218593   0.788   3.068   3.045
 6210TIP3    H118594   0.878   3.067   3.011
 6210TIP3    H218595   0.747   3.142   3.001
 6211TIP3   OH218596   4.137   6.213   3.297
 6211TIP3    H118597   4.066   6.158   3.331
 6211TIP3    H218598   4.215   6.183   3.343
 6212TIP3   OH218599   5.709   3.340   4.684
 6212TIP3    H118600   5.798   3.311   4.702
 6212TIP3    H218601   5.654   3.274   4.727
 6213TIP3   OH218602   5.539   1.506   3.710
 6213TIP3    H118603   5.454   1.524   3.669
 6213TIP3    H218604   5.603   1.547   3.650
 6214TIP3   OH218605   6.560   5.843   4.733
 6214TIP3    H118606   6.579   5.857   4.640
 6214TIP3    H218607   6.612   5.909   4.779
 6215TIP3   OH218608   0.444   4.981   3.933
 6215TIP3    H118609   0.528   5.010   3.896
 6215TIP3    H218610   0.438   4.888   3.908
 6216TIP3   OH218611   3.186   3.664   4.263
 6216TIP3    H118612   3.116   3.692   4.322
 6216TIP3    H218613   3.143   3.609   4.197
 6217TIP3   OH218614   1.982   5.056   2.914
 6217TIP3    H118615   1.938   5.010   2.842
 6217TIP3    H218616   2.038   4.990   2.954
 6218TIP3   OH218617   1.944   2.157   1.117
 6218TIP3    H118618   2.008   2.226   1.105
 6218TIP3    H218619   1.971   2.088   1.057
 6219TIP3   OH218620   0.168   0.211   1.698
 6219TIP3    H118621   0.152   0.117   1.712
 6219TIP3    H218622   0.137   0.253   1.778
 6220TIP3   OH218623   2.433   4.612   1.216
 6220TIP3    H118624   2.355   4.647   1.258
 6220TIP3    H218625   2.493   4.594   1.288
 6221TIP3   OH218626   2.647   3.267   2.391
 6221TIP3    H118627   2.616   3.177   2.396
 6221TIP3    H218628   2.582   3.318   2.440
 6222TIP3   OH218629   2.149   0.344   0.169
 6222TIP3    H118630   2.166   0.437   0.158
 6222TIP3    H218631   2.231   0.307   0.201
 6223TIP3   OH218632   6.711   2.391   4.638
 6223TIP3    H118633   6.742   2.304   4.662
 6223TIP3    H218634   6.781   2.426   4.582
 6224TIP3   OH218635   4.488   4.743   0.819
 6224TIP3    H118636   4.548   4.720   0.748
 6224TIP3    H218637   4.449   4.659   0.844
 6225TIP3   OH218638   0.655   6.252   4.028
 6225TIP3    H118639   0.677   6.159   4.033
 6225TIP3    H218640   0.659   6.273   3.935
 6226TIP3   OH218641   1.475   1.330   1.743
 6226TIP3    H118642   1.556   1.373   1.716
 6226TIP3    H218643   1.423   1.399   1.784
 6227TIP3   OH218644   0.281   0.467   5.260
 6227TIP3    H118645   0.310   0.536   5.320
 6227TIP3    H218646   0.355   0.454   5.201
 6228TIP3   OH218647   3.309   6.633   5.446
 6228TIP3    H118648   3.310   6.701   5.514
 6228TIP3    H218649   3.264   6.674   5.372
 6229TIP3   OH218650   0.040   0.304   0.893
 6229TIP3    H118651   0.058   0.307   0.987
 6229TIP3    H218652  -0.050   0.335   0.885
 6230TIP3   OH218653   6.237   1.615   4.766
 6230TIP3    H118654   6.205   1.630   4.855
 6230TIP3    H218655   6.293   1.538   4.773
 6231TIP3   OH218656   4.819   4.077   5.275
 6231TIP3    H118657   4.796   4.004   5.332
 6231TIP3    H218658   4.815   4.154   5.333
 6232TIP3   OH218659   1.039   2.057   1.312
 6232TIP3    H118660   1.009   2.147   1.299
 6232TIP3    H218661   0.962   2.003   1.297
 6233TIP3   OH218662   2.536   4.342   4.494
 6233TIP3    H118663   2.441   4.332   4.503
 6233TIP3    H218664   2.573   4.281   4.559
 6234TIP3   OH218665   7.038   3.010   2.589
 6234TIP3    H118666   7.001   3.075   2.649
 6234TIP3    H218667   7.052   3.057   2.508
 6235TIP3   OH218668   6.181   6.239   3.087
 6235TIP3    H118669   6.088   6.234   3.110
 6235TIP3    H218670   6.226   6.242   3.172
 6236TIP3   OH218671   4.679   5.786   3.046
 6236TIP3    H118672   4.612   5.782   2.977
 6236TIP3    H218673   4.753   5.739   3.008
 6237TIP3   OH218674   4.621   0.715   2.629
 6237TIP3    H118675   4.576   0.649   2.681
 6237TIP3    H218676   4.688   0.667   2.580
 6238TIP3   OH218677   3.965   4.654   0.676
 6238TIP3    H118678   3.956   4.749   0.685
 6238TIP3    H218679   4.041   4.641   0.620
 6239TIP3   OH218680   4.525   1.616   1.047
 6239TIP3    H118681   4.505   1.636   1.138
 6239TIP3    H218682   4.441   1.597   1.007
 6240TIP3   OH218683   2.899   4.161   5.700
 6240TIP3    H118684   2.807   4.170   5.725
 6240TIP3    H218685   2.937   4.248   5.716
 6241TIP3   OH218686   2.157   6.333   4.207
 6241TIP3    H118687   2.115   6.288   4.281
 6241TIP3    H218688   2.085   6.378   4.163
 6242TIP3   OH218689   5.185   5.733   2.453
 6242TIP3    H118690   5.178   5.805   2.515
 6242TIP3    H218691   5.248   5.672   2.493
 6243TIP3   OH218692   0.929   2.399   1.886
 6243TIP3    H118693   0.864   2.362   1.827
 6243TIP3    H218694   0.988   2.326   1.906
 6244TIP3   OH218695   4.617   6.526   0.384
 6244TIP3    H118696   4.528   6.561   0.383
 6244TIP3    H218697   4.617   6.457   0.317
 6245TIP3   OH218698   6.729   6.647   2.201
 6245TIP3    H118699   6.791   6.641   2.129
 6245TIP3    H218700   6.780   6.682   2.274
 6246TIP3   OH218701   6.427   2.645   2.883
 6246TIP3    H118702   6.465   2.604   2.961
 6246TIP3    H218703   6.340   2.673   2.910
 6247TIP3   OH218704   1.961   6.429   4.497
 6247TIP3    H118705   2.011   6.350   4.476
 6247TIP3    H218706   1.885   6.397   4.547
 6248TIP3   OH218707   0.985   0.914   5.276
 6248TIP3    H118708   0.922   0.850   5.308
 6248TIP3    H218709   1.033   0.868   5.207
 6249TIP3   OH218710   0.626   0.967   2.153
 6249TIP3    H118711   0.571   0.997   2.224
 6249TIP3    H218712   0.585   0.886   2.122
 6250TIP3   OH218713   5.795   4.472   1.183
 6250TIP3    H118714   5.831   4.423   1.257
 6250TIP3    H218715   5.742   4.409   1.135
 6251TIP3   OH218716   6.866   3.382   1.439
 6251TIP3    H118717   6.830   3.459   1.485
 6251TIP3    H218718   6.943   3.416   1.393
 6252TIP3   OH218719   1.234   3.710   4.248
 6252TIP3    H118720   1.174   3.703   4.174
 6252TIP3    H218721   1.237   3.803   4.268
 6253TIP3   OH218722   3.930   6.499   3.119
 6253TIP3    H118723   3.991   6.497   3.192
 6253TIP3    H218724   3.865   6.565   3.144
 6254TIP3   OH218725   1.527   2.187   2.399
 6254TIP3    H118726   1.600   2.204   2.339
 6254TIP3    H218727   1.448   2.203   2.346
 6255TIP3   OH218728   1.736   2.247   2.232
 6255TIP3    H118729   1.697   2.292   2.157
 6255TIP3    H218730   1.811   2.301   2.256
 6256TIP3   OH218731   4.181   2.964   4.785
 6256TIP3    H118732   4.215   2.942   4.698
 6256TIP3    H218733   4.248   2.933   4.846
 6257TIP3   OH218734   3.221   1.181   3.349
 6257TIP3    H118735   3.192   1.205   3.437
 6257TIP3    H218736   3.262   1.261   3.315
 6258TIP3   OH218737   4.492   2.931   1.422
 6258TIP3    H118738   4.421   2.979   1.466
 6258TIP3    H218739   4.571   2.958   1.469
 6259TIP3   OH218740   1.344   2.610   0.315
 6259TIP3    H118741   1.413   2.648   0.368
 6259TIP3    H218742   1.381   2.602   0.228
 6260TIP3   OH218743   2.458   1.451   5.139
 6260TIP3    H118744   2.517   1.483   5.071
 6260TIP3    H218745   2.501   1.473   5.221
 6261TIP3   OH218746   1.790   4.564   2.931
 6261TIP3    H118747   1.876   4.567   2.973
 6261TIP3    H218748   1.731   4.603   2.995
 6262TIP3   OH218749   0.390   3.566   1.221
 6262TIP3    H118750   0.433   3.574   1.136
 6262TIP3    H218751   0.430   3.634   1.275
 6263TIP3   OH218752   2.912   6.007   2.800
 6263TIP3    H118753   2.988   5.977   2.749
 6263TIP3    H218754   2.838   5.960   2.762
 6264TIP3   OH218755   4.448   5.035   4.437
 6264TIP3    H118756   4.429   5.117   4.483
 6264TIP3    H218757   4.449   5.060   4.344
 6265TIP3   OH218758   3.126   4.387   2.209
 6265TIP3    H118759   3.151   4.472   2.174
 6265TIP3    H218760   3.183   4.325   2.163
 6266TIP3   OH218761   1.723   6.289   4.634
 6266TIP3    H118762   1.662   6.313   4.704
 6266TIP3    H218763   1.776   6.220   4.672
 6267TIP3   OH218764   2.477   3.131   5.766
 6267TIP3    H118765   2.520   3.215   5.752
 6267TIP3    H218766   2.472   3.121   5.861
 6268TIP3   OH218767   6.682   6.656   2.751
 6268TIP3    H118768   6.626   6.624   2.681
 6268TIP3    H218769   6.771   6.644   2.719
 6269TIP3   OH218770   1.687   3.998   0.778
 6269TIP3    H118771   1.621   3.993   0.708
 6269TIP3    H218772   1.732   4.081   0.761
 6270TIP3   OH218773   1.041   1.834   0.612
 6270TIP3    H118774   1.018   1.917   0.652
 6270TIP3    H218775   1.015   1.768   0.676
 6271TIP3   OH218776   3.971   6.131   4.617
 6271TIP3    H118777   3.928   6.136   4.532
 6271TIP3    H218778   3.919   6.188   4.674
 6272TIP3   OH218779   1.398   5.565   1.482
 6272TIP3    H118780   1.305   5.548   1.464
 6272TIP3    H218781   1.443   5.535   1.403
 6273TIP3   OH218782   0.440   4.871   0.696
 6273TIP3    H118783   0.427   4.924   0.618
 6273TIP3    H218784   0.475   4.788   0.664
 6274TIP3   OH218785   0.290   3.736   3.852
 6274TIP3    H118786   0.293   3.831   3.845
 6274TIP3    H218787   0.366   3.705   3.803
 6275TIP3   OH218788   0.464   0.858   4.188
 6275TIP3    H118789   0.371   0.835   4.187
 6275TIP3    H218790   0.481   0.896   4.102
 6276TIP3   OH218791   3.164   3.802   1.035
 6276TIP3    H118792   3.236   3.812   1.097
 6276TIP3    H218793   3.173   3.876   0.976
 6277TIP3   OH218794   2.762   1.632   4.010
 6277TIP3    H118795   2.826   1.700   4.029
 6277TIP3    H218796   2.677   1.676   4.013
 6278TIP3   OH218797   2.777   6.463   4.243
 6278TIP3    H118798   2.831   6.432   4.170
 6278TIP3    H218799   2.703   6.403   4.246
 6279TIP3   OH218800   4.627   6.086   1.864
 6279TIP3    H118801   4.719   6.089   1.890
 6279TIP3    H218802   4.578   6.100   1.945
 6280TIP3   OH218803   1.590   4.387   5.059
 6280TIP3    H118804   1.670   4.334   5.068
 6280TIP3    H218805   1.522   4.335   5.102
 6281TIP3   OH218806   3.780   5.169   1.800
 6281TIP3    H118807   3.792   5.083   1.840
 6281TIP3    H218808   3.852   5.178   1.738
 6282TIP3   OH218809   1.396   1.590   1.950
 6282TIP3    H118810   1.437   1.590   2.036
 6282TIP3    H218811   1.319   1.535   1.960
 6283TIP3   OH218812   2.798   4.184   2.934
 6283TIP3    H118813   2.858   4.203   3.005
 6283TIP3    H218814   2.843   4.216   2.855
 6284TIP3   OH218815   4.884   1.697   5.273
 6284TIP3    H118816   4.887   1.602   5.286
 6284TIP3    H218817   4.799   1.712   5.231
 6285TIP3   OH218818   7.136   5.494   5.764
 6285TIP3    H118819   7.121   5.400   5.769
 6285TIP3    H218820   7.132   5.515   5.671
 6286TIP3   OH218821   5.528   2.371   3.100
 6286TIP3    H118822   5.576   2.435   3.152
 6286TIP3    H218823   5.481   2.423   3.035
 6287TIP3   OH218824   6.827   5.510   5.134
 6287TIP3    H118825   6.772   5.447   5.181
 6287TIP3    H218826   6.764   5.573   5.096
 6288TIP3   OH218827   0.934   0.563   0.881
 6288TIP3    H118828   0.883   0.616   0.820
 6288TIP3    H218829   0.918   0.473   0.853
 6289TIP3   OH218830   0.970   4.358   2.557
 6289TIP3    H118831   1.046   4.325   2.510
 6289TIP3    H218832   1.006   4.391   2.640
 6290TIP3   OH218833   2.130   5.215   4.794
 6290TIP3    H118834   2.094   5.232   4.881
 6290TIP3    H218835   2.214   5.172   4.810
 6291TIP3   OH218836   0.102   2.925   5.295
 6291TIP3    H118837   0.011   2.897   5.301
 6291TIP3    H218838   0.143   2.860   5.237
 6292TIP3   OH218839   4.128   4.120   0.576
 6292TIP3    H118840   4.071   4.081   0.642
 6292TIP3    H218841   4.120   4.061   0.501
 6293TIP3   OH218842   4.174   4.266   3.375
 6293TIP3    H118843   4.198   4.340   3.321
 6293TIP3    H218844   4.170   4.192   3.315
 6294TIP3   OH218845   2.967   0.486   2.262
 6294TIP3    H118846   3.025   0.512   2.333
 6294TIP3    H218847   2.984   0.550   2.193
 6295TIP3   OH218848   3.150   3.849   0.630
 6295TIP3    H118849   3.075   3.892   0.588
 6295TIP3    H218850   3.214   3.838   0.559
 6296TIP3   OH218851   5.657   1.394   5.237
 6296TIP3    H118852   5.644   1.306   5.200
 6296TIP3    H218853   5.630   1.385   5.328
 6297TIP3   OH218854   6.568   0.679   3.711
 6297TIP3    H118855   6.586   0.681   3.804
 6297TIP3    H218856   6.496   0.742   3.699
 6298TIP3   OH218857   7.101   4.008   3.079
 6298TIP3    H118858   7.126   4.091   3.120
 6298TIP3    H218859   7.147   4.007   2.996
 6299TIP3   OH218860   5.120   2.734   1.969
 6299TIP3    H118861   5.164   2.760   2.050
 6299TIP3    H218862   5.057   2.803   1.953
 6300TIP3   OH218863   5.099   2.993   5.222
 6300TIP3    H118864   5.096   3.087   5.203
 6300TIP3    H218865   5.043   2.983   5.299
 6301TIP3   OH218866   6.722   4.698   1.567
 6301TIP3    H118867   6.721   4.754   1.489
 6301TIP3    H218868   6.656   4.736   1.625
 6302TIP3   OH218869   2.920   6.074   3.918
 6302TIP3    H118870   3.003   6.117   3.940
 6302TIP3    H218871   2.944   5.982   3.905
 6303TIP3   OH218872   3.739   1.151   2.287
 6303TIP3    H118873   3.762   1.224   2.230
 6303TIP3    H218874   3.788   1.076   2.252
 6304TIP3   OH218875   1.632   3.738   2.992
 6304TIP3    H118876   1.645   3.645   3.009
 6304TIP3    H218877   1.704   3.762   2.933
 6305TIP3   OH218878   6.495   1.172   0.112
 6305TIP3    H118879   6.536   1.233   0.173
 6305TIP3    H218880   6.521   1.204   0.025
 6306TIP3   OH218881   0.806   6.678   2.342
 6306TIP3    H118882   0.777   6.593   2.376
 6306TIP3    H218883   0.896   6.663   2.313
 6307TIP3   OH218884   3.234   6.580   3.636
 6307TIP3    H118885   3.155   6.581   3.690
 6307TIP3    H218886   3.304   6.556   3.697
 6308TIP3   OH218887   3.852   4.754   3.886
 6308TIP3    H118888   3.780   4.816   3.873
 6308TIP3    H218889   3.815   4.669   3.862
 6309TIP3   OH218890   3.742   5.298   4.963
 6309TIP3    H118891   3.735   5.227   5.027
 6309TIP3    H218892   3.785   5.369   5.011
 6310TIP3   OH218893   1.117   2.512   5.097
 6310TIP3    H118894   1.027   2.485   5.117
 6310TIP3    H218895   1.107   2.578   5.029
 6311TIP3   OH218896   4.969   4.599   3.760
 6311TIP3    H118897   4.875   4.601   3.774
 6311TIP3    H218898   4.981   4.624   3.669
 6312TIP3   OH218899   4.703   2.659   3.068
 6312TIP3    H118900   4.792   2.648   3.033
 6312TIP3    H218901   4.710   2.634   3.160
 6313TIP3   OH218902   3.158   4.830   4.839
 6313TIP3    H118903   3.246   4.820   4.874
 6313TIP3    H218904   3.149   4.925   4.824
 6314TIP3   OH218905   0.930   3.212   1.276
 6314TIP3    H118906   0.998   3.212   1.208
 6314TIP3    H218907   0.903   3.304   1.282
 6315TIP3   OH218908   6.472   4.258   1.150
 6315TIP3    H118909   6.511   4.340   1.179
 6315TIP3    H218910   6.488   4.256   1.055
 6316TIP3   OH218911   2.289   4.759   5.582
 6316TIP3    H118912   2.358   4.724   5.525
 6316TIP3    H218913   2.228   4.802   5.523
 6317TIP3   OH218914   7.011   3.856   2.135
 6317TIP3    H118915   6.921   3.860   2.166
 6317TIP3    H218916   7.043   3.771   2.165
 6318TIP3   OH218917   4.719   5.279   4.721
 6318TIP3    H118918   4.686   5.197   4.759
 6318TIP3    H218919   4.774   5.251   4.648
 6319TIP3   OH218920   0.538   6.103   3.283
 6319TIP3    H118921   0.474   6.131   3.218
 6319TIP3    H218922   0.604   6.172   3.283
 6320TIP3   OH218923   4.879   3.692   0.855
 6320TIP3    H118924   4.967   3.659   0.839
 6320TIP3    H218925   4.838   3.626   0.911
 6321TIP3   OH218926   5.771   2.643   3.038
 6321TIP3    H118927   5.799   2.552   3.047
 6321TIP3    H218928   5.687   2.646   3.084
 6322TIP3   OH218929   1.707   1.394   3.511
 6322TIP3    H118930   1.768   1.464   3.538
 6322TIP3    H218931   1.764   1.323   3.482
 6323TIP3   OH218932   5.357   6.624   1.455
 6323TIP3    H118933   5.434   6.585   1.413
 6323TIP3    H218934   5.350   6.712   1.417
 6324TIP3   OH218935   3.978   2.001   2.728
 6324TIP3    H118936   3.908   2.064   2.713
 6324TIP3    H218937   4.056   2.043   2.693
 6325TIP3   OH218938   4.176   5.852   1.675
 6325TIP3    H118939   4.256   5.856   1.623
 6325TIP3    H218940   4.169   5.939   1.714
 6326TIP3   OH218941   2.608   5.924   1.046
 6326TIP3    H118942   2.607   5.829   1.059
 6326TIP3    H218943   2.627   5.960   1.132
 6327TIP3   OH218944   7.093   4.997   3.663
 6327TIP3    H118945   7.106   4.912   3.621
 6327TIP3    H218946   7.179   5.039   3.659
 6328TIP3   OH218947   6.093   3.368   1.664
 6328TIP3    H118948   6.108   3.452   1.620
 6328TIP3    H218949   6.163   3.311   1.632
 6329TIP3   OH218950   6.971   4.433   0.864
 6329TIP3    H118951   7.057   4.390   0.866
 6329TIP3    H218952   6.984   4.515   0.911
 6330TIP3   OH218953   3.892   1.516   3.659
 6330TIP3    H118954   3.903   1.524   3.565
 6330TIP3    H218955   3.856   1.428   3.672
 6331TIP3   OH218956   1.393   3.032   1.957
 6331TIP3    H118957   1.459   3.063   1.896
 6331TIP3    H218958   1.310   3.058   1.917
 6332TIP3   OH218959   1.240   0.992   0.129
 6332TIP3    H118960   1.257   1.083   0.104
 6332TIP3    H218961   1.144   0.984   0.126
 6333TIP3   OH218962   1.526   5.703   0.891
 6333TIP3    H118963   1.495   5.733   0.806
 6333TIP3    H218964   1.477   5.622   0.907
 6334TIP3   OH218965   3.643   4.781   1.005
 6334TIP3    H118966   3.644   4.761   1.098
 6334TIP3    H218967   3.652   4.697   0.961
 6335TIP3   OH218968   0.301   2.453   0.228
 6335TIP3    H118969   0.360   2.474   0.300
 6335TIP3    H218970   0.331   2.508   0.155
 6336TIP3   OH218971   3.970   4.486   4.725
 6336TIP3    H118972   3.918   4.410   4.697
 6336TIP3    H218973   4.056   4.450   4.746
 6337TIP3   OH218974   2.476   5.916   1.503
 6337TIP3    H118975   2.514   5.976   1.566
 6337TIP3    H218976   2.550   5.868   1.467
 6338TIP3   OH218977   3.218   6.035   2.507
 6338TIP3    H118978   3.147   6.043   2.443
 6338TIP3    H218979   3.252   6.124   2.516
 6339TIP3   OH218980   5.790   3.761   1.122
 6339TIP3    H118981   5.876   3.756   1.081
 6339TIP3    H218982   5.728   3.740   1.052
 6340TIP3   OH218983   4.198   0.884   0.291
 6340TIP3    H118984   4.180   0.837   0.209
 6340TIP3    H218985   4.293   0.895   0.292
 6341TIP3   OH218986   1.721   2.590   4.727
 6341TIP3    H118987   1.650   2.608   4.666
 6341TIP3    H218988   1.731   2.495   4.725
 6342TIP3   OH218989   5.185   5.075   2.919
 6342TIP3    H118990   5.093   5.093   2.899
 6342TIP3    H218991   5.202   5.125   2.999
 6343TIP3   OH218992   0.237   5.143   2.061
 6343TIP3    H118993   0.312   5.157   2.118
 6343TIP3    H218994   0.184   5.222   2.070
 6344TIP3   OH218995   5.649   0.177   3.918
 6344TIP3    H118996   5.592   0.222   3.981
 6344TIP3    H218997   5.591   0.150   3.847
 6345TIP3   OH218998   4.126   0.052   2.516
 6345TIP3    H118999   4.097  -0.027   2.562
 6345TIP3    H219000   4.121   0.028   2.423
 6346TIP3   OH219001   5.734   1.619   3.554
 6346TIP3    H119002   5.740   1.597   3.461
 6346TIP3    H219003   5.679   1.698   3.556
 6347TIP3   OH219004   1.412   0.820   4.206
 6347TIP3    H119005   1.399   0.743   4.151
 6347TIP3    H219006   1.327   0.863   4.209
 6348TIP3   OH219007   1.190   3.676   3.560
 6348TIP3    H119008   1.230   3.645   3.479
 6348TIP3    H219009   1.161   3.765   3.540
 6349TIP3   OH219010   1.645   0.783   1.448
 6349TIP3    H119011   1.731   0.821   1.469
 6349TIP3    H219012   1.629   0.721   1.519
 6350TIP3   OH219013   6.235   2.181   2.885
 6350TIP3    H119014   6.149   2.150   2.913
 6350TIP3    H219015   6.297   2.126   2.932
 6351TIP3   OH219016   1.229   5.493   2.597
 6351TIP3    H119017   1.184   5.413   2.624
 6351TIP3    H219018   1.241   5.483   2.503
 6352TIP3   OH219019   1.377   1.686   1.352
 6352TIP3    H119020   1.430   1.763   1.370
 6352TIP3    H219021   1.437   1.612   1.366
 6353TIP3   OH219022   3.583   6.855   2.575
 6353TIP3    H119023   3.601   6.772   2.619
 6353TIP3    H219024   3.493   6.848   2.546
 6354TIP3   OH219025   4.254   5.897   0.934
 6354TIP3    H119026   4.314   5.824   0.921
 6354TIP3    H219027   4.168   5.855   0.942
 6355TIP3   OH219028   4.750   6.441   3.091
 6355TIP3    H119029   4.773   6.442   3.184
 6355TIP3    H219030   4.779   6.527   3.059
 6356TIP3   OH219031   4.212   1.927   3.211
 6356TIP3    H119032   4.171   1.922   3.297
 6356TIP3    H219033   4.147   1.969   3.155
 6357TIP3   OH219034   4.705   2.163   4.086
 6357TIP3    H119035   4.745   2.239   4.129
 6357TIP3    H219036   4.676   2.107   4.158
 6358TIP3   OH219037   2.147   4.236   2.796
 6358TIP3    H119038   2.107   4.243   2.882
 6358TIP3    H219039   2.229   4.286   2.803
 6359TIP3   OH219040   5.039   5.482   3.461
 6359TIP3    H119041   5.066   5.464   3.371
 6359TIP3    H219042   5.088   5.419   3.513
 6360TIP3   OH219043   7.059   2.315   3.524
 6360TIP3    H119044   7.098   2.294   3.439
 6360TIP3    H219045   6.974   2.354   3.501
 6361TIP3   OH219046   7.135   5.031   0.295
 6361TIP3    H119047   7.044   5.061   0.305
 6361TIP3    H219048   7.127   4.937   0.282
 6362TIP3   OH219049   1.212   1.260   3.214
 6362TIP3    H119050   1.136   1.207   3.238
 6362TIP3    H219051   1.287   1.211   3.249
 6363TIP3   OH219052   5.541   3.230   4.297
 6363TIP3    H119053   5.490   3.227   4.216
 6363TIP3    H219054   5.476   3.231   4.367
 6364TIP3   OH219055   3.620   6.682   3.963
 6364TIP3    H119056   3.633   6.769   3.925
 6364TIP3    H219057   3.695   6.631   3.932
 6365TIP3   OH219058   3.964   4.865   1.029
 6365TIP3    H119059   3.969   4.935   0.964
 6365TIP3    H219060   3.933   4.789   0.981
 6366TIP3   OH219061   0.690   0.094   1.136
 6366TIP3    H119062   0.674   0.185   1.160
 6366TIP3    H219063   0.620   0.072   1.075
 6367TIP3   OH219064   4.811   4.923   2.001
 6367TIP3    H119065   4.767   4.939   2.085
 6367TIP3    H219066   4.819   4.827   1.996
 6368TIP3   OH219067   1.432   1.921   3.919
 6368TIP3    H119068   1.471   1.841   3.953
 6368TIP3    H219069   1.487   1.945   3.844
 6369TIP3   OH219070   0.395   6.247   4.775
 6369TIP3    H119071   0.333   6.184   4.738
 6369TIP3    H219072   0.353   6.332   4.760
 6370TIP3   OH219073   1.837   4.932   2.711
 6370TIP3    H119074   1.750   4.928   2.751
 6370TIP3    H219075   1.848   4.846   2.669
 6371TIP3   OH219076   0.061   2.892   0.782
 6371TIP3    H119077   0.028   2.974   0.818
 6371TIP3    H219078  -0.015   2.835   0.779
 6372TIP3   OH219079   6.354   4.925   5.380
 6372TIP3    H119080   6.370   5.015   5.409
 6372TIP3    H219081   6.264   4.926   5.347
 6373TIP3   OH219082   0.392   0.904   3.003
 6373TIP3    H119083   0.298   0.918   3.005
 6373TIP3    H219084   0.426   0.974   2.948
 6374TIP3   OH219085   1.315   6.756   5.473
 6374TIP3    H119086   1.227   6.759   5.510
 6374TIP3    H219087   1.372   6.786   5.543
 6375TIP3   OH219088   0.897   6.725   1.900
 6375TIP3    H119089   0.950   6.786   1.952
 6375TIP3    H219090   0.808   6.737   1.934
 6376TIP3   OH219091   4.885   4.772   2.659
 6376TIP3    H119092   4.836   4.833   2.714
 6376TIP3    H219093   4.824   4.701   2.641
 6377TIP3   OH219094   1.746   3.524   3.993
 6377TIP3    H119095   1.706   3.610   4.004
 6377TIP3    H219096   1.726   3.499   3.903
 6378TIP3   OH219097   3.878   1.234   1.274
 6378TIP3    H119098   3.947   1.301   1.272
 6378TIP3    H219099   3.832   1.245   1.190
 6379TIP3   OH219100   2.750   2.149   4.768
 6379TIP3    H119101   2.704   2.068   4.748
 6379TIP3    H219102   2.777   2.140   4.860
 6380TIP3   OH219103   1.067   2.617   5.629
 6380TIP3    H119104   1.149   2.583   5.592
 6380TIP3    H219105   1.053   2.700   5.583
 6381TIP3   OH219106   0.982   1.281   2.812
 6381TIP3    H119107   0.998   1.248   2.900
 6381TIP3    H219108   1.068   1.281   2.770
 6382TIP3   OH219109   5.650   1.953   0.607
 6382TIP3    H119110   5.676   2.045   0.600
 6382TIP3    H219111   5.647   1.922   0.516
 6383TIP3   OH219112   2.144   4.447   2.121
 6383TIP3    H119113   2.154   4.538   2.148
 6383TIP3    H219114   2.125   4.400   2.202
 6384TIP3   OH219115   4.820  -0.028   0.849
 6384TIP3    H119116   4.758   0.046   0.854
 6384TIP3    H219117   4.905   0.014   0.837
 6385TIP3   OH219118   3.912   0.193   3.354
 6385TIP3    H119119   3.862   0.210   3.433
 6385TIP3    H219120   3.853   0.215   3.282
 6386TIP3   OH219121   4.255   1.755   5.394
 6386TIP3    H119122   4.196   1.787   5.326
 6386TIP3    H219123   4.284   1.834   5.439
 6387TIP3   OH219124   6.499   2.897   3.550
 6387TIP3    H119125   6.497   2.964   3.482
 6387TIP3    H219126   6.432   2.923   3.612
 6388TIP3   OH219127   1.042   2.681   4.893
 6388TIP3    H119128   1.039   2.707   4.801
 6388TIP3    H219129   0.957   2.640   4.910
 6389TIP3   OH219130   0.718   4.150   5.835
 6389TIP3    H119131   0.761   4.114   5.758
 6389TIP3    H219132   0.771   4.225   5.859
 6390TIP3   OH219133   0.790   5.789   5.392
 6390TIP3    H119134   0.853   5.782   5.463
 6390TIP3    H219135   0.714   5.832   5.431
 6391TIP3   OH219136   7.195   4.076   4.846
 6391TIP3    H119137   7.241   4.063   4.929
 6391TIP3    H219138   7.229   4.007   4.789
 6392TIP3   OH219139   2.384   2.868   4.550
 6392TIP3    H119140   2.336   2.949   4.563
 6392TIP3    H219141   2.418   2.874   4.461
 6393TIP3   OH219142   6.950   6.563   2.680
 6393TIP3    H119143   6.907   6.492   2.727
 6393TIP3    H219144   7.034   6.573   2.724
 6394TIP3   OH219145   3.867   0.098   3.776
 6394TIP3    H119146   3.938   0.051   3.732
 6394TIP3    H219147   3.837   0.162   3.711
 6395TIP3   OH219148   3.977   3.073   0.458
 6395TIP3    H119149   3.919   3.110   0.525
 6395TIP3    H219150   4.062   3.066   0.501
 6396TIP3   OH219151   0.227   2.430   5.719
 6396TIP3    H119152   0.137   2.461   5.731
 6396TIP3    H219153   0.219   2.336   5.704
 6397TIP3   OH219154   4.372   5.648   0.862
 6397TIP3    H119155   4.428   5.574   0.884
 6397TIP3    H219156   4.314   5.615   0.793
 6398TIP3   OH219157   5.463   4.523   1.019
 6398TIP3    H119158   5.401   4.509   1.091
 6398TIP3    H219159   5.535   4.462   1.037
 6399TIP3   OH219160   5.372   2.971   5.231
 6399TIP3    H119161   5.276   2.964   5.228
 6399TIP3    H219162   5.393   3.044   5.174
 6400TIP3   OH219163   1.815   2.662   1.483
 6400TIP3    H119164   1.773   2.744   1.458
 6400TIP3    H219165   1.880   2.687   1.549
 6401TIP3   OH219166   3.551   4.297   5.721
 6401TIP3    H119167   3.592   4.218   5.756
 6401TIP3    H219168   3.577   4.366   5.782
 6402TIP3   OH219169   0.091   6.460   0.957
 6402TIP3    H119170   0.072   6.376   0.999
 6402TIP3    H219171   0.018   6.475   0.898
 6403TIP3   OH219172   6.544   5.260   2.046
 6403TIP3    H119173   6.455   5.234   2.020
 6403TIP3    H219174   6.538   5.275   2.141
 6404TIP3   OH219175   0.386   1.156   1.383
 6404TIP3    H119176   0.392   1.093   1.454
 6404TIP3    H219177   0.294   1.157   1.359
 6405TIP3   OH219178   2.138   2.504   0.735
 6405TIP3    H119179   2.110   2.592   0.759
 6405TIP3    H219180   2.084   2.482   0.659
 6406TIP3   OH219181   7.126   3.434   4.216
 6406TIP3    H119182   7.197   3.444   4.279
 6406TIP3    H219183   7.168   3.445   4.131
 6407TIP3   OH219184   5.973   4.306   3.012
 6407TIP3    H119185   5.908   4.328   2.945
 6407TIP3    H219186   6.057   4.321   2.969
 6408TIP3   OH219187   1.410   5.436   5.389
 6408TIP3    H119188   1.409   5.519   5.436
 6408TIP3    H219189   1.501   5.427   5.359
 6409TIP3   OH219190   5.801   4.798   4.139
 6409TIP3    H119191   5.888   4.799   4.100
 6409TIP3    H219192   5.794   4.882   4.184
 6410TIP3   OH219193   6.659   1.233   2.452
 6410TIP3    H119194   6.651   1.219   2.358
 6410TIP3    H219195   6.725   1.169   2.480
 6411TIP3   OH219196   4.310   5.177   5.595
 6411TIP3    H119197   4.302   5.082   5.585
 6411TIP3    H219198   4.299   5.193   5.689
 6412TIP3   OH219199   3.065   2.166   1.793
 6412TIP3    H119200   2.975   2.167   1.827
 6412TIP3    H219201   3.108   2.238   1.838
 6413TIP3   OH219202   1.180   1.617   4.401
 6413TIP3    H119203   1.166   1.525   4.424
 6413TIP3    H219204   1.270   1.621   4.370
 6414TIP3   OH219205   2.065   4.864   3.967
 6414TIP3    H119206   2.053   4.953   3.999
 6414TIP3    H219207   2.141   4.870   3.909
 6415TIP3   OH219208   5.515   1.245   0.726
 6415TIP3    H119209   5.580   1.313   0.737
 6415TIP3    H219210   5.560   1.164   0.753
 6416TIP3   OH219211   6.315   2.560   0.314
 6416TIP3    H119212   6.305   2.469   0.344
 6416TIP3    H219213   6.263   2.612   0.375
 6417TIP3   OH219214   2.777   5.223   3.241
 6417TIP3    H119215   2.717   5.287   3.202
 6417TIP3    H219216   2.806   5.265   3.322
 6418TIP3   OH219217   5.428   1.795   1.511
 6418TIP3    H119218   5.434   1.780   1.417
 6418TIP3    H219219   5.334   1.800   1.529
 6419TIP3   OH219220   0.427   2.975   1.413
 6419TIP3    H119221   0.459   3.012   1.331
 6419TIP3    H219222   0.359   2.913   1.387
 6420TIP3   OH219223   0.251   0.107   5.391
 6420TIP3    H119224   0.309   0.178   5.364
 6420TIP3    H219225   0.285   0.030   5.346
 6421TIP3   OH219226   3.624   1.083   0.649
 6421TIP3    H119227   3.575   1.163   0.670
 6421TIP3    H219228   3.617   1.029   0.727
 6422TIP3   OH219229   4.851   2.634   0.273
 6422TIP3    H119230   4.942   2.603   0.272
 6422TIP3    H219231   4.848   2.701   0.205
 6423TIP3   OH219232   7.062   2.512   5.314
 6423TIP3    H119233   7.081   2.558   5.233
 6423TIP3    H219234   7.141   2.460   5.332
 6424TIP3   OH219235   5.880   3.603   1.389
 6424TIP3    H119236   5.874   3.534   1.323
 6424TIP3    H219237   5.913   3.679   1.342
 6425TIP3   OH219238   5.375   2.117   3.184
 6425TIP3    H119239   5.388   2.123   3.279
 6425TIP3    H219240   5.412   2.198   3.150
 6426TIP3   OH219241   2.299   2.903   5.809
 6426TIP3    H119242   2.284   2.860   5.725
 6426TIP3    H219243   2.313   2.995   5.787
 6427TIP3   OH219244   6.482   5.083   4.312
 6427TIP3    H119245   6.497   5.161   4.258
 6427TIP3    H219246   6.409   5.107   4.369
 6428TIP3   OH219247   3.673   5.860   3.465
 6428TIP3    H119248   3.677   5.791   3.531
 6428TIP3    H219249   3.579   5.875   3.452
 6429TIP3   OH219250   2.812   0.337   1.578
 6429TIP3    H119251   2.769   0.421   1.590
 6429TIP3    H219252   2.855   0.319   1.662
 6430TIP3   OH219253   2.402   6.403   3.737
 6430TIP3    H119254   2.333   6.469   3.728
 6430TIP3    H219255   2.419   6.398   3.831
 6431TIP3   OH219256   5.555   2.920   5.620
 6431TIP3    H119257   5.528   2.877   5.701
 6431TIP3    H219258   5.577   3.010   5.647
 6432TIP3   OH219259   4.649   5.410   1.282
 6432TIP3    H119260   4.561   5.374   1.286
 6432TIP3    H219261   4.704   5.346   1.327
 6433TIP3   OH219262   3.142   4.652   5.293
 6433TIP3    H119263   3.169   4.743   5.303
 6433TIP3    H219264   3.056   4.657   5.249
 6434TIP3   OH219265   5.205   5.211   1.524
 6434TIP3    H119266   5.280   5.165   1.485
 6434TIP3    H219267   5.165   5.258   1.450
 6435TIP3   OH219268   5.970   2.599   5.243
 6435TIP3    H119269   5.995   2.529   5.183
 6435TIP3    H219270   6.052   2.646   5.260
 6436TIP3   OH219271   6.362   3.854   3.123
 6436TIP3    H119272   6.340   3.774   3.076
 6436TIP3    H219273   6.441   3.831   3.173
 6437TIP3   OH219274   4.637   2.030   3.162
 6437TIP3    H119275   4.625   1.948   3.209
 6437TIP3    H219276   4.549   2.068   3.157
 6438TIP3   OH219277   2.358   3.612   1.906
 6438TIP3    H119278   2.401   3.692   1.935
 6438TIP3    H219279   2.265   3.628   1.919
 6439TIP3   OH219280   5.139   2.450   0.627
 6439TIP3    H119281   5.144   2.481   0.536
 6439TIP3    H219282   5.197   2.373   0.629
 6440TIP3   OH219283   2.179   0.737   2.584
 6440TIP3    H119284   2.189   0.702   2.495
 6440TIP3    H219285   2.121   0.676   2.628
 6441TIP3   OH219286   6.690   3.767   4.392
 6441TIP3    H119287   6.648   3.805   4.314
 6441TIP3    H219288   6.753   3.833   4.420
 6442TIP3   OH219289   0.640   3.913   3.948
 6442TIP3    H119290   0.701   3.885   3.880
 6442TIP3    H219291   0.657   3.854   4.022
 6443TIP3   OH219292   7.241   3.925   1.978
 6443TIP3    H119293   7.190   3.900   2.055
 6443TIP3    H219294   7.176   3.958   1.916
 6444TIP3   OH219295   6.079   0.455   0.935
 6444TIP3    H119296   6.103   0.528   0.993
 6444TIP3    H219297   6.141   0.386   0.957
 6445TIP3   OH219298   5.254   3.753   3.380
 6445TIP3    H119299   5.294   3.671   3.408
 6445TIP3    H219300   5.328   3.807   3.354
 6446TIP3   OH219301   7.056   3.999   3.419
 6446TIP3    H119302   7.091   3.910   3.423
 6446TIP3    H219303   7.120   4.047   3.366
 6447TIP3   OH219304   4.034   4.118   1.918
 6447TIP3    H119305   4.047   4.051   1.985
 6447TIP3    H219306   3.961   4.086   1.866
 6448TIP3   OH219307   5.432   4.249   0.908
 6448TIP3    H119308   5.342   4.228   0.885
 6448TIP3    H219309   5.445   4.337   0.872
 6449TIP3   OH219310   1.232   4.809   0.132
 6449TIP3    H119311   1.229   4.859   0.214
 6449TIP3    H219312   1.189   4.726   0.154
 6450TIP3   OH219313   2.550   1.242   5.715
 6450TIP3    H119314   2.490   1.174   5.685
 6450TIP3    H219315   2.500   1.291   5.781
 6451TIP3   OH219316   6.661   5.756   2.300
 6451TIP3    H119317   6.742   5.714   2.270
 6451TIP3    H219318   6.686   5.801   2.380
 6452TIP3   OH219319   4.409   5.438   5.263
 6452TIP3    H119320   4.486   5.496   5.255
 6452TIP3    H219321   4.421   5.373   5.193
 6453TIP3   OH219322   6.109   0.463   3.781
 6453TIP3    H119323   6.171   0.535   3.767
 6453TIP3    H219324   6.098   0.458   3.876
 6454TIP3   OH219325   3.532   3.949   0.411
 6454TIP3    H119326   3.499   3.859   0.408
 6454TIP3    H219327   3.513   3.984   0.324
 6455TIP3   OH219328   6.825   4.926   0.340
 6455TIP3    H119329   6.832   5.011   0.382
 6455TIP3    H219330   6.855   4.864   0.407
 6456TIP3   OH219331   3.988   0.861   3.203
 6456TIP3    H119332   3.994   0.915   3.124
 6456TIP3    H219333   4.019   0.775   3.175
 6457TIP3   OH219334   4.618   2.101   5.494
 6457TIP3    H119335   4.593   2.167   5.429
 6457TIP3    H219336   4.678   2.043   5.447
 6458TIP3   OH219337   3.072   1.093   1.667
 6458TIP3    H119338   2.996   1.131   1.623
 6458TIP3    H219339   3.078   1.138   1.751
 6459TIP3   OH219340   1.328   0.465   3.791
 6459TIP3    H119341   1.398   0.417   3.747
 6459TIP3    H219342   1.247   0.426   3.757
 6460TIP3   OH219343   2.665   5.372   1.570
 6460TIP3    H119344   2.612   5.398   1.645
 6460TIP3    H219345   2.726   5.307   1.606
 6461TIP3   OH219346   6.729   0.772   2.004
 6461TIP3    H119347   6.677   0.712   2.058
 6461TIP3    H219348   6.675   0.788   1.927
 6462TIP3   OH219349   0.977   2.651   2.766
 6462TIP3    H119350   0.972   2.739   2.730
 6462TIP3    H219351   1.026   2.601   2.702
 6463TIP3   OH219352   3.345   1.756   1.292
 6463TIP3    H119353   3.335   1.844   1.328
 6463TIP3    H219354   3.343   1.699   1.369
 6464TIP3   OH219355   0.592   3.762   0.397
 6464TIP3    H119356   0.516   3.733   0.448
 6464TIP3    H219357   0.635   3.681   0.369
 6465TIP3   OH219358   3.392   0.618   2.170
 6465TIP3    H119359   3.372   0.527   2.195
 6465TIP3    H219360   3.458   0.645   2.234
 6466TIP3   OH219361   2.647   2.958   1.388
 6466TIP3    H119362   2.731   3.000   1.408
 6466TIP3    H219363   2.598   3.025   1.340
 6467TIP3   OH219364   3.410   5.581   4.048
 6467TIP3    H119365   3.482   5.562   4.107
 6467TIP3    H219366   3.384   5.496   4.013
 6468TIP3   OH219367   2.469   2.607   4.878
 6468TIP3    H119368   2.523   2.682   4.901
 6468TIP3    H219369   2.524   2.531   4.898
 6469TIP3   OH219370   3.551   6.131   2.141
 6469TIP3    H119371   3.559   6.166   2.229
 6469TIP3    H219372   3.604   6.051   2.141
 6470TIP3   OH219373   0.297   3.078   2.473
 6470TIP3    H119374   0.345   2.997   2.494
 6470TIP3    H219375   0.334   3.106   2.389
 6471TIP3   OH219376   3.935   4.877   0.383
 6471TIP3    H119377   3.871   4.909   0.446
 6471TIP3    H219378   3.883   4.827   0.319
 6472TIP3   OH219379   4.320   2.185   5.783
 6472TIP3    H119380   4.233   2.186   5.742
 6472TIP3    H219381   4.314   2.250   5.853
 6473TIP3   OH219382   6.653   3.895   0.448
 6473TIP3    H119383   6.685   3.977   0.486
 6473TIP3    H219384   6.653   3.911   0.353
 6474TIP3   OH219385   5.847   4.472   1.991
 6474TIP3    H119386   5.762   4.441   2.022
 6474TIP3    H219387   5.911   4.430   2.049
 6475TIP3   OH219388   6.193   3.057   4.375
 6475TIP3    H119389   6.235   3.124   4.321
 6475TIP3    H219390   6.150   2.999   4.311
 6476TIP3   OH219391   6.012   3.553   3.561
 6476TIP3    H119392   6.030   3.645   3.543
 6476TIP3    H219393   5.949   3.527   3.494
 6477TIP3   OH219394   2.017   6.701   4.739
 6477TIP3    H119395   2.034   6.740   4.653
 6477TIP3    H219396   1.931   6.661   4.731
 6478TIP3   OH219397   5.068   0.628   4.405
 6478TIP3    H119398   5.043   0.604   4.494
 6478TIP3    H219399   4.985   0.637   4.358
 6479TIP3   OH219400   6.205   2.271   5.281
 6479TIP3    H119401   6.181   2.270   5.374
 6479TIP3    H219402   6.283   2.326   5.277
 6480TIP3   OH219403   2.422   3.791   4.930
 6480TIP3    H119404   2.485   3.722   4.949
 6480TIP3    H219405   2.419   3.794   4.834
 6481TIP3   OH219406   1.359   1.874   3.607
 6481TIP3    H119407   1.437   1.832   3.644
 6481TIP3    H219408   1.331   1.815   3.538
 6482TIP3   OH219409   2.229   4.959   0.954
 6482TIP3    H119410   2.220   5.032   1.015
 6482TIP3    H219411   2.140   4.945   0.921
 6483TIP3   OH219412   0.788   0.818   4.590
 6483TIP3    H119413   0.772   0.757   4.662
 6483TIP3    H219414   0.757   0.902   4.623
 6484TIP3   OH219415   1.417   3.995   4.858
 6484TIP3    H119416   1.402   3.982   4.952
 6484TIP3    H219417   1.497   4.048   4.854
 6485TIP3   OH219418   4.999   3.603   2.037
 6485TIP3    H119419   5.048   3.659   2.097
 6485TIP3    H219420   4.908   3.628   2.049
 6486TIP3   OH219421   6.972   6.162   3.123
 6486TIP3    H119422   6.937   6.087   3.074
 6486TIP3    H219423   6.895   6.206   3.158
 6487TIP3   OH219424   2.340   2.123   5.683
 6487TIP3    H119425   2.255   2.092   5.715
 6487TIP3    H219426   2.329   2.127   5.588
 6488TIP3   OH219427   6.788   5.304   1.207
 6488TIP3    H119428   6.721   5.366   1.232
 6488TIP3    H219429   6.847   5.299   1.282
 6489TIP3   OH219430   4.790   0.675   2.227
 6489TIP3    H119431   4.774   0.590   2.185
 6489TIP3    H219432   4.885   0.680   2.237
 6490TIP3   OH219433   0.867   1.245   5.967
 6490TIP3    H119434   0.871   1.194   5.886
 6490TIP3    H219435   0.795   1.306   5.954
 6491TIP3   OH219436   1.892   2.503   3.497
 6491TIP3    H119437   1.900   2.471   3.407
 6491TIP3    H219438   1.837   2.581   3.489
 6492TIP3   OH219439   3.977   2.676   3.845
 6492TIP3    H119440   3.942   2.603   3.794
 6492TIP3    H219441   3.992   2.746   3.782
 6493TIP3   OH219442   1.789   4.107   3.139
 6493TIP3    H119443   1.881   4.087   3.123
 6493TIP3    H219444   1.772   4.072   3.227
 6494TIP3   OH219445   0.409   6.651   1.727
 6494TIP3    H119446   0.452   6.629   1.645
 6494TIP3    H219447   0.405   6.568   1.775
 6495TIP3   OH219448   6.770   4.010   5.482
 6495TIP3    H119449   6.760   4.000   5.387
 6495TIP3    H219450   6.854   4.053   5.493
 6496TIP3   OH219451   1.307   3.807   4.602
 6496TIP3    H119452   1.344   3.850   4.679
 6496TIP3    H219453   1.380   3.758   4.564
 6497TIP3   OH219454   6.159   1.666   4.342
 6497TIP3    H119455   6.158   1.756   4.308
 6497TIP3    H219456   6.104   1.617   4.281
 6498TIP3   OH219457   2.591   4.092   3.129
 6498TIP3    H119458   2.615   4.104   3.038
 6498TIP3    H219459   2.651   4.149   3.178
 6499TIP3   OH219460   0.571   4.253   5.462
 6499TIP3    H119461   0.651   4.267   5.511
 6499TIP3    H219462   0.536   4.341   5.447
 6500TIP3   OH219463   0.956   4.945   4.500
 6500TIP3    H119464   1.050   4.936   4.516
 6500TIP3    H219465   0.915   4.926   4.585
 6501TIP3   OH219466   0.082   3.484   4.971
 6501TIP3    H119467   0.088   3.404   4.918
 6501TIP3    H219468   0.012   3.464   5.033
 6502TIP3   OH219469   4.214   0.741   3.837
 6502TIP3    H119470   4.218   0.830   3.872
 6502TIP3    H219471   4.291   0.698   3.872
 6503TIP3   OH219472   6.561   2.347   0.476
 6503TIP3    H119473   6.509   2.320   0.552
 6503TIP3    H219474   6.553   2.442   0.475
 6504TIP3   OH219475   2.254   0.384   1.282
 6504TIP3    H119476   2.177   0.430   1.247
 6504TIP3    H219477   2.328   0.430   1.243
 6505TIP3   OH219478   6.534   6.515   3.224
 6505TIP3    H119479   6.465   6.538   3.287
 6505TIP3    H219480   6.488   6.475   3.151
 6506TIP3   OH219481   0.710   3.539   3.455
 6506TIP3    H119482   0.723   3.469   3.391
 6506TIP3    H219483   0.737   3.618   3.407
 6507TIP3   OH219484   1.305   2.456   5.814
 6507TIP3    H119485   1.307   2.468   5.909
 6507TIP3    H219486   1.395   2.434   5.791
 6508TIP3   OH219487   0.672   5.890   0.083
 6508TIP3    H119488   0.589   5.866   0.124
 6508TIP3    H219489   0.679   5.832   0.008
 6509TIP3   OH219490   5.489   3.912   2.060
 6509TIP3    H119491   5.487   3.819   2.083
 6509TIP3    H219492   5.418   3.951   2.110
 6510TIP3   OH219493   5.870   6.675   4.889
 6510TIP3    H119494   5.824   6.629   4.818
 6510TIP3    H219495   5.938   6.725   4.844
 6511TIP3   OH219496   3.276   1.342   1.614
 6511TIP3    H119497   3.216   1.330   1.688
 6511TIP3    H219498   3.328   1.261   1.612
 6512TIP3   OH219499   2.396   2.901   3.137
 6512TIP3    H119500   2.383   2.987   3.177
 6512TIP3    H219501   2.317   2.886   3.086
 6513TIP3   OH219502   3.677   5.378   3.664
 6513TIP3    H119503   3.673   5.331   3.581
 6513TIP3    H219504   3.664   5.470   3.640
 6514TIP3   OH219505   0.357   6.190   5.558
 6514TIP3    H119506   0.436   6.163   5.511
 6514TIP3    H219507   0.296   6.118   5.547
 6515TIP3   OH219508   4.565   5.495   1.582
 6515TIP3    H119509   4.571   5.400   1.566
 6515TIP3    H219510   4.604   5.534   1.504
 6516TIP3   OH219511   6.369   6.303   4.650
 6516TIP3    H119512   6.421   6.371   4.693
 6516TIP3    H219513   6.368   6.231   4.713
 6517TIP3   OH219514   4.471   6.481   3.344
 6517TIP3    H119515   4.540   6.547   3.334
 6517TIP3    H219516   4.462   6.442   3.257
 6518TIP3   OH219517   2.754   6.078   0.861
 6518TIP3    H119518   2.699   6.021   0.914
 6518TIP3    H219519   2.788   6.143   0.923
 6519TIP3   OH219520   2.603   1.511   1.460
 6519TIP3    H119521   2.526   1.533   1.514
 6519TIP3    H219522   2.568   1.501   1.372
 6520TIP3   OH219523   7.040   6.549   4.206
 6520TIP3    H119524   7.096   6.491   4.154
 6520TIP3    H219525   7.075   6.540   4.295
 6521TIP3   OH219526   3.777   5.197   4.116
 6521TIP3    H119527   3.783   5.288   4.088
 6521TIP3    H219528   3.861   5.158   4.090
 6522TIP3   OH219529   0.575   6.798   5.262
 6522TIP3    H119530   0.513   6.740   5.307
 6522TIP3    H219531   0.520   6.856   5.210
 6523TIP3   OH219532   6.902   0.951   5.246
 6523TIP3    H119533   6.941   0.980   5.164
 6523TIP3    H219534   6.946   1.003   5.314
 6524TIP3   OH219535   2.265   0.170   4.133
 6524TIP3    H119536   2.328   0.120   4.081
 6524TIP3    H219537   2.317   0.241   4.171
 6525TIP3   OH219538   1.470   5.089   2.038
 6525TIP3    H119539   1.430   5.022   2.093
 6525TIP3    H219540   1.401   5.153   2.022
 6526TIP3   OH219541   0.956   5.079   2.028
 6526TIP3    H119542   0.940   5.112   2.116
 6526TIP3    H219543   0.898   5.003   2.020
 6527TIP3   OH219544   6.542   6.464   5.288
 6527TIP3    H119545   6.500   6.510   5.361
 6527TIP3    H219546   6.476   6.467   5.218
 6528TIP3   OH219547   1.634   5.014   1.782
 6528TIP3    H119548   1.566   5.052   1.726
 6528TIP3    H219549   1.603   5.028   1.871
 6529TIP3   OH219550   2.630   2.796   3.341
 6529TIP3    H119551   2.636   2.842   3.258
 6529TIP3    H219552   2.563   2.729   3.327
 6530TIP3   OH219553   0.905   1.393   3.615
 6530TIP3    H119554   0.990   1.372   3.578
 6530TIP3    H219555   0.842   1.357   3.552
 6531TIP3   OH219556   6.042   5.814   2.197
 6531TIP3    H119557   6.046   5.745   2.130
 6531TIP3    H219558   6.031   5.767   2.279
 6532TIP3   OH219559   6.814   2.470   3.428
 6532TIP3    H119560   6.797   2.516   3.346
 6532TIP3    H219561   6.862   2.534   3.481
 6533TIP3   OH219562   6.622   1.342   0.307
 6533TIP3    H119563   6.563   1.417   0.300
 6533TIP3    H219564   6.610   1.311   0.397
 6534TIP3   OH219565   2.721   2.390   5.163
 6534TIP3    H119566   2.769   2.467   5.135
 6534TIP3    H219567   2.664   2.369   5.088
 6535TIP3   OH219568   4.399   2.233   4.136
 6535TIP3    H119569   4.446   2.315   4.120
 6535TIP3    H219570   4.456   2.165   4.100
 6536TIP3   OH219571   0.593   5.451   0.542
 6536TIP3    H119572   0.531   5.515   0.579
 6536TIP3    H219573   0.537   5.380   0.510
 6537TIP3   OH219574   2.779   2.932   3.132
 6537TIP3    H119575   2.789   2.873   3.057
 6537TIP3    H219576   2.763   3.018   3.094
 6538TIP3   OH219577   6.723   4.551   0.580
 6538TIP3    H119578   6.709   4.584   0.669
 6538TIP3    H219579   6.648   4.583   0.530
 6539TIP3   OH219580   1.287   5.506   0.066
 6539TIP3    H119581   1.350   5.437   0.045
 6539TIP3    H219582   1.340   5.576   0.105
 6540TIP3   OH219583   5.812   6.260   0.577
 6540TIP3    H119584   5.784   6.176   0.614
 6540TIP3    H219585   5.732   6.313   0.576
 6541TIP3   OH219586   5.603   0.545   0.126
 6541TIP3    H119587   5.598   0.455   0.094
 6541TIP3    H219588   5.563   0.598   0.056
 6542TIP3   OH219589   7.051   5.441   0.953
 6542TIP3    H119590   6.986   5.397   1.008
 6542TIP3    H219591   7.062   5.383   0.878
 6543TIP3   OH219592   1.670   1.198   0.985
 6543TIP3    H119593   1.633   1.280   1.017
 6543TIP3    H219594   1.655   1.135   1.056
 6544TIP3   OH219595   6.296   4.703   3.198
 6544TIP3    H119596   6.350   4.690   3.276
 6544TIP3    H219597   6.216   4.653   3.215
 6545TIP3   OH219598   1.226   6.121   3.503
 6545TIP3    H119599   1.193   6.035   3.530
 6545TIP3    H219600   1.314   6.104   3.471
 6546TIP3   OH219601   0.410   6.127   2.854
 6546TIP3    H119602   0.476   6.197   2.858
 6546TIP3    H219603   0.380   6.118   2.944
 6547TIP3   OH219604   6.898   2.181   2.541
 6547TIP3    H119605   6.928   2.267   2.511
 6547TIP3    H219606   6.934   2.120   2.478
 6548TIP3   OH219607   2.127   0.449   5.230
 6548TIP3    H119608   2.086   0.408   5.306
 6548TIP3    H219609   2.221   0.430   5.242
 6549TIP3   OH219610   0.069   0.029   3.717
 6549TIP3    H119611   0.101   0.113   3.683
 6549TIP3    H219612   0.127  -0.036   3.677
 6550TIP3   OH219613   2.611   2.244   1.662
 6550TIP3    H119614   2.612   2.241   1.758
 6550TIP3    H219615   2.673   2.176   1.635
 6551TIP3   OH219616   4.199   0.066   4.643
 6551TIP3    H119617   4.121   0.114   4.669
 6551TIP3    H219618   4.188  -0.021   4.682
 6552TIP3   OH219619   3.773   5.316   3.186
 6552TIP3    H119620   3.764   5.285   3.276
 6552TIP3    H219621   3.687   5.351   3.164
 6553TIP3   OH219622   6.566   6.486   2.030
 6553TIP3    H119623   6.496   6.535   1.986
 6553TIP3    H219624   6.622   6.553   2.068
 6554TIP3   OH219625   4.912   2.614   0.996
 6554TIP3    H119626   4.837   2.605   1.054
 6554TIP3    H219627   4.955   2.528   0.999
 6555TIP3   OH219628   6.366   3.307   2.942
 6555TIP3    H119629   6.454   3.302   2.980
 6555TIP3    H219630   6.377   3.278   2.851
 6556TIP3   OH219631   0.508   5.107   3.597
 6556TIP3    H119632   0.442   5.160   3.554
 6556TIP3    H219633   0.508   5.024   3.549
 6557TIP3   OH219634   2.977   2.927   5.161
 6557TIP3    H119635   3.059   2.890   5.193
 6557TIP3    H219636   2.960   3.002   5.217
 6558TIP3   OH219637   6.723   6.833   4.320
 6558TIP3    H119638   6.803   6.789   4.346
 6558TIP3    H219639   6.735   6.853   4.227
 6559TIP3   OH219640   4.890   3.116   4.891
 6559TIP3    H119641   4.927   3.166   4.818
 6559TIP3    H219642   4.847   3.041   4.850
 6560TIP3   OH219643   3.181   4.308   4.991
 6560TIP3    H119644   3.218   4.334   5.075
 6560TIP3    H219645   3.179   4.390   4.940
 6561TIP3   OH219646   3.543   0.674   3.130
 6561TIP3    H119647   3.572   0.714   3.212
 6561TIP3    H219648   3.452   0.704   3.120
 6562TIP3   OH219649   6.422   5.737   3.021
 6562TIP3    H119650   6.337   5.740   3.065
 6562TIP3    H219651   6.485   5.757   3.090
 6563TIP3   OH219652   3.661   5.334   0.584
 6563TIP3    H119653   3.657   5.381   0.501
 6563TIP3    H219654   3.588   5.368   0.635
 6564TIP3   OH219655   5.269   4.704   4.229
 6564TIP3    H119656   5.196   4.660   4.273
 6564TIP3    H219657   5.268   4.793   4.264
 6565TIP3   OH219658   4.503   3.285   1.703
 6565TIP3    H119659   4.480   3.264   1.794
 6565TIP3    H219660   4.571   3.352   1.710
 6566TIP3   OH219661   3.082   3.016   5.413
 6566TIP3    H119662   2.998   3.062   5.409
 6566TIP3    H219663   3.147   3.085   5.419
 6567TIP3   OH219664   6.701   5.052   3.890
 6567TIP3    H119665   6.682   5.063   3.797
 6567TIP3    H219666   6.749   4.969   3.895
 6568TIP3   OH219667   6.094   0.151   3.202
 6568TIP3    H119668   6.057   0.063   3.204
 6568TIP3    H219669   6.066   0.191   3.284
 6569TIP3   OH219670   6.928   6.593   2.010
 6569TIP3    H119671   6.926   6.498   2.017
 6569TIP3    H219672   7.008   6.620   2.054
 6570TIP3   OH219673   1.975   0.335   1.147
 6570TIP3    H119674   2.032   0.284   1.089
 6570TIP3    H219675   1.886   0.313   1.119
 6571TIP3   OH219676   2.636   4.145   5.750
 6571TIP3    H119677   2.605   4.233   5.730
 6571TIP3    H219678   2.608   4.093   5.674
 6572TIP3   OH219679   2.888   5.360   3.752
 6572TIP3    H119680   2.837   5.284   3.726
 6572TIP3    H219681   2.842   5.395   3.828
 6573TIP3   OH219682   6.175   2.611   0.550
 6573TIP3    H119683   6.101   2.614   0.611
 6573TIP3    H219684   6.227   2.537   0.580
 6574TIP3   OH219685   0.392   2.970   0.411
 6574TIP3    H119686   0.363   3.031   0.342
 6574TIP3    H219687   0.311   2.934   0.446
 6575TIP3   OH219688   0.368   4.476   3.642
 6575TIP3    H119689   0.279   4.512   3.641
 6575TIP3    H219690   0.358   4.389   3.680
 6576TIP3   OH219691   5.977   4.298   0.387
 6576TIP3    H119692   6.051   4.271   0.332
 6576TIP3    H219693   5.936   4.216   0.414
 6577TIP3   OH219694   3.402   2.205   5.613
 6577TIP3    H119695   3.402   2.222   5.519
 6577TIP3    H219696   3.418   2.111   5.620
 6578TIP3   OH219697   4.586   1.550   2.724
 6578TIP3    H119698   4.569   1.626   2.781
 6578TIP3    H219699   4.538   1.478   2.765
 6579TIP3   OH219700   2.798   4.706   0.127
 6579TIP3    H119701   2.842   4.711   0.042
 6579TIP3    H219702   2.867   4.724   0.191
 6580TIP3   OH219703   1.599   2.439   1.468
 6580TIP3    H119704   1.595   2.416   1.561
 6580TIP3    H219705   1.664   2.510   1.464
 6581TIP3   OH219706   4.665   6.827   3.142
 6581TIP3    H119707   4.717   6.798   3.067
 6581TIP3    H219708   4.600   6.758   3.155
 6582TIP3   OH219709   4.046   0.125   1.951
 6582TIP3    H119710   4.057   0.172   1.868
 6582TIP3    H219711   4.131   0.082   1.965
 6583TIP3   OH219712   2.326   3.119   4.186
 6583TIP3    H119713   2.343   3.161   4.101
 6583TIP3    H219714   2.331   3.191   4.249
 6584TIP3   OH219715   5.952   0.602   5.494
 6584TIP3    H119716   5.952   0.689   5.535
 6584TIP3    H219717   6.006   0.613   5.415
 6585TIP3   OH219718   1.267   0.267   5.587
 6585TIP3    H119719   1.266   0.354   5.627
 6585TIP3    H219720   1.337   0.220   5.633
 6586TIP3   OH219721   0.212   2.274   4.771
 6586TIP3    H119722   0.284   2.215   4.796
 6586TIP3    H219723   0.138   2.246   4.825
 6587TIP3   OH219724   2.697   5.097   2.512
 6587TIP3    H119725   2.692   5.080   2.606
 6587TIP3    H219726   2.760   5.168   2.503
 6588TIP3   OH219727   2.413   6.123   2.671
 6588TIP3    H119728   2.381   6.081   2.591
 6588TIP3    H219729   2.421   6.216   2.648
 6589TIP3   OH219730   0.873   2.424   3.563
 6589TIP3    H119731   0.821   2.369   3.621
 6589TIP3    H219732   0.839   2.406   3.475
 6590TIP3   OH219733   0.304   0.304   4.295
 6590TIP3    H119734   0.238   0.299   4.364
 6590TIP3    H219735   0.382   0.337   4.339
 6591TIP3   OH219736   6.978   5.871   4.524
 6591TIP3    H119737   6.913   5.801   4.533
 6591TIP3    H219738   6.945   5.941   4.581
 6592TIP3   OH219739   5.531   0.911   1.907
 6592TIP3    H119740   5.457   0.954   1.950
 6592TIP3    H219741   5.500   0.894   1.818
 6593TIP3   OH219742   4.183   6.175   1.056
 6593TIP3    H119743   4.220   6.252   1.098
 6593TIP3    H219744   4.246   6.105   1.073
 6594TIP3   OH219745   6.383   5.836   1.364
 6594TIP3    H119746   6.365   5.928   1.342
 6594TIP3    H219747   6.296   5.799   1.380
 6595TIP3   OH219748   5.982   0.229   3.443
 6595TIP3    H119749   5.927   0.298   3.406
 6595TIP3    H219750   5.923   0.154   3.452
 6596TIP3   OH219751   2.210   3.487   0.736
 6596TIP3    H119752   2.202   3.397   0.706
 6596TIP3    H219753   2.289   3.520   0.692
 6597TIP3   OH219754   4.929   6.532   5.590
 6597TIP3    H119755   4.858   6.479   5.554
 6597TIP3    H219756   4.924   6.519   5.685
 6598TIP3   OH219757   5.929   1.460   0.870
 6598TIP3    H119758   5.996   1.398   0.842
 6598TIP3    H219759   5.964   1.499   0.950
 6599TIP3   OH219760   3.438   4.659   5.482
 6599TIP3    H119761   3.480   4.621   5.404
 6599TIP3    H219762   3.358   4.608   5.493
 6600TIP3   OH219763   0.577   3.645   0.116
 6600TIP3    H119764   0.641   3.695   0.064
 6600TIP3    H219765   0.600   3.665   0.207
 6601TIP3   OH219766   5.386   1.216   1.157
 6601TIP3    H119767   5.382   1.155   1.231
 6601TIP3    H219768   5.308   1.198   1.106
 6602TIP3   OH219769   6.586   6.188   3.324
 6602TIP3    H119770   6.587   6.241   3.244
 6602TIP3    H219771   6.495   6.189   3.353
 6603TIP3   OH219772   4.715   4.111   4.054
 6603TIP3    H119773   4.793   4.118   4.109
 6603TIP3    H219774   4.655   4.056   4.105
 6604TIP3   OH219775   3.465   2.940   5.537
 6604TIP3    H119776   3.526   2.899   5.598
 6604TIP3    H219777   3.387   2.959   5.590
 6605TIP3   OH219778   2.162   0.698   0.512
 6605TIP3    H119779   2.175   0.789   0.541
 6605TIP3    H219780   2.250   0.665   0.495
 6606TIP3   OH219781   6.350   6.700   0.099
 6606TIP3    H119782   6.374   6.792   0.111
 6606TIP3    H219783   6.314   6.695   0.011
 6607TIP3   OH219784   0.662   5.105   3.818
 6607TIP3    H119785   0.699   5.017   3.808
 6607TIP3    H219786   0.610   5.118   3.738
 6608TIP3   OH219787   1.993   2.357   0.457
 6608TIP3    H119788   2.057   2.405   0.404
 6608TIP3    H219789   1.938   2.426   0.495
 6609TIP3   OH219790   3.004   0.123   0.997
 6609TIP3    H119791   3.056   0.201   1.016
 6609TIP3    H219792   3.052   0.078   0.927
 6610TIP3   OH219793   3.493   4.147   2.517
 6610TIP3    H119794   3.401   4.126   2.504
 6610TIP3    H219795   3.536   4.118   2.436
 6611TIP3   OH219796   4.941   4.376   4.877
 6611TIP3    H119797   5.036   4.361   4.877
 6611TIP3    H219798   4.906   4.310   4.936
 6612TIP3   OH219799   4.383   1.528   3.275
 6612TIP3    H119800   4.427   1.458   3.324
 6612TIP3    H219801   4.311   1.555   3.332
 6613TIP3   OH219802   3.649   6.582   1.311
 6613TIP3    H119803   3.634   6.599   1.404
 6613TIP3    H219804   3.585   6.636   1.265
 6614TIP3   OH219805   4.147   0.471   0.361
 6614TIP3    H119806   4.239   0.495   0.368
 6614TIP3    H219807   4.125   0.433   0.446
 6615TIP3   OH219808   3.278   3.193   5.466
 6615TIP3    H119809   3.260   3.147   5.547
 6615TIP3    H219810   3.220   3.269   5.468
 6616TIP3   OH219811   3.447   3.469   4.875
 6616TIP3    H119812   3.470   3.398   4.815
 6616TIP3    H219813   3.531   3.497   4.912
 6617TIP3   OH219814   0.356   4.510   1.373
 6617TIP3    H119815   0.377   4.452   1.299
 6617TIP3    H219816   0.298   4.458   1.428
 6618TIP3   OH219817   5.061   3.714   4.007
 6618TIP3    H119818   5.109   3.671   4.077
 6618TIP3    H219819   5.083   3.807   4.017
 6619TIP3   OH219820   6.756   1.740   2.717
 6619TIP3    H119821   6.830   1.743   2.656
 6619TIP3    H219822   6.783   1.795   2.790
 6620TIP3   OH219823   4.755   1.438   5.275
 6620TIP3    H119824   4.728   1.453   5.184
 6620TIP3    H219825   4.782   1.346   5.277
 6621TIP3   OH219826   5.454   4.283   3.808
 6621TIP3    H119827   5.480   4.292   3.900
 6621TIP3    H219828   5.358   4.282   3.811
 6622TIP3   OH219829   2.975   4.849   0.591
 6622TIP3    H119830   2.964   4.765   0.635
 6622TIP3    H219831   2.912   4.907   0.633
 6623TIP3   OH219832   2.358   3.913   1.402
 6623TIP3    H119833   2.390   3.874   1.320
 6623TIP3    H219834   2.363   3.842   1.466
 6624TIP3   OH219835   0.366   6.049   5.282
 6624TIP3    H119836   0.347   5.992   5.207
 6624TIP3    H219837   0.448   6.092   5.260
 6625TIP3   OH219838   3.492   4.787   5.778
 6625TIP3    H119839   3.500   4.839   5.858
 6625TIP3    H219840   3.491   4.853   5.707
 6626TIP3   OH219841   6.189   2.623   3.409
 6626TIP3    H119842   6.204   2.711   3.374
 6626TIP3    H219843   6.263   2.607   3.467
 6627TIP3   OH219844   6.002   2.306   5.784
 6627TIP3    H119845   5.915   2.270   5.803
 6627TIP3    H219846   6.062   2.254   5.837
 6628TIP3   OH219847   2.905   3.161   0.532
 6628TIP3    H119848   2.853   3.190   0.607
 6628TIP3    H219849   2.990   3.203   0.544
 6629TIP3   OH219850   0.446   4.067   1.195
 6629TIP3    H119851   0.381   3.997   1.197
 6629TIP3    H219852   0.503   4.045   1.122
 6630TIP3   OH219853   6.824   1.411   4.647
 6630TIP3    H119854   6.875   1.476   4.598
 6630TIP3    H219855   6.886   1.339   4.662
 6631TIP3   OH219856   6.201   0.843   5.280
 6631TIP3    H119857   6.161   0.761   5.251
 6631TIP3    H219858   6.131   0.908   5.275
 6632TIP3   OH219859   4.960   0.095   2.748
 6632TIP3    H119860   4.983   0.006   2.773
 6632TIP3    H219861   4.921   0.132   2.827
 6633TIP3   OH219862   2.402   1.023   5.635
 6633TIP3    H119863   2.356   0.945   5.665
 6633TIP3    H219864   2.363   1.043   5.551
 6634TIP3   OH219865   1.748   5.032   2.473
 6634TIP3    H119866   1.819   5.004   2.530
 6634TIP3    H219867   1.749   5.128   2.478
 6635TIP3   OH219868   2.754   0.321   5.296
 6635TIP3    H119869   2.756   0.265   5.219
 6635TIP3    H219870   2.834   0.375   5.288
 6636TIP3   OH219871   5.082   5.003   1.991
 6636TIP3    H119872   5.094   5.041   1.904
 6636TIP3    H219873   4.987   5.007   2.006
 6637TIP3   OH219874   2.353   4.395   2.916
 6637TIP3    H119875   2.382   4.413   3.005
 6637TIP3    H219876   2.434   4.390   2.865
 6638TIP3   OH219877   3.636   0.608   2.692
 6638TIP3    H119878   3.636   0.512   2.697
 6638TIP3    H219879   3.545   0.631   2.676
 6639TIP3   OH219880   4.509   5.573   2.849
 6639TIP3    H119881   4.452   5.641   2.884
 6639TIP3    H219882   4.449   5.506   2.818
 6640TIP3   OH219883   4.420   2.038   2.943
 6640TIP3    H119884   4.421   1.982   2.865
 6640TIP3    H219885   4.330   2.035   2.974
 6641TIP3   OH219886   6.338   1.785   4.560
 6641TIP3    H119887   6.263   1.790   4.500
 6641TIP3    H219888   6.318   1.711   4.618
 6642TIP3   OH219889   6.405   4.275   4.741
 6642TIP3    H119890   6.415   4.301   4.833
 6642TIP3    H219891   6.484   4.226   4.721
 6643TIP3   OH219892   0.527   4.992   1.539
 6643TIP3    H119893   0.478   4.940   1.476
 6643TIP3    H219894   0.542   4.933   1.612
 6644TIP3   OH219895   1.320   5.923   2.282
 6644TIP3    H119896   1.344   5.937   2.374
 6644TIP3    H219897   1.281   5.836   2.281
 6645TIP3   OH219898   2.328   6.152   1.233
 6645TIP3    H119899   2.313   6.247   1.234
 6645TIP3    H219900   2.348   6.132   1.142
 6646TIP3   OH219901   0.089   5.443   5.362
 6646TIP3    H119902   0.005   5.414   5.398
 6646TIP3    H219903   0.073   5.452   5.268
 6647TIP3   OH219904   5.649   2.960   2.533
 6647TIP3    H119905   5.724   2.901   2.536
 6647TIP3    H219906   5.600   2.932   2.456
 6648TIP3   OH219907   3.666   0.466   0.496
 6648TIP3    H119908   3.682   0.545   0.548
 6648TIP3    H219909   3.741   0.460   0.438
 6649TIP3   OH219910   6.604   0.028   1.600
 6649TIP3    H119911   6.671  -0.040   1.606
 6649TIP3    H219912   6.653   0.110   1.606
 6650TIP3   OH219913   3.493   5.498   1.942
 6650TIP3    H119914   3.518   5.580   1.986
 6650TIP3    H219915   3.445   5.449   2.009
 6651TIP3   OH219916   0.057   4.166   3.294
 6651TIP3    H119917   0.057   4.248   3.343
 6651TIP3    H219918   0.146   4.132   3.302
 6652TIP3   OH219919   6.405   1.307   2.460
 6652TIP3    H119920   6.387   1.220   2.424
 6652TIP3    H219921   6.499   1.307   2.477
 6653TIP3   OH219922   0.529   2.163   3.693
 6653TIP3    H119923   0.579   2.231   3.738
 6653TIP3    H219924   0.471   2.211   3.634
 6654TIP3   OH219925   3.776   1.583   5.746
 6654TIP3    H119926   3.702   1.580   5.806
 6654TIP3    H219927   3.757   1.656   5.688
 6655TIP3   OH219928   5.123   1.988   5.558
 6655TIP3    H119929   5.141   2.005   5.466
 6655TIP3    H219930   5.035   1.951   5.560
 6656TIP3   OH219931   2.443   1.296   4.712
 6656TIP3    H119932   2.425   1.242   4.789
 6656TIP3    H219933   2.443   1.234   4.639
 6657TIP3   OH219934   6.041   2.103   1.251
 6657TIP3    H119935   6.103   2.172   1.274
 6657TIP3    H219936   5.962   2.125   1.301
 6658TIP3   OH219937   0.077   0.348   2.432
 6658TIP3    H119938   0.074   0.279   2.498
 6658TIP3    H219939   0.167   0.380   2.433
 6659TIP3   OH219940   3.946   1.777   0.177
 6659TIP3    H119941   3.950   1.699   0.232
 6659TIP3    H219942   3.975   1.747   0.090
 6660TIP3   OH219943   2.754   5.875   1.402
 6660TIP3    H119944   2.756   5.780   1.407
 6660TIP3    H219945   2.826   5.904   1.457
 6661TIP3   OH219946   6.561   1.972   3.516
 6661TIP3    H119947   6.502   1.899   3.499
 6661TIP3    H219948   6.570   2.016   3.432
 6662TIP3   OH219949   5.724   6.199   4.766
 6662TIP3    H119950   5.675   6.208   4.847
 6662TIP3    H219951   5.665   6.153   4.706
 6663TIP3   OH219952   4.966   3.000   1.644
 6663TIP3    H119953   4.918   3.068   1.597
 6663TIP3    H219954   5.026   3.048   1.701
 6664TIP3   OH219955   1.474   0.472   0.464
 6664TIP3    H119956   1.537   0.475   0.392
 6664TIP3    H219957   1.440   0.383   0.463
 6665TIP3   OH219958   7.121   4.984   2.985
 6665TIP3    H119959   7.056   4.966   2.917
 6665TIP3    H219960   7.132   5.079   2.983
 6666TIP3   OH219961   3.103   2.095   1.251
 6666TIP3    H119962   3.154   2.064   1.326
 6666TIP3    H219963   3.074   2.183   1.277
 6667TIP3   OH219964   6.557   6.396   2.670
 6667TIP3    H119965   6.504   6.473   2.693
 6667TIP3    H219966   6.525   6.370   2.584
 6668TIP3   OH219967   1.934   1.282   2.730
 6668TIP3    H119968   2.027   1.306   2.732
 6668TIP3    H219969   1.910   1.289   2.638
 6669TIP3   OH219970   2.895   3.054   1.452
 6669TIP3    H119971   2.969   3.076   1.509
 6669TIP3    H219972   2.912   2.965   1.423
 6670TIP3   OH219973   0.766   3.202   0.742
 6670TIP3    H119974   0.854   3.167   0.732
 6670TIP3    H219975   0.741   3.229   0.654
 6671TIP3   OH219976   6.476   3.709   1.663
 6671TIP3    H119977   6.463   3.742   1.574
 6671TIP3    H219978   6.454   3.616   1.657
 6672TIP3   OH219979   7.120   3.062   3.906
 6672TIP3    H119980   7.136   3.030   3.994
 6672TIP3    H219981   7.033   3.028   3.884
 6673TIP3   OH219982   1.651   2.943   0.290
 6673TIP3    H119983   1.741   2.910   0.284
 6673TIP3    H219984   1.624   2.921   0.379
 6674TIP3   OH219985   5.394   3.187   4.028
 6674TIP3    H119986   5.400   3.105   3.980
 6674TIP3    H219987   5.473   3.235   4.005
 6675TIP3   OH219988   3.351   0.586   1.869
 6675TIP3    H119989   3.349   0.662   1.810
 6675TIP3    H219990   3.376   0.623   1.954
 6676TIP3   OH219991   3.526   1.445   1.304
 6676TIP3    H119992   3.590   1.503   1.263
 6676TIP3    H219993   3.493   1.495   1.379
 6677TIP3   OH219994   0.188   0.588   0.300
 6677TIP3    H119995   0.198   0.678   0.270
 6677TIP3    H219996   0.132   0.595   0.377
 6678TIP3   OH219997   5.399   3.862   5.777
 6678TIP3    H119998   5.401   3.790   5.715
 6678TIP3    H219999   5.484   3.904   5.768
 6679TIP3   OH220000   0.154   3.195   1.212
 6679TIP3    H120001   0.075   3.140   1.209
 6679TIP3    H220002   0.199   3.168   1.292
 6680TIP3   OH220003   5.285   2.856   3.463
 6680TIP3    H120004   5.331   2.937   3.443
 6680TIP3    H220005   5.192   2.877   3.449
 6681TIP3   OH220006   2.423   3.322   4.310
 6681TIP3    H120007   2.355   3.331   4.376
 6681TIP3    H220008   2.481   3.397   4.324
 6682TIP3   OH220009   1.293   0.165   1.355
 6682TIP3    H120010   1.279   0.144   1.262
 6682TIP3    H220011   1.383   0.136   1.373
 6683TIP3   OH220012   5.578   6.011   4.623
 6683TIP3    H120013   5.527   5.996   4.702
 6683TIP3    H220014   5.637   5.936   4.617
 6684TIP3   OH220015   0.162   5.102   5.666
 6684TIP3    H120016   0.186   5.100   5.574
 6684TIP3    H220017   0.098   5.032   5.676
 6685TIP3   OH220018   3.075   3.967   1.639
 6685TIP3    H120019   3.048   3.887   1.595
 6685TIP3    H220020   3.082   3.942   1.732
 6686TIP3   OH220021   3.469   2.651   5.614
 6686TIP3    H120022   3.532   2.671   5.683
 6686TIP3    H220023   3.395   2.710   5.629
 6687TIP3   OH220024   6.432   0.192   1.082
 6687TIP3    H120025   6.349   0.161   1.045
 6687TIP3    H220026   6.414   0.202   1.176
 6688TIP3   OH220027   2.041   4.924   2.439
 6688TIP3    H120028   1.995   4.841   2.450
 6688TIP3    H220029   2.089   4.914   2.357
 6689TIP3   OH220030   0.681   4.702   5.056
 6689TIP3    H120031   0.745   4.636   5.031
 6689TIP3    H220032   0.599   4.673   5.015
 6690TIP3   OH220033   6.232   2.348   4.598
 6690TIP3    H120034   6.176   2.391   4.663
 6690TIP3    H220035   6.193   2.371   4.514
 6691TIP3   OH220036   2.404   1.212   3.146
 6691TIP3    H120037   2.371   1.280   3.088
 6691TIP3    H220038   2.412   1.134   3.091
 6692TIP3   OH220039   2.300   0.876   4.219
 6692TIP3    H120040   2.205   0.861   4.217
 6692TIP3    H220041   2.317   0.906   4.308
 6693TIP3   OH220042   6.534   1.944   0.702
 6693TIP3    H120043   6.521   1.901   0.618
 6693TIP3    H220044   6.540   1.872   0.765
 6694TIP3   OH220045   1.636   1.481   5.661
 6694TIP3    H120046   1.708   1.431   5.621
 6694TIP3    H220047   1.670   1.570   5.669
 6695TIP3   OH220048   3.258   2.212   3.734
 6695TIP3    H120049   3.272   2.280   3.800
 6695TIP3    H220050   3.163   2.197   3.734
 6696TIP3   OH220051   0.066   5.865   3.135
 6696TIP3    H120052  -0.002   5.809   3.098
 6696TIP3    H220053   0.030   5.895   3.218
 6697TIP3   OH220054   0.399   5.287   5.515
 6697TIP3    H120055   0.459   5.235   5.569
 6697TIP3    H220056   0.419   5.378   5.537
 6698TIP3   OH220057   0.320   1.402   2.367
 6698TIP3    H120058   0.262   1.478   2.358
 6698TIP3    H220059   0.277   1.346   2.432
 6699TIP3   OH220060   1.716   6.315   0.173
 6699TIP3    H120061   1.633   6.343   0.211
 6699TIP3    H220062   1.758   6.265   0.243
 6700TIP3   OH220063   3.036   1.172   0.195
 6700TIP3    H120064   3.038   1.239   0.263
 6700TIP3    H220065   3.109   1.114   0.215
 6701TIP3   OH220066   4.254   2.281   2.990
 6701TIP3    H120067   4.190   2.216   3.018
 6701TIP3    H220068   4.327   2.270   3.051
 6702TIP3   OH220069   6.972   3.848   1.788
 6702TIP3    H120070   6.940   3.917   1.730
 6702TIP3    H220071   6.894   3.818   1.835
 6703TIP3   OH220072   4.545   6.164   3.777
 6703TIP3    H120073   4.502   6.126   3.853
 6703TIP3    H220074   4.522   6.105   3.705
 6704TIP3   OH220075   3.473   2.047   4.060
 6704TIP3    H120076   3.475   2.134   4.100
 6704TIP3    H220077   3.517   1.990   4.123
 6705TIP3   OH220078   0.619   1.738   1.769
 6705TIP3    H120079   0.667   1.719   1.849
 6705TIP3    H220080   0.625   1.657   1.717
 6706TIP3   OH220081   4.247   0.110   3.517
 6706TIP3    H120082   4.189   0.186   3.507
 6706TIP3    H220083   4.277   0.091   3.428
 6707TIP3   OH220084   4.962   6.382   2.632
 6707TIP3    H120085   4.904   6.455   2.608
 6707TIP3    H220086   4.902   6.314   2.662
 6708TIP3   OH220087   4.347   1.379   1.916
 6708TIP3    H120088   4.317   1.317   1.849
 6708TIP3    H220089   4.404   1.328   1.973
 6709TIP3   OH220090   1.995   5.015   4.663
 6709TIP3    H120091   2.049   5.081   4.706
 6709TIP3    H220092   2.043   4.933   4.675
 6710TIP3   OH220093   0.181   5.806   4.578
 6710TIP3    H120094   0.218   5.818   4.491
 6710TIP3    H220095   0.101   5.755   4.565
 6711TIP3   OH220096   5.452   2.149   2.464
 6711TIP3    H120097   5.489   2.075   2.512
 6711TIP3    H220098   5.515   2.166   2.394
 6712TIP3   OH220099   4.916   3.570   5.111
 6712TIP3    H120100   4.874   3.655   5.127
 6712TIP3    H220101   4.960   3.581   5.026
 6713TIP3   OH220102   0.557   5.987   1.330
 6713TIP3    H120103   0.560   6.082   1.322
 6713TIP3    H220104   0.617   5.967   1.402
 6714TIP3   OH220105   6.791   1.095   1.071
 6714TIP3    H120106   6.809   1.167   1.131
 6714TIP3    H220107   6.702   1.110   1.039
 6715TIP3   OH220108   0.781   6.305   5.355
 6715TIP3    H120109   0.722   6.326   5.283
 6715TIP3    H220110   0.787   6.209   5.353
 6716TIP3   OH220111   3.973   2.296   3.624
 6716TIP3    H120112   4.013   2.280   3.709
 6716TIP3    H220113   4.043   2.279   3.561
 6717TIP3   OH220114   1.231   2.107   2.816
 6717TIP3    H120115   1.151   2.119   2.764
 6717TIP3    H220116   1.209   2.143   2.902
 6718TIP3   OH220117   3.029   0.954   3.178
 6718TIP3    H120118   3.018   1.046   3.152
 6718TIP3    H220119   3.106   0.955   3.236
 6719TIP3   OH220120   2.973   4.400   1.548
 6719TIP3    H120121   2.941   4.485   1.517
 6719TIP3    H220122   2.894   4.352   1.571
 6720TIP3   OH220123   2.228   0.241   5.704
 6720TIP3    H120124   2.208   0.205   5.791
 6720TIP3    H220125   2.170   0.316   5.695
 6721TIP3   OH220126   6.995   4.387   4.477
 6721TIP3    H120127   7.019   4.298   4.500
 6721TIP3    H220128   6.962   4.425   4.559
 6722TIP3   OH220129   3.494   6.721   4.206
 6722TIP3    H120130   3.529   6.682   4.126
 6722TIP3    H220131   3.554   6.794   4.225
 6723TIP3   OH220132   6.963   4.720   0.551
 6723TIP3    H120133   6.963   4.787   0.620
 6723TIP3    H220134   6.878   4.677   0.560
 6724TIP3   OH220135   3.492   1.685   1.764
 6724TIP3    H120136   3.430   1.687   1.837
 6724TIP3    H220137   3.578   1.690   1.805
 6725TIP3   OH220138   6.082   6.203   0.428
 6725TIP3    H120139   6.011   6.249   0.472
 6725TIP3    H220140   6.089   6.119   0.473
 6726TIP3   OH220141   5.095   0.281   1.163
 6726TIP3    H120142   5.089   0.354   1.101
 6726TIP3    H220143   5.063   0.317   1.246
 6727TIP3   OH220144   1.478   6.425   1.683
 6727TIP3    H120145   1.515   6.445   1.769
 6727TIP3    H220146   1.448   6.335   1.690
 6728TIP3   OH220147   0.120   2.174   5.684
 6728TIP3    H120148   0.072   2.124   5.750
 6728TIP3    H220149   0.100   2.130   5.601
 6729TIP3   OH220150   1.759   3.565   2.119
 6729TIP3    H120151   1.749   3.624   2.044
 6729TIP3    H220152   1.792   3.483   2.081
 6730TIP3   OH220153   3.689   6.351   5.554
 6730TIP3    H120154   3.644   6.399   5.484
 6730TIP3    H220155   3.708   6.265   5.517
 6731TIP3   OH220156   1.669   6.336   3.222
 6731TIP3    H120157   1.764   6.331   3.234
 6731TIP3    H220158   1.657   6.352   3.128
 6732TIP3   OH220159   1.286   2.279   5.032
 6732TIP3    H120160   1.268   2.344   4.964
 6732TIP3    H220161   1.217   2.292   5.097
 6733TIP3   OH220162   2.638   4.600   3.765
 6733TIP3    H120163   2.720   4.642   3.739
 6733TIP3    H220164   2.604   4.655   3.836
 6734TIP3   OH220165   3.287   5.005   2.236
 6734TIP3    H120166   3.200   4.970   2.214
 6734TIP3    H220167   3.343   4.978   2.163
 6735TIP3   OH220168   3.590   1.522   3.010
 6735TIP3    H120169   3.583   1.573   2.929
 6735TIP3    H220170   3.598   1.588   3.079
 6736TIP3   OH220171   5.855   5.688   3.799
 6736TIP3    H120172   5.922   5.738   3.753
 6736TIP3    H220173   5.821   5.749   3.865
 6737TIP3   OH220174   5.924   2.185   4.633
 6737TIP3    H120175   5.933   2.280   4.625
 6737TIP3    H220176   5.956   2.150   4.550
 6738TIP3   OH220177   2.107   0.983   3.909
 6738TIP3    H120178   2.089   1.054   3.971
 6738TIP3    H220179   2.021   0.946   3.891
 6739TIP3   OH220180   6.087   2.197   4.879
 6739TIP3    H120181   6.033   2.188   4.800
 6739TIP3    H220182   6.127   2.111   4.890
 6740TIP3   OH220183   6.848   0.217   1.421
 6740TIP3    H120184   6.816   0.270   1.493
 6740TIP3    H220185   6.897   0.146   1.462
 6741TIP3   OH220186   2.432   4.868   3.829
 6741TIP3    H120187   2.425   4.884   3.923
 6741TIP3    H220188   2.342   4.851   3.801
 6742TIP3   OH220189   5.700   4.000   5.761
 6742TIP3    H120190   5.694   4.042   5.675
 6742TIP3    H220191   5.651   4.058   5.820
 6743TIP3   OH220192   5.206   2.748   4.187
 6743TIP3    H120193   5.113   2.739   4.165
 6743TIP3    H220194   5.252   2.727   4.105
 6744TIP3   OH220195   1.155   2.083   4.546
 6744TIP3    H120196   1.176   2.108   4.636
 6744TIP3    H220197   1.222   2.125   4.493
 6745TIP3   OH220198   5.644   3.632   2.202
 6745TIP3    H120199   5.731   3.668   2.188
 6745TIP3    H220200   5.621   3.589   2.120
 6746TIP3   OH220201   3.218   3.113   0.147
 6746TIP3    H120202   3.246   3.147   0.063
 6746TIP3    H220203   3.257   3.172   0.212
 6747TIP3   OH220204   5.881   6.610   5.521
 6747TIP3    H120205   5.791   6.639   5.507
 6747TIP3    H220206   5.933   6.660   5.457
 6748TIP3   OH220207   3.561   4.683   3.001
 6748TIP3    H120208   3.501   4.670   3.074
 6748TIP3    H220209   3.626   4.745   3.034
 6749TIP3   OH220210   6.922   2.482   5.544
 6749TIP3    H120211   6.992   2.462   5.606
 6749TIP3    H220212   6.967   2.489   5.460
 6750TIP3   OH220213   2.475   0.503   0.716
 6750TIP3    H120214   2.441   0.513   0.627
 6750TIP3    H220215   2.482   0.593   0.749
 6751TIP3   OH220216   6.092   4.561   0.677
 6751TIP3    H120217   6.038   4.511   0.738
 6751TIP3    H220218   6.181   4.532   0.695
 6752TIP3   OH220219   5.211   3.817   0.810
 6752TIP3    H120220   5.307   3.811   0.817
 6752TIP3    H220221   5.184   3.727   0.789
 6753TIP3   OH220222   3.541   3.575   3.307
 6753TIP3    H120223   3.605   3.614   3.367
 6753TIP3    H220224   3.504   3.649   3.259
 6754TIP3   OH220225   4.642   1.205   5.676
 6754TIP3    H120226   4.573   1.225   5.612
 6754TIP3    H220227   4.692   1.134   5.635
 6755TIP3   OH220228   5.281   2.614   2.639
 6755TIP3    H120229   5.207   2.673   2.624
 6755TIP3    H220230   5.351   2.670   2.672
 6756TIP3   OH220231   4.736   5.846   5.425
 6756TIP3    H120232   4.809   5.907   5.419
 6756TIP3    H220233   4.665   5.889   5.377
 6757TIP3   OH220234   2.948   6.337   4.432
 6757TIP3    H120235   2.867   6.367   4.390
 6757TIP3    H220236   2.924   6.255   4.475
 6758TIP3   OH220237   0.194   2.085   0.823
 6758TIP3    H120238   0.149   2.154   0.774
 6758TIP3    H220239   0.129   2.053   0.885
 6759TIP3   OH220240   1.448   3.970   3.942
 6759TIP3    H120241   1.369   3.931   3.903
 6759TIP3    H220242   1.516   3.954   3.877
 6760TIP3   OH220243   0.315   3.601   1.767
 6760TIP3    H120244   0.262   3.647   1.832
 6760TIP3    H220245   0.252   3.564   1.706
 6761TIP3   OH220246   4.386   5.081   0.179
 6761TIP3    H120247   4.470   5.113   0.146
 6761TIP3    H220248   4.409   5.030   0.257
 6762TIP3   OH220249   6.084   4.676   4.906
 6762TIP3    H120250   6.100   4.747   4.843
 6762TIP3    H220251   6.153   4.612   4.888
 6763TIP3   OH220252   2.463   2.064   4.991
 6763TIP3    H120253   2.536   2.031   5.044
 6763TIP3    H220254   2.386   2.017   5.024
 6764TIP3   OH220255   3.772   0.862   2.201
 6764TIP3    H120256   3.800   0.858   2.109
 6764TIP3    H220257   3.749   0.772   2.223
 6765TIP3   OH220258   4.568   1.700   2.438
 6765TIP3    H120259   4.512   1.625   2.417
 6765TIP3    H220260   4.584   1.691   2.532
 6766TIP3   OH220261   0.673   3.375   2.609
 6766TIP3    H120262   0.647   3.302   2.666
 6766TIP3    H220263   0.713   3.439   2.668
 6767TIP3   OH220264   3.404   3.829   1.861
 6767TIP3    H120265   3.455   3.815   1.781
 6767TIP3    H220266   3.336   3.762   1.859
 6768TIP3   OH220267   1.122   3.904   0.861
 6768TIP3    H120268   1.147   3.819   0.896
 6768TIP3    H220269   1.147   3.967   0.929
 6769TIP3   OH220270   6.752   0.774   2.326
 6769TIP3    H120271   6.792   0.852   2.363
 6769TIP3    H220272   6.661   0.799   2.308
 6770TIP3   OH220273   0.156   1.827   0.650
 6770TIP3    H120274   0.106   1.905   0.675
 6770TIP3    H220275   0.102   1.754   0.682
 6771TIP3   OH220276   4.827   3.672   2.729
 6771TIP3    H120277   4.785   3.634   2.806
 6771TIP3    H220278   4.768   3.741   2.700
 6772TIP3   OH220279   5.749   5.481   0.387
 6772TIP3    H120280   5.717   5.443   0.305
 6772TIP3    H220281   5.805   5.553   0.359
 6773TIP3   OH220282   2.669   6.164   3.885
 6773TIP3    H120283   2.645   6.209   3.804
 6773TIP3    H220284   2.764   6.153   3.879
 6774TIP3   OH220285   5.152   6.516   5.072
 6774TIP3    H120286   5.165   6.441   5.014
 6774TIP3    H220287   5.211   6.583   5.038
 6775TIP3   OH220288   6.703   2.392   3.671
 6775TIP3    H120289   6.715   2.413   3.579
 6775TIP3    H220290   6.771   2.443   3.716
 6776TIP3   OH220291   3.799   0.686   5.468
 6776TIP3    H120292   3.774   0.755   5.407
 6776TIP3    H220293   3.728   0.685   5.532
 6777TIP3   OH220294   4.292   2.561   4.746
 6777TIP3    H120295   4.255   2.627   4.688
 6777TIP3    H220296   4.216   2.523   4.791
 6778TIP3   OH220297   6.984   1.724   3.085
 6778TIP3    H120298   7.073   1.758   3.085
 6778TIP3    H220299   6.985   1.653   3.021
 6779TIP3   OH220300   0.027   4.007   4.375
 6779TIP3    H120301  -0.021   3.927   4.398
 6779TIP3    H220302   0.119   3.980   4.370
 6780TIP3   OH220303   2.026   2.475   2.060
 6780TIP3    H120304   2.000   2.472   2.152
 6780TIP3    H220305   2.106   2.527   2.060
 6781TIP3   OH220306   5.788   0.953   4.555
 6781TIP3    H120307   5.831   0.928   4.473
 6781TIP3    H220308   5.826   0.895   4.621
 6782TIP3   OH220309   4.629   4.489   1.361
 6782TIP3    H120310   4.696   4.490   1.293
 6782TIP3    H220311   4.672   4.528   1.437
 6783TIP3   OH220312   6.507   4.623   0.133
 6783TIP3    H120313   6.468   4.653   0.051
 6783TIP3    H220314   6.600   4.615   0.115
 6784TIP3   OH220315   6.080   2.932   0.900
 6784TIP3    H120316   6.164   2.895   0.874
 6784TIP3    H220317   6.092   3.027   0.892
 6785TIP3   OH220318   4.447   6.110   4.315
 6785TIP3    H120319   4.413   6.181   4.261
 6785TIP3    H220320   4.370   6.078   4.363
 6786TIP3   OH220321   6.772   0.169   2.244
 6786TIP3    H120322   6.737   0.239   2.188
 6786TIP3    H220323   6.804   0.103   2.183
 6787TIP3   OH220324   0.215   0.326   4.027
 6787TIP3    H120325   0.238   0.323   4.120
 6787TIP3    H220326   0.119   0.332   4.027
 6788TIP3   OH220327   5.118   6.592   2.253
 6788TIP3    H120328   5.101   6.659   2.320
 6788TIP3    H220329   5.031   6.566   2.222
 6789TIP3   OH220330   3.459   4.975   1.160
 6789TIP3    H120331   3.502   5.013   1.237
 6789TIP3    H220332   3.520   4.908   1.130
 6790TIP3   OH220333   5.218   3.878   0.328
 6790TIP3    H120334   5.232   3.922   0.412
 6790TIP3    H220335   5.187   3.791   0.352
 6791TIP3   OH220336   1.536   1.783   1.786
 6791TIP3    H120337   1.471   1.720   1.815
 6791TIP3    H220338   1.546   1.843   1.860
 6792TIP3   OH220339   1.585   5.965   4.638
 6792TIP3    H120340   1.504   6.015   4.645
 6792TIP3    H220341   1.638   5.995   4.711
 6793TIP3   OH220342   4.689   6.836   1.849
 6793TIP3    H120343   4.616   6.832   1.911
 6793TIP3    H220344   4.691   6.928   1.822
 6794TIP3   OH220345   0.849   5.375   3.612
 6794TIP3    H120346   0.773   5.431   3.600
 6794TIP3    H220347   0.924   5.434   3.607
 6795TIP3   OH220348   6.484   0.658   2.597
 6795TIP3    H120349   6.445   0.574   2.619
 6795TIP3    H220350   6.569   0.657   2.641
 6796TIP3   OH220351   1.047   6.537   1.569
 6796TIP3    H120352   1.086   6.494   1.645
 6796TIP3    H220353   0.953   6.527   1.581
 6797TIP3   OH220354   3.563   5.837   5.518
 6797TIP3    H120355   3.495   5.776   5.489
 6797TIP3    H220356   3.585   5.809   5.606
 6798TIP3   OH220357   2.307   0.075   4.707
 6798TIP3    H120358   2.229   0.129   4.720
 6798TIP3    H220359   2.378   0.138   4.697
 6799TIP3   OH220360   4.551   3.996   4.224
 6799TIP3    H120361   4.469   3.953   4.201
 6799TIP3    H220362   4.525   4.077   4.268
 6800TIP3   OH220363   1.816   0.217   3.605
 6800TIP3    H120364   1.832   0.277   3.678
 6800TIP3    H220365   1.901   0.178   3.587
 6801TIP3   OH220366   1.414   1.788   0.564
 6801TIP3    H120367   1.390   1.754   0.650
 6801TIP3    H220368   1.451   1.713   0.518
 6802TIP3   OH220369   0.879   4.701   1.263
 6802TIP3    H120370   0.835   4.785   1.253
 6802TIP3    H220371   0.863   4.676   1.353
 6803TIP3   OH220372   3.707   3.305   1.084
 6803TIP3    H120373   3.625   3.339   1.121
 6803TIP3    H220374   3.745   3.380   1.039
 6804TIP3   OH220375   7.123   2.350   4.636
 6804TIP3    H120376   7.164   2.422   4.589
 6804TIP3    H220377   7.066   2.393   4.700
 6805TIP3   OH220378   3.744   4.685   5.557
 6805TIP3    H120379   3.683   4.746   5.516
 6805TIP3    H220380   3.706   4.598   5.543
 6806TIP3   OH220381   2.971   2.641   0.512
 6806TIP3    H120382   2.944   2.593   0.590
 6806TIP3    H220383   2.900   2.704   0.497
 6807TIP3   OH220384   3.200   2.164   4.172
 6807TIP3    H120385   3.131   2.192   4.111
 6807TIP3    H220386   3.212   2.071   4.154
 6808TIP3   OH220387   3.063   0.225   0.385
 6808TIP3    H120388   3.034   0.311   0.357
 6808TIP3    H220389   3.056   0.170   0.306
 6809TIP3   OH220390   5.825   5.887   1.143
 6809TIP3    H120391   5.895   5.856   1.085
 6809TIP3    H220392   5.747   5.840   1.114
 6810TIP3   OH220393   2.487   3.729   2.303
 6810TIP3    H120394   2.419   3.783   2.342
 6810TIP3    H220395   2.524   3.680   2.377
 6811TIP3   OH220396   4.492   3.540   2.094
 6811TIP3    H120397   4.493   3.450   2.128
 6811TIP3    H220398   4.422   3.541   2.028
 6812TIP3   OH220399   4.614   5.164   0.072
 6812TIP3    H120400   4.627   5.177  -0.022
 6812TIP3    H220401   4.696   5.125   0.102
 6813TIP3   OH220402   5.365   4.121   2.423
 6813TIP3    H120403   5.397   4.198   2.470
 6813TIP3    H220404   5.271   4.118   2.444
 6814TIP3   OH220405   2.789   3.303   1.166
 6814TIP3    H120406   2.726   3.357   1.119
 6814TIP3    H220407   2.788   3.219   1.119
 6815TIP3   OH220408   4.529   1.956   1.336
 6815TIP3    H120409   4.593   1.888   1.312
 6815TIP3    H220410   4.504   1.996   1.253
 6816TIP3   OH220411   6.312   0.252   3.738
 6816TIP3    H120412   6.241   0.304   3.776
 6816TIP3    H220413   6.333   0.188   3.806
 6817TIP3   OH220414   5.682   0.387   1.303
 6817TIP3    H120415   5.588   0.368   1.294
 6817TIP3    H220416   5.686   0.464   1.359
 6818TIP3   OH220417   4.063   1.028   3.680
 6818TIP3    H120418   4.123   0.963   3.643
 6818TIP3    H220419   3.986   1.025   3.623
 6819TIP3   OH220420   6.984   4.335   2.801
 6819TIP3    H120421   6.934   4.270   2.852
 6819TIP3    H220422   7.011   4.400   2.866
 6820TIP3   OH220423   0.002   2.026   2.759
 6820TIP3    H120424  -0.007   2.110   2.714
 6820TIP3    H220425   0.071   1.980   2.710
 6821TIP3   OH220426   4.975   0.979   3.831
 6821TIP3    H120427   5.051   1.025   3.865
 6821TIP3    H220428   4.932   0.943   3.908
 6822TIP3   OH220429   0.812   1.609   3.759
 6822TIP3    H120430   0.875   1.651   3.818
 6822TIP3    H220431   0.858   1.533   3.724
 6823TIP3   OH220432   0.226   2.855   4.107
 6823TIP3    H120433   0.215   2.950   4.106
 6823TIP3    H220434   0.271   2.837   4.189
 6824TIP3   OH220435   7.134   2.056   0.633
 6824TIP3    H120436   7.047   2.051   0.593
 6824TIP3    H220437   7.193   2.075   0.561
 6825TIP3   OH220438   2.754   4.012   4.891
 6825TIP3    H120439   2.793   3.925   4.890
 6825TIP3    H220440   2.826   4.071   4.915
 6826TIP3   OH220441   1.549   2.885   2.328
 6826TIP3    H120442   1.528   2.803   2.373
 6826TIP3    H220443   1.520   2.954   2.388
 6827TIP3   OH220444   5.583   3.348   2.059
 6827TIP3    H120445   5.605   3.255   2.069
 6827TIP3    H220446   5.490   3.352   2.081
 6828TIP3   OH220447   3.480   0.749   0.482
 6828TIP3    H120448   3.482   0.845   0.477
 6828TIP3    H220449   3.501   0.720   0.394
 6829TIP3   OH220450   4.197   6.024   2.866
 6829TIP3    H120451   4.112   6.002   2.905
 6829TIP3    H220452   4.205   6.119   2.877
 6830TIP3   OH220453   0.608   2.897   3.127
 6830TIP3    H120454   0.668   2.824   3.111
 6830TIP3    H220455   0.651   2.973   3.088
 6831TIP3   OH220456   6.125   4.321   1.826
 6831TIP3    H120457   6.149   4.413   1.810
 6831TIP3    H220458   6.079   4.295   1.746
 6832TIP3   OH220459   4.122   6.520   1.361
 6832TIP3    H120460   4.180   6.446   1.345
 6832TIP3    H220461   4.159   6.565   1.438
 6833TIP3   OH220462   3.902   4.441   2.208
 6833TIP3    H120463   3.984   4.391   2.210
 6833TIP3    H220464   3.857   4.409   2.130
 6834TIP3   OH220465   0.897   5.252   3.848
 6834TIP3    H120466   0.870   5.321   3.788
 6834TIP3    H220467   0.819   5.197   3.858
 6835TIP3   OH220468   2.894   0.740   5.642
 6835TIP3    H120469   2.926   0.650   5.647
 6835TIP3    H220470   2.967   0.793   5.672
 6836TIP3   OH220471   4.771   4.742   0.047
 6836TIP3    H120472   4.777   4.749   0.142
 6836TIP3    H220473   4.777   4.832   0.016
 6837TIP3   OH220474   6.684   5.155   0.041
 6837TIP3    H120475   6.775   5.124   0.040
 6837TIP3    H220476   6.659   5.152   0.134
 6838TIP3   OH220477   3.632   6.825   0.665
 6838TIP3    H120478   3.724   6.829   0.639
 6838TIP3    H220479   3.599   6.913   0.649
 6839TIP3   OH220480   6.993   1.928   4.634
 6839TIP3    H120481   7.019   1.874   4.708
 6839TIP3    H220482   7.075   1.963   4.600
 6840TIP3   OH220483   1.602   0.695   0.586
 6840TIP3    H120484   1.550   0.631   0.537
 6840TIP3    H220485   1.692   0.663   0.578
 6841TIP3   OH220486   1.971   4.365   2.634
 6841TIP3    H120487   2.021   4.322   2.703
 6841TIP3    H220488   2.038   4.406   2.579
 6842TIP3   OH220489   6.628   2.792   2.731
 6842TIP3    H120490   6.636   2.857   2.800
 6842TIP3    H220491   6.571   2.725   2.768
 6843TIP3   OH220492   4.076   2.114   5.614
 6843TIP3    H120493   3.996   2.149   5.653
 6843TIP3    H220494   4.080   2.024   5.645
 6844TIP3   OH220495   0.461   5.333   3.949
 6844TIP3    H120496   0.468   5.293   4.036
 6844TIP3    H220497   0.513   5.276   3.892
 6845TIP3   OH220498   6.384   5.658   0.345
 6845TIP3    H120499   6.340   5.676   0.262
 6845TIP3    H220500   6.383   5.742   0.391
 6846TIP3   OH220501   4.929   5.555   5.313
 6846TIP3    H120502   5.018   5.546   5.349
 6846TIP3    H220503   4.872   5.531   5.385
 6847TIP3   OH220504   5.561   3.680   3.541
 6847TIP3    H120505   5.480   3.630   3.532
 6847TIP3    H220506   5.549   3.756   3.485
 6848TIP3   OH220507   3.208   6.729   2.985
 6848TIP3    H120508   3.151   6.677   3.041
 6848TIP3    H220509   3.295   6.719   3.024
 6849TIP3   OH220510   1.695   1.595   1.448
 6849TIP3    H120511   1.689   1.599   1.543
 6849TIP3    H220512   1.656   1.677   1.417
 6850TIP3   OH220513   6.372   4.857   4.520
 6850TIP3    H120514   6.329   4.781   4.480
 6850TIP3    H220515   6.432   4.889   4.453
 6851TIP3   OH220516   6.562   1.976   4.607
 6851TIP3    H120517   6.503   2.028   4.552
 6851TIP3    H220518   6.517   1.892   4.617
 6852TIP3   OH220519   4.351   5.169   0.461
 6852TIP3    H120520   4.260   5.144   0.446
 6852TIP3    H220521   4.399   5.087   0.464
 6853TIP3   OH220522   6.040   5.672   4.778
 6853TIP3    H120523   6.070   5.624   4.700
 6853TIP3    H220524   5.960   5.626   4.805
 6854TIP3   OH220525   0.313   0.648   4.484
 6854TIP3    H120526   0.251   0.652   4.410
 6854TIP3    H220527   0.274   0.704   4.551
 6855TIP3   OH220528   2.001   2.573   0.055
 6855TIP3    H120529   1.972   2.594  -0.034
 6855TIP3    H220530   1.951   2.494   0.078
 6856TIP3   OH220531   1.121   4.423   4.803
 6856TIP3    H120532   1.157   4.424   4.891
 6856TIP3    H220533   1.137   4.512   4.770
 6857TIP3   OH220534   3.014   4.839   0.311
 6857TIP3    H120535   3.056   4.921   0.286
 6857TIP3    H220536   2.997   4.848   0.405
 6858TIP3   OH220537   0.764   2.008   2.555
 6858TIP3    H120538   0.770   1.945   2.627
 6858TIP3    H220539   0.694   1.973   2.499
 6859TIP3   OH220540   5.303   5.286   2.765
 6859TIP3    H120541   5.265   5.213   2.815
 6859TIP3    H220542   5.397   5.278   2.780
 6860TIP3   OH220543   0.249   5.359   5.040
 6860TIP3    H120544   0.302   5.342   5.118
 6860TIP3    H220545   0.312   5.353   4.967
 6861TIP3   OH220546   0.833   2.814   0.133
 6861TIP3    H120547   0.924   2.816   0.103
 6861TIP3    H220548   0.809   2.906   0.144
 6862TIP3   OH220549   0.634   6.069   4.356
 6862TIP3    H120550   0.700   6.094   4.292
 6862TIP3    H220551   0.679   6.075   4.440
 6863TIP3   OH220552   6.052   6.456   3.327
 6863TIP3    H120553   6.139   6.419   3.314
 6863TIP3    H220554   6.009   6.396   3.388
 6864TIP3   OH220555   7.038   2.255   0.966
 6864TIP3    H120556   7.110   2.194   0.951
 6864TIP3    H220557   7.080   2.341   0.970
 6865TIP3   OH220558   0.745   4.124   4.230
 6865TIP3    H120559   0.746   4.096   4.139
 6865TIP3    H220560   0.675   4.189   4.235
 6866TIP3   OH220561   2.772   0.181   4.427
 6866TIP3    H120562   2.853   0.132   4.441
 6866TIP3    H220563   2.711   0.117   4.391
 6867TIP3   OH220564   1.936   5.570  -0.007
 6867TIP3    H120565   1.865   5.614  -0.053
 6867TIP3    H220566   1.897   5.490   0.028
 6868TIP3   OH220567   5.420   6.371   2.025
 6868TIP3    H120568   5.478   6.301   1.994
 6868TIP3    H220569   5.333   6.331   2.024
 6869TIP3   OH220570   0.639   2.592   0.226
 6869TIP3    H120571   0.621   2.595   0.132
 6869TIP3    H220572   0.708   2.658   0.239
 6870TIP3   OH220573   2.138   5.734   1.792
 6870TIP3    H120574   2.084   5.724   1.714
 6870TIP3    H220575   2.227   5.712   1.763
 6871TIP3   OH220576   5.887   1.583   1.255
 6871TIP3    H120577   5.876   1.498   1.213
 6871TIP3    H220578   5.805   1.598   1.302
 6872TIP3   OH220579   3.686   5.843   1.044
 6872TIP3    H120580   3.657   5.841   0.953
 6872TIP3    H220581   3.682   5.752   1.072
 6873TIP3   OH220582   0.251   5.696   4.322
 6873TIP3    H120583   0.257   5.640   4.400
 6873TIP3    H220584   0.318   5.663   4.263
 6874TIP3   OH220585   0.692   6.062   1.921
 6874TIP3    H120586   0.603   6.092   1.904
 6874TIP3    H220587   0.747   6.137   1.899
 6875TIP3   OH220588   6.926   1.933   1.706
 6875TIP3    H120589   6.917   2.013   1.654
 6875TIP3    H220590   6.836   1.911   1.731
 6876TIP3   OH220591   6.446   3.687   3.923
 6876TIP3    H120592   6.484   3.684   4.010
 6876TIP3    H220593   6.460   3.777   3.893
 6877TIP3   OH220594   5.242   0.703   4.932
 6877TIP3    H120595   5.297   0.630   4.958
 6877TIP3    H220596   5.290   0.746   4.861
 6878TIP3   OH220597   0.104   6.564   0.602
 6878TIP3    H120598   0.133   6.598   0.517
 6878TIP3    H220599   0.185   6.543   0.648
 6879TIP3   OH220600   3.037   2.416   3.066
 6879TIP3    H120601   2.948   2.432   3.098
 6879TIP3    H220602   3.067   2.501   3.034
 6880TIP3   OH220603   4.180   5.990   4.161
 6880TIP3    H120604   4.093   6.015   4.132
 6880TIP3    H220605   4.177   5.895   4.167
 6881TIP3   OH220606   0.132   6.756   5.316
 6881TIP3    H120607   0.142   6.833   5.372
 6881TIP3    H220608   0.137   6.681   5.376
 6882TIP3   OH220609   2.279   3.987   3.358
 6882TIP3    H120610   2.335   4.027   3.292
 6882TIP3    H220611   2.335   3.922   3.401
 6883TIP3   OH220612   6.197   3.669   5.503
 6883TIP3    H120613   6.179   3.621   5.584
 6883TIP3    H220614   6.277   3.718   5.520
 6884TIP3   OH220615   6.021   3.952   5.805
 6884TIP3    H120616   6.016   3.887   5.735
 6884TIP3    H220617   5.930   3.961   5.835
 6885TIP3   OH220618   1.330   5.670   5.807
 6885TIP3    H120619   1.334   5.575   5.810
 6885TIP3    H220620   1.355   5.693   5.718
 6886TIP3   OH220621   2.140   4.206   0.511
 6886TIP3    H120622   2.195   4.163   0.445
 6886TIP3    H220623   2.129   4.295   0.479
 6887TIP3   OH220624   6.786   2.688   5.130
 6887TIP3    H120625   6.851   2.621   5.110
 6887TIP3    H220626   6.776   2.685   5.225
 6888TIP3   OH220627   3.467   1.369   1.845
 6888TIP3    H120628   3.507   1.305   1.786
 6888TIP3    H220629   3.518   1.449   1.832
 6889TIP3   OH220630   6.030   5.308   4.330
 6889TIP3    H120631   6.122   5.328   4.351
 6889TIP3    H220632   6.020   5.332   4.238
 6890TIP3   OH220633   4.416   1.232   0.425
 6890TIP3    H120634   4.396   1.154   0.477
 6890TIP3    H220635   4.392   1.305   0.482
 6891TIP3   OH220636   4.864   0.169   5.644
 6891TIP3    H120637   4.795   0.159   5.579
 6891TIP3    H220638   4.945   0.171   5.593
 6892TIP3   OH220639   5.189   4.164   3.647
 6892TIP3    H120640   5.243   4.088   3.670
 6892TIP3    H220641   5.100   4.128   3.638
 6893TIP3   OH220642   6.748   3.723   1.454
 6893TIP3    H120643   6.763   3.804   1.501
 6893TIP3    H220644   6.763   3.654   1.519
 6894TIP3   OH220645   7.035   2.894   5.689
 6894TIP3    H120646   6.986   2.901   5.771
 6894TIP3    H220647   7.038   2.800   5.671
 6895TIP3   OH220648   4.032   6.164   0.822
 6895TIP3    H120649   4.100   6.202   0.878
 6895TIP3    H220650   4.001   6.088   0.871
 6896TIP3   OH220651   5.346   0.487   5.168
 6896TIP3    H120652   5.257   0.471   5.137
 6896TIP3    H220653   5.392   0.404   5.156
 6897TIP3   OH220654   0.812   4.030   3.741
 6897TIP3    H120655   0.852   4.057   3.658
 6897TIP3    H220656   0.794   3.937   3.730
 6898TIP3   OH220657   0.161   6.524   4.793
 6898TIP3    H120658   0.103   6.554   4.863
 6898TIP3    H220659   0.247   6.514   4.836
 6899TIP3   OH220660   1.784   6.344   2.097
 6899TIP3    H120661   1.704   6.323   2.145
 6899TIP3    H220662   1.852   6.293   2.140
 6900TIP3   OH220663   5.696   0.430   1.741
 6900TIP3    H120664   5.630   0.367   1.770
 6900TIP3    H220665   5.764   0.425   1.808
 6901TIP3   OH220666   5.859   1.138   0.612
 6901TIP3    H120667   5.787   1.124   0.673
 6901TIP3    H220668   5.860   1.059   0.558
 6902TIP3   OH220669   3.383   3.352   4.597
 6902TIP3    H120670   3.314   3.372   4.534
 6902TIP3    H220671   3.353   3.273   4.642
 6903TIP3   OH220672   3.837   3.870   2.853
 6903TIP3    H120673   3.908   3.931   2.830
 6903TIP3    H220674   3.772   3.925   2.897
 6904TIP3   OH220675   1.077   5.838   0.981
 6904TIP3    H120676   1.150   5.839   1.043
 6904TIP3    H220677   1.003   5.805   1.032
 6905TIP3   OH220678   2.029   0.462   0.610
 6905TIP3    H120679   2.045   0.487   0.701
 6905TIP3    H220680   2.059   0.536   0.559
 6906TIP3   OH220681   0.927   2.692   1.570
 6906TIP3    H120682   0.906   2.721   1.659
 6906TIP3    H220683   0.864   2.739   1.514
 6907TIP3   OH220684   5.330   0.164   1.492
 6907TIP3    H120685   5.286   0.204   1.567
 6907TIP3    H220686   5.264   0.107   1.453
 6908TIP3   OH220687   4.698   0.474   2.495
 6908TIP3    H120688   4.782   0.432   2.476
 6908TIP3    H220689   4.633   0.405   2.481
 6909TIP3   OH220690   6.983   6.208   3.619
 6909TIP3    H120691   6.889   6.212   3.637
 6909TIP3    H220692   6.991   6.155   3.540
 6910TIP3   OH220693   6.702   6.735   1.614
 6910TIP3    H120694   6.628   6.682   1.585
 6910TIP3    H220695   6.680   6.761   1.703
 6911TIP3   OH220696   2.861   4.230   1.266
 6911TIP3    H120697   2.909   4.178   1.331
 6911TIP3    H220698   2.915   4.308   1.255
 6912TIP3   OH220699   2.675   4.665   2.931
 6912TIP3    H120700   2.608   4.696   2.870
 6912TIP3    H220701   2.727   4.742   2.950
 6913TIP3   OH220702   6.498   6.514   0.624
 6913TIP3    H120703   6.454   6.597   0.643
 6913TIP3    H220704   6.543   6.529   0.541
 6914TIP3   OH220705   3.970   1.799   1.104
 6914TIP3    H120706   3.956   1.855   1.028
 6914TIP3    H220707   3.954   1.855   1.179
 6915TIP3   OH220708   6.634   2.177   1.543
 6915TIP3    H120709   6.644   2.263   1.501
 6915TIP3    H220710   6.559   2.188   1.601
 6916TIP3   OH220711   1.141   5.431   1.485
 6916TIP3    H120712   1.142   5.352   1.432
 6916TIP3    H220713   1.058   5.426   1.533
 6917TIP3   OH220714   0.829   4.683   0.530
 6917TIP3    H120715   0.815   4.621   0.602
 6917TIP3    H220716   0.741   4.712   0.506
 6918TIP3   OH220717   5.355   3.243   4.499
 6918TIP3    H120718   5.355   3.338   4.508
 6918TIP3    H220719   5.264   3.218   4.516
 6919TIP3   OH220720   6.273   2.483   3.857
 6919TIP3    H120721   6.352   2.436   3.828
 6919TIP3    H220722   6.289   2.502   3.949
 6920TIP3   OH220723   5.006   2.321   2.925
 6920TIP3    H120724   4.918   2.282   2.931
 6920TIP3    H220725   5.048   2.296   3.007
 6921TIP3   OH220726   5.113   4.545   2.233
 6921TIP3    H120727   5.108   4.556   2.138
 6921TIP3    H220728   5.070   4.622   2.269
 6922TIP3   OH220729   6.431   4.764   1.319
 6922TIP3    H120730   6.384   4.693   1.363
 6922TIP3    H220731   6.374   4.840   1.328
 6923TIP3   OH220732   0.135   2.583   3.620
 6923TIP3    H120733   0.135   2.642   3.695
 6923TIP3    H220734   0.102   2.500   3.655
 6924TIP3   OH220735   6.823   3.173   4.100
 6924TIP3    H120736   6.782   3.087   4.094
 6924TIP3    H220737   6.814   3.210   4.012
 6925TIP3   OH220738   1.829   1.169   5.120
 6925TIP3    H120739   1.787   1.084   5.129
 6925TIP3    H220740   1.830   1.185   5.026
 6926TIP3   OH220741   0.143   4.762   4.990
 6926TIP3    H120742   0.151   4.821   5.065
 6926TIP3    H220743   0.085   4.808   4.929
 6927TIP3   OH220744   3.903   0.102   3.023
 6927TIP3    H120745   3.829   0.128   3.079
 6927TIP3    H220746   3.871   0.025   2.975
 6928TIP3   OH220747   7.197   6.263   1.433
 6928TIP3    H120748   7.115   6.254   1.482
 6928TIP3    H220749   7.204   6.356   1.414
 6929TIP3   OH220750   2.838   6.474   0.458
 6929TIP3    H120751   2.832   6.378   0.460
 6929TIP3    H220752   2.879   6.493   0.373
 6930TIP3   OH220753   1.434   5.830   4.453
 6930TIP3    H120754   1.365   5.790   4.506
 6930TIP3    H220755   1.502   5.854   4.516
 6931TIP3   OH220756   4.458   2.840   2.722
 6931TIP3    H120757   4.375   2.889   2.717
 6931TIP3    H220758   4.433   2.750   2.705
 6932TIP3   OH220759   4.135   3.373   1.156
 6932TIP3    H120760   4.055   3.422   1.140
 6932TIP3    H220761   4.106   3.292   1.198
 6933TIP3   OH220762   6.335   3.565   1.348
 6933TIP3    H120763   6.349   3.659   1.359
 6933TIP3    H220764   6.314   3.533   1.435
 6934TIP3   OH220765   2.471   0.383   1.615
 6934TIP3    H120766   2.488   0.288   1.614
 6934TIP3    H220767   2.455   0.405   1.524
 6935TIP3   OH220768   2.998   2.713   4.030
 6935TIP3    H120769   3.045   2.652   4.087
 6935TIP3    H220770   2.915   2.669   4.010
 6936TIP3   OH220771   1.477   0.244   5.339
 6936TIP3    H120772   1.477   0.312   5.271
 6936TIP3    H220773   1.428   0.283   5.411
 6937TIP3   OH220774   7.008   2.629   1.319
 6937TIP3    H120775   6.933   2.615   1.377
 6937TIP3    H220776   6.973   2.619   1.231
 6938TIP3   OH220777   6.210   1.418   2.288
 6938TIP3    H120778   6.203   1.513   2.296
 6938TIP3    H220779   6.267   1.393   2.361
 6939TIP3   OH220780   1.486   5.955   1.623
 6939TIP3    H120781   1.397   5.923   1.604
 6939TIP3    H220782   1.534   5.878   1.653
 6940TIP3   OH220783   2.698   2.636   4.627
 6940TIP3    H120784   2.644   2.714   4.643
 6940TIP3    H220785   2.750   2.626   4.706
 6941TIP3   OH220786   6.111   0.238   4.872
 6941TIP3    H120787   6.038   0.192   4.830
 6941TIP3    H220788   6.180   0.171   4.881
 6942TIP3   OH220789   3.956   5.903   2.131
 6942TIP3    H120790   4.004   5.882   2.211
 6942TIP3    H220791   3.864   5.903   2.157
 6943TIP3   OH220792   1.439   1.357   5.329
 6943TIP3    H120793   1.454   1.292   5.399
 6943TIP3    H220794   1.480   1.437   5.363
 6944TIP3   OH220795   6.405   5.531   2.155
 6944TIP3    H120796   6.314   5.519   2.130
 6944TIP3    H220797   6.407   5.512   2.249
 6945TIP3   OH220798   3.380   0.418   1.578
 6945TIP3    H120799   3.378   0.381   1.666
 6945TIP3    H220800   3.313   0.487   1.580
 6946TIP3   OH220801   6.702   1.707   2.358
 6946TIP3    H120802   6.688   1.799   2.338
 6946TIP3    H220803   6.672   1.697   2.448
 6947TIP3   OH220804   4.564   2.205   2.721
 6947TIP3    H120805   4.535   2.159   2.642
 6947TIP3    H220806   4.515   2.163   2.792
 6948TIP3   OH220807   2.532   4.564   0.123
 6948TIP3    H120808   2.490   4.559   0.037
 6948TIP3    H220809   2.618   4.603   0.106
 6949TIP3   OH220810   6.086   1.088   5.229
 6949TIP3    H120811   6.137   1.149   5.283
 6949TIP3    H220812   5.996   1.102   5.257
 6950TIP3   OH220813   6.884   3.173   1.253
 6950TIP3    H120814   6.851   3.255   1.216
 6950TIP3    H220815   6.839   3.165   1.337
 6951TIP3   OH220816   1.548   4.652   5.011
 6951TIP3    H120817   1.576   4.561   5.024
 6951TIP3    H220818   1.541   4.688   5.100
 6952TIP3   OH220819   2.959   4.410   0.488
 6952TIP3    H120820   3.038   4.366   0.455
 6952TIP3    H220821   2.916   4.443   0.409
 6953TIP3   OH220822   3.923   6.642   3.531
 6953TIP3    H120823   3.889   6.553   3.543
 6953TIP3    H220824   3.854   6.688   3.483
 6954TIP3   OH220825   5.155   3.944   2.692
 6954TIP3    H120826   5.115   3.973   2.610
 6954TIP3    H220827   5.204   3.865   2.669
 6955TIP3   OH220828   1.553   0.368   5.766
 6955TIP3    H120829   1.647   0.383   5.758
 6955TIP3    H220830   1.542   0.275   5.748
 6956TIP3   OH220831   3.445   3.878   3.313
 6956TIP3    H120832   3.450   3.877   3.408
 6956TIP3    H220833   3.512   3.940   3.286
 6957TIP3   OH220834   7.155   5.207   4.292
 6957TIP3    H120835   7.092   5.278   4.306
 6957TIP3    H220836   7.176   5.212   4.198
 6958TIP3   OH220837   2.170   6.637   3.401
 6958TIP3    H120838   2.194   6.727   3.382
 6958TIP3    H220839   2.227   6.611   3.473
 6959TIP3   OH220840   7.121   5.868   2.263
 6959TIP3    H120841   7.114   5.791   2.319
 6959TIP3    H220842   7.079   5.843   2.181
 6960TIP3   OH220843   2.028   2.113   4.159
 6960TIP3    H120844   2.111   2.127   4.114
 6960TIP3    H220845   2.051   2.112   4.252
 6961TIP3   OH220846   6.248   3.301   4.219
 6961TIP3    H120847   6.302   3.344   4.152
 6961TIP3    H220848   6.184   3.367   4.245
 6962TIP3   OH220849   4.741   1.540   3.404
 6962TIP3    H120850   4.679   1.474   3.373
 6962TIP3    H220851   4.757   1.517   3.495
 6963TIP3   OH220852   6.066   1.635   1.037
 6963TIP3    H120853   6.131   1.705   1.047
 6963TIP3    H220854   6.014   1.639   1.116
 6964TIP3   OH220855   4.818   4.202   2.495
 6964TIP3    H120856   4.870   4.282   2.486
 6964TIP3    H220857   4.773   4.213   2.578
 6965TIP3   OH220858   1.563   4.487   4.620
 6965TIP3    H120859   1.543   4.395   4.639
 6965TIP3    H220860   1.484   4.520   4.578
 6966TIP3   OH220861   6.675   0.791   4.578
 6966TIP3    H120862   6.684   0.700   4.605
 6966TIP3    H220863   6.663   0.787   4.483
 6967TIP3   OH220864   1.023   5.945   2.785
 6967TIP3    H120865   1.055   5.946   2.875
 6967TIP3    H220866   1.075   5.877   2.742
 6968TIP3   OH220867   6.229   4.080   4.912
 6968TIP3    H120868   6.139   4.055   4.889
 6968TIP3    H220869   6.225   4.174   4.924
 6969TIP3   OH220870   5.933   0.147   4.647
 6969TIP3    H120871   5.843   0.121   4.628
 6969TIP3    H220872   5.979   0.064   4.663
 6970TIP3   OH220873   5.469   3.246   5.447
 6970TIP3    H120874   5.386   3.281   5.414
 6970TIP3    H220875   5.455   3.237   5.541
 6971TIP3   OH220876   1.721   6.351   2.959
 6971TIP3    H120877   1.816   6.356   2.971
 6971TIP3    H220878   1.698   6.431   2.911
 6972TIP3   OH220879   3.252   2.489   4.324
 6972TIP3    H120880   3.203   2.501   4.243
 6972TIP3    H220881   3.253   2.394   4.338
 6973TIP3   OH220882   2.121   4.562   1.456
 6973TIP3    H120883   2.127   4.468   1.436
 6973TIP3    H220884   2.184   4.575   1.527
 6974TIP3   OH220885   2.729   1.886   4.210
 6974TIP3    H120886   2.811   1.838   4.219
 6974TIP3    H220887   2.689   1.883   4.297
 6975TIP3   OH220888   5.061   1.566   0.105
 6975TIP3    H120889   4.975   1.523   0.115
 6975TIP3    H220890   5.055   1.643   0.162
 6976TIP3   OH220891   6.841   4.981   2.848
 6976TIP3    H120892   6.747   4.971   2.858
 6976TIP3    H220893   6.868   4.906   2.795
 6977TIP3   OH220894   6.065   1.671   5.706
 6977TIP3    H120895   6.000   1.652   5.638
 6977TIP3    H220896   6.016   1.722   5.772
 6978TIP3   OH220897   2.363   0.995   0.806
 6978TIP3    H120898   2.428   1.034   0.865
 6978TIP3    H220899   2.279   1.014   0.847
 6979TIP3   OH220900   1.222   3.952   1.126
 6979TIP3    H120901   1.289   3.890   1.153
 6979TIP3    H220902   1.270   4.024   1.086
 6980TIP3   OH220903   2.547   2.519   1.613
 6980TIP3    H120904   2.608   2.448   1.594
 6980TIP3    H220905   2.460   2.478   1.606
 6981TIP3   OH220906   1.356   2.768   4.745
 6981TIP3    H120907   1.441   2.739   4.711
 6981TIP3    H220908   1.315   2.811   4.670
 6982TIP3   OH220909   6.926   3.196   2.765
 6982TIP3    H120910   6.833   3.216   2.753
 6982TIP3    H220911   6.970   3.280   2.755
 6983TIP3   OH220912   6.660   1.546   3.030
 6983TIP3    H120913   6.582   1.494   3.051
 6983TIP3    H220914   6.631   1.637   3.035
 6984TIP3   OH220915   5.887   0.318   3.020
 6984TIP3    H120916   5.963   0.264   3.003
 6984TIP3    H220917   5.833   0.309   2.942
 6985TIP3   OH220918   3.585   4.014   2.950
 6985TIP3    H120919   3.629   4.052   3.026
 6985TIP3    H220920   3.494   4.004   2.977
 6986TIP3   OH220921   1.269   4.346   2.984
 6986TIP3    H120922   1.350   4.393   3.005
 6986TIP3    H220923   1.200   4.397   3.026
 6987TIP3   OH220924   3.041   1.260   1.158
 6987TIP3    H120925   3.047   1.321   1.232
 6987TIP3    H220926   3.120   1.208   1.164
 6988TIP3   OH220927   0.244   5.282   1.780
 6988TIP3    H120928   0.156   5.258   1.809
 6988TIP3    H220929   0.301   5.216   1.819
 6989TIP3   OH220930   2.527   1.777   4.028
 6989TIP3    H120931   2.526   1.827   4.109
 6989TIP3    H220932   2.457   1.816   3.975
 6990TIP3   OH220933   2.377   6.029   2.941
 6990TIP3    H120934   2.373   6.048   2.847
 6990TIP3    H220935   2.306   5.967   2.956
 6991TIP3   OH220936   5.204   1.415   3.646
 6991TIP3    H120937   5.118   1.450   3.668
 6991TIP3    H220938   5.200   1.397   3.552
 6992TIP3   OH220939   0.227   4.078   3.530
 6992TIP3    H120940   0.147   4.113   3.570
 6992TIP3    H220941   0.209   3.985   3.517
 6993TIP3   OH220942   4.342   5.328   4.564
 6993TIP3    H120943   4.348   5.421   4.541
 6993TIP3    H220944   4.263   5.323   4.618
 6994TIP3   OH220945   4.490   2.213   5.237
 6994TIP3    H120946   4.401   2.200   5.205
 6994TIP3    H220947   4.537   2.249   5.161
 6995TIP3   OH220948   3.732   3.300   1.693
 6995TIP3    H120949   3.785   3.348   1.757
 6995TIP3    H220950   3.778   3.311   1.610
 6996TIP3   OH220951   5.052   6.010   4.481
 6996TIP3    H120952   5.135   6.037   4.522
 6996TIP3    H220953   5.031   5.926   4.523
 6997TIP3   OH220954   1.240   0.760   5.375
 6997TIP3    H120955   1.258   0.690   5.312
 6997TIP3    H220956   1.182   0.720   5.440
 6998TIP3   OH220957   1.838   4.272   1.867
 6998TIP3    H120958   1.817   4.183   1.896
 6998TIP3    H220959   1.868   4.317   1.946
 6999TIP3   OH220960   4.275   0.197   3.947
 6999TIP3    H120961   4.183   0.169   3.951
 6999TIP3    H220962   4.311   0.173   4.032
 7000TIP3   OH220963   6.731   0.625   2.710
 7000TIP3    H120964   6.748   0.601   2.618
 7000TIP3    H220965   6.787   0.565   2.760
 7001TIP3   OH220966   0.748   3.716   5.876
 7001TIP3    H120967   0.722   3.629   5.906
 7001TIP3    H220968   0.666   3.757   5.847
 7002TIP3   OH220969   0.751   4.190   2.512
 7002TIP3    H120970   0.686   4.259   2.529
 7002TIP3    H220971   0.835   4.233   2.526
 7003TIP3   OH220972   1.960   6.676   3.635
 7003TIP3    H120973   2.009   6.683   3.553
 7003TIP3    H220974   1.927   6.764   3.651
 7004TIP3   OH220975   3.273   5.856   3.172
 7004TIP3    H120976   3.276   5.804   3.252
 7004TIP3    H220977   3.364   5.875   3.152
 7005TIP3   OH220978   4.452   0.102   0.378
 7005TIP3    H120979   4.429   0.186   0.416
 7005TIP3    H220980   4.485   0.122   0.291
 7006TIP3   OH220981   6.148   0.662   2.652
 7006TIP3    H120982   6.233   0.696   2.622
 7006TIP3    H220983   6.162   0.568   2.663
 7007TIP3   OH220984   2.927   4.685   3.238
 7007TIP3    H120985   2.863   4.652   3.301
 7007TIP3    H220986   2.901   4.775   3.221
 7008TIP3   OH220987   5.811   2.980   3.884
 7008TIP3    H120988   5.886   2.922   3.898
 7008TIP3    H220989   5.846   3.053   3.833
 7009TIP3   OH220990   1.181   3.622   4.806
 7009TIP3    H120991   1.120   3.585   4.742
 7009TIP3    H220992   1.252   3.659   4.754
 7010TIP3   OH220993   2.962   3.046   5.705
 7010TIP3    H120994   2.910   2.966   5.708
 7010TIP3    H220995   2.941   3.091   5.787
 7011TIP3   OH220996   5.690   5.386   5.016
 7011TIP3    H120997   5.612   5.331   5.030
 7011TIP3    H220998   5.758   5.325   4.987
 7012TIP3   OH220999   0.187   6.362   4.532
 7012TIP3    H121000   0.164   6.436   4.588
 7012TIP3    H221001   0.257   6.395   4.475
 7013TIP3   OH221002   4.157   4.446   1.697
 7013TIP3    H121003   4.138   4.529   1.740
 7013TIP3    H221004   4.238   4.461   1.649
 7014TIP3   OH221005   4.930   1.716   3.564
 7014TIP3    H121006   4.900   1.627   3.581
 7014TIP3    H221007   4.854   1.759   3.524
 7015TIP3   OH221008   1.190   5.261   2.711
 7015TIP3    H121009   1.159   5.175   2.682
 7015TIP3    H221010   1.128   5.285   2.781
 7016TIP3   OH221011   6.195   3.761   4.476
 7016TIP3    H121012   6.235   3.743   4.561
 7016TIP3    H221013   6.269   3.760   4.414
 7017TIP3   OH221014   1.603   6.024   2.273
 7017TIP3    H121015   1.535   6.062   2.329
 7017TIP3    H221016   1.556   5.998   2.194
 7018TIP3   OH221017   6.472   5.531   1.737
 7018TIP3    H121018   6.511   5.515   1.823
 7018TIP3    H221019   6.413   5.457   1.723
 7019TIP3   OH221020   0.185   4.326   0.763
 7019TIP3    H121021   0.184   4.415   0.800
 7019TIP3    H221022   0.277   4.312   0.740
 7020TIP3   OH221023   6.969   6.303   5.027
 7020TIP3    H121024   7.017   6.237   5.078
 7020TIP3    H221025   7.010   6.300   4.940
 7021TIP3   OH221026   4.047   2.571   1.213
 7021TIP3    H121027   4.080   2.522   1.138
 7021TIP3    H221028   4.115   2.635   1.232
 7022TIP3   OH221029   3.594   6.677   0.936
 7022TIP3    H121030   3.555   6.594   0.908
 7022TIP3    H221031   3.581   6.736   0.862
 7023TIP3   OH221032  -0.011   2.055   4.552
 7023TIP3    H121033   0.072   2.022   4.518
 7023TIP3    H221034   0.014   2.109   4.627
 7024TIP3   OH221035   2.891   0.955   0.603
 7024TIP3    H121036   2.825   0.967   0.672
 7024TIP3    H221037   2.923   0.866   0.616
 7025TIP3   OH221038   5.140   1.116   2.477
 7025TIP3    H121039   5.236   1.114   2.467
 7025TIP3    H221040   5.124   1.084   2.565
 7026TIP3   OH221041   5.780   1.039   1.790
 7026TIP3    H121042   5.715   0.998   1.847
 7026TIP3    H221043   5.803   0.971   1.727
 7027TIP3   OH221044   5.368   0.471   4.580
 7027TIP3    H121045   5.354   0.378   4.594
 7027TIP3    H221046   5.410   0.502   4.661
 7028TIP3   OH221047   0.961   2.427   4.653
 7028TIP3    H121048   0.931   2.497   4.595
 7028TIP3    H221049   0.922   2.449   4.738
 7029TIP3   OH221050   3.234   3.418   1.344
 7029TIP3    H121051   3.154   3.370   1.322
 7029TIP3    H221052   3.219   3.449   1.433
 7030TIP3   OH221053   6.699   3.961   1.126
 7030TIP3    H121054   6.623   3.985   1.178
 7030TIP3    H221055   6.678   3.874   1.092
 7031TIP3   OH221056   3.437   0.880   0.125
 7031TIP3    H121057   3.360   0.859   0.073
 7031TIP3    H221058   3.403   0.927   0.201
 7032TIP3   OH221059   6.269   0.624   2.052
 7032TIP3    H121060   6.249   0.563   2.124
 7032TIP3    H221061   6.331   0.576   1.997
 7033TIP3   OH221062   2.292   3.680   3.197
 7033TIP3    H121063   2.302   3.663   3.291
 7033TIP3    H221064   2.345   3.758   3.180
 7034TIP3   OH221065   3.947   5.777   3.615
 7034TIP3    H121066   4.040   5.761   3.599
 7034TIP3    H221067   3.934   5.757   3.708
 7035TIP3   OH221068   1.804   0.883   5.130
 7035TIP3    H121069   1.816   0.806   5.185
 7035TIP3    H221070   1.788   0.848   5.043
 7036TIP3   OH221071   1.323   5.145   4.651
 7036TIP3    H121072   1.365   5.217   4.698
 7036TIP3    H221073   1.244   5.126   4.701
 7037TIP3   OH221074  -0.060   5.358   0.307
 7037TIP3    H121075  -0.038   5.274   0.267
 7037TIP3    H221076   0.009   5.371   0.373
 7038TIP3   OH221077   0.742   4.056   1.058
 7038TIP3    H121078   0.761   3.995   0.987
 7038TIP3    H221079   0.827   4.073   1.099
 7039TIP3   OH221080   2.504   6.675   1.490
 7039TIP3    H121081   2.422   6.694   1.536
 7039TIP3    H221082   2.482   6.679   1.397
 7040TIP3   OH221083   4.267   4.569   4.106
 7040TIP3    H121084   4.270   4.477   4.133
 7040TIP3    H221085   4.239   4.566   4.015
 7041TIP3   OH221086   5.824   0.578   4.164
 7041TIP3    H121087   5.805   0.580   4.258
 7041TIP3    H221088   5.874   0.659   4.148
 7042TIP3   OH221089   5.675   1.296   1.673
 7042TIP3    H121090   5.692   1.205   1.693
 7042TIP3    H221091   5.648   1.335   1.756
 7043TIP3   OH221092   2.954   2.226   0.982
 7043TIP3    H121093   2.905   2.264   1.055
 7043TIP3    H221094   2.901   2.151   0.955
 7044TIP3   OH221095   6.809   4.176   4.050
 7044TIP3    H121096   6.787   4.086   4.075
 7044TIP3    H221097   6.757   4.193   3.971
 7045TIP3   OH221098   5.329   3.831   1.767
 7045TIP3    H121099   5.244   3.786   1.758
 7045TIP3    H221100   5.391   3.760   1.786
 7046TIP3   OH221101   6.625   1.233   3.145
 7046TIP3    H121102   6.598   1.142   3.132
 7046TIP3    H221103   6.567   1.265   3.214
 7047TIP3   OH221104   6.571   3.629   4.165
 7047TIP3    H121105   6.573   3.595   4.255
 7047TIP3    H221106   6.643   3.584   4.121
 7048TIP3   OH221107   0.628   1.536   2.984
 7048TIP3    H121108   0.590   1.477   2.919
 7048TIP3    H221109   0.635   1.620   2.939
 7049TIP3   OH221110   1.999   4.431   3.301
 7049TIP3    H121111   2.035   4.406   3.386
 7049TIP3    H221112   1.917   4.474   3.321
 7050TIP3   OH221113   6.539   2.074   4.274
 7050TIP3    H121114   6.508   2.144   4.332
 7050TIP3    H221115   6.568   2.119   4.195
 7051TIP3   OH221116   1.153   2.768   0.168
 7051TIP3    H121117   1.188   2.699   0.224
 7051TIP3    H221118   1.229   2.820   0.142
 7052TIP3   OH221119   3.798   1.178   4.381
 7052TIP3    H121120   3.739   1.135   4.443
 7052TIP3    H221121   3.852   1.236   4.435
 7053TIP3   OH221122   0.167   1.623   2.386
 7053TIP3    H121123   0.076   1.602   2.365
 7053TIP3    H221124   0.161   1.699   2.445
 7054TIP3   OH221125   6.667   0.528   4.622
 7054TIP3    H121126   6.664   0.452   4.680
 7054TIP3    H221127   6.752   0.521   4.578
 7055TIP3   OH221128   3.624   6.426   5.895
 7055TIP3    H121129   3.694   6.376   5.938
 7055TIP3    H221130   3.631   6.404   5.803
 7056TIP3   OH221131   3.188   5.380   5.719
 7056TIP3    H121132   3.152   5.445   5.780
 7056TIP3    H221133   3.277   5.411   5.700
 7057TIP3   OH221134   4.415   6.699   3.136
 7057TIP3    H121135   4.377   6.616   3.105
 7057TIP3    H221136   4.409   6.758   3.060
 7058TIP3   OH221137   0.069   0.099   3.335
 7058TIP3    H121138   0.138   0.034   3.329
 7058TIP3    H221139   0.016   0.086   3.257
 7059TIP3   OH221140   5.348   1.260   4.219
 7059TIP3    H121141   5.368   1.166   4.214
 7059TIP3    H221142   5.401   1.292   4.292
 7060TIP3   OH221143   4.916   5.969   0.386
 7060TIP3    H121144   4.884   6.059   0.379
 7060TIP3    H221145   4.837   5.915   0.389
 7061TIP3   OH221146   1.773   3.957   0.217
 7061TIP3    H121147   1.858   3.916   0.229
 7061TIP3    H221148   1.780   4.003   0.134
 7062TIP3   OH221149   7.166   1.098   2.360
 7062TIP3    H121150   7.099   1.054   2.308
 7062TIP3    H221151   7.207   1.028   2.411
 7063TIP3   OH221152   0.582   3.977   0.172
 7063TIP3    H121153   0.646   3.929   0.120
 7063TIP3    H221154   0.591   3.941   0.260
 7064TIP3   OH221155   4.639   5.718   2.293
 7064TIP3    H121156   4.658   5.628   2.317
 7064TIP3    H221157   4.588   5.752   2.367
 7065TIP3   OH221158   4.622   4.372   0.776
 7065TIP3    H121159   4.666   4.427   0.710
 7065TIP3    H221160   4.627   4.283   0.739
 7066TIP3   OH221161   4.911   6.152   5.177
 7066TIP3    H121162   4.976   6.219   5.196
 7066TIP3    H221163   4.953   6.095   5.113
 7067TIP3   OH221164   3.557   1.768   1.039
 7067TIP3    H121165   3.490   1.755   1.106
 7067TIP3    H221166   3.520   1.834   0.980
 7068TIP3   OH221167   0.878   5.091   0.183
 7068TIP3    H121168   0.932   5.105   0.261
 7068TIP3    H221169   0.825   5.171   0.176
 7069TIP3   OH221170   2.440   4.935   4.092
 7069TIP3    H121171   2.409   5.014   4.135
 7069TIP3    H221172   2.515   4.906   4.144
 7070TIP3   OH221173   5.400   0.579   3.429
 7070TIP3    H121174   5.476   0.632   3.451
 7070TIP3    H221175   5.420   0.492   3.464
 7071TIP3   OH221176   5.131   0.678   0.324
 7071TIP3    H121177   5.174   0.663   0.408
 7071TIP3    H221178   5.157   0.603   0.270
 7072TIP3   OH221179   3.395   3.927   0.809
 7072TIP3    H121180   3.405   3.934   0.904
 7072TIP3    H221181   3.453   3.995   0.774
 7073TIP3   OH221182   6.282   0.655   3.658
 7073TIP3    H121183   6.238   0.731   3.621
 7073TIP3    H221184   6.329   0.616   3.584
 7074TIP3   OH221185   1.337   0.459   4.799
 7074TIP3    H121186   1.381   0.504   4.726
 7074TIP3    H221187   1.339   0.523   4.870
 7075TIP3   OH221188   0.412   5.505   3.378
 7075TIP3    H121189   0.381   5.523   3.290
 7075TIP3    H221190   0.390   5.583   3.428
 7076TIP3   OH221191   1.323   2.486   3.348
 7076TIP3    H121192   1.375   2.417   3.390
 7076TIP3    H221193   1.306   2.454   3.260
 7077TIP3   OH221194   1.138   5.765   5.418
 7077TIP3    H121195   1.175   5.826   5.354
 7077TIP3    H221196   1.073   5.715   5.368
 7078TIP3   OH221197   1.545   0.188   0.948
 7078TIP3    H121198   1.478   0.256   0.956
 7078TIP3    H221199   1.498   0.111   0.919
 7079TIP3   OH221200   3.669   3.043   5.206
 7079TIP3    H121201   3.593   3.092   5.236
 7079TIP3    H221202   3.697   3.089   5.127
 7080TIP3   OH221203   1.548   6.674   4.226
 7080TIP3    H121204   1.551   6.591   4.179
 7080TIP3    H221205   1.631   6.679   4.272
 7081TIP3   OH221206   0.187   4.089   5.002
 7081TIP3    H121207   0.168   4.163   5.060
 7081TIP3    H221208   0.275   4.107   4.968
 7082TIP3   OH221209   0.234   5.898   5.462
 7082TIP3    H121210   0.183   5.839   5.407
 7082TIP3    H221211   0.256   5.972   5.405
 7083TIP3   OH221212   4.006   3.567   4.414
 7083TIP3    H121213   3.952   3.574   4.335
 7083TIP3    H221214   3.958   3.507   4.471
 7084TIP3   OH221215   4.782   3.118   2.175
 7084TIP3    H121216   4.743   3.081   2.096
 7084TIP3    H221217   4.749   3.063   2.247
 7085TIP3   OH221218   4.674   3.858   3.388
 7085TIP3    H121219   4.741   3.885   3.450
 7085TIP3    H221220   4.663   3.764   3.403
 7086TIP3   OH221221   0.861   6.040   5.292
 7086TIP3    H121222   0.801   6.040   5.217
 7086TIP3    H221223   0.838   5.961   5.341
 7087TIP3   OH221224   5.423   4.515   2.921
 7087TIP3    H121225   5.458   4.431   2.889
 7087TIP3    H221226   5.436   4.575   2.848
 7088TIP3   OH221227   1.936   0.881   3.236
 7088TIP3    H121228   1.913   0.885   3.143
 7088TIP3    H221229   2.017   0.933   3.242
 7089TIP3   OH221230   0.682   4.452   4.477
 7089TIP3    H121231   0.612   4.464   4.541
 7089TIP3    H221232   0.734   4.532   4.483
 7090TIP3   OH221233   5.697   0.163   4.334
 7090TIP3    H121234   5.697   0.091   4.272
 7090TIP3    H221235   5.705   0.121   4.420
 7091TIP3   OH221236   0.645   6.171   1.526
 7091TIP3    H121237   0.569   6.185   1.582
 7091TIP3    H221238   0.634   6.233   1.454
 7092TIP3   OH221239   1.110   1.677   0.313
 7092TIP3    H121240   1.047   1.632   0.370
 7092TIP3    H221241   1.146   1.747   0.367
 7093TIP3   OH221242   3.151   2.367   1.961
 7093TIP3    H121243   3.133   2.458   1.983
 7093TIP3    H221244   3.243   2.354   1.983
 7094TIP3   OH221245   6.082   2.536   1.871
 7094TIP3    H121246   6.164   2.500   1.905
 7094TIP3    H221247   6.072   2.495   1.785
 7095TIP3   OH221248   1.959   5.881   4.036
 7095TIP3    H121249   1.911   5.864   4.117
 7095TIP3    H221250   2.044   5.837   4.048
 7096TIP3   OH221251   5.770   3.535   3.414
 7096TIP3    H121252   5.720   3.580   3.482
 7096TIP3    H221253   5.763   3.593   3.337
 7097TIP3   OH221254   2.831   1.869   0.377
 7097TIP3    H121255   2.907   1.851   0.322
 7097TIP3    H221256   2.866   1.920   0.450
 7098TIP3   OH221257   6.914   3.550   4.756
 7098TIP3    H121258   6.893   3.492   4.829
 7098TIP3    H221259   6.971   3.617   4.794
 7099TIP3   OH221260   2.627   2.299   3.686
 7099TIP3    H121261   2.660   2.210   3.697
 7099TIP3    H221262   2.660   2.326   3.600
 7100TIP3   OH221263   0.042   2.384   5.476
 7100TIP3    H121264   0.066   2.301   5.433
 7100TIP3    H221265   0.010   2.358   5.562
 7101TIP3   OH221266   0.580   1.391   0.360
 7101TIP3    H121267   0.517   1.456   0.330
 7101TIP3    H221268   0.585   1.404   0.454
 7102TIP3   OH221269   6.004   1.023   2.160
 7102TIP3    H121270   6.045   0.950   2.114
 7102TIP3    H221271   6.061   1.098   2.142
 7103TIP3   OH221272   0.925   5.318   3.328
 7103TIP3    H121273   0.895   5.233   3.359
 7103TIP3    H221274   0.978   5.353   3.400
 7104TIP3   OH221275   5.680   5.686   2.926
 7104TIP3    H121276   5.605   5.636   2.894
 7104TIP3    H221277   5.708   5.640   3.005
 7105TIP3   OH221278   3.526   3.142   2.196
 7105TIP3    H121279   3.580   3.131   2.118
 7105TIP3    H221280   3.437   3.119   2.167
 7106TIP3   OH221281   5.213   4.267   0.541
 7106TIP3    H121282   5.258   4.349   0.523
 7106TIP3    H221283   5.136   4.292   0.592
 7107TIP3   OH221284   1.274   4.060   3.097
 7107TIP3    H121285   1.191   4.034   3.137
 7107TIP3    H221286   1.267   4.155   3.088
 7108TIP3   OH221287   5.449   6.641   3.471
 7108TIP3    H121288   5.431   6.569   3.530
 7108TIP3    H221289   5.544   6.642   3.462
 7109TIP3   OH221290   0.353   5.452   4.478
 7109TIP3    H121291   0.392   5.365   4.479
 7109TIP3    H221292   0.291   5.451   4.552
 7110TIP3   OH221293   5.271   4.581   1.754
 7110TIP3    H121294   5.271   4.490   1.785
 7110TIP3    H221295   5.360   4.612   1.772
 7111TIP3   OH221296   2.763   0.918   0.337
 7111TIP3    H121297   2.693   0.983   0.335
 7111TIP3    H221298   2.808   0.933   0.420
 7112TIP3   OH221299   5.543   5.336   1.599
 7112TIP3    H121300   5.607   5.281   1.555
 7112TIP3    H221301   5.497   5.381   1.528
 7113TIP3   OH221302   0.812   3.534   3.977
 7113TIP3    H121303   0.718   3.550   3.984
 7113TIP3    H221304   0.830   3.537   3.883
 7114TIP3   OH221305   0.557   4.124   2.717
 7114TIP3    H121306   0.560   4.035   2.683
 7114TIP3    H221307   0.593   4.177   2.646
 7115TIP3   OH221308   1.252   0.618   0.479
 7115TIP3    H121309   1.336   0.573   0.487
 7115TIP3    H221310   1.249   0.678   0.554
 7116TIP3   OH221311   5.843   2.012   0.236
 7116TIP3    H121312   5.857   1.921   0.210
 7116TIP3    H221313   5.860   2.062   0.156
 7117TIP3   OH221314   7.055   4.600   3.333
 7117TIP3    H121315   6.968   4.561   3.337
 7117TIP3    H221316   7.050   4.662   3.260
 7118TIP3   OH221317   4.563   1.727   2.924
 7118TIP3    H121318   4.621   1.800   2.903
 7118TIP3    H221319   4.600   1.689   3.003
 7119TIP3   OH221320   0.860   6.776   4.390
 7119TIP3    H121321   0.880   6.718   4.316
 7119TIP3    H221322   0.943   6.784   4.437
 7120TIP3   OH221323   2.924   3.097   0.994
 7120TIP3    H121324   2.911   3.159   0.921
 7120TIP3    H221325   2.907   3.012   0.956
 7121TIP3   OH221326   6.689   4.031   2.064
 7121TIP3    H121327   6.608   4.044   2.114
 7121TIP3    H221328   6.662   4.039   1.973
 7122TIP3   OH221329   5.676   5.463   3.445
 7122TIP3    H121330   5.612   5.495   3.509
 7122TIP3    H221331   5.665   5.368   3.446
 7123TIP3   OH221332   4.695   4.575   4.501
 7123TIP3    H121333   4.633   4.645   4.520
 7123TIP3    H221334   4.753   4.611   4.433
 7124TIP3   OH221335   2.903   6.782   4.488
 7124TIP3    H121336   2.934   6.822   4.407
 7124TIP3    H221337   2.822   6.738   4.463
 7125TIP3   OH221338   4.257   6.430   5.358
 7125TIP3    H121339   4.346   6.444   5.326
 7125TIP3    H221340   4.247   6.335   5.360
 7126TIP3   OH221341   2.352   5.581   5.325
 7126TIP3    H121342   2.423   5.605   5.384
 7126TIP3    H221343   2.305   5.511   5.370
 7127TIP3   OH221344   2.377   6.264   0.257
 7127TIP3    H121345   2.286   6.289   0.268
 7127TIP3    H221346   2.418   6.339   0.214
 7128TIP3   OH221347   6.700   0.291   5.078
 7128TIP3    H121348   6.695   0.318   5.170
 7128TIP3    H221349   6.755   0.213   5.079
 7129TIP3   OH221350   3.495   1.183   1.339
 7129TIP3    H121351   3.535   1.157   1.256
 7129TIP3    H221352   3.496   1.279   1.337
 7130TIP3   OH221353   1.674   4.738   0.329
 7130TIP3    H121354   1.758   4.764   0.292
 7130TIP3    H221355   1.695   4.711   0.419
 7131TIP3   OH221356   4.681   2.000   1.778
 7131TIP3    H121357   4.703   1.993   1.870
 7131TIP3    H221358   4.626   1.924   1.761
 7132TIP3   OH221359   5.756   5.217   2.439
 7132TIP3    H121360   5.760   5.262   2.354
 7132TIP3    H221361   5.847   5.198   2.460
 7133TIP3   OH221362   6.169   3.529   5.739
 7133TIP3    H121363   6.139   3.527   5.830
 7133TIP3    H221364   6.190   3.437   5.719
 7134TIP3   OH221365   1.233   3.642   0.901
 7134TIP3    H121366   1.175   3.595   0.841
 7134TIP3    H221367   1.228   3.593   0.983
 7135TIP3   OH221368   4.077   4.327   2.518
 7135TIP3    H121369   4.042   4.301   2.603
 7135TIP3    H221370   4.022   4.280   2.455
 7136TIP3   OH221371   1.430   0.398   2.500
 7136TIP3    H121372   1.351   0.406   2.446
 7136TIP3    H221373   1.397   0.379   2.588
 7137TIP3   OH221374   1.513   6.220   4.426
 7137TIP3    H121375   1.598   6.242   4.464
 7137TIP3    H221376   1.455   6.290   4.455
 7138TIP3   OH221377   2.432   2.874   2.729
 7138TIP3    H121378   2.418   2.911   2.642
 7138TIP3    H221379   2.457   2.948   2.784
 7139TIP3   OH221380   5.975   0.318   5.747
 7139TIP3    H121381   6.060   0.325   5.703
 7139TIP3    H221382   5.962   0.225   5.760
 7140TIP3   OH221383   3.944   0.391   2.478
 7140TIP3    H121384   3.921   0.405   2.570
 7140TIP3    H221385   3.907   0.305   2.457
 7141TIP3   OH221386   1.471   4.889   4.263
 7141TIP3    H121387   1.401   4.825   4.253
 7141TIP3    H221388   1.502   4.876   4.352
 7142TIP3   OH221389   6.833   3.990   4.475
 7142TIP3    H121390   6.925   4.013   4.484
 7142TIP3    H221391   6.790   4.072   4.450
 7143TIP3   OH221392   2.753   0.232   1.111
 7143TIP3    H121393   2.821   0.175   1.077
 7143TIP3    H221394   2.777   0.319   1.081
 7144TIP3   OH221395   2.607   1.978   4.453
 7144TIP3    H121396   2.536   2.042   4.457
 7144TIP3    H221397   2.598   1.928   4.534
 7145TIP3   OH221398   3.339   6.315   2.898
 7145TIP3    H121399   3.392   6.329   2.977
 7145TIP3    H221400   3.251   6.298   2.932
 7146TIP3   OH221401   5.224   1.905   4.484
 7146TIP3    H121402   5.158   1.936   4.546
 7146TIP3    H221403   5.179   1.837   4.433
 7147TIP3   OH221404   4.544   2.662   2.451
 7147TIP3    H121405   4.467   2.715   2.474
 7147TIP3    H221406   4.537   2.584   2.508
 7148TIP3   OH221407   5.968   1.009   0.348
 7148TIP3    H121408   5.896   1.054   0.303
 7148TIP3    H221409   6.021   0.973   0.278
 7149TIP3   OH221410   4.711   2.032   1.079
 7149TIP3    H121411   4.742   2.015   0.991
 7149TIP3    H221412   4.616   2.016   1.075
 7150TIP3   OH221413   1.441   5.668   3.917
 7150TIP3    H121414   1.398   5.654   4.001
 7150TIP3    H221415   1.516   5.608   3.918
 7151TIP3   OH221416   5.577   1.248   0.451
 7151TIP3    H121417   5.580   1.287   0.538
 7151TIP3    H221418   5.561   1.155   0.467
 7152TIP3   OH221419   3.117   4.039   0.870
 7152TIP3    H121420   3.142   3.975   0.803
 7152TIP3    H221421   3.149   4.122   0.835
 7153TIP3   OH221422   6.055   1.966   3.230
 7153TIP3    H121423   5.968   1.973   3.189
 7153TIP3    H221424   6.116   1.989   3.160
 7154TIP3   OH221425   4.997   2.918   3.385
 7154TIP3    H121426   4.929   2.924   3.453
 7154TIP3    H221427   4.998   2.825   3.361
 7155TIP3   OH221428   2.890   3.041   3.377
 7155TIP3    H121429   2.836   3.008   3.306
 7155TIP3    H221430   2.873   2.981   3.450
 7156TIP3   OH221431   3.939   4.949   0.027
 7156TIP3    H121432   3.957   4.928  -0.065
 7156TIP3    H221433   3.887   4.875   0.058
 7157TIP3   OH221434   2.404   3.466   1.669
 7157TIP3    H121435   2.499   3.458   1.669
 7157TIP3    H221436   2.385   3.530   1.738
 7158TIP3   OH221437   4.557   5.716   1.818
 7158TIP3    H121438   4.496   5.666   1.764
 7158TIP3    H221439   4.617   5.650   1.854
 7159TIP3   OH221440   6.385   4.876   1.916
 7159TIP3    H121441   6.479   4.891   1.906
 7159TIP3    H221442   6.370   4.789   1.878
 7160TIP3   OH221443   0.022   0.268   1.463
 7160TIP3    H121444   0.104   0.280   1.512
 7160TIP3    H221445  -0.047   0.272   1.529
 7161TIP3   OH221446   1.396   4.126   0.962
 7161TIP3    H121447   1.438   4.044   0.938
 7161TIP3    H221448   1.456   4.167   1.024
 7162TIP3   OH221449   3.634   4.728   0.365
 7162TIP3    H121450   3.546   4.708   0.334
 7162TIP3    H221451   3.632   4.705   0.458
 7163TIP3   OH221452   4.819   3.207   0.902
 7163TIP3    H121453   4.771   3.198   0.984
 7163TIP3    H221454   4.796   3.129   0.851
 7164TIP3   OH221455   2.199   5.822   5.461
 7164TIP3    H121456   2.136   5.754   5.437
 7164TIP3    H221457   2.268   5.816   5.395
 7165TIP3   OH221458   2.237   3.170   0.323
 7165TIP3    H121459   2.290   3.129   0.254
 7165TIP3    H221460   2.155   3.192   0.280
 7166TIP3   OH221461   2.857   5.608   2.113
 7166TIP3    H121462   2.778   5.600   2.165
 7166TIP3    H221463   2.917   5.543   2.150
 7167TIP3   OH221464   2.829   6.212   2.561
 7167TIP3    H121465   2.893   6.283   2.568
 7167TIP3    H221466   2.746   6.252   2.587
 7168TIP3   OH221467   4.410   2.938   5.590
 7168TIP3    H121468   4.393   3.027   5.561
 7168TIP3    H221469   4.364   2.883   5.525
 7169TIP3   OH221470   6.388   2.573   2.600
 7169TIP3    H121471   6.326   2.501   2.611
 7169TIP3    H221472   6.420   2.591   2.689
 7170TIP3   OH221473   6.921   2.157   1.205
 7170TIP3    H121474   6.952   2.190   1.121
 7170TIP3    H221475   6.997   2.163   1.263
 7171TIP3   OH221476   0.785   2.191   2.931
 7171TIP3    H121477   0.723   2.252   2.970
 7171TIP3    H221478   0.762   2.106   2.968
 7172TIP3   OH221479   7.011   3.130   3.025
 7172TIP3    H121480   6.921   3.121   3.057
 7172TIP3    H221481   7.003   3.127   2.930
 7173TIP3   OH221482   0.411   1.431   4.495
 7173TIP3    H121483   0.411   1.515   4.542
 7173TIP3    H221484   0.454   1.450   4.412
 7174TIP3   OH221485   4.178   3.816   5.125
 7174TIP3    H121486   4.141   3.753   5.188
 7174TIP3    H221487   4.102   3.865   5.094
 7175TIP3   OH221488   4.398   1.055   2.917
 7175TIP3    H121489   4.356   1.030   2.999
 7175TIP3    H221490   4.331   1.041   2.850
 7176TIP3   OH221491   0.803   4.203   4.534
 7176TIP3    H121492   0.751   4.283   4.541
 7176TIP3    H221493   0.839   4.206   4.445
 7177TIP3   OH221494   5.478   3.835   0.778
 7177TIP3    H121495   5.539   3.909   0.776
 7177TIP3    H221496   5.525   3.766   0.826
 7178TIP3   OH221497   3.170   6.306   3.546
 7178TIP3    H121498   3.092   6.256   3.569
 7178TIP3    H221499   3.175   6.374   3.613
 7179TIP3   OH221500   5.235   5.915   2.726
 7179TIP3    H121501   5.142   5.935   2.737
 7179TIP3    H221502   5.249   5.835   2.778
 7180TIP3   OH221503   3.983   5.417   5.116
 7180TIP3    H121504   3.989   5.507   5.148
 7180TIP3    H221505   3.979   5.363   5.195
 7181TIP3   OH221506   2.577   0.715   1.076
 7181TIP3    H121507   2.575   0.741   0.984
 7181TIP3    H221508   2.665   0.738   1.105
 7182TIP3   OH221509   1.099   5.367   4.399
 7182TIP3    H121510   1.162   5.440   4.399
 7182TIP3    H221511   1.052   5.377   4.482
 7183TIP3   OH221512   3.930   4.174   0.094
 7183TIP3    H121513   3.949   4.080   0.092
 7183TIP3    H221514   4.016   4.215   0.107
 7184TIP3   OH221515   0.472   0.775   2.075
 7184TIP3    H121516   0.421   0.719   2.134
 7184TIP3    H221517   0.541   0.717   2.041
 7185TIP3   OH221518   5.934   5.045   2.046
 7185TIP3    H121519   5.846   5.020   2.018
 7185TIP3    H221520   5.987   4.967   2.031
 7186TIP3   OH221521   1.653   6.187   5.177
 7186TIP3    H121522   1.716   6.115   5.180
 7186TIP3    H221523   1.643   6.206   5.083
 7187TIP3   OH221524   2.564   4.169   1.875
 7187TIP3    H121525   2.480   4.143   1.837
 7187TIP3    H221526   2.618   4.090   1.869
 7188TIP3   OH221527   1.459   3.085   2.488
 7188TIP3    H121528   1.546   3.125   2.488
 7188TIP3    H221529   1.433   3.083   2.580
 7189TIP3   OH221530   6.032   5.668   0.463
 7189TIP3    H121531   5.977   5.688   0.387
 7189TIP3    H221532   5.977   5.614   0.520
 7190TIP3   OH221533   1.765   1.162   5.566
 7190TIP3    H121534   1.833   1.148   5.632
 7190TIP3    H221535   1.787   1.101   5.496
 7191TIP3   OH221536   1.868   1.042   4.391
 7191TIP3    H121537   1.861   1.015   4.299
 7191TIP3    H221538   1.779   1.066   4.416
 7192TIP3   OH221539   4.000   6.548   5.863
 7192TIP3    H121540   4.080   6.500   5.885
 7192TIP3    H221541   3.999   6.548   5.767
 7193TIP3   OH221542   0.704   5.135   1.806
 7193TIP3    H121543   0.660   5.062   1.762
 7193TIP3    H221544   0.634   5.180   1.854
 7194TIP3   OH221545   0.507   2.316   4.009
 7194TIP3    H121546   0.543   2.234   3.977
 7194TIP3    H221547   0.423   2.325   3.964
 7195TIP3   OH221548   6.998   2.028   0.349
 7195TIP3    H121549   6.930   1.976   0.390
 7195TIP3    H221550   7.029   1.974   0.276
 7196TIP3   OH221551   4.755   5.929   5.717
 7196TIP3    H121552   4.764   5.985   5.794
 7196TIP3    H221553   4.704   5.980   5.655
 7197TIP3   OH221554   1.052   1.117   1.510
 7197TIP3    H121555   1.002   1.188   1.549
 7197TIP3    H221556   0.996   1.040   1.519
 7198TIP3   OH221557   5.301   2.595   4.438
 7198TIP3    H121558   5.277   2.596   4.345
 7198TIP3    H221559   5.396   2.604   4.439
 7199TIP3   OH221560   6.229   0.444   1.749
 7199TIP3    H121561   6.264   0.518   1.699
 7199TIP3    H221562   6.276   0.368   1.714
 7200TIP3   OH221563   5.053   4.809   2.232
 7200TIP3    H121564   5.046   4.826   2.138
 7200TIP3    H221565   5.142   4.838   2.255
 7201TIP3   OH221566   1.893   2.370   4.380
 7201TIP3    H121567   1.904   2.288   4.428
 7201TIP3    H221568   1.943   2.435   4.430
 7202TIP3   OH221569   0.210   6.010   0.441
 7202TIP3    H121570   0.219   5.915   0.447
 7202TIP3    H221571   0.124   6.028   0.479
 7203TIP3   OH221572   1.748   1.847   1.617
 7203TIP3    H121573   1.795   1.896   1.684
 7203TIP3    H221574   1.672   1.811   1.662
 7204TIP3   OH221575   1.547   5.771   3.417
 7204TIP3    H121576   1.585   5.697   3.369
 7204TIP3    H221577   1.556   5.746   3.509
 7205TIP3   OH221578   2.860   1.143   3.020
 7205TIP3    H121579   2.860   1.132   3.115
 7205TIP3    H221580   2.902   1.228   3.006
 7206TIP3   OH221581   3.319   6.619   1.448
 7206TIP3    H121582   3.274   6.574   1.519
 7206TIP3    H221583   3.403   6.645   1.486
 7207TIP3   OH221584   3.969   5.901   0.974
 7207TIP3    H121585   4.008   5.899   1.061
 7207TIP3    H221586   3.876   5.913   0.990
 7208TIP3   OH221587   7.068   3.158   4.171
 7208TIP3    H121588   6.977   3.163   4.141
 7208TIP3    H221589   7.085   3.243   4.210
 7209TIP3   OH221590   1.204   0.551   0.224
 7209TIP3    H121591   1.211   0.457   0.209
 7209TIP3    H221592   1.228   0.562   0.316
 7210TIP3   OH221593   1.008   2.605   3.356
 7210TIP3    H121594   1.102   2.602   3.344
 7210TIP3    H221595   0.995   2.596   3.451
 7211TIP3   OH221596   4.187   3.114   2.292
 7211TIP3    H121597   4.280   3.096   2.304
 7211TIP3    H221598   4.149   3.030   2.269
 7212TIP3   OH221599   1.372   5.358   3.947
 7212TIP3    H121600   1.304   5.393   4.004
 7212TIP3    H221601   1.389   5.270   3.981
 7213TIP3   OH221602   1.709   1.779   0.593
 7213TIP3    H121603   1.645   1.735   0.537
 7213TIP3    H221604   1.677   1.870   0.598
 7214TIP3   OH221605   1.882   2.812   0.238
 7214TIP3    H121606   1.973   2.838   0.252
 7214TIP3    H221607   1.886   2.717   0.224
 7215TIP3   OH221608   1.617   4.052   2.926
 7215TIP3    H121609   1.689   4.064   2.988
 7215TIP3    H221610   1.585   4.141   2.908
 7216TIP3   OH221611   3.784   3.914   0.512
 7216TIP3    H121612   3.797   3.820   0.521
 7216TIP3    H221613   3.693   3.923   0.484
 7217TIP3   OH221614   1.399   6.469   4.451
 7217TIP3    H121615   1.462   6.480   4.379
 7217TIP3    H221616   1.410   6.548   4.504
 7218TIP3   OH221617   2.078   3.703   2.002
 7218TIP3    H121618   2.081   3.718   2.096
 7218TIP3    H221619   1.987   3.718   1.977
 7219TIP3   OH221620   3.616   4.472   3.271
 7219TIP3    H121621   3.630   4.378   3.275
 7219TIP3    H221622   3.539   4.487   3.325
 7220TIP3   OH221623   1.466   2.495   3.696
 7220TIP3    H121624   1.556   2.512   3.669
 7220TIP3    H221625   1.456   2.400   3.690
 7221TIP3   OH221626   1.166   0.083   4.006
 7221TIP3    H121627   1.215   0.155   3.965
 7221TIP3    H221628   1.094   0.066   3.946
 7222TIP3   OH221629   2.892   2.444   1.769
 7222TIP3    H121630   2.859   2.433   1.680
 7222TIP3    H221631   2.980   2.479   1.758
 7223TIP3   OH221632   0.478   0.052   3.565
 7223TIP3    H121633   0.495   0.141   3.533
 7223TIP3    H221634   0.542  -0.003   3.519
 7224TIP3   OH221635   0.911   0.512   2.521
 7224TIP3    H121636   1.005   0.513   2.535
 7224TIP3    H221637   0.882   0.426   2.552
 7225TIP3   OH221638   2.291   2.305   3.762
 7225TIP3    H121639   2.335   2.310   3.678
 7225TIP3    H221640   2.230   2.380   3.762
 7226TIP3   OH221641   2.394   0.539   0.448
 7226TIP3    H121642   2.375   0.450   0.418
 7226TIP3    H221643   2.425   0.584   0.369
 7227TIP3   OH221644   2.681   6.163   3.108
 7227TIP3    H121645   2.687   6.216   3.028
 7227TIP3    H221646   2.602   6.112   3.097
 7228TIP3   OH221647   1.357   3.979   3.362
 7228TIP3    H121648   1.429   4.039   3.382
 7228TIP3    H221649   1.347   3.984   3.267
 7229TIP3   OH221650   0.793   4.037   5.555
 7229TIP3    H121651   0.717   3.983   5.535
 7229TIP3    H221652   0.815   4.079   5.472
 7230TIP3   OH221653   5.668   3.303   0.731
 7230TIP3    H121654   5.711   3.217   0.734
 7230TIP3    H221655   5.641   3.313   0.640
 7231TIP3   OH221656   3.486   2.693   4.987
 7231TIP3    H121657   3.414   2.631   4.993
 7231TIP3    H221658   3.469   2.740   4.905
 7232TIP3   OH221659   0.807   0.101   5.713
 7232TIP3    H121660   0.800   0.146   5.797
 7232TIP3    H221661   0.840   0.168   5.653
 7233TIP3   OH221662   5.667   2.209   5.504
 7233TIP3    H121663   5.655   2.301   5.529
 7233TIP3    H221664   5.578   2.175   5.495
 7234TIP3   OH221665   6.241   3.825   4.755
 7234TIP3    H121666   6.235   3.910   4.799
 7234TIP3    H221667   6.271   3.766   4.824
 7235TIP3   OH221668   7.085   1.870   3.347
 7235TIP3    H121669   7.016   1.917   3.394
 7235TIP3    H221670   7.039   1.799   3.302
 7236TIP3   OH221671   5.398   5.432   2.076
 7236TIP3    H121672   5.436   5.514   2.108
 7236TIP3    H221673   5.455   5.363   2.110
 7237TIP3   OH221674   4.213   2.550   4.008
 7237TIP3    H121675   4.155   2.622   3.982
 7237TIP3    H221676   4.260   2.584   4.084
 7238TIP3   OH221677   3.339   0.414   3.207
 7238TIP3    H121678   3.354   0.373   3.121
 7238TIP3    H221679   3.417   0.394   3.257
 7239TIP3   OH221680   4.176   6.007   2.023
 7239TIP3    H121681   4.171   6.100   2.000
 7239TIP3    H221682   4.085   5.981   2.038
 7240TIP3   OH221683   5.426   3.257   5.734
 7240TIP3    H121684   5.469   3.192   5.790
 7240TIP3    H221685   5.394   3.323   5.795
 7241TIP3   OH221686   6.650   3.116   1.769
 7241TIP3    H121687   6.590   3.097   1.842
 7241TIP3    H221688   6.645   3.039   1.713
 7242TIP3   OH221689   3.653   3.633   4.040
 7242TIP3    H121690   3.713   3.707   4.048
 7242TIP3    H221691   3.640   3.602   4.130
 7243TIP3   OH221692   6.979   2.553   0.324
 7243TIP3    H121693   6.970   2.612   0.249
 7243TIP3    H221694   6.950   2.468   0.292
 7244TIP3   OH221695   5.408   6.210   0.796
 7244TIP3    H121696   5.328   6.250   0.830
 7244TIP3    H221697   5.413   6.125   0.839
 7245TIP3   OH221698   5.034   6.477   1.705
 7245TIP3    H121699   5.126   6.502   1.716
 7245TIP3    H221700   4.993   6.555   1.667
 7246TIP3   OH221701   2.929   2.565   5.368
 7246TIP3    H121702   2.985   2.593   5.441
 7246TIP3    H221703   2.865   2.507   5.409
 7247TIP3   OH221704   0.912   0.319   1.550
 7247TIP3    H121705   0.871   0.404   1.562
 7247TIP3    H221706   0.841   0.261   1.522
 7248TIP3   OH221707   2.273   3.548   0.471
 7248TIP3    H121708   2.289   3.462   0.508
 7248TIP3    H221709   2.339   3.559   0.403
 7249TIP3   OH221710   4.788   5.460   5.530
 7249TIP3    H121711   4.804   5.532   5.591
 7249TIP3    H221712   4.708   5.418   5.562
 7250TIP3   OH221713   2.093   4.303   4.169
 7250TIP3    H121714   1.999   4.293   4.185
 7250TIP3    H221715   2.102   4.296   4.074
 7251TIP3   OH221716   2.281   2.626   0.543
 7251TIP3    H121717   2.255   2.668   0.461
 7251TIP3    H221718   2.200   2.617   0.593
 7252TIP3   OH221719   4.237   2.910   0.408
 7252TIP3    H121720   4.150   2.885   0.440
 7252TIP3    H221721   4.294   2.897   0.483
 7253TIP3   OH221722   6.256   3.040   0.224
 7253TIP3    H121723   6.290   3.015   0.310
 7253TIP3    H221724   6.179   3.094   0.243
 7254TIP3   OH221725   1.316   4.099   1.851
 7254TIP3    H121726   1.307   4.165   1.782
 7254TIP3    H221727   1.241   4.041   1.839
 7255TIP3   OH221728   6.531   3.363   0.880
 7255TIP3    H121729   6.490   3.334   0.961
 7255TIP3    H221730   6.461   3.405   0.830
 7256TIP3   OH221731   6.932   1.366   0.750
 7256TIP3    H121732   6.908   1.275   0.767
 7256TIP3    H221733   7.019   1.361   0.710
 7257TIP3   OH221734   0.649   5.229   5.188
 7257TIP3    H121735   0.737   5.191   5.192
 7257TIP3    H221736   0.654   5.296   5.120
 7258TIP3   OH221737   5.446   6.227   5.190
 7258TIP3    H121738   5.415   6.200   5.276
 7258TIP3    H221739   5.536   6.193   5.185
 7259TIP3   OH221740   2.182   6.226   2.235
 7259TIP3    H121741   2.169   6.164   2.307
 7259TIP3    H221742   2.218   6.173   2.164
 7260TIP3   OH221743   3.884   0.567   0.821
 7260TIP3    H121744   3.794   0.595   0.801
 7260TIP3    H221745   3.939   0.618   0.762
 7261TIP3   OH221746   3.481   4.637   2.632
 7261TIP3    H121747   3.442   4.648   2.546
 7261TIP3    H221748   3.540   4.563   2.622
 7262TIP3   OH221749   2.711   5.005   4.645
 7262TIP3    H121750   2.761   4.992   4.725
 7262TIP3    H221751   2.651   5.078   4.665
 7263TIP3   OH221752   1.835   4.732   2.035
 7263TIP3    H121753   1.804   4.818   2.064
 7263TIP3    H221754   1.762   4.696   1.985
 7264TIP3   OH221755   2.312   5.500   1.979
 7264TIP3    H121756   2.364   5.532   2.053
 7264TIP3    H221757   2.373   5.446   1.928
 7265TIP3   OH221758   6.569   2.967   1.554
 7265TIP3    H121759   6.625   3.042   1.534
 7265TIP3    H221760   6.616   2.891   1.520
 7266TIP3   OH221761   0.049   6.243   1.148
 7266TIP3    H121762   0.050   6.297   1.227
 7266TIP3    H221763   0.122   6.182   1.159
 7267TIP3   OH221764   2.290   4.275   0.791
 7267TIP3    H121765   2.288   4.182   0.768
 7267TIP3    H221766   2.381   4.302   0.774
 7268TIP3   OH221767   3.106   0.592   5.099
 7268TIP3    H121768   3.107   0.685   5.117
 7268TIP3    H221769   3.164   0.581   5.023
 7269TIP3   OH221770   7.130   3.055   1.225
 7269TIP3    H121771   7.157   2.992   1.292
 7269TIP3    H221772   7.046   3.089   1.257
 7270TIP3   OH221773   2.712   1.927   2.402
 7270TIP3    H121774   2.706   1.996   2.468
 7270TIP3    H221775   2.731   1.972   2.320
 7271TIP3   OH221776   2.345   6.236   3.155
 7271TIP3    H121777   2.339   6.287   3.074
 7271TIP3    H221778   2.335   6.145   3.126
 7272TIP3   OH221779   4.849   1.194   3.722
 7272TIP3    H121780   4.866   1.108   3.761
 7272TIP3    H221781   4.755   1.195   3.708
 7273TIP3   OH221782   5.126   4.557   0.159
 7273TIP3    H121783   5.209   4.554   0.207
 7273TIP3    H221784   5.150   4.581   0.070
 7274TIP3   OH221785   2.415   3.868   4.108
 7274TIP3    H121786   2.327   3.832   4.104
 7274TIP3    H221787   2.460   3.827   4.034
 7275TIP3   OH221788   5.195   2.333   4.109
 7275TIP3    H121789   5.269   2.317   4.169
 7275TIP3    H221790   5.181   2.248   4.068
 7276TIP3   OH221791   4.550  -0.015   5.467
 7276TIP3    H121792   4.595  -0.027   5.384
 7276TIP3    H221793   4.558   0.079   5.486
 7277TIP3   OH221794   6.963   0.887   4.885
 7277TIP3    H121795   7.055   0.911   4.868
 7277TIP3    H221796   6.941   0.932   4.966
 7278TIP3   OH221797   6.370   1.858   1.703
 7278TIP3    H121798   6.351   1.819   1.789
 7278TIP3    H221799   6.297   1.830   1.648
 7279TIP3   OH221800   4.775   1.791   1.981
 7279TIP3    H121801   4.783   1.741   2.062
 7279TIP3    H221802   4.730   1.732   1.921
 7280TIP3   OH221803   0.202   0.376   1.107
 7280TIP3    H121804   0.269   0.334   1.053
 7280TIP3    H221805   0.210   0.469   1.086
 7281TIP3   OH221806   2.221   2.436   4.763
 7281TIP3    H121807   2.282   2.487   4.709
 7281TIP3    H221808   2.277   2.372   4.808
 7282TIP3   OH221809   6.316   1.647   0.757
 7282TIP3    H121810   6.233   1.661   0.804
 7282TIP3    H221811   6.298   1.677   0.668
 7283TIP3   OH221812   4.822   4.962   0.792
 7283TIP3    H121813   4.777   5.020   0.731
 7283TIP3    H221814   4.877   4.907   0.737
 7284TIP3   OH221815   0.951   2.726   1.841
 7284TIP3    H121816   0.969   2.778   1.920
 7284TIP3    H221817   1.029   2.674   1.828
 7285TIP3   OH221818   4.555   2.160   2.213
 7285TIP3    H121819   4.581   2.252   2.202
 7285TIP3    H221820   4.617   2.111   2.160
 7286TIP3   OH221821   4.503   6.040   1.259
 7286TIP3    H121822   4.579   6.090   1.289
 7286TIP3    H221823   4.431   6.103   1.257
 7287TIP3   OH221824   4.975   4.916   1.063
 7287TIP3    H121825   4.900   4.872   1.104
 7287TIP3    H221826   4.943   4.945   0.978
 7288TIP3   OH221827   6.334   3.119   1.608
 7288TIP3    H121828   6.404   3.054   1.609
 7288TIP3    H221829   6.305   3.124   1.699
 7289TIP3   OH221830   2.042   1.026   0.993
 7289TIP3    H121831   2.047   1.112   0.950
 7289TIP3    H221832   2.067   1.043   1.084
 7290TIP3   OH221833   5.055   5.448   3.141
 7290TIP3    H121834   5.053   5.544   3.130
 7290TIP3    H221835   4.964   5.421   3.129
 7291TIP3   OH221836   5.905   0.849   5.610
 7291TIP3    H121837   5.853   0.822   5.686
 7291TIP3    H221838   5.902   0.945   5.613
 7292TIP3   OH221839   4.768   4.595   5.776
 7292TIP3    H121840   4.837   4.539   5.811
 7292TIP3    H221841   4.687   4.551   5.798
 7293TIP3   OH221842   2.728   1.326   4.726
 7293TIP3    H121843   2.636   1.299   4.725
 7293TIP3    H221844   2.725   1.421   4.717
 7294TIP3   OH221845   1.853   3.323   5.482
 7294TIP3    H121846   1.909   3.250   5.509
 7294TIP3    H221847   1.764   3.295   5.504
 7295TIP3   OH221848   5.646   4.959   2.498
 7295TIP3    H121849   5.652   4.929   2.588
 7295TIP3    H221850   5.683   5.047   2.499
 7296TIP3   OH221851   5.781   4.757   5.382
 7296TIP3    H121852   5.718   4.780   5.450
 7296TIP3    H221853   5.743   4.791   5.301
 7297TIP3   OH221854   1.538   3.487   3.364
 7297TIP3    H121855   1.520   3.449   3.450
 7297TIP3    H221856   1.452   3.493   3.322
 7298TIP3   OH221857   2.807   6.199   0.377
 7298TIP3    H121858   2.757   6.171   0.301
 7298TIP3    H221859   2.779   6.140   0.447
 7299TIP3   OH221860   6.770   3.713   2.258
 7299TIP3    H121861   6.688   3.664   2.250
 7299TIP3    H221862   6.829   3.652   2.303
 7300TIP3   OH221863   5.077   5.409   4.355
 7300TIP3    H121864   5.158   5.386   4.310
 7300TIP3    H221865   5.089   5.501   4.378
 7301TIP3   OH221866   2.102   2.382   1.061
 7301TIP3    H121867   2.188   2.420   1.046
 7301TIP3    H221868   2.053   2.402   0.981
 7302TIP3   OH221869   0.292   3.638   5.010
 7302TIP3    H121870   0.213   3.585   4.997
 7302TIP3    H221871   0.356   3.600   4.949
 7303TIP3   OH221872   3.396   5.311   5.178
 7303TIP3    H121873   3.301   5.305   5.167
 7303TIP3    H221874   3.428   5.335   5.091
 7304TIP3   OH221875   2.390   1.553   1.620
 7304TIP3    H121876   2.365   1.470   1.579
 7304TIP3    H221877   2.310   1.583   1.663
 7305TIP3   OH221878   3.864   0.064   5.719
 7305TIP3    H121879   3.850   0.029   5.807
 7305TIP3    H221880   3.818   0.148   5.718
 7306TIP3   OH221881   1.706   2.937   1.152
 7306TIP3    H121882   1.744   2.871   1.094
 7306TIP3    H221883   1.665   3.000   1.093
 7307TIP3   OH221884   4.938   1.174   2.298
 7307TIP3    H121885   5.024   1.162   2.338
 7307TIP3    H221886   4.876   1.169   2.371
 7308TIP3   OH221887   7.107   3.137   2.348
 7308TIP3    H121888   7.182   3.084   2.319
 7308TIP3    H221889   7.067   3.168   2.267
 7309TIP3   OH221890   6.261   0.429   5.301
 7309TIP3    H121891   6.299   0.382   5.227
 7309TIP3    H221892   6.181   0.381   5.322
 7310TIP3   OH221893   0.703   6.347   1.856
 7310TIP3    H121894   0.713   6.361   1.951
 7310TIP3    H221895   0.609   6.353   1.841
 7311TIP3   OH221896   3.942   3.741   1.091
 7311TIP3    H121897   3.983   3.667   1.046
 7311TIP3    H221898   3.869   3.767   1.033
 7312TIP3   OH221899   1.258   2.811   4.314
 7312TIP3    H121900   1.283   2.727   4.354
 7312TIP3    H221901   1.287   2.803   4.223
 7313TIP3   OH221902   6.358   1.395   4.235
 7313TIP3    H121903   6.326   1.411   4.324
 7313TIP3    H221904   6.393   1.480   4.207
 7314TIP3   OH221905   3.952   2.562   5.373
 7314TIP3    H121906   3.985   2.472   5.381
 7314TIP3    H221907   3.875   2.564   5.430
 7315TIP3   OH221908   1.464   2.151   5.517
 7315TIP3    H121909   1.418   2.161   5.600
 7315TIP3    H221910   1.421   2.212   5.457
 7316TIP3   OH221911   5.947   6.108   4.420
 7316TIP3    H121912   5.933   6.151   4.504
 7316TIP3    H221913   6.040   6.123   4.401
 7317TIP3   OH221914   3.076   5.341   4.276
 7317TIP3    H121915   3.024   5.321   4.198
 7317TIP3    H221916   3.021   5.313   4.349
 7318TIP3   OH221917   4.444   4.372   1.207
 7318TIP3    H121918   4.485   4.437   1.264
 7318TIP3    H221919   4.478   4.392   1.120
 7319TIP3   OH221920   2.458   1.548   4.256
 7319TIP3    H121921   2.431   1.581   4.170
 7319TIP3    H221922   2.429   1.457   4.257
 7320TIP3   OH221923   0.928   5.412   5.691
 7320TIP3    H121924   0.846   5.441   5.652
 7320TIP3    H221925   0.956   5.338   5.638
 7321TIP3   OH221926   4.151   3.153   3.361
 7321TIP3    H121927   4.170   3.192   3.275
 7321TIP3    H221928   4.184   3.217   3.424
 7322TIP3   OH221929   1.121   0.496   5.638
 7322TIP3    H121930   1.059   0.561   5.606
 7322TIP3    H221931   1.195   0.547   5.670
 7323TIP3   OH221932   6.169   3.255   3.100
 7323TIP3    H121933   6.110   3.328   3.077
 7323TIP3    H221934   6.250   3.274   3.053
 7324TIP3   OH221935   3.815   5.904   5.209
 7324TIP3    H121936   3.909   5.899   5.228
 7324TIP3    H221937   3.789   5.813   5.192
 7325TIP3   OH221938   3.800   4.369   2.676
 7325TIP3    H121939   3.777   4.279   2.654
 7325TIP3    H221940   3.753   4.387   2.757
 7326TIP3   OH221941   5.283   1.489   4.759
 7326TIP3    H121942   5.342   1.563   4.776
 7326TIP3    H221943   5.340   1.412   4.764
 7327TIP3   OH221944   1.457   5.510   2.788
 7327TIP3    H121945   1.539   5.487   2.745
 7327TIP3    H221946   1.401   5.541   2.717
 7328TIP3   OH221947   3.859   0.926   0.723
 7328TIP3    H121948   3.874   0.987   0.795
 7328TIP3    H221949   3.934   0.938   0.664
 7329TIP3   OH221950   1.988   2.211   1.990
 7329TIP3    H121951   1.999   2.304   2.011
 7329TIP3    H221952   2.060   2.168   2.036
 7330TIP3   OH221953   6.521   2.019   2.829
 7330TIP3    H121954   6.444   1.974   2.793
 7330TIP3    H221955   6.595   1.986   2.777
 7331TIP3   OH221956   2.292   4.130   3.083
 7331TIP3    H121957   2.233   4.204   3.076
 7331TIP3    H221958   2.379   4.170   3.088
 7332TIP3   OH221959   1.249   2.455   2.474
 7332TIP3    H121960   1.202   2.454   2.557
 7332TIP3    H221961   1.212   2.384   2.423
 7333TIP3   OH221962   3.073   6.245   5.693
 7333TIP3    H121963   3.000   6.188   5.668
 7333TIP3    H221964   3.038   6.299   5.765
 7334TIP3   OH221965   0.696   6.465   2.490
 7334TIP3    H121966   0.671   6.528   2.558
 7334TIP3    H221967   0.662   6.382   2.522
 7335TIP3   OH221968   3.301   4.423   5.234
 7335TIP3    H121969   3.265   4.512   5.238
 7335TIP3    H221970   3.396   4.437   5.228
 7336TIP3   OH221971   0.603   1.129   3.263
 7336TIP3    H121972   0.515   1.110   3.231
 7336TIP3    H221973   0.662   1.093   3.196
 7337TIP3   OH221974   4.563   3.963   3.175
 7337TIP3    H121975   4.560   4.057   3.195
 7337TIP3    H221976   4.605   3.924   3.252
 7338TIP3   OH221977   2.740   5.607   0.246
 7338TIP3    H121978   2.754   5.701   0.258
 7338TIP3    H221979   2.759   5.591   0.154
 7339TIP3   OH221980   6.004   6.313   4.965
 7339TIP3    H121981   5.992   6.300   4.871
 7339TIP3    H221982   6.085   6.364   4.972
 7340TIP3   OH221983   1.538   2.257   5.848
 7340TIP3    H121984   1.570   2.201   5.919
 7340TIP3    H221985   1.455   2.217   5.822
 7341TIP3   OH221986   3.718   2.018   2.394
 7341TIP3    H121987   3.731   2.062   2.477
 7341TIP3    H221988   3.794   1.962   2.383
 7342TIP3   OH221989   1.152   5.903   4.592
 7342TIP3    H121990   1.084   5.894   4.659
 7342TIP3    H221991   1.108   5.950   4.521
 7343TIP3   OH221992   3.839   6.342   4.235
 7343TIP3    H121993   3.832   6.340   4.140
 7343TIP3    H221994   3.748   6.345   4.266
 7344TIP3   OH221995   3.220   4.912   5.320
 7344TIP3    H121996   3.306   4.940   5.288
 7344TIP3    H221997   3.168   4.992   5.317
 7345TIP3   OH221998   3.034   2.354   1.294
 7345TIP3    H121999   3.008   2.403   1.216
 7345TIP3    H222000   2.972   2.382   1.362
 7346TIP3   OH222001   2.176   2.612   2.465
 7346TIP3    H122002   2.184   2.706   2.480
 7346TIP3    H222003   2.203   2.600   2.374
 7347TIP3   OH222004   3.697   6.765   5.521
 7347TIP3    H122005   3.641   6.808   5.585
 7347TIP3    H222006   3.742   6.836   5.476
 7348TIP3   OH222007   5.257   5.321   3.588
 7348TIP3    H122008   5.194   5.260   3.627
 7348TIP3    H222009   5.342   5.277   3.597
 7349TIP3   OH222010   3.426   0.344   2.212
 7349TIP3    H122011   3.478   0.350   2.132
 7349TIP3    H222012   3.489   0.351   2.283
 7350TIP3   OH222013   0.048   2.516   0.154
 7350TIP3    H122014   0.057   2.612   0.153
 7350TIP3    H222015   0.133   2.485   0.186
 7351TIP3   OH222016   1.492   3.016   3.637
 7351TIP3    H122017   1.469   3.054   3.722
 7351TIP3    H222018   1.551   2.944   3.659
 7352TIP3   OH222019   5.172   2.713   5.391
 7352TIP3    H122020   5.185   2.619   5.375
 7352TIP3    H222021   5.258   2.752   5.372
 7353TIP3   OH222022   5.947   4.657   5.139
 7353TIP3    H122023   5.992   4.661   5.054
 7353TIP3    H222024   5.854   4.663   5.117
 7354TIP3   OH222025   6.489   0.169   4.462
 7354TIP3    H122026   6.571   0.215   4.481
 7354TIP3    H222027   6.501   0.131   4.375
 7355TIP3   OH222028   0.574   4.427   0.077
 7355TIP3    H122029   0.654   4.468   0.109
 7355TIP3    H222030   0.512   4.434   0.150
 7356TIP3   OH222031   4.813   1.378   2.156
 7356TIP3    H122032   4.838   1.461   2.196
 7356TIP3    H222033   4.857   1.311   2.209
 7357TIP3   OH222034   6.293   5.408   2.637
 7357TIP3    H122035   6.281   5.468   2.711
 7357TIP3    H222036   6.204   5.386   2.609
 7358TIP3   OH222037   2.387   6.197   5.650
 7358TIP3    H122038   2.445   6.227   5.580
 7358TIP3    H222039   2.417   6.108   5.669
 7359TIP3   OH222040   4.672   4.952   5.316
 7359TIP3    H122041   4.605   4.962   5.383
 7359TIP3    H222042   4.635   4.991   5.238
 7360TIP3   OH222043   5.235   6.435   4.662
 7360TIP3    H122044   5.185   6.402   4.587
 7360TIP3    H222045   5.320   6.460   4.625
 7361TIP3   OH222046   2.997   2.711   0.256
 7361TIP3    H122047   3.004   2.681   0.346
 7361TIP3    H222048   2.984   2.805   0.262
 7362TIP3   OH222049   1.793   4.621   4.835
 7362TIP3    H122050   1.722   4.575   4.790
 7362TIP3    H222051   1.760   4.711   4.847
 7363TIP3   OH222052   1.667   0.138   0.112
 7363TIP3    H122053   1.631   0.226   0.095
 7363TIP3    H222054   1.756   0.142   0.078
 7364TIP3   OH222055   3.831   6.090   4.383
 7364TIP3    H122056   3.849   6.176   4.345
 7364TIP3    H222057   3.863   6.027   4.318
 7365TIP3   OH222058   7.117   0.483   0.218
 7365TIP3    H122059   7.086   0.559   0.169
 7365TIP3    H222060   7.172   0.519   0.287
 7366TIP3   OH222061   0.827   1.344   1.828
 7366TIP3    H122062   0.805   1.261   1.786
 7366TIP3    H222063   0.779   1.410   1.777
 7367TIP3   OH222064   6.272   1.678   3.709
 7367TIP3    H122065   6.245   1.754   3.761
 7367TIP3    H222066   6.286   1.609   3.774
 7368TIP3   OH222067   6.621   6.134   2.611
 7368TIP3    H122068   6.588   6.196   2.675
 7368TIP3    H222069   6.558   6.137   2.538
 7369TIP3   OH222070   2.004   6.375   3.750
 7369TIP3    H122071   2.018   6.469   3.758
 7369TIP3    H222072   1.962   6.364   3.665
 7370TIP3   OH222073   2.352   5.440   3.302
 7370TIP3    H122074   2.303   5.458   3.222
 7370TIP3    H222075   2.323   5.508   3.363
 7371TIP3   OH222076   4.674   1.828   5.816
 7371TIP3    H122077   4.613   1.901   5.806
 7371TIP3    H222078   4.625   1.762   5.864
 7372TIP3   OH222079   6.755   3.406   1.122
 7372TIP3    H122080   6.728   3.462   1.195
 7372TIP3    H222081   6.682   3.410   1.061
 7373TIP3   OH222082   6.272   1.804   1.089
 7373TIP3    H122083   6.312   1.776   1.171
 7373TIP3    H222084   6.276   1.900   1.093
 7374TIP3   OH222085   3.434   5.025   5.174
 7374TIP3    H122086   3.385   5.088   5.120
 7374TIP3    H222087   3.523   5.061   5.178
 7375TIP3   OH222088   3.961   1.857   2.366
 7375TIP3    H122089   4.035   1.806   2.398
 7375TIP3    H222090   3.992   1.898   2.285
 7376TIP3   OH222091   2.331   4.850   4.574
 7376TIP3    H122092   2.312   4.789   4.645
 7376TIP3    H222093   2.411   4.816   4.534
 7377TIP3   OH222094   7.056   1.530   2.598
 7377TIP3    H122095   6.978   1.475   2.592
 7377TIP3    H222096   7.023   1.619   2.605
 7378TIP3   OH222097   3.392   1.808   0.295
 7378TIP3    H122098   3.459   1.855   0.345
 7378TIP3    H222099   3.438   1.735   0.254
 7379TIP3   OH222100   1.501   3.384   0.750
 7379TIP3    H122101   1.418   3.365   0.705
 7379TIP3    H222102   1.489   3.472   0.785
 7380TIP3   OH222103   3.971   1.478   4.712
 7380TIP3    H122104   4.042   1.511   4.657
 7380TIP3    H222105   3.930   1.556   4.747
 7381TIP3   OH222106   2.455   0.509   5.825
 7381TIP3    H122107   2.424   0.594   5.797
 7381TIP3    H222108   2.378   0.466   5.862
 7382TIP3   OH222109   2.307   5.626   2.297
 7382TIP3    H122110   2.247   5.564   2.340
 7382TIP3    H222111   2.254   5.704   2.283
 7383TIP3   OH222112   6.571   2.468   1.527
 7383TIP3    H122113   6.516   2.523   1.471
 7383TIP3    H222114   6.518   2.453   1.605
 7384TIP3   OH222115   0.762   2.708   2.993
 7384TIP3    H122116   0.800   2.678   3.075
 7384TIP3    H222117   0.816   2.668   2.925
 7385TIP3   OH222118   1.316   2.567   5.529
 7385TIP3    H122119   1.313   2.635   5.462
 7385TIP3    H222120   1.399   2.582   5.574
 7386TIP3   OH222121   5.975   5.992   1.336
 7386TIP3    H122122   6.021   5.920   1.380
 7386TIP3    H222123   5.925   5.949   1.266
 7387TIP3   OH222124   1.892   5.106   1.743
 7387TIP3    H122125   1.930   5.039   1.799
 7387TIP3    H222126   1.804   5.074   1.724
 7388TIP3   OH222127   0.799   1.001   3.096
 7388TIP3    H122128   0.859   0.970   3.164
 7388TIP3    H222129   0.771   0.922   3.050
 7389TIP3   OH222130   6.223   4.550   2.019
 7389TIP3    H122131   6.170   4.619   2.060
 7389TIP3    H222132   6.208   4.561   1.925
 7390TIP3   OH222133   4.837   2.036   1.313
 7390TIP3    H122134   4.811   1.949   1.342
 7390TIP3    H222135   4.805   2.042   1.223
 7391TIP3   OH222136   2.680   4.496   1.638
 7391TIP3    H122137   2.659   4.412   1.598
 7391TIP3    H222138   2.648   4.488   1.728
 7392TIP3   OH222139   0.742   2.786   0.460
 7392TIP3    H122140   0.680   2.769   0.531
 7392TIP3    H222141   0.797   2.707   0.457
 7393TIP3   OH222142   1.795   0.328   0.514
 7393TIP3    H122143   1.868   0.377   0.551
 7393TIP3    H222144   1.762   0.384   0.444
 7394TIP3   OH222145   1.616   0.316   1.201
 7394TIP3    H122146   1.588   0.247   1.261
 7394TIP3    H222147   1.619   0.273   1.115
 7395TIP3   OH222148   1.353   6.613   5.216
 7395TIP3    H122149   1.357   6.672   5.291
 7395TIP3    H222150   1.262   6.616   5.187
 7396TIP3   OH222151   6.994   3.258   2.090
 7396TIP3    H122152   7.036   3.201   2.025
 7396TIP3    H222153   7.032   3.344   2.073
 7397TIP3   OH222154   2.224   3.235   1.355
 7397TIP3    H122155   2.138   3.226   1.314
 7397TIP3    H222156   2.205   3.257   1.446
 7398TIP3   OH222157   6.115   6.568   0.555
 7398TIP3    H122158   6.092   6.634   0.621
 7398TIP3    H222159   6.183   6.516   0.597
 7399TIP3   OH222160   6.068   4.281   4.287
 7399TIP3    H122161   5.987   4.326   4.309
 7399TIP3    H222162   6.125   4.296   4.362
 7400TIP3   OH222163   1.889   3.233   0.471
 7400TIP3    H122164   1.827   3.220   0.399
 7400TIP3    H222165   1.935   3.314   0.449
 7401TIP3   OH222166   4.451   1.222   5.461
 7401TIP3    H122167   4.368   1.263   5.438
 7401TIP3    H222168   4.490   1.197   5.377
 7402TIP3   OH222169   2.226   3.323   2.874
 7402TIP3    H122170   2.132   3.304   2.875
 7402TIP3    H222171   2.232   3.410   2.833
 7403TIP3   OH222172   6.328   1.626   2.444
 7403TIP3    H122173   6.397   1.619   2.510
 7403TIP3    H222174   6.246   1.622   2.494
 7404TIP3   OH222175   3.388   4.621   0.337
 7404TIP3    H122176   3.422   4.532   0.333
 7404TIP3    H222177   3.344   4.634   0.253
 7405TIP3   OH222178   6.581   4.863   2.807
 7405TIP3    H122179   6.599   4.778   2.847
 7405TIP3    H222180   6.486   4.863   2.794
 7406TIP3   OH222181   3.262   0.253   2.420
 7406TIP3    H122182   3.177   0.214   2.399
 7406TIP3    H222183   3.305   0.264   2.335
 7407TIP3   OH222184   0.979  -0.023   1.394
 7407TIP3    H122185   0.981   0.044   1.325
 7407TIP3    H222186   0.897  -0.007   1.440
 7408TIP3   OH222187   0.291   5.463   2.510
 7408TIP3    H122188   0.212   5.428   2.551
 7408TIP3    H222189   0.278   5.558   2.512
 7409TIP3   OH222190   2.100   2.977   4.316
 7409TIP3    H122191   2.046   3.024   4.379
 7409TIP3    H222192   2.174   3.035   4.299
 7410TIP3   OH222193   3.584   1.346   4.987
 7410TIP3    H122194   3.578   1.257   5.022
 7410TIP3    H222195   3.598   1.334   4.893
 7411TIP3   OH222196   0.440   6.500   2.626
 7411TIP3    H122197   0.423   6.536   2.539
 7411TIP3    H222198   0.467   6.409   2.609
 7412TIP3   OH222199   2.469   1.194   3.399
 7412TIP3    H122200   2.515   1.111   3.412
 7412TIP3    H222201   2.457   1.200   3.304
 7413TIP3   OH222202   1.950   1.862   2.565
 7413TIP3    H122203   2.000   1.938   2.595
 7413TIP3    H222204   1.926   1.884   2.475
 7414TIP3   OH222205   5.328   2.071   1.429
 7414TIP3    H122206   5.394   2.138   1.411
 7414TIP3    H222207   5.357   1.995   1.380
 7415TIP3   OH222208   4.623   3.299   3.133
 7415TIP3    H122209   4.580   3.268   3.213
 7415TIP3    H222210   4.709   3.256   3.135
 7416TIP3   OH222211   0.469   4.861   2.006
 7416TIP3    H122212   0.505   4.928   2.064
 7416TIP3    H222213   0.388   4.833   2.048
 7417TIP3   OH222214   3.684   1.953   1.577
 7417TIP3    H122215   3.745   1.888   1.542
 7417TIP3    H222216   3.651   1.914   1.659
 7418TIP3   OH222217   6.083   2.191   3.705
 7418TIP3    H122218   6.010   2.252   3.719
 7418TIP3    H222219   6.104   2.199   3.612
 7419TIP3   OH222220   3.144   2.831   0.991
 7419TIP3    H122221   3.127   2.905   1.049
 7419TIP3    H222222   3.235   2.841   0.964
 7420TIP3   OH222223   0.589   6.760   4.444
 7420TIP3    H122224   0.684   6.762   4.454
 7420TIP3    H222225   0.576   6.746   4.350
 7421TIP3   OH222226   6.161   3.422   1.926
 7421TIP3    H122227   6.148   3.405   1.833
 7421TIP3    H222228   6.223   3.354   1.954
 7422TIP3   OH222229   4.494   5.016   1.275
 7422TIP3    H122230   4.518   4.983   1.362
 7422TIP3    H222231   4.455   4.941   1.231
 7423TIP3   OH222232   0.355   2.162   0.226
 7423TIP3    H122233   0.273   2.113   0.221
 7423TIP3    H222234   0.328   2.254   0.216
 7424TIP3   OH222235   4.286   6.655   2.631
 7424TIP3    H122236   4.226   6.620   2.564
 7424TIP3    H222237   4.360   6.595   2.632
 7425TIP3   OH222238   6.907   3.694   3.091
 7425TIP3    H122239   6.875   3.770   3.139
 7425TIP3    H222240   6.877   3.708   3.001
 7426TIP3   OH222241   0.042   0.629   0.562
 7426TIP3    H122242   0.079   0.714   0.587
 7426TIP3    H222243  -0.023   0.610   0.630
 7427TIP3   OH222244   3.089   1.836   3.333
 7427TIP3    H122245   3.062   1.749   3.303
 7427TIP3    H222246   3.012   1.870   3.379
 7428TIP3   OH222247   5.364   2.907   5.866
 7428TIP3    H122248   5.385   2.991   5.908
 7428TIP3    H222249   5.273   2.918   5.836
 7429TIP3   OH222250   6.775   2.633   0.786
 7429TIP3    H122251   6.835   2.654   0.715
 7429TIP3    H222252   6.772   2.713   0.839
 7430TIP3   OH222253   0.375   3.045   3.724
 7430TIP3    H122254   0.461   3.067   3.688
 7430TIP3    H222255   0.333   3.129   3.740
 7431TIP3   OH222256   5.467   5.866   3.657
 7431TIP3    H122257   5.393   5.924   3.675
 7431TIP3    H222258   5.446   5.785   3.703
 7432TIP3   OH222259   2.336   0.219   2.974
 7432TIP3    H122260   2.319   0.249   3.064
 7432TIP3    H222261   2.274   0.269   2.920
 7433TIP3   OH222262   4.565   2.393   0.172
 7433TIP3    H122263   4.553   2.488   0.175
 7433TIP3    H222264   4.653   2.381   0.136
 7434TIP3   OH222265   3.562   3.596   1.072
 7434TIP3    H122266   3.530   3.534   1.137
 7434TIP3    H222267   3.500   3.591   1.000
 7435TIP3   OH222268   6.429   1.213   5.267
 7435TIP3    H122269   6.385   1.186   5.348
 7435TIP3    H222270   6.490   1.141   5.248
 7436TIP3   OH222271   0.777   4.364   2.915
 7436TIP3    H122272   0.707   4.368   2.981
 7436TIP3    H222273   0.767   4.445   2.865
 7437TIP3   OH222274   2.854   5.118   0.375
 7437TIP3    H122275   2.937   5.115   0.423
 7437TIP3    H222276   2.878   5.142   0.286
 7438TIP3   OH222277   1.404   5.235   2.508
 7438TIP3    H122278   1.491   5.261   2.538
 7438TIP3    H222279   1.346   5.252   2.582
 7439TIP3   OH222280   1.284   4.600   0.854
 7439TIP3    H122281   1.203   4.651   0.848
 7439TIP3    H222282   1.255   4.511   0.872
 7440TIP3   OH222283   4.442   2.977   2.239
 7440TIP3    H122284   4.421   2.888   2.211
 7440TIP3    H222285   4.517   2.967   2.297
 7441TIP3   OH222286   6.430   1.454   5.438
 7441TIP3    H122287   6.350   1.505   5.426
 7441TIP3    H222288   6.447   1.416   5.352
 7442TIP3   OH222289   0.225   3.771   0.472
 7442TIP3    H122290   0.280   3.842   0.440
 7442TIP3    H222291   0.284   3.696   0.477
 7443TIP3   OH222292   6.723   4.417   0.133
 7443TIP3    H122293   6.780   4.487   0.165
 7443TIP3    H222294   6.783   4.346   0.110
 7444TIP3   OH222295   3.749   6.349   3.956
 7444TIP3    H122296   3.787   6.420   3.905
 7444TIP3    H222297   3.671   6.323   3.907
 7445TIP3   OH222298   6.576   3.444   5.645
 7445TIP3    H122299   6.533   3.525   5.674
 7445TIP3    H222300   6.555   3.380   5.714
 7446TIP3   OH222301   5.731   3.808   4.411
 7446TIP3    H122302   5.722   3.822   4.506
 7446TIP3    H222303   5.805   3.747   4.403
 7447TIP3   OH222304   4.208   2.022   4.044
 7447TIP3    H122305   4.284   2.081   4.050
 7447TIP3    H222306   4.157   2.041   4.122
 7448TIP3   OH222307   0.063   5.341   1.108
 7448TIP3    H122308   0.016   5.354   1.025
 7448TIP3    H222309   0.151   5.314   1.082
 7449TIP3   OH222310   2.833   3.845   3.326
 7449TIP3    H122311   2.882   3.903   3.385
 7449TIP3    H222312   2.893   3.831   3.253
 7450TIP3   OH222313   1.602   1.809   3.184
 7450TIP3    H122314   1.509   1.826   3.201
 7450TIP3    H222315   1.626   1.741   3.246
 7451TIP3   OH222316   5.841   1.528   0.024
 7451TIP3    H122317   5.863   1.551  -0.066
 7451TIP3    H222318   5.899   1.455   0.044
 7452TIP3   OH222319   4.650   2.844   5.674
 7452TIP3    H122320   4.563   2.878   5.653
 7452TIP3    H222321   4.708   2.918   5.659
 7453TIP3   OH222322   0.499   4.068   5.260
 7453TIP3    H122323   0.544   3.990   5.292
 7453TIP3    H222324   0.535   4.140   5.312
 7454TIP3   OH222325   4.871   5.023   5.495
 7454TIP3    H122326   4.813   5.018   5.418
 7454TIP3    H222327   4.855   4.942   5.543
 7455TIP3   OH222328   3.884   3.378   4.565
 7455TIP3    H122329   3.811   3.317   4.555
 7455TIP3    H222330   3.885   3.399   4.659
 7456TIP3   OH222331   4.561   0.278   2.340
 7456TIP3    H122332   4.583   0.185   2.335
 7456TIP3    H222333   4.502   0.292   2.266
 7457TIP3   OH222334   3.438   6.216   1.159
 7457TIP3    H122335   3.474   6.250   1.241
 7457TIP3    H222336   3.515   6.187   1.110
 7458TIP3   OH222337   6.076   2.957   1.946
 7458TIP3    H122338   6.000   2.976   2.000
 7458TIP3    H222339   6.102   2.868   1.972
 7459TIP3   OH222340   5.997   4.636   1.220
 7459TIP3    H122341   6.045   4.632   1.137
 7459TIP3    H222342   5.920   4.581   1.206
 7460TIP3   OH222343   0.950   4.922   1.470
 7460TIP3    H122344   0.950   4.858   1.541
 7460TIP3    H222345   1.018   4.985   1.495
 7461TIP3   OH222346   3.322   0.360   2.929
 7461TIP3    H122347   3.293   0.451   2.919
 7461TIP3    H222348   3.286   0.316   2.852
 7462TIP3   OH222349   0.157   6.058   4.742
 7462TIP3    H122350   0.089   6.074   4.677
 7462TIP3    H222351   0.186   5.968   4.726
 7463TIP3   OH222352   5.638   4.335   4.038
 7463TIP3    H122353   5.717   4.291   4.007
 7463TIP3    H222354   5.669   4.420   4.070
 7464TIP3   OH222355   6.341   4.396   3.562
 7464TIP3    H122356   6.277   4.425   3.497
 7464TIP3    H222357   6.297   4.406   3.646
 7465TIP3   OH222358   4.042   5.084   0.877
 7465TIP3    H122359   3.988   5.115   0.804
 7465TIP3    H222360   4.132   5.107   0.852
 7466TIP3   OH222361   4.806   5.347   4.256
 7466TIP3    H122362   4.877   5.388   4.305
 7466TIP3    H222363   4.726   5.380   4.297
 7467TIP3   OH222364   0.983   4.802   2.294
 7467TIP3    H122365   1.049   4.804   2.364
 7467TIP3    H222366   1.033   4.786   2.214
 7468TIP3   OH222367   2.237   5.241   3.863
 7468TIP3    H122368   2.269   5.181   3.795
 7468TIP3    H222369   2.207   5.318   3.814
 7469TIP3   OH222370   5.409   1.057   5.488
 7469TIP3    H122371   5.492   1.011   5.502
 7469TIP3    H222372   5.346   1.010   5.543
 7470TIP3   OH222373   5.980   3.476   2.734
 7470TIP3    H122374   5.967   3.403   2.796
 7470TIP3    H222375   5.901   3.474   2.679
 7471TIP3   OH222376   7.187   4.256   0.925
 7471TIP3    H122377   7.260   4.273   0.865
 7471TIP3    H222378   7.182   4.160   0.929
 7472TIP3   OH222379   6.603   2.720   3.392
 7472TIP3    H122380   6.568   2.775   3.462
 7472TIP3    H222381   6.689   2.758   3.373
 7473TIP3   OH222382   5.918   0.144   3.843
 7473TIP3    H122383   6.003   0.172   3.879
 7473TIP3    H222384   5.858   0.152   3.917
 7474TIP3   OH222385   3.858   3.381   3.731
 7474TIP3    H122386   3.805   3.351   3.657
 7474TIP3    H222387   3.821   3.336   3.807
 7475TIP3   OH222388   0.288   2.322   5.097
 7475TIP3    H122389   0.355   2.289   5.156
 7475TIP3    H222390   0.336   2.377   5.035
 7476TIP3   OH222391   3.705   1.989   3.003
 7476TIP3    H122392   3.762   2.060   2.976
 7476TIP3    H222393   3.702   1.995   3.099
 7477TIP3   OH222394   1.753   3.683   1.088
 7477TIP3    H122395   1.814   3.738   1.136
 7477TIP3    H222396   1.804   3.650   1.014
 7478TIP3   OH222397   4.473   3.818   5.743
 7478TIP3    H122398   4.495   3.878   5.815
 7478TIP3    H222399   4.557   3.796   5.703
 7479TIP3   OH222400   3.752   3.471   2.959
 7479TIP3    H122401   3.665   3.431   2.964
 7479TIP3    H222402   3.787   3.462   3.048
 7480TIP3   OH222403   1.289   3.153   3.212
 7480TIP3    H122404   1.366   3.123   3.261
 7480TIP3    H222405   1.215   3.107   3.252
 7481TIP3   OH222406   5.201   4.606   3.565
 7481TIP3    H122407   5.285   4.648   3.547
 7481TIP3    H222408   5.136   4.675   3.555
 7482TIP3   OH222409   5.772   6.582   4.327
 7482TIP3    H122410   5.787   6.507   4.270
 7482TIP3    H222411   5.826   6.651   4.290
 7483TIP3   OH222412   7.231   3.984   0.918
 7483TIP3    H122413   7.244   3.916   0.852
 7483TIP3    H222414   7.176   3.943   0.984
 7484TIP3   OH222415   0.621   6.615   2.965
 7484TIP3    H122416   0.597   6.530   3.003
 7484TIP3    H222417   0.712   6.628   2.990
 7485TIP3   OH222418   5.454   5.533   3.602
 7485TIP3    H122419   5.458   5.542   3.697
 7485TIP3    H222420   5.388   5.466   3.587
 7486TIP3   OH222421   0.632   2.130   0.662
 7486TIP3    H122422   0.580   2.049   0.661
 7486TIP3    H222423   0.610   2.171   0.746
 7487TIP3   OH222424   5.794   2.217   0.592
 7487TIP3    H122425   5.784   2.252   0.680
 7487TIP3    H222426   5.880   2.174   0.593
 7488TIP3   OH222427   1.731   5.303   0.768
 7488TIP3    H122428   1.685   5.312   0.851
 7488TIP3    H222429   1.780   5.385   0.758
 7489TIP3   OH222430   2.687   1.022   0.769
 7489TIP3    H122431   2.630   1.084   0.724
 7489TIP3    H222432   2.750   1.077   0.815
 7490TIP3   OH222433   4.259   5.379   0.060
 7490TIP3    H122434   4.350   5.400   0.039
 7490TIP3    H222435   4.264   5.300   0.114
 7491TIP3   OH222436   4.508   0.710   1.005
 7491TIP3    H122437   4.484   0.797   1.037
 7491TIP3    H222438   4.598   0.719   0.975
 7492TIP3   OH222439   0.499   5.722   1.826
 7492TIP3    H122440   0.585   5.762   1.818
 7492TIP3    H222441   0.506   5.640   1.776
 7493TIP3   OH222442   2.407   6.287   1.769
 7493TIP3    H122443   2.418   6.380   1.786
 7493TIP3    H222444   2.366   6.283   1.683
 7494TIP3   OH222445   4.153   0.207   3.000
 7494TIP3    H122446   4.190   0.207   2.912
 7494TIP3    H222447   4.060   0.186   2.986
 7495TIP3   OH222448   2.697   0.966   5.675
 7495TIP3    H122449   2.609   0.988   5.705
 7495TIP3    H222450   2.717   0.882   5.717
 7496TIP3   OH222451   5.446   4.742   0.873
 7496TIP3    H122452   5.464   4.664   0.925
 7496TIP3    H222453   5.365   4.722   0.826
 7497TIP3   OH222454   5.227   4.029   1.090
 7497TIP3    H122455   5.244   4.038   0.996
 7497TIP3    H222456   5.152   4.087   1.106
 7498TIP3   OH222457   0.140   2.394   0.833
 7498TIP3    H122458   0.082   2.402   0.909
 7498TIP3    H222459   0.113   2.465   0.775
 7499TIP3   OH222460   0.417   3.430   4.690
 7499TIP3    H122461   0.509   3.450   4.708
 7499TIP3    H222462   0.386   3.383   4.767
 7500TIP3   OH222463   3.965   4.610   2.615
 7500TIP3    H122464   4.031   4.541   2.612
 7500TIP3    H222465   3.883   4.564   2.632
 7501TIP3   OH222466   4.615   2.718   5.436
 7501TIP3    H122467   4.527   2.753   5.419
 7501TIP3    H222468   4.637   2.749   5.524
 7502TIP3   OH222469   6.540   3.018   2.873
 7502TIP3    H122470   6.478   2.981   2.936
 7502TIP3    H222471   6.491   3.088   2.830
 7503TIP3   OH222472   4.021   4.664   3.649
 7503TIP3    H122473   4.009   4.676   3.744
 7503TIP3    H222474   4.002   4.572   3.634
 7504TIP3   OH222475   7.076   1.444   4.955
 7504TIP3    H122476   7.146   1.507   4.972
 7504TIP3    H222477   7.008   1.467   5.018
 7505TIP3   OH222478   6.455   5.220   0.968
 7505TIP3    H122479   6.470   5.132   1.002
 7505TIP3    H222480   6.501   5.278   1.030
 7506TIP3   OH222481   0.051   0.714   3.515
 7506TIP3    H122482   0.066   0.738   3.606
 7506TIP3    H222483  -0.045   0.716   3.505
 7507TIP3   OH222484   4.868   3.179   3.155
 7507TIP3    H122485   4.867   3.197   3.061
 7507TIP3    H222486   4.956   3.148   3.173
 7508TIP3   OH222487   0.630   4.855   0.923
 7508TIP3    H122488   0.546   4.888   0.890
 7508TIP3    H222489   0.693   4.877   0.855
 7509TIP3   OH222490   0.331   6.567   0.776
 7509TIP3    H122491   0.367   6.514   0.847
 7509TIP3    H222492   0.293   6.643   0.819
 7510TIP3   OH222493   5.440   4.978   5.504
 7510TIP3    H122494   5.376   4.933   5.559
 7510TIP3    H222495   5.463   5.057   5.553
 7511TIP3   OH222496   6.369   1.665   1.972
 7511TIP3    H122497   6.275   1.662   1.987
 7511TIP3    H222498   6.408   1.648   2.058
 7512TIP3   OH222499   6.049   3.490   4.211
 7512TIP3    H122500   5.991   3.555   4.249
 7512TIP3    H222501   6.073   3.526   4.125
 7513TIP3   OH222502   4.445   5.329   5.017
 7513TIP3    H122503   4.527   5.349   4.972
 7513TIP3    H222504   4.377   5.347   4.952
 7514TIP3   OH222505   5.917   6.125   3.906
 7514TIP3    H122506   5.846   6.062   3.917
 7514TIP3    H222507   5.875   6.211   3.917
 7515TIP3   OH222508   3.868   6.537   2.164
 7515TIP3    H122509   3.778   6.518   2.136
 7515TIP3    H222510   3.917   6.459   2.141
 7516TIP3   OH222511   2.903   3.694   3.849
 7516TIP3    H122512   2.902   3.769   3.790
 7516TIP3    H222513   2.845   3.718   3.921
 7517TIP3   OH222514   3.879   4.322   0.705
 7517TIP3    H122515   3.867   4.340   0.798
 7517TIP3    H222516   3.843   4.234   0.693
 7518TIP3   OH222517   3.433   2.556   5.360
 7518TIP3    H122518   3.397   2.632   5.313
 7518TIP3    H222519   3.460   2.590   5.445
 7519TIP3   OH222520   6.685   5.321   5.784
 7519TIP3    H122521   6.725   5.236   5.766
 7519TIP3    H222522   6.752   5.385   5.759
 7520TIP3   OH222523   4.177   6.612   3.899
 7520TIP3    H122524   4.166   6.517   3.892
 7520TIP3    H222525   4.169   6.630   3.993
 7521TIP3   OH222526   2.527   6.493   1.995
 7521TIP3    H122527   2.551   6.580   2.028
 7521TIP3    H222528   2.486   6.449   2.070
 7522TIP3   OH222529   3.492   4.376   0.511
 7522TIP3    H122530   3.481   4.382   0.416
 7522TIP3    H222531   3.533   4.459   0.535
 7523TIP3   OH222532   0.776   2.610   4.894
 7523TIP3    H122533   0.758   2.567   4.977
 7523TIP3    H222534   0.700   2.668   4.880
 7524TIP3   OH222535   0.363   3.531   0.033
 7524TIP3    H122536   0.442   3.573   0.068
 7524TIP3    H222537   0.310   3.603   0.001
 7525TIP3   OH222538   0.157   4.372   2.030
 7525TIP3    H122539   0.215   4.409   1.964
 7525TIP3    H222540   0.085   4.434   2.037
 7526TIP3   OH222541   6.924   1.694   0.192
 7526TIP3    H122542   6.888   1.622   0.140
 7526TIP3    H222543   6.869   1.769   0.171
 7527TIP3   OH222544   5.667   2.417   1.169
 7527TIP3    H122545   5.651   2.500   1.214
 7527TIP3    H222546   5.762   2.409   1.166
 7528TIP3   OH222547   5.676   4.711   1.439
 7528TIP3    H122548   5.600   4.655   1.456
 7528TIP3    H222549   5.691   4.703   1.344
 7529TIP3   OH222550   0.444   0.519   0.103
 7529TIP3    H122551   0.386   0.594   0.114
 7529TIP3    H222552   0.435   0.495   0.011
 7530TIP3   OH222553   3.373   3.368   2.294
 7530TIP3    H122554   3.431   3.311   2.243
 7530TIP3    H222555   3.359   3.320   2.376
 7531TIP3   OH222556   1.633   1.186   0.310
 7531TIP3    H122557   1.575   1.135   0.367
 7531TIP3    H222558   1.657   1.263   0.362
 7532TIP3   OH222559   2.488   4.638   2.004
 7532TIP3    H122560   2.408   4.680   1.971
 7532TIP3    H222561   2.484   4.652   2.099
 7533TIP3   OH222562   5.396   4.597   4.003
 7533TIP3    H122563   5.347   4.542   3.943
 7533TIP3    H222564   5.347   4.594   4.085
 7534TIP3   OH222565   6.249   3.016   1.370
 7534TIP3    H122566   6.278   2.925   1.377
 7534TIP3    H222567   6.259   3.050   1.459
 7535TIP3   OH222568   3.288   5.783   3.451
 7535TIP3    H122569   3.330   5.716   3.506
 7535TIP3    H222570   3.200   5.792   3.487
 7536TIP3   OH222571   7.049   5.351   0.690
 7536TIP3    H122572   7.003   5.416   0.638
 7536TIP3    H222573   7.137   5.349   0.654
 7537TIP3   OH222574   5.758   0.626   5.223
 7537TIP3    H122575   5.665   0.645   5.207
 7537TIP3    H222576   5.757   0.543   5.271
 7538TIP3   OH222577   1.242   1.338   4.077
 7538TIP3    H122578   1.306   1.404   4.102
 7538TIP3    H222579   1.182   1.332   4.151
 7539TIP3   OH222580   4.030   4.564   5.288
 7539TIP3    H122581   4.011   4.507   5.214
 7539TIP3    H222582   3.987   4.647   5.265
 7540TIP3   OH222583   5.576   1.742   0.766
 7540TIP3    H122584   5.598   1.823   0.719
 7540TIP3    H222585   5.636   1.741   0.841
 7541TIP3   OH222586   4.222   1.528   5.763
 7541TIP3    H122587   4.228   1.605   5.819
 7541TIP3    H222588   4.280   1.547   5.689
 7542TIP3   OH222589   2.236   1.147   3.728
 7542TIP3    H122590   2.174   1.087   3.769
 7542TIP3    H222591   2.286   1.092   3.668
 7543TIP3   OH222592   4.910   4.121   3.615
 7543TIP3    H122593   4.873   4.203   3.649
 7543TIP3    H222594   4.896   4.058   3.685
 7544TIP3   OH222595   6.881   3.544   4.493
 7544TIP3    H122596   6.863   3.528   4.586
 7544TIP3    H222597   6.808   3.599   4.464
 7545TIP3   OH222598   3.747   1.279   3.755
 7545TIP3    H122599   3.752   1.233   3.671
 7545TIP3    H222600   3.737   1.210   3.820
 7546TIP3   OH222601   1.876   0.607   3.204
 7546TIP3    H122602   1.957   0.556   3.208
 7546TIP3    H222603   1.905   0.697   3.219
 7547TIP3   OH222604   5.828   6.170   2.592
 7547TIP3    H122605   5.798   6.244   2.645
 7547TIP3    H222606   5.765   6.165   2.520
 7548TIP3   OH222607   6.007   3.858   1.593
 7548TIP3    H122608   5.923   3.903   1.601
 7548TIP3    H222609   6.065   3.904   1.654
 7549TIP3   OH222610   0.432   3.271   5.573
 7549TIP3    H122611   0.420   3.197   5.632
 7549TIP3    H222612   0.345   3.286   5.536
 7550TIP3   OH222613   6.315   3.871   0.188
 7550TIP3    H122614   6.320   3.941   0.253
 7550TIP3    H222615   6.286   3.795   0.237
 7551TIP3   OH222616   6.677   1.621   1.127
 7551TIP3    H122617   6.676   1.705   1.173
 7551TIP3    H222618   6.655   1.642   1.037
 7552TIP3   OH222619   5.491   3.810   0.229
 7552TIP3    H122620   5.537   3.779   0.151
 7552TIP3    H222621   5.422   3.745   0.243
 7553TIP3   OH222622   6.060   1.513   3.339
 7553TIP3    H122623   6.057   1.586   3.401
 7553TIP3    H222624   6.112   1.545   3.266
 7554TIP3   OH222625   6.228   3.299   5.610
 7554TIP3    H122626   6.233   3.216   5.563
 7554TIP3    H222627   6.172   3.354   5.556
 7555TIP3   OH222628   2.939   5.078   0.093
 7555TIP3    H122629   2.915   5.144   0.028
 7555TIP3    H222630   2.993   5.126   0.156
 7556TIP3   OH222631   0.188   1.226   2.511
 7556TIP3    H122632   0.115   1.218   2.450
 7556TIP3    H222633   0.150   1.264   2.590
 7557TIP3   OH222634   2.256   1.945   5.160
 7557TIP3    H122635   2.291   1.959   5.248
 7557TIP3    H222636   2.173   1.899   5.175
 7558TIP3   OH222637   5.199   5.408   3.903
 7558TIP3    H122638   5.210   5.364   3.818
 7558TIP3    H222639   5.160   5.340   3.959
 7559TIP3   OH222640   1.996   0.324   5.437
 7559TIP3    H122641   1.973   0.409   5.473
 7559TIP3    H222642   1.927   0.265   5.468
 7560TIP3   OH222643   1.786   3.590   5.539
 7560TIP3    H122644   1.861   3.542   5.573
 7560TIP3    H222645   1.711   3.555   5.586
 7561TIP3   OH222646   2.937   1.783   2.649
 7561TIP3    H122647   2.881   1.852   2.684
 7561TIP3    H222648   2.896   1.759   2.566
 7562TIP3   OH222649   4.215   6.059   4.479
 7562TIP3    H122650   4.269   6.094   4.549
 7562TIP3    H222651   4.133   6.033   4.522
 7563TIP3   OH222652   2.612   5.478   3.186
 7563TIP3    H122653   2.532   5.498   3.234
 7563TIP3    H222654   2.667   5.556   3.196
 7564TIP3   OH222655   2.467   4.927   1.384
 7564TIP3    H122656   2.419   5.007   1.405
 7564TIP3    H222657   2.473   4.928   1.288
 7565TIP3   OH222658   5.590   4.854   0.546
 7565TIP3    H122659   5.605   4.947   0.565
 7565TIP3    H222660   5.635   4.839   0.463
 7566TIP3   OH222661   0.817   2.755   4.135
 7566TIP3    H122662   0.806   2.695   4.062
 7566TIP3    H222663   0.768   2.714   4.207
 7567TIP3   OH222664   0.559   4.634   3.137
 7567TIP3    H122665   0.635   4.578   3.154
 7567TIP3    H222666   0.537   4.671   3.223
 7568TIP3   OH222667   7.151   2.607   5.822
 7568TIP3    H122668   7.147   2.512   5.832
 7568TIP3    H222669   7.073   2.639   5.868
 7569TIP3   OH222670   3.783   6.408   2.917
 7569TIP3    H122671   3.845   6.420   2.989
 7569TIP3    H222672   3.838   6.416   2.838
 7570TIP3   OH222673   1.852   1.006   1.260
 7570TIP3    H122674   1.885   1.094   1.280
 7570TIP3    H222675   1.927   0.949   1.270
 7571TIP3   OH222676   2.219   4.389   5.531
 7571TIP3    H122677   2.273   4.419   5.458
 7571TIP3    H222678   2.221   4.462   5.594
 7572TIP3   OH222679   4.769   6.170   2.672
 7572TIP3    H122680   4.675   6.158   2.681
 7572TIP3    H222681   4.785   6.170   2.578
 7573TIP3   OH222682   1.417   4.718   3.443
 7573TIP3    H122683   1.444   4.810   3.434
 7573TIP3    H222684   1.500   4.670   3.452
 7574TIP3   OH222685   6.582   5.165   4.636
 7574TIP3    H122686   6.630   5.201   4.711
 7574TIP3    H222687   6.515   5.230   4.618
 7575TIP3   OH222688   3.705   6.039   3.813
 7575TIP3    H122689   3.680   5.947   3.818
 7575TIP3    H222690   3.801   6.038   3.817
 7576TIP3   OH222691   3.097   1.072   4.269
 7576TIP3    H122692   3.148   0.996   4.298
 7576TIP3    H222693   3.145   1.148   4.301
 7577TIP3   OH222694   2.837   3.454   0.732
 7577TIP3    H122695   2.866   3.523   0.791
 7577TIP3    H222696   2.777   3.498   0.671
 7578TIP3   OH222697   0.896   2.248   5.538
 7578TIP3    H122698   0.872   2.157   5.523
 7578TIP3    H222699   0.991   2.246   5.552
 7579TIP3   OH222700   0.189   5.728   2.412
 7579TIP3    H122701   0.149   5.669   2.348
 7579TIP3    H222702   0.115   5.764   2.461
 7580TIP3   OH222703   1.110   2.404   2.699
 7580TIP3    H122704   1.085   2.416   2.791
 7580TIP3    H222705   1.077   2.317   2.677
 7581TIP3   OH222706   2.740   1.848   5.149
 7581TIP3    H122707   2.697   1.922   5.192
 7581TIP3    H222708   2.781   1.800   5.221
 7582TIP3   OH222709   5.426   0.809   5.652
 7582TIP3    H122710   5.439   0.792   5.745
 7582TIP3    H222711   5.514   0.808   5.615
 7583TIP3   OH222712   6.368   3.418   3.968
 7583TIP3    H122713   6.383   3.509   3.943
 7583TIP3    H222714   6.440   3.370   3.927
 7584TIP3   OH222715   5.379   5.942   0.902
 7584TIP3    H122716   5.289   5.973   0.915
 7584TIP3    H222717   5.379   5.853   0.935
 7585TIP3   OH222718   6.985   5.637   3.910
 7585TIP3    H122719   7.007   5.585   3.833
 7585TIP3    H222720   6.901   5.678   3.889
 7586TIP3   OH222721   7.094   0.524   1.019
 7586TIP3    H122722   7.108   0.540   1.113
 7586TIP3    H222723   7.029   0.454   1.016
 7587TIP3   OH222724   4.653   6.463   5.040
 7587TIP3    H122725   4.729   6.513   5.069
 7587TIP3    H222726   4.615   6.515   4.970
 7588TIP3   OH222727   5.476   1.536   0.903
 7588TIP3    H122728   5.490   1.589   0.825
 7588TIP3    H222729   5.383   1.546   0.923
 7589TIP3   OH222730   2.714   6.798   0.259
 7589TIP3    H122731   2.683   6.708   0.269
 7589TIP3    H222732   2.715   6.833   0.348
 7590TIP3   OH222733   2.925   0.825   1.708
 7590TIP3    H122734   2.931   0.836   1.614
 7590TIP3    H222735   2.961   0.906   1.744
 7591TIP3   OH222736   3.575   0.119   2.869
 7591TIP3    H122737   3.491   0.073   2.863
 7591TIP3    H222738   3.641   0.048   2.868
 7592TIP3   OH222739   1.599   1.972   0.133
 7592TIP3    H122740   1.677   1.926   0.165
 7592TIP3    H222741   1.526   1.932   0.179
 7593TIP3   OH222742   1.626   0.876   2.376
 7593TIP3    H122743   1.567   0.866   2.301
 7593TIP3    H222744   1.585   0.825   2.446
 7594TIP3   OH222745   0.455   5.262   0.347
 7594TIP3    H122746   0.489   5.292   0.263
 7594TIP3    H222747   0.360   5.258   0.335
 7595TIP3   OH222748   5.242   4.190   1.466
 7595TIP3    H122749   5.242   4.101   1.431
 7595TIP3    H222750   5.334   4.216   1.466
 7596TIP3   OH222751   0.947   6.271   4.717
 7596TIP3    H122752   0.889   6.196   4.702
 7596TIP3    H222753   0.907   6.317   4.791
 7597TIP3   OH222754   5.516   5.321   1.038
 7597TIP3    H122755   5.454   5.262   1.081
 7597TIP3    H222756   5.478   5.408   1.049
 7598TIP3   OH222757   7.047   1.096   5.443
 7598TIP3    H122758   7.072   1.027   5.505
 7598TIP3    H222759   7.090   1.175   5.476
 7599TIP3   OH222760   7.038   3.307   0.849
 7599TIP3    H122761   7.110   3.252   0.880
 7599TIP3    H222762   7.024   3.370   0.920
 7600TIP3   OH222763   4.496   1.564   4.044
 7600TIP3    H122764   4.535   1.525   4.122
 7600TIP3    H222765   4.411   1.521   4.035
 7601TIP3   OH222766   5.960   5.543   3.406
 7601TIP3    H122767   5.865   5.530   3.412
 7601TIP3    H222768   5.972   5.637   3.421
 7602TIP3   OH222769   5.518   5.122   4.533
 7602TIP3    H122770   5.444   5.170   4.496
 7602TIP3    H222771   5.497   5.030   4.518
 7603TIP3   OH222772   0.779   5.486   1.495
 7603TIP3    H122773   0.832   5.414   1.531
 7603TIP3    H222774   0.825   5.565   1.521
 7604TIP3   OH222775   6.693   0.069   1.216
 7604TIP3    H122776   6.619   0.119   1.253
 7604TIP3    H222777   6.767   0.091   1.272
 7605TIP3   OH222778   4.441   3.124   5.163
 7605TIP3    H122779   4.535   3.107   5.175
 7605TIP3    H222780   4.434   3.161   5.075
 7606TIP3   OH222781   1.181   4.595   1.220
 7606TIP3    H122782   1.090   4.625   1.226
 7606TIP3    H222783   1.177   4.519   1.162
 7607TIP3   OH222784   6.319   5.293   3.192
 7607TIP3    H122785   6.357   5.338   3.116
 7607TIP3    H222786   6.272   5.362   3.239
 7608TIP3   OH222787   5.526   3.605   4.044
 7608TIP3    H122788   5.582   3.570   4.113
 7608TIP3    H222789   5.535   3.542   3.972
 7609TIP3   OH222790  -0.018   5.935   3.411
 7609TIP3    H122791   0.001   5.844   3.437
 7609TIP3    H222792   0.050   5.986   3.454
 7610TIP3   OH222793   5.657   2.991   3.305
 7610TIP3    H122794   5.651   2.993   3.400
 7610TIP3    H222795   5.745   2.959   3.286
 7611TIP3   OH222796   0.762   0.504   4.065
 7611TIP3    H122797   0.746   0.595   4.041
 7611TIP3    H222798   0.678   0.460   4.050
 7612TIP3   OH222799   3.588   5.754   4.450
 7612TIP3    H122800   3.558   5.726   4.536
 7612TIP3    H222801   3.609   5.846   4.460
 7613TIP3   OH222802   4.055   0.916   0.516
 7613TIP3    H122803   4.120   0.915   0.447
 7613TIP3    H222804   3.971   0.920   0.471
 7614TIP3   OH222805   2.975   5.184   0.965
 7614TIP3    H122806   3.066   5.212   0.961
 7614TIP3    H222807   2.979   5.089   0.970
 7615TIP3   OH222808   0.211   2.010   3.578
 7615TIP3    H122809   0.161   2.091   3.583
 7615TIP3    H222810   0.262   2.018   3.498
 7616TIP3   OH222811   1.214   6.237   2.723
 7616TIP3    H122812   1.154   6.197   2.660
 7616TIP3    H222813   1.203   6.185   2.802
 7617TIP3   OH222814   5.515   5.233   3.685
 7617TIP3    H122815   5.588   5.181   3.649
 7617TIP3    H222816   5.548   5.323   3.685
 7618TIP3   OH222817   1.347   6.254   5.249
 7618TIP3    H122818   1.356   6.233   5.156
 7618TIP3    H222819   1.269   6.310   5.253
 7619TIP3   OH222820   4.875   0.031   0.521
 7619TIP3    H122821   4.872   0.028   0.425
 7619TIP3    H222822   4.968   0.029   0.542
 7620TIP3   OH222823   2.775   4.441   4.000
 7620TIP3    H122824   2.688   4.432   3.962
 7620TIP3    H222825   2.765   4.407   4.089
 7621TIP3   OH222826   3.886   0.486   5.297
 7621TIP3    H122827   3.852   0.533   5.373
 7621TIP3    H222828   3.839   0.403   5.298
 7622TIP3   OH222829   4.107   3.934   1.694
 7622TIP3    H122830   4.029   3.988   1.684
 7622TIP3    H222831   4.075   3.850   1.725
 7623TIP3   OH222832   1.742   2.958   3.151
 7623TIP3    H122833   1.756   3.019   3.224
 7623TIP3    H222834   1.826   2.957   3.105
 7624TIP3   OH222835   3.400   2.921   0.930
 7624TIP3    H122836   3.443   2.897   0.848
 7624TIP3    H222837   3.470   2.962   0.982
 7625TIP3   OH222838   4.162   6.814   0.749
 7625TIP3    H122839   4.094   6.758   0.786
 7625TIP3    H222840   4.241   6.761   0.751
 7626TIP3   OH222841   0.218   5.073   3.792
 7626TIP3    H122842   0.202   5.166   3.805
 7626TIP3    H222843   0.296   5.054   3.844
 7627TIP3   OH222844   6.233   0.593   4.586
 7627TIP3    H122845   6.236   0.498   4.587
 7627TIP3    H222846   6.141   0.613   4.569
 7628TIP3   OH222847   3.664   1.108   1.929
 7628TIP3    H122848   3.591   1.065   1.972
 7628TIP3    H222849   3.628   1.141   1.847
 7629TIP3   OH222850   3.288   4.518   5.796
 7629TIP3    H122851   3.193   4.507   5.800
 7629TIP3    H222852   3.301   4.612   5.781
 7630TIP3   OH222853   4.468   3.094   4.760
 7630TIP3    H122854   4.405   3.047   4.705
 7630TIP3    H222855   4.551   3.050   4.745
 7631TIP3   OH222856   5.147   1.260   1.724
 7631TIP3    H122857   5.225   1.308   1.697
 7631TIP3    H222858   5.159   1.172   1.689
 7632TIP3   OH222859   4.855   2.018   0.838
 7632TIP3    H122860   4.842   2.070   0.758
 7632TIP3    H222861   4.898   1.938   0.808
 7633TIP3   OH222862   4.568   5.301   2.228
 7633TIP3    H122863   4.596   5.253   2.150
 7633TIP3    H222864   4.472   5.297   2.225
 7634TIP3   OH222865   4.161   4.363   0.718
 7634TIP3    H122866   4.171   4.281   0.669
 7634TIP3    H222867   4.066   4.371   0.731
 7635TIP3   OH222868   0.252   1.957   4.945
 7635TIP3    H122869   0.323   2.017   4.922
 7635TIP3    H222870   0.260   1.945   5.039
 7636TIP3   OH222871   5.262   1.388   0.273
 7636TIP3    H122872   5.279   1.450   0.344
 7636TIP3    H222873   5.188   1.425   0.226
 7637TIP3   OH222874   5.221   1.558   0.959
 7637TIP3    H122875   5.159   1.561   0.886
 7637TIP3    H222876   5.172   1.591   1.034
 7638TIP3   OH222877   3.226   4.692   4.038
 7638TIP3    H122878   3.162   4.631   4.001
 7638TIP3    H222879   3.175   4.764   4.074
 7639TIP3   OH222880   2.340   2.169   2.383
 7639TIP3    H122881   2.271   2.187   2.448
 7639TIP3    H222882   2.349   2.074   2.384
 7640TIP3   OH222883   4.661   0.475   3.882
 7640TIP3    H122884   4.682   0.382   3.884
 7640TIP3    H222885   4.747   0.518   3.881
 7641TIP3   OH222886   2.631   5.336   1.264
 7641TIP3    H122887   2.632   5.298   1.353
 7641TIP3    H222888   2.539   5.355   1.247
 7642TIP3   OH222889   4.978   2.199   0.042
 7642TIP3    H122890   5.022   2.173   0.123
 7642TIP3    H222891   4.907   2.256   0.070
 7643TIP3   OH222892   6.849   4.963   1.126
 7643TIP3    H122893   6.778   4.965   1.191
 7643TIP3    H222894   6.925   4.929   1.175
 7644TIP3   OH222895   4.786   5.814   3.929
 7644TIP3    H122896   4.778   5.787   3.837
 7644TIP3    H222897   4.873   5.784   3.955
 7645TIP3   OH222898   0.741   5.701   4.002
 7645TIP3    H122899   0.778   5.786   4.025
 7645TIP3    H222900   0.742   5.700   3.907
 7646TIP3   OH222901   5.895   5.066   4.059
 7646TIP3    H122902   5.982   5.094   4.031
 7646TIP3    H222903   5.848   5.148   4.074
 7647TIP3   OH222904   1.460   3.683   4.106
 7647TIP3    H122905   1.413   3.600   4.096
 7647TIP3    H222906   1.413   3.729   4.176
 7648TIP3   OH222907   7.193   0.996   4.129
 7648TIP3    H122908   7.111   0.961   4.093
 7648TIP3    H222909   7.216   1.069   4.070
 7649TIP3   OH222910   5.585   6.405   4.462
 7649TIP3    H122911   5.569   6.428   4.554
 7649TIP3    H222912   5.659   6.460   4.436
 7650TIP3   OH222913   4.067   1.916   5.801
 7650TIP3    H122914   4.144   1.869   5.832
 7650TIP3    H222915   4.063   1.994   5.857
 7651TIP3   OH222916   5.493   3.861   4.006
 7651TIP3    H122917   5.535   3.880   3.922
 7651TIP3    H222918   5.506   3.767   4.018
 7652TIP3   OH222919   2.356   1.885   2.355
 7652TIP3    H122920   2.437   1.843   2.326
 7652TIP3    H222921   2.303   1.813   2.390
 7653TIP3   OH222922   5.678   3.048   5.339
 7653TIP3    H122923   5.684   3.143   5.329
 7653TIP3    H222924   5.585   3.028   5.332
 7654TIP3   OH222925   0.580   2.297   4.284
 7654TIP3    H122926   0.507   2.281   4.344
 7654TIP3    H222927   0.539   2.308   4.198
 7655TIP3   OH222928   6.086   0.115   2.217
 7655TIP3    H122929   6.153   0.103   2.284
 7655TIP3    H222930   6.121   0.185   2.161
 7656TIP3   OH222931   1.974   5.141   4.405
 7656TIP3    H122932   1.980   5.083   4.481
 7656TIP3    H222933   2.042   5.109   4.346
 7657TIP3   OH222934   4.034   0.387   1.796
 7657TIP3    H122935   4.031   0.332   1.717
 7657TIP3    H222936   3.960   0.447   1.786
 7658TIP3   OH222937   3.698   3.538   5.252
 7658TIP3    H122938   3.713   3.551   5.346
 7658TIP3    H222939   3.603   3.547   5.242
 7659TIP3   OH222940   5.224   2.478   3.169
 7659TIP3    H122941   5.269   2.529   3.237
 7659TIP3    H222942   5.284   2.477   3.095
 7660TIP3   OH222943   4.284   5.208   0.780
 7660TIP3    H122944   4.353   5.149   0.811
 7660TIP3    H222945   4.282   5.195   0.685
 7661TIP3   OH222946   0.517   1.118   2.344
 7661TIP3    H122947   0.490   1.208   2.327
 7661TIP3    H222948   0.605   1.126   2.380
 7662TIP3   OH222949   0.411   1.793   1.983
 7662TIP3    H122950   0.328   1.838   1.990
 7662TIP3    H222951   0.445   1.818   1.897
 7663TIP3   OH222952   1.775   6.035   2.938
 7663TIP3    H122953   1.788   6.121   2.978
 7663TIP3    H222954   1.829   5.976   2.990
 7664TIP3   OH222955   3.641   4.165   5.061
 7664TIP3    H122956   3.553   4.130   5.050
 7664TIP3    H222957   3.686   4.142   4.979
 7665TIP3   OH222958   4.049   2.387   0.656
 7665TIP3    H122959   4.099   2.469   0.654
 7665TIP3    H222960   4.045   2.359   0.565
 7666TIP3   OH222961   7.006   1.642   4.320
 7666TIP3    H122962   6.940   1.663   4.385
 7666TIP3    H222963   6.959   1.594   4.251
 7667TIP3   OH222964   3.913   2.254   2.031
 7667TIP3    H122965   3.855   2.329   2.040
 7667TIP3    H222966   3.977   2.280   1.965
 7668TIP3   OH222967   4.742   1.765   1.268
 7668TIP3    H122968   4.723   1.787   1.177
 7668TIP3    H222969   4.789   1.681   1.263
 7669TIP3   OH222970   3.756   5.026   0.920
 7669TIP3    H122971   3.758   5.076   1.002
 7669TIP3    H222972   3.693   4.955   0.937
 7670TIP3   OH222973   3.187   2.675   5.248
 7670TIP3    H122974   3.145   2.704   5.329
 7670TIP3    H222975   3.271   2.721   5.247
 7671TIP3   OH222976   0.666   0.758   0.102
 7671TIP3    H122977   0.687   0.843   0.142
 7671TIP3    H222978   0.573   0.764   0.081
 7672TIP3   OH222979   0.533   4.643   1.064
 7672TIP3    H122980   0.560   4.612   1.150
 7672TIP3    H222981   0.595   4.711   1.041
 7673TIP3   OH222982   3.246   3.862   0.282
 7673TIP3    H122983   3.157   3.852   0.247
 7673TIP3    H222984   3.263   3.779   0.328
 7674TIP3   OH222985   1.205   6.347   3.711
 7674TIP3    H122986   1.242   6.429   3.680
 7674TIP3    H222987   1.218   6.286   3.638
 7675TIP3   OH222988   6.570   3.098   2.470
 7675TIP3    H122989   6.500   3.034   2.477
 7675TIP3    H222990   6.650   3.047   2.480
 7676TIP3   OH222991   6.413   6.256   2.471
 7676TIP3    H122992   6.359   6.327   2.437
 7676TIP3    H222993   6.351   6.190   2.500
 7677TIP3   OH222994   4.816   1.946   4.903
 7677TIP3    H122995   4.729   1.906   4.893
 7677TIP3    H222996   4.877   1.874   4.885
 7678TIP3   OH222997   4.666   4.625   2.620
 7678TIP3    H122998   4.658   4.629   2.524
 7678TIP3    H222999   4.575   4.618   2.651
 7679TIP3   OH223000   6.418   2.557   0.967
 7679TIP3    H123001   6.436   2.636   1.018
 7679TIP3    H223002   6.490   2.498   0.987
 7680TIP3   OH223003   3.752   6.628   2.691
 7680TIP3    H123004   3.780   6.682   2.765
 7680TIP3    H223005   3.831   6.579   2.666
 7681TIP3   OH223006   1.736   3.007   2.716
 7681TIP3    H123007   1.768   2.920   2.693
 7681TIP3    H223008   1.643   2.993   2.737
 7682TIP3   OH223009   4.801   0.896   4.858
 7682TIP3    H123010   4.832   0.895   4.767
 7682TIP3    H223011   4.854   0.829   4.902
 7683TIP3   OH223012   5.841   0.170   1.452
 7683TIP3    H123013   5.757   0.163   1.497
 7683TIP3    H223014   5.836   0.252   1.404
 7684TIP3   OH223015   2.574   0.799   3.599
 7684TIP3    H123016   2.572   0.715   3.553
 7684TIP3    H223017   2.598   0.777   3.689
 7685TIP3   OH223018   4.537   4.892   3.899
 7685TIP3    H123019   4.461   4.846   3.863
 7685TIP3    H223020   4.609   4.830   3.891
 7686TIP3   OH223021   2.770   5.511   5.165
 7686TIP3    H123022   2.830   5.546   5.231
 7686TIP3    H223023   2.708   5.583   5.149
 7687TIP3   OH223024   5.332   4.017   0.563
 7687TIP3    H123025   5.296   4.105   0.570
 7687TIP3    H223026   5.311   3.975   0.647
 7688TIP3   OH223027   6.572   0.984   5.741
 7688TIP3    H123028   6.584   1.028   5.826
 7688TIP3    H223029   6.606   1.046   5.677
 7689TIP3   OH223030   0.805   2.552   1.192
 7689TIP3    H123031   0.825   2.643   1.168
 7689TIP3    H223032   0.732   2.528   1.135
 7690TIP3   OH223033   1.377   6.187   1.540
 7690TIP3    H123034   1.282   6.173   1.540
 7690TIP3    H223035   1.412   6.111   1.586
 7691TIP3   OH223036   3.389   1.660   4.525
 7691TIP3    H123037   3.319   1.722   4.542
 7691TIP3    H223038   3.380   1.593   4.593
 7692TIP3   OH223039   5.042   5.793   1.985
 7692TIP3    H123040   5.075   5.704   1.995
 7692TIP3    H223041   4.950   5.787   2.010
 7693TIP3   OH223042   1.714   2.287   1.269
 7693TIP3    H123043   1.806   2.311   1.255
 7693TIP3    H223044   1.688   2.338   1.345
 7694TIP3   OH223045   6.461   3.264   2.258
 7694TIP3    H123046   6.373   3.242   2.228
 7694TIP3    H223047   6.482   3.199   2.324
 7695TIP3   OH223048   2.051   1.269   1.970
 7695TIP3    H123049   2.024   1.360   1.971
 7695TIP3    H223050   2.052   1.245   1.877
 7696TIP3   OH223051   6.687   0.894   1.272
 7696TIP3    H123052   6.718   0.804   1.271
 7696TIP3    H223053   6.734   0.937   1.201
 7697TIP3   OH223054   6.104   2.362   1.667
 7697TIP3    H123055   6.132   2.275   1.641
 7697TIP3    H223056   6.120   2.416   1.590
 7698TIP3   OH223057   3.307   4.554   0.950
 7698TIP3    H123058   3.402   4.566   0.952
 7698TIP3    H223059   3.291   4.477   1.004
 7699TIP3   OH223060   4.382   4.089   3.961
 7699TIP3    H123061   4.363   3.995   3.967
 7699TIP3    H223062   4.473   4.097   3.989
 7700TIP3   OH223063   5.975   6.669   3.153
 7700TIP3    H123064   6.011   6.613   3.220
 7700TIP3    H223065   6.023   6.752   3.162
 7701TIP3   OH223066   4.324   2.550   3.255
 7701TIP3    H123067   4.346   2.572   3.164
 7701TIP3    H223068   4.242   2.596   3.272
 7702TIP3   OH223069   2.612   2.788   2.113
 7702TIP3    H123070   2.679   2.830   2.059
 7702TIP3    H223071   2.587   2.710   2.064
 7703TIP3   OH223072   5.215   4.060   2.114
 7703TIP3    H123073   5.156   3.986   2.099
 7703TIP3    H223074   5.171   4.112   2.181
 7704TIP3   OH223075   0.320   5.326   3.567
 7704TIP3    H123076   0.360   5.379   3.498
 7704TIP3    H223077   0.284   5.390   3.628
 7705TIP3   OH223078   1.362   5.827   1.274
 7705TIP3    H123079   1.457   5.838   1.266
 7705TIP3    H223080   1.326   5.909   1.239
 7706TIP3   OH223081   6.250   5.421   0.534
 7706TIP3    H123082   6.298   5.494   0.495
 7706TIP3    H223083   6.316   5.354   0.550
 7707TIP3   OH223084   6.395   2.582   2.340
 7707TIP3    H123085   6.328   2.518   2.315
 7707TIP3    H223086   6.397   2.577   2.436
 7708TIP3   OH223087   3.790   2.517   3.343
 7708TIP3    H123088   3.743   2.591   3.305
 7708TIP3    H223089   3.747   2.440   3.306
 7709TIP3   OH223090   4.825   0.456   2.793
 7709TIP3    H123091   4.830   0.484   2.702
 7709TIP3    H223092   4.783   0.370   2.789
 7710TIP3   OH223093   4.074   5.808   4.421
 7710TIP3    H123094   4.114   5.895   4.416
 7710TIP3    H223095   4.082   5.773   4.332
 7711TIP3   OH223096   7.001   3.834   2.697
 7711TIP3    H123097   7.022   3.919   2.659
 7711TIP3    H223098   6.942   3.854   2.770
 7712TIP3   OH223099   2.054   6.659   2.492
 7712TIP3    H123100   1.992   6.701   2.432
 7712TIP3    H223101   2.081   6.579   2.447
 7713TIP3   OH223102   6.567   5.149   3.240
 7713TIP3    H123103   6.536   5.082   3.302
 7713TIP3    H223104   6.487   5.185   3.201
 7714TIP3   OH223105   6.002   0.694   4.490
 7714TIP3    H123106   5.978   0.776   4.447
 7714TIP3    H223107   5.921   0.643   4.491
 7715TIP3   OH223108   6.826   2.155   5.420
 7715TIP3    H123109   6.762   2.225   5.435
 7715TIP3    H223110   6.801   2.086   5.482
 7716TIP3   OH223111   3.310   3.014   2.101
 7716TIP3    H123112   3.274   2.985   2.017
 7716TIP3    H223113   3.294   2.941   2.161
 7717TIP3   OH223114   5.760   5.701   1.861
 7717TIP3    H123115   5.851   5.717   1.835
 7717TIP3    H223116   5.736   5.621   1.814
 7718TIP3   OH223117   3.462   0.997   2.273
 7718TIP3    H123118   3.528   1.065   2.263
 7718TIP3    H223119   3.492   0.944   2.347
 7719TIP3   OH223120   3.204   3.527   1.604
 7719TIP3    H123121   3.198   3.554   1.695
 7719TIP3    H223122   3.297   3.531   1.583
 7720TIP3   OH223123   3.879   2.030   4.449
 7720TIP3    H123124   3.828   1.966   4.500
 7720TIP3    H223125   3.881   2.108   4.504
 7721TIP3   OH223126   2.840   3.149   5.279
 7721TIP3    H123127   2.802   3.190   5.357
 7721TIP3    H223128   2.854   3.222   5.219
 7722TIP3   OH223129   4.410   2.696   2.173
 7722TIP3    H123130   4.417   2.679   2.079
 7722TIP3    H223131   4.484   2.648   2.211
 7723TIP3   OH223132   0.375   1.783   1.337
 7723TIP3    H123133   0.397   1.864   1.292
 7723TIP3    H223134   0.451   1.765   1.393
 7724TIP3   OH223135   1.700   4.910   4.093
 7724TIP3    H123136   1.620   4.882   4.137
 7724TIP3    H223137   1.693   4.874   4.005
 7725TIP3   OH223138   1.558   5.929   5.042
 7725TIP3    H123139   1.505   5.946   5.119
 7725TIP3    H223140   1.495   5.922   4.970
 7726TIP3   OH223141   4.294   3.185   0.204
 7726TIP3    H123142   4.339   3.245   0.263
 7726TIP3    H223143   4.259   3.116   0.262
 7727TIP3   OH223144   5.815   0.392   3.273
 7727TIP3    H123145   5.833   0.390   3.179
 7727TIP3    H223146   5.882   0.451   3.309
 7728TIP3   OH223147   2.845   4.742   1.109
 7728TIP3    H123148   2.852   4.812   1.044
 7728TIP3    H223149   2.916   4.682   1.088
 7729TIP3   OH223150   3.664   5.765   3.871
 7729TIP3    H123151   3.654   5.755   3.965
 7729TIP3    H223152   3.574   5.764   3.837
 7730TIP3   OH223153   0.571   3.370   1.265
 7730TIP3    H123154   0.501   3.435   1.270
 7730TIP3    H223155   0.603   3.375   1.175
 7731TIP3   OH223156   3.446   5.761   2.048
 7731TIP3    H123157   3.454   5.824   1.976
 7731TIP3    H223158   3.354   5.763   2.073
 7732TIP3   OH223159   0.645   2.985   5.561
 7732TIP3    H123160   0.653   2.895   5.529
 7732TIP3    H223161   0.565   2.985   5.613
 7733TIP3   OH223162   2.656   4.149   2.134
 7733TIP3    H123163   2.720   4.215   2.158
 7733TIP3    H223164   2.619   4.180   2.051
 7734TIP3   OH223165   4.873   0.504   1.277
 7734TIP3    H123166   4.816   0.453   1.333
 7734TIP3    H223167   4.958   0.503   1.321
 7735TIP3   OH223168   4.032   3.739   2.415
 7735TIP3    H123169   4.010   3.646   2.418
 7735TIP3    H223170   3.971   3.776   2.352
 7736TIP3   OH223171   1.916   1.757   1.062
 7736TIP3    H123172   1.985   1.815   1.030
 7736TIP3    H223173   1.834   1.797   1.033
 7737TIP3   OH223174   3.366   3.155   4.794
 7737TIP3    H123175   3.332   3.165   4.883
 7737TIP3    H223176   3.445   3.102   4.804
 7738TIP3   OH223177   5.028   4.650   1.667
 7738TIP3    H123178   5.101   4.589   1.680
 7738TIP3    H223179   4.950   4.595   1.672
 7739TIP3   OH223180   6.165   6.613   3.618
 7739TIP3    H123181   6.175   6.546   3.686
 7739TIP3    H223182   6.079   6.596   3.580
 7740TIP3   OH223183   5.041   5.211   3.987
 7740TIP3    H123184   5.024   5.163   3.906
 7740TIP3    H223185   4.955   5.243   4.015
 7741TIP3   OH223186   1.130   1.422   3.837
 7741TIP3    H123187   1.179   1.408   3.918
 7741TIP3    H223188   1.130   1.518   3.827
 7742TIP3   OH223189   0.368   2.691   2.848
 7742TIP3    H123190   0.410   2.666   2.766
 7742TIP3    H223191   0.279   2.657   2.841
 7743TIP3   OH223192   3.214   1.659   2.707
 7743TIP3    H123193   3.251   1.626   2.789
 7743TIP3    H223194   3.137   1.709   2.733
 7744TIP3   OH223195   6.485   3.627   3.266
 7744TIP3    H123196   6.414   3.600   3.324
 7744TIP3    H223197   6.562   3.634   3.323
 7745TIP3   OH223198   3.332   4.080   4.626
 7745TIP3    H123199   3.297   4.048   4.543
 7745TIP3    H223200   3.409   4.025   4.642
 7746TIP3   OH223201   1.209   6.312   4.657
 7746TIP3    H123202   1.186   6.329   4.566
 7746TIP3    H223203   1.125   6.301   4.701
 7747TIP3   OH223204   7.173   3.624   2.894
 7747TIP3    H123205   7.172   3.712   2.931
 7747TIP3    H223206   7.255   3.620   2.844
 7748TIP3   OH223207   5.823   2.084   1.441
 7748TIP3    H123208   5.770   2.023   1.491
 7748TIP3    H223209   5.791   2.171   1.465
 7749TIP3   OH223210   0.053   1.164   2.876
 7749TIP3    H123211  -0.037   1.195   2.892
 7749TIP3    H223212   0.108   1.237   2.904
 7750TIP3   OH223213   3.110   6.304   1.955
 7750TIP3    H123214   3.054   6.238   1.995
 7750TIP3    H223215   3.102   6.290   1.861
 7751TIP3   OH223216   2.144   2.040   2.152
 7751TIP3    H123217   2.080   1.983   2.195
 7751TIP3    H223218   2.213   2.052   2.217
 7752TIP3   OH223219   0.420   4.445   4.599
 7752TIP3    H123220   0.391   4.503   4.668
 7752TIP3    H223221   0.341   4.400   4.569
 7753TIP3   OH223222   2.596   5.016   3.420
 7753TIP3    H123223   2.571   5.028   3.512
 7753TIP3    H223224   2.552   5.087   3.374
 7754TIP3   OH223225   4.581   2.286   1.178
 7754TIP3    H123226   4.612   2.202   1.213
 7754TIP3    H223227   4.618   2.352   1.237
 7755TIP3   OH223228   5.958   0.667   2.233
 7755TIP3    H123229   5.874   0.699   2.200
 7755TIP3    H223230   6.016   0.668   2.157
 7756TIP3   OH223231   4.785   0.129   2.499
 7756TIP3    H123232   4.747   0.086   2.422
 7756TIP3    H223233   4.737   0.092   2.573
 7757TIP3   OH223234   6.897   6.045   4.717
 7757TIP3    H123235   6.827   6.109   4.710
 7757TIP3    H223236   6.884   6.003   4.802
 7758TIP3   OH223237   4.472   4.905   2.815
 7758TIP3    H123238   4.554   4.932   2.774
 7758TIP3    H223239   4.406   4.917   2.747
 7759TIP3   OH223240   7.108   0.982   1.405
 7759TIP3    H123241   7.064   0.919   1.347
 7759TIP3    H223242   7.038   1.037   1.439
 7760TIP3   OH223243   6.194   0.674   1.120
 7760TIP3    H123244   6.281   0.710   1.099
 7760TIP3    H223245   6.212   0.594   1.168
 7761TIP3   OH223246   1.477   4.991   5.443
 7761TIP3    H123247   1.458   5.078   5.477
 7761TIP3    H223248   1.571   4.980   5.457
 7762TIP3   OH223249   1.971   6.576   5.503
 7762TIP3    H123250   1.881   6.594   5.477
 7762TIP3    H223251   2.016   6.660   5.496
 7763TIP3   OH223252   5.015   4.475   3.308
 7763TIP3    H123253   5.081   4.443   3.368
 7763TIP3    H223254   5.063   4.530   3.246
 7764TIP3   OH223255   4.248   2.392   4.329
 7764TIP3    H123256   4.276   2.332   4.260
 7764TIP3    H223257   4.325   2.401   4.386
 7765TIP3   OH223258   6.716   0.563   5.434
 7765TIP3    H123259   6.798   0.583   5.388
 7765TIP3    H223260   6.712   0.627   5.505
 7766TIP3   OH223261   6.177   2.563   1.476
 7766TIP3    H123262   6.235   2.525   1.410
 7766TIP3    H223263   6.212   2.650   1.493
 7767TIP3   OH223264   0.296   5.309   2.290
 7767TIP3    H123265   0.368   5.337   2.234
 7767TIP3    H223266   0.309   5.357   2.372
 7768TIP3   OH223267   3.885   4.088   1.669
 7768TIP3    H123268   3.790   4.084   1.682
 7768TIP3    H223269   3.899   4.164   1.614
 7769TIP3   OH223270   5.781   5.880   3.983
 7769TIP3    H123271   5.702   5.924   4.017
 7769TIP3    H223272   5.818   5.836   4.059
 7770TIP3   OH223273   0.204   5.097   5.384
 7770TIP3    H123274   0.286   5.143   5.402
 7770TIP3    H223275   0.164   5.146   5.311
 7771TIP3   OH223276   2.899   4.679   1.481
 7771TIP3    H123277   2.876   4.711   1.568
 7771TIP3    H223278   2.883   4.753   1.423
 7772TIP3   OH223279   0.106   2.798   0.168
 7772TIP3    H123280   0.107   2.834   0.257
 7772TIP3    H223281   0.134   2.871   0.112
 7773TIP3   OH223282   7.207   0.102   4.303
 7773TIP3    H123283   7.249   0.159   4.369
 7773TIP3    H223284   7.143   0.159   4.260
 7774TIP3   OH223285   3.313   3.826   1.398
 7774TIP3    H123286   3.353   3.827   1.311
 7774TIP3    H223287   3.366   3.886   1.450
 7775TIP3   OH223288   0.529   6.743   4.182
 7775TIP3    H123289   0.552   6.788   4.100
 7775TIP3    H223290   0.496   6.658   4.153
 7776TIP3   OH223291   1.635   4.706   3.890
 7776TIP3    H123292   1.723   4.671   3.906
 7776TIP3    H223293   1.581   4.671   3.961
 7777TIP3   OH223294   4.659   0.617   4.644
 7777TIP3    H123295   4.684   0.592   4.733
 7777TIP3    H223296   4.708   0.557   4.588
 7778TIP3   OH223297   0.500   2.587   1.373
 7778TIP3    H123298   0.489   2.593   1.278
 7778TIP3    H223299   0.553   2.508   1.386
 7779TIP3   OH223300   6.569   0.471   1.426
 7779TIP3    H123301   6.491   0.464   1.481
 7779TIP3    H223302   6.630   0.407   1.463
 7780TIP3   OH223303   2.869   4.609   5.584
 7780TIP3    H123304   2.779   4.623   5.613
 7780TIP3    H223305   2.861   4.583   5.492
 7781TIP3   OH223306   0.181   4.903   0.336
 7781TIP3    H123307   0.242   4.897   0.262
 7781TIP3    H223308   0.108   4.845   0.312
 7782TIP3   OH223309   5.726   5.438   1.787
 7782TIP3    H123310   5.723   5.343   1.792
 7782TIP3    H223311   5.662   5.461   1.720
 7783TIP3   OH223312   2.616   4.635   0.963
 7783TIP3    H123313   2.640   4.545   0.937
 7783TIP3    H223314   2.641   4.641   1.055
 7784TIP3   OH223315   0.098   3.407   4.404
 7784TIP3    H123316   0.186   3.375   4.426
 7784TIP3    H223317   0.056   3.420   4.489
 7785TIP3   OH223318   2.950   6.734   5.075
 7785TIP3    H123319   2.900   6.689   5.007
 7785TIP3    H223320   2.899   6.721   5.155
 7786TIP3   OH223321   3.176   2.697   2.455
 7786TIP3    H123322   3.141   2.628   2.399
 7786TIP3    H223323   3.210   2.652   2.532
 7787TIP3   OH223324   0.664   3.427   2.265
 7787TIP3    H123325   0.715   3.365   2.317
 7787TIP3    H223326   0.647   3.381   2.183
 7788TIP3   OH223327   6.506   1.339   2.798
 7788TIP3    H123328   6.443   1.268   2.788
 7788TIP3    H223329   6.586   1.296   2.828
 7789TIP3   OH223330   4.520   6.513   2.568
 7789TIP3    H123331   4.599   6.497   2.517
 7789TIP3    H223332   4.515   6.439   2.629
 7790TIP3   OH223333   6.212   5.161   0.861
 7790TIP3    H123334   6.161   5.147   0.941
 7790TIP3    H223335   6.299   5.185   0.893
 7791TIP3   OH223336   2.565   2.799   1.633
 7791TIP3    H123337   2.578   2.841   1.548
 7791TIP3    H223338   2.571   2.705   1.614
 7792TIP3   OH223339   2.135   4.458   0.429
 7792TIP3    H123340   2.152   4.535   0.484
 7792TIP3    H223341   2.198   4.465   0.358
 7793TIP3   OH223342   4.201   6.323   3.967
 7793TIP3    H123343   4.206   6.238   3.923
 7793TIP3    H223344   4.270   6.320   4.033
 7794TIP3   OH223345   6.849   4.880   1.856
 7794TIP3    H123346   6.773   4.824   1.869
 7794TIP3    H223347   6.817   4.953   1.804
 7795TIP3   OH223348   4.713   4.885   1.428
 7795TIP3    H123349   4.713   4.884   1.524
 7795TIP3    H223350   4.804   4.905   1.405
 7796TIP3   OH223351   5.724   6.264   0.993
 7796TIP3    H123352   5.784   6.286   0.922
 7796TIP3    H223353   5.736   6.333   1.058
 7797TIP3   OH223354   3.840   1.302   5.558
 7797TIP3    H123355   3.903   1.359   5.513
 7797TIP3    H223356   3.815   1.237   5.492
 7798TIP3   OH223357   1.579   5.192   1.519
 7798TIP3    H123358   1.500   5.159   1.562
 7798TIP3    H223359   1.566   5.286   1.514
 7799TIP3   OH223360   6.379   0.596   5.516
 7799TIP3    H123361   6.331   0.576   5.596
 7799TIP3    H223362   6.321   0.567   5.445
 7800TIP3   OH223363   6.864   1.346   0.173
 7800TIP3    H123364   6.860   1.394   0.090
 7800TIP3    H223365   6.774   1.345   0.204
 7801TIP3   OH223366   4.019   0.385   4.600
 7801TIP3    H123367   4.002   0.460   4.657
 7801TIP3    H223368   4.003   0.419   4.511
 7802TIP3   OH223369   3.631   6.615   3.057
 7802TIP3    H123370   3.545   6.616   3.100
 7802TIP3    H223371   3.628   6.538   2.999
 7803TIP3   OH223372   6.612   3.099   5.428
 7803TIP3    H123373   6.544   3.082   5.363
 7803TIP3    H223374   6.615   3.194   5.436
 7804TIP3   OH223375   3.201   0.142   3.314
 7804TIP3    H123376   3.120   0.142   3.365
 7804TIP3    H223377   3.231   0.233   3.317
 7805TIP3   OH223378   2.220   2.328   3.002
 7805TIP3    H123379   2.157   2.337   2.931
 7805TIP3    H223380   2.219   2.413   3.046
 7806TIP3   OH223381   5.490   2.684   3.104
 7806TIP3    H123382   5.419   2.646   3.051
 7806TIP3    H223383   5.449   2.757   3.150
 7807TIP3   OH223384   6.564   0.129   3.594
 7807TIP3    H123385   6.597   0.054   3.543
 7807TIP3    H223386   6.606   0.119   3.679
 7808TIP3   OH223387   3.310   2.531   4.754
 7808TIP3    H123388   3.301   2.615   4.710
 7808TIP3    H223389   3.255   2.539   4.832
 7809TIP3   OH223390   3.049   3.134   4.432
 7809TIP3    H123391   3.064   3.048   4.392
 7809TIP3    H223392   2.981   3.118   4.497
 7810TIP3   OH223393   0.223   4.133   5.302
 7810TIP3    H123394   0.180   4.051   5.329
 7810TIP3    H223395   0.316   4.115   5.310
 7811TIP3   OH223396   0.598   0.196   1.795
 7811TIP3    H123397   0.540   0.206   1.871
 7811TIP3    H223398   0.654   0.122   1.817
 7812TIP3   OH223399   2.777   5.342   0.494
 7812TIP3    H123400   2.796   5.259   0.449
 7812TIP3    H223401   2.821   5.334   0.579
 7813TIP3   OH223402   6.476   5.576   0.036
 7813TIP3    H123403   6.427   5.643   0.084
 7813TIP3    H223404   6.557   5.565   0.085
 7814TIP3   OH223405   1.279   6.410   3.057
 7814TIP3    H123406   1.321   6.466   2.993
 7814TIP3    H223407   1.245   6.470   3.123
 7815TIP3   OH223408   1.402   0.932   0.884
 7815TIP3    H123409   1.466   0.973   0.826
 7815TIP3    H223410   1.354   1.006   0.922
 7816TIP3   OH223411   1.053   4.746   0.832
 7816TIP3    H123412   1.062   4.838   0.854
 7816TIP3    H223413   0.990   4.712   0.895
 7817TIP3   OH223414   3.868   5.832   5.564
 7817TIP3    H123415   3.782   5.854   5.528
 7817TIP3    H223416   3.889   5.747   5.526
 7818TIP3   OH223417   5.995   5.039   4.428
 7818TIP3    H123418   5.927   5.010   4.368
 7818TIP3    H223419   6.033   5.116   4.387
 7819TIP3   OH223420   1.362   5.508   4.583
 7819TIP3    H123421   1.425   5.506   4.655
 7819TIP3    H223422   1.390   5.439   4.523
 7820TIP3   OH223423   0.465   6.782   4.687
 7820TIP3    H123424   0.510   6.791   4.603
 7820TIP3    H223425   0.450   6.687   4.696
 7821TIP3   OH223426   4.135   4.741   2.933
 7821TIP3    H123427   4.087   4.820   2.957
 7821TIP3    H223428   4.070   4.671   2.938
 7822TIP3   OH223429   0.450   0.965   3.686
 7822TIP3    H123430   0.445   0.878   3.647
 7822TIP3    H223431   0.398   1.020   3.628
 7823TIP3   OH223432   0.032   2.927   3.521
 7823TIP3    H123433   0.021   2.872   3.599
 7823TIP3    H223434   0.096   2.880   3.467
 7824TIP3   OH223435   7.176   5.832   3.846
 7824TIP3    H123436   7.115   5.759   3.852
 7824TIP3    H223437   7.121   5.910   3.842
 7825TIP3   OH223438   2.345   3.791   0.233
 7825TIP3    H123439   2.351   3.696   0.234
 7825TIP3    H223440   2.334   3.813   0.140
 7826TIP3   OH223441   0.487   1.836   5.457
 7826TIP3    H123442   0.532   1.832   5.373
 7826TIP3    H223443   0.421   1.766   5.452
 7827TIP3   OH223444   7.161   3.712   4.850
 7827TIP3    H123445   7.235   3.761   4.813
 7827TIP3    H223446   7.202   3.644   4.903
 7828TIP3   OH223447   0.277   3.715   2.463
 7828TIP3    H123448   0.227   3.649   2.511
 7828TIP3    H223449   0.313   3.669   2.388
 7829TIP3   OH223450   6.855   2.744   2.182
 7829TIP3    H123451   6.879   2.746   2.089
 7829TIP3    H223452   6.822   2.833   2.199
 7830TIP3   OH223453   1.587   3.549   2.342
 7830TIP3    H123454   1.636   3.585   2.268
 7830TIP3    H223455   1.554   3.465   2.311
 7831TIP3   OH223456   3.003   2.364   5.557
 7831TIP3    H123457   2.944   2.377   5.631
 7831TIP3    H223458   3.091   2.373   5.594
 7832TIP3   OH223459   4.436   1.877   0.686
 7832TIP3    H123460   4.411   1.942   0.752
 7832TIP3    H223461   4.409   1.916   0.603
 7833TIP3   OH223462   0.180   2.351   2.970
 7833TIP3    H123463   0.103   2.329   2.918
 7833TIP3    H223464   0.254   2.336   2.911
 7834TIP3   OH223465   3.538   3.518   0.068
 7834TIP3    H123466   3.510   3.454   0.133
 7834TIP3    H223467   3.505   3.486  -0.015
 7835TIP3   OH223468   4.058   0.425   5.706
 7835TIP3    H123469   4.122   0.367   5.748
 7835TIP3    H223470   3.981   0.419   5.762
 7836TIP3   OH223471   0.517   1.043   4.379
 7836TIP3    H123472   0.497   0.973   4.318
 7836TIP3    H223473   0.434   1.086   4.395
 7837TIP3   OH223474   6.447   1.478   1.131
 7837TIP3    H123475   6.443   1.567   1.165
 7837TIP3    H223476   6.495   1.486   1.048
 7838TIP3   OH223477   6.622   1.230   3.439
 7838TIP3    H123478   6.651   1.140   3.451
 7838TIP3    H223479   6.587   1.256   3.525
 7839TIP3   OH223480   4.892   0.589   3.913
 7839TIP3    H123481   4.902   0.680   3.939
 7839TIP3    H223482   4.930   0.539   3.985
 7840TIP3   OH223483   0.955   6.365   2.096
 7840TIP3    H123484   1.015   6.408   2.157
 7840TIP3    H223485   0.868   6.393   2.124
 7841TIP3   OH223486   2.836   2.115   3.471
 7841TIP3    H123487   2.814   2.072   3.553
 7841TIP3    H223488   2.902   2.180   3.494
 7842TIP3   OH223489   2.339   0.466   3.864
 7842TIP3    H123490   2.309   0.547   3.906
 7842TIP3    H223491   2.258   0.418   3.845
 7843TIP3   OH223492   0.448   3.265   3.235
 7843TIP3    H123493   0.422   3.262   3.143
 7843TIP3    H223494   0.378   3.219   3.281
 7844TIP3   OH223495   2.538   0.207   4.613
 7844TIP3    H123496   2.537   0.301   4.630
 7844TIP3    H223497   2.567   0.199   4.522
 7845TIP3   OH223498   3.264   3.775   2.826
 7845TIP3    H123499   3.249   3.802   2.916
 7845TIP3    H223500   3.357   3.793   2.810
 7846TIP3   OH223501   2.643   5.069   2.254
 7846TIP3    H123502   2.662   5.081   2.347
 7846TIP3    H223503   2.602   5.152   2.227
 7847TIP3   OH223504   4.284   0.383   4.702
 7847TIP3    H123505   4.194   0.382   4.668
 7847TIP3    H223506   4.333   0.433   4.637
 7848TIP3   OH223507   5.275   4.818   3.876
 7848TIP3    H123508   5.315   4.746   3.925
 7848TIP3    H223509   5.228   4.869   3.942
 7849TIP3   OH223510   3.647   5.511   0.370
 7849TIP3    H123511   3.611   5.579   0.313
 7849TIP3    H223512   3.643   5.431   0.317
 7850TIP3   OH223513   4.317   1.971   0.428
 7850TIP3    H123514   4.309   1.946   0.336
 7850TIP3    H223515   4.305   2.066   0.428
 7851TIP3   OH223516   1.548   2.947   5.737
 7851TIP3    H123517   1.625   2.908   5.697
 7851TIP3    H223518   1.491   2.873   5.757
 7852TIP3   OH223519   5.696   2.863   1.020
 7852TIP3    H123520   5.746   2.938   1.054
 7852TIP3    H223521   5.760   2.814   0.968
 7853TIP3   OH223522   5.610   6.332   0.076
 7853TIP3    H123523   5.651   6.305   0.158
 7853TIP3    H223524   5.650   6.417   0.056
 7854TIP3   OH223525   4.131   5.856   2.327
 7854TIP3    H123526   4.114   5.887   2.417
 7854TIP3    H223527   4.182   5.776   2.339
 7855TIP3   OH223528   4.665   5.692   1.180
 7855TIP3    H123529   4.730   5.746   1.226
 7855TIP3    H223530   4.680   5.604   1.214
 7856TIP3   OH223531   5.918   1.775   0.473
 7856TIP3    H123532   5.987   1.737   0.529
 7856TIP3    H223533   5.868   1.831   0.532
 7857TIP3   OH223534   5.047   3.640   0.329
 7857TIP3    H123535   4.992   3.584   0.384
 7857TIP3    H223536   5.023   3.616   0.239
 7858TIP3   OH223537   4.172   0.967   2.723
 7858TIP3    H123538   4.179   0.967   2.628
 7858TIP3    H223539   4.078   0.978   2.741
 7859TIP3   OH223540   4.766   5.044   5.929
 7859TIP3    H123541   4.793   5.096   5.854
 7859TIP3    H223542   4.829   4.972   5.932
 7860TIP3   OH223543   0.125   4.982   0.609
 7860TIP3    H123544   0.099   4.896   0.643
 7860TIP3    H223545   0.150   4.965   0.518
 7861TIP3   OH223546   6.225   0.769   2.378
 7861TIP3    H123547   6.212   0.859   2.349
 7861TIP3    H223548   6.146   0.723   2.350
 7862TIP3   OH223549   5.953   1.488   0.331
 7862TIP3    H123550   5.926   1.452   0.246
 7862TIP3    H223551   6.042   1.519   0.315
 7863TIP3   OH223552   3.464   0.411   0.321
 7863TIP3    H123553   3.527   0.422   0.393
 7863TIP3    H223554   3.478   0.488   0.266
 7864TIP3   OH223555   0.821   5.431   0.394
 7864TIP3    H123556   0.817   5.488   0.317
 7864TIP3    H223557   0.749   5.460   0.449
 7865TIP3   OH223558   5.722   6.735   3.056
 7865TIP3    H123559   5.693   6.818   3.095
 7865TIP3    H223560   5.817   6.739   3.057
 7866TIP3   OH223561   4.592   1.914   4.241
 7866TIP3    H123562   4.679   1.883   4.264
 7866TIP3    H223563   4.532   1.860   4.292
 7867TIP3   OH223564   3.160   0.505   0.752
 7867TIP3    H123565   3.246   0.545   0.759
 7867TIP3    H223566   3.177   0.419   0.714
 7868TIP3   OH223567   4.135   0.374   3.309
 7868TIP3    H123568   4.102   0.366   3.399
 7868TIP3    H223569   4.180   0.291   3.292
 7869TIP3   OH223570   5.556   6.425   5.025
 7869TIP3    H123571   5.636   6.444   5.074
 7869TIP3    H223572   5.512   6.357   5.076
 7870TIP3   OH223573   0.949   5.957   0.149
 7870TIP3    H123574   0.968   5.912   0.067
 7870TIP3    H223575   0.855   5.976   0.145
 7871TIP3   OH223576   5.647   0.086   2.499
 7871TIP3    H123577   5.698   0.147   2.446
 7871TIP3    H223578   5.579   0.140   2.539
 7872TIP3   OH223579   5.551   6.139   2.007
 7872TIP3    H123580   5.512   6.100   2.085
 7872TIP3    H223581   5.594   6.065   1.963
 7873TIP3   OH223582   4.845   1.035   0.406
 7873TIP3    H123583   4.882   1.004   0.489
 7873TIP3    H223584   4.909   1.010   0.340
 7874TIP3   OH223585   2.161   0.358   3.540
 7874TIP3    H123586   2.167   0.289   3.607
 7874TIP3    H223587   2.108   0.426   3.581
 7875TIP3   OH223588   0.770   4.866   3.759
 7875TIP3    H123589   0.774   4.781   3.805
 7875TIP3    H223590   0.860   4.898   3.760
 7876TIP3   OH223591   3.889   6.614   3.902
 7876TIP3    H123592   3.936   6.576   3.976
 7876TIP3    H223593   3.931   6.699   3.888
 7877TIP3   OH223594   4.045   2.891   0.819
 7877TIP3    H123595   3.958   2.927   0.835
 7877TIP3    H223596   4.083   2.879   0.906
 7878TIP3   OH223597   2.620   6.560   3.185
 7878TIP3    H123598   2.710   6.529   3.200
 7878TIP3    H223599   2.564   6.490   3.219
 7879TIP3   OH223600   6.069   1.854   2.618
 7879TIP3    H123601   5.985   1.875   2.659
 7879TIP3    H223602   6.059   1.763   2.590
 7880TIP3   OH223603   2.786   4.296   5.166
 7880TIP3    H123604   2.827   4.300   5.079
 7880TIP3    H223605   2.841   4.235   5.215
 7881TIP3   OH223606   6.735   3.950   2.440
 7881TIP3    H123607   6.779   4.032   2.459
 7881TIP3    H223608   6.784   3.913   2.366
 7882TIP3   OH223609   0.797   3.709   5.296
 7882TIP3    H123610   0.802   3.699   5.201
 7882TIP3    H223611   0.888   3.701   5.325
 7883TIP3   OH223612   1.887   1.757   4.228
 7883TIP3    H123613   1.812   1.710   4.193
 7883TIP3    H223614   1.955   1.691   4.240
 7884TIP3   OH223615   6.208   4.312   1.238
 7884TIP3    H123616   6.275   4.262   1.191
 7884TIP3    H223617   6.189   4.259   1.316
 7885TIP3   OH223618   2.421   2.431   0.456
 7885TIP3    H123619   2.359   2.488   0.501
 7885TIP3    H223620   2.507   2.457   0.491
 7886TIP3   OH223621   6.808   4.224   2.988
 7886TIP3    H123622   6.854   4.219   3.072
 7886TIP3    H223623   6.718   4.249   3.012
 7887TIP3   OH223624   0.652   2.386   1.456
 7887TIP3    H123625   0.743   2.413   1.471
 7887TIP3    H223626   0.656   2.333   1.377
 7888TIP3   OH223627   1.658   0.762   0.238
 7888TIP3    H123628   1.728   0.801   0.186
 7888TIP3    H223629   1.585   0.823   0.230
 7889TIP3   OH223630   0.772   4.345   0.418
 7889TIP3    H123631   0.814   4.417   0.371
 7889TIP3    H223632   0.678   4.356   0.399
 7890TIP3   OH223633   6.131   4.222   2.102
 7890TIP3    H123634   6.103   4.285   2.035
 7890TIP3    H223635   6.061   4.156   2.104
 7891TIP3   OH223636   0.803   2.663   2.380
 7891TIP3    H123637   0.874   2.675   2.316
 7891TIP3    H223638   0.810   2.572   2.407
 7892TIP3   OH223639   1.483   0.516   3.224
 7892TIP3    H123640   1.437   0.585   3.273
 7892TIP3    H223641   1.455   0.528   3.133
 7893TIP3   OH223642   1.818   2.019   4.969
 7893TIP3    H123643   1.841   1.927   4.960
 7893TIP3    H223644   1.759   2.037   4.896
 7894TIP3   OH223645   4.367   3.551   3.195
 7894TIP3    H123646   4.360   3.506   3.279
 7894TIP3    H223647   4.445   3.514   3.154
 7895TIP3   OH223648   3.598   5.442   2.522
 7895TIP3    H123649   3.509   5.422   2.491
 7895TIP3    H223650   3.584   5.483   2.608
 7896TIP3   OH223651   0.287   6.668   3.169
 7896TIP3    H123652   0.202   6.648   3.129
 7896TIP3    H223653   0.339   6.589   3.157
 7897TIP3   OH223654   1.570   3.383   3.831
 7897TIP3    H123655   1.509   3.373   3.758
 7897TIP3    H223656   1.548   3.311   3.891
 7898TIP3   OH223657   5.054   4.292   2.852
 7898TIP3    H123658   5.011   4.293   2.937
 7898TIP3    H223659   5.006   4.227   2.801
 7899TIP3   OH223660   4.116   1.638   5.010
 7899TIP3    H123661   4.031   1.630   4.965
 7899TIP3    H223662   4.119   1.564   5.070
 7900TIP3   OH223663   4.260   2.829   1.034
 7900TIP3    H123664   4.295   2.879   1.108
 7900TIP3    H223665   4.303   2.744   1.040
 7901TIP3   OH223666   0.237   2.054   3.014
 7901TIP3    H123667   0.190   2.014   2.941
 7901TIP3    H223668   0.182   2.127   3.041
 7902TIP3   OH223669   0.125   1.114   1.288
 7902TIP3    H123670   0.039   1.102   1.329
 7902TIP3    H223671   0.128   1.050   1.218
 7903TIP3   OH223672   6.566   0.043   4.778
 7903TIP3    H123673   6.560   0.134   4.748
 7903TIP3    H223674   6.490   0.032   4.834
 7904TIP3   OH223675   1.011   1.063   4.415
 7904TIP3    H123676   0.993   1.046   4.507
 7904TIP3    H223677   0.925   1.079   4.376
 7905TIP3   OH223678   6.152   6.025   3.827
 7905TIP3    H123679   6.224   6.087   3.843
 7905TIP3    H223680   6.073   6.078   3.838
 7906TIP3   OH223681   3.590   1.009   2.996
 7906TIP3    H123682   3.538   1.049   2.926
 7906TIP3    H223683   3.623   0.927   2.959
 7907TIP3   OH223684   6.829   4.562   3.655
 7907TIP3    H123685   6.796   4.500   3.589
 7907TIP3    H223686   6.843   4.643   3.606
 7908TIP3   OH223687   6.364   3.694   4.970
 7908TIP3    H123688   6.413   3.771   5.000
 7908TIP3    H223689   6.428   3.640   4.926
 7909TIP3   OH223690   5.390   5.782   3.142
 7909TIP3    H123691   5.345   5.863   3.168
 7909TIP3    H223692   5.437   5.755   3.221
 7910TIP3   OH223693   4.838   1.184   1.836
 7910TIP3    H123694   4.791   1.123   1.780
 7910TIP3    H223695   4.771   1.219   1.896
 7911TIP3   OH223696   6.089   5.820   2.629
 7911TIP3    H123697   5.997   5.807   2.652
 7911TIP3    H223698   6.135   5.748   2.672
 7912TIP3   OH223699   2.351   1.890   5.429
 7912TIP3    H123700   2.403   1.852   5.500
 7912TIP3    H223701   2.299   1.817   5.396
 7913TIP3   OH223702   0.145   4.120   2.568
 7913TIP3    H123703   0.111   4.203   2.603
 7913TIP3    H223704   0.163   4.067   2.645
 7914TIP3   OH223705   3.267   1.885   4.221
 7914TIP3    H123706   3.357   1.908   4.243
 7914TIP3    H223707   3.274   1.801   4.176
 7915TIP3   OH223708   5.223   4.492   3.815
 7915TIP3    H123709   5.130   4.500   3.838
 7915TIP3    H223710   5.232   4.545   3.736
 7916TIP3   OH223711   2.199   6.425   0.494
 7916TIP3    H123712   2.126   6.450   0.437
 7916TIP3    H223713   2.175   6.338   0.527
 7917TIP3   OH223714   5.938   2.727   1.017
 7917TIP3    H123715   5.994   2.794   0.976
 7917TIP3    H223716   5.906   2.769   1.098
 7918TIP3   OH223717   3.216   2.366   1.049
 7918TIP3    H123718   3.150   2.299   1.034
 7918TIP3    H223719   3.299   2.318   1.047
 7919TIP3   OH223720   3.267   1.883   3.901
 7919TIP3    H123721   3.254   1.943   3.828
 7919TIP3    H223722   3.331   1.927   3.957
 7920TIP3   OH223723   0.960   5.274   5.024
 7920TIP3    H123724   0.885   5.321   4.989
 7920TIP3    H223725   1.035   5.331   5.006
 7921TIP3   OH223726   7.097   5.604   2.376
 7921TIP3    H123727   7.059   5.556   2.450
 7921TIP3    H223728   7.166   5.547   2.343
 7922TIP3   OH223729   3.919   1.221   2.026
 7922TIP3    H123730   3.846   1.175   1.986
 7922TIP3    H223731   3.964   1.263   1.952
 7923TIP3   OH223732   3.110   6.182   5.074
 7923TIP3    H123733   3.155   6.170   4.991
 7923TIP3    H223734   3.119   6.275   5.093
 7924TIP3   OH223735   3.011   4.524   1.820
 7924TIP3    H123736   2.936   4.505   1.763
 7924TIP3    H223737   3.040   4.611   1.793
 7925TIP3   OH223738   3.090   0.494   1.105
 7925TIP3    H123739   3.164   0.435   1.091
 7925TIP3    H223740   3.064   0.478   1.196
 7926TIP3   OH223741   0.294   0.627   3.883
 7926TIP3    H123742   0.263   0.717   3.872
 7926TIP3    H223743   0.227   0.573   3.842
 7927TIP3   OH223744   0.493   2.100   5.401
 7927TIP3    H123745   0.457   2.056   5.323
 7927TIP3    H223746   0.520   2.029   5.458
 7928TIP3   OH223747   1.277   1.035   2.914
 7928TIP3    H123748   1.199   1.014   2.863
 7928TIP3    H223749   1.250   1.022   3.005
 7929TIP3   OH223750   3.875   5.821   1.631
 7929TIP3    H123751   3.836   5.893   1.580
 7929TIP3    H223752   3.800   5.780   1.675
 7930TIP3   OH223753   2.207   1.708   0.818
 7930TIP3    H123754   2.225   1.744   0.905
 7930TIP3    H223755   2.145   1.769   0.779
 7931TIP3   OH223756   3.084   3.655   2.668
 7931TIP3    H123757   3.147   3.654   2.596
 7931TIP3    H223758   3.122   3.715   2.732
 7932TIP3   OH223759   4.857   3.279   1.491
 7932TIP3    H123760   4.890   3.261   1.403
 7932TIP3    H223761   4.915   3.346   1.525
 7933TIP3   OH223762   6.802   6.238   1.801
 7933TIP3    H123763   6.715   6.275   1.785
 7933TIP3    H223764   6.849   6.249   1.718
 7934TIP3   OH223765   1.769   5.617   5.133
 7934TIP3    H123766   1.787   5.694   5.080
 7934TIP3    H223767   1.855   5.583   5.157
 7935TIP3   OH223768   6.639   4.169   4.446
 7935TIP3    H123769   6.644   4.244   4.387
 7935TIP3    H223770   6.573   4.112   4.408
 7936TIP3   OH223771   4.653   3.831   0.587
 7936TIP3    H123772   4.622   3.844   0.497
 7936TIP3    H223773   4.712   3.756   0.582
 7937TIP3   OH223774   5.987   1.214   4.251
 7937TIP3    H123775   6.071   1.192   4.212
 7937TIP3    H223776   6.009   1.277   4.320
 7938TIP3   OH223777   5.137   6.481   2.809
 7938TIP3    H123778   5.099   6.446   2.729
 7938TIP3    H223779   5.202   6.415   2.835
 7939TIP3   OH223780   4.486   6.379   2.046
 7939TIP3    H123781   4.580   6.396   2.046
 7939TIP3    H223782   4.479   6.283   2.044
 7940TIP3   OH223783   2.526   5.572   2.173
 7940TIP3    H123784   2.456   5.596   2.234
 7940TIP3    H223785   2.535   5.477   2.181
 7941TIP3   OH223786   4.666   4.076   0.736
 7941TIP3    H123787   4.576   4.083   0.706
 7941TIP3    H223788   4.700   3.997   0.692
 7942TIP3   OH223789   1.021   6.410   5.281
 7942TIP3    H123790   0.939   6.362   5.292
 7942TIP3    H223791   1.041   6.441   5.370
 7943TIP3   OH223792   2.558   5.812   2.935
 7943TIP3    H123793   2.480   5.855   2.970
 7943TIP3    H223794   2.595   5.876   2.873
 7944TIP3   OH223795   1.420   3.156   4.343
 7944TIP3    H123796   1.325   3.147   4.334
 7944TIP3    H223797   1.431   3.243   4.384
 7945TIP3   OH223798   2.272   4.565   1.666
 7945TIP3    H123799   2.325   4.486   1.680
 7945TIP3    H223800   2.231   4.581   1.751
 7946TIP3   OH223801   5.197   4.811   1.470
 7946TIP3    H123802   5.198   4.803   1.566
 7946TIP3    H223803   5.231   4.728   1.438
 7947TIP3   OH223804   2.165   4.994   2.152
 7947TIP3    H123805   2.102   4.991   2.080
 7947TIP3    H223806   2.249   5.016   2.110
 7948TIP3   OH223807   0.064   3.866   5.743
 7948TIP3    H123808   0.000   3.799   5.770
 7948TIP3    H223809   0.046   3.941   5.800
 7949TIP3   OH223810  -0.007   5.916   1.385
 7949TIP3    H123811  -0.024   5.824   1.364
 7949TIP3    H223812  -0.050   5.964   1.314
 7950TIP3   OH223813   6.214   2.451   1.147
 7950TIP3    H123814   6.265   2.499   1.082
 7950TIP3    H223815   6.261   2.368   1.157
 7951TIP3   OH223816   0.640   3.836   2.018
 7951TIP3    H123817   0.600   3.923   2.014
 7951TIP3    H223818   0.630   3.809   2.109
 7952TIP3   OH223819   0.002   5.860   1.652
 7952TIP3    H123820   0.089   5.851   1.693
 7952TIP3    H223821   0.012   5.932   1.590
 7953TIP3   OH223822   5.419   4.671   2.656
 7953TIP3    H123823   5.351   4.738   2.668
 7953TIP3    H223824   5.501   4.715   2.677
 7954TIP3   OH223825   2.509   0.781   5.131
 7954TIP3    H123826   2.530   0.728   5.208
 7954TIP3    H223827   2.593   0.822   5.107
 7955TIP3   OH223828   0.579   3.971   4.584
 7955TIP3    H123829   0.599   3.895   4.529
 7955TIP3    H223830   0.651   4.032   4.570
 7956TIP3   OH223831   4.728   2.649   0.516
 7956TIP3    H123832   4.783   2.659   0.594
 7956TIP3    H223833   4.790   2.638   0.444
 7957TIP3   OH223834   4.185   0.734   0.955
 7957TIP3    H123835   4.268   0.750   0.911
 7957TIP3    H223836   4.138   0.817   0.950
 7958TIP3   OH223837   6.221   4.864   0.385
 7958TIP3    H123838   6.173   4.860   0.467
 7958TIP3    H223839   6.181   4.937   0.338
 7959TIP3   OH223840   6.360   0.861   5.054
 7959TIP3    H123841   6.315   0.860   5.139
 7959TIP3    H223842   6.348   0.951   5.023
 7960TIP3   OH223843   4.653   2.657   3.690
 7960TIP3    H123844   4.658   2.644   3.785
 7960TIP3    H223845   4.645   2.569   3.654
 7961TIP3   OH223846   0.435   0.747   3.513
 7961TIP3    H123847   0.388   0.666   3.496
 7961TIP3    H223848   0.485   0.764   3.434
 7962TIP3   OH223849   6.270   6.370   0.747
 7962TIP3    H123850   6.276   6.401   0.838
 7962TIP3    H223851   6.354   6.393   0.708
 7963TIP3   OH223852   0.028   1.804   3.558
 7963TIP3    H123853  -0.006   1.807   3.468
 7963TIP3    H223854   0.098   1.869   3.559
 7964TIP3   OH223855   2.098   2.182   5.521
 7964TIP3    H123856   2.139   2.240   5.457
 7964TIP3    H223857   2.010   2.166   5.487
 7965TIP3   OH223858   1.316   3.820   5.099
 7965TIP3    H123859   1.306   3.790   5.189
 7965TIP3    H223860   1.250   3.889   5.089
 7966TIP3   OH223861   1.519   2.600   4.549
 7966TIP3    H123862   1.477   2.602   4.464
 7966TIP3    H223863   1.466   2.539   4.601
 7967TIP3   OH223864   1.032   3.600   3.226
 7967TIP3    H123865   1.057   3.621   3.136
 7967TIP3    H223866   0.971   3.669   3.251
 7968TIP3   OH223867   4.331   5.921   5.627
 7968TIP3    H123868   4.284   5.839   5.644
 7968TIP3    H223869   4.279   5.988   5.672
 7969TIP3   OH223870   1.860   2.082   5.424
 7969TIP3    H123871   1.902   2.050   5.344
 7969TIP3    H223872   1.768   2.094   5.399
 7970TIP3   OH223873   5.274   5.158   0.059
 7970TIP3    H123874   5.366   5.133   0.069
 7970TIP3    H223875   5.278   5.250   0.033
 7971TIP3   OH223876   1.413   4.368   4.252
 7971TIP3    H123877   1.371   4.323   4.326
 7971TIP3    H223878   1.502   4.387   4.283
 7972TIP3   OH223879   4.117   0.846   5.733
 7972TIP3    H123880   4.139   0.939   5.735
 7972TIP3    H223881   4.132   0.819   5.642
 7973TIP3   OH223882   6.358   1.682   0.485
 7973TIP3    H123883   6.323   1.600   0.451
 7973TIP3    H223884   6.324   1.750   0.426
 7974TIP3   OH223885   5.236   3.541   2.917
 7974TIP3    H123886   5.178   3.537   2.994
 7974TIP3    H223887   5.265   3.633   2.914
 7975TIP3   OH223888   0.525   5.052   2.545
 7975TIP3    H123889   0.569   5.021   2.465
 7975TIP3    H223890   0.444   5.002   2.548
 7976TIP3   OH223891   7.168   2.894   4.291
 7976TIP3    H123892   7.157   2.976   4.245
 7976TIP3    H223893   7.087   2.884   4.342
 7977TIP3   OH223894   4.934   3.368   0.708
 7977TIP3    H123895   4.923   3.303   0.778
 7977TIP3    H223896   4.944   3.316   0.628
 7978TIP3   OH223897   5.846   6.805   2.099
 7978TIP3    H123898   5.871   6.741   2.033
 7978TIP3    H223899   5.917   6.802   2.164
 7979TIP3   OH223900   2.530   3.875   1.178
 7979TIP3    H123901   2.522   3.832   1.093
 7979TIP3    H223902   2.556   3.965   1.157
 7980TIP3   OH223903   3.348   5.117   5.799
 7980TIP3    H123904   3.299   5.105   5.717
 7980TIP3    H223905   3.354   5.029   5.836
 7981TIP3   OH223906   5.829   5.403   5.765
 7981TIP3    H123907   5.782   5.357   5.835
 7981TIP3    H223908   5.806   5.496   5.778
 7982TIP3   OH223909   1.238   6.115   1.893
 7982TIP3    H123910   1.214   6.186   1.834
 7982TIP3    H223911   1.169   6.050   1.882
 7983TIP3   OH223912   3.558   3.187   4.195
 7983TIP3    H123913   3.531   3.097   4.213
 7983TIP3    H223914   3.476   3.234   4.182
 7984TIP3   OH223915   4.536   0.646   5.719
 7984TIP3    H123916   4.447   0.637   5.687
 7984TIP3    H223917   4.547   0.576   5.782
 7985TIP3   OH223918   1.206   4.344   4.446
 7985TIP3    H123919   1.161   4.313   4.524
 7985TIP3    H223920   1.152   4.315   4.373
 7986TIP3   OH223921   5.135   4.091   4.409
 7986TIP3    H123922   5.184   4.168   4.380
 7986TIP3    H223923   5.185   4.016   4.376
 7987TIP3   OH223924   0.476   6.221   1.187
 7987TIP3    H123925   0.411   6.280   1.225
 7987TIP3    H223926   0.427   6.142   1.166
 7988TIP3   OH223927   1.640   5.557   3.236
 7988TIP3    H123928   1.712   5.578   3.177
 7988TIP3    H223929   1.645   5.462   3.248
 7989TIP3   OH223930   2.486   2.286   0.936
 7989TIP3    H123931   2.530   2.370   0.923
 7989TIP3    H223932   2.429   2.277   0.860
 7990TIP3   OH223933   5.529   6.741   4.213
 7990TIP3    H123934   5.564   6.748   4.302
 7990TIP3    H223935   5.596   6.695   4.164
 7991TIP3   OH223936   6.142   6.197   2.054
 7991TIP3    H123937   6.129   6.124   2.115
 7991TIP3    H223938   6.196   6.161   1.984
 7992TIP3   OH223939   3.467   4.360   4.469
 7992TIP3    H123940   3.480   4.384   4.561
 7992TIP3    H223941   3.453   4.444   4.424
 7993TIP3   OH223942   3.131   4.001   2.217
 7993TIP3    H123943   3.180   4.083   2.208
 7993TIP3    H223944   3.198   3.935   2.231
 7994TIP3   OH223945   4.818   5.270   5.074
 7994TIP3    H123946   4.830   5.260   5.168
 7994TIP3    H223947   4.743   5.329   5.066
 7995TIP3   OH223948   0.269   4.268   3.790
 7995TIP3    H123949   0.260   4.242   3.881
 7995TIP3    H223950   0.182   4.256   3.752
 7996TIP3   OH223951   5.085   1.928   4.161
 7996TIP3    H123952   5.010   1.944   4.105
 7996TIP3    H223953   5.082   1.833   4.178
 7997TIP3   OH223954   1.913   5.722   5.388
 7997TIP3    H123955   1.837   5.776   5.365
 7997TIP3    H223956   1.945   5.689   5.304
 7998TIP3   OH223957   2.246   5.424   5.524
 7998TIP3    H123958   2.252   5.356   5.590
 7998TIP3    H223959   2.259   5.506   5.572
 7999TIP3   OH223960   4.451   6.345   4.840
 7999TIP3    H123961   4.425   6.384   4.756
 7999TIP3    H223962   4.382   6.371   4.901
 8000TIP3   OH223963   5.266   4.237   5.896
 8000TIP3    H123964   5.222   4.311   5.938
 8000TIP3    H223965   5.318   4.277   5.826
 8001TIP3   OH223966   1.598   5.529   3.661
 8001TIP3    H123967   1.676   5.486   3.696
 8001TIP3    H223968   1.529   5.463   3.668
 8002TIP3   OH223969   5.377   4.360   3.231
 8002TIP3    H123970   5.338   4.426   3.174
 8002TIP3    H223971   5.318   4.355   3.306
 8003TIP3   OH223972   4.802   3.567   1.235
 8003TIP3    H123973   4.810   3.657   1.268
 8003TIP3    H223974   4.737   3.527   1.293
 8004TIP3   OH223975   0.878   4.749   3.529
 8004TIP3    H123976   0.835   4.800   3.597
 8004TIP3    H223977   0.833   4.665   3.529
 8005TIP3   OH223978   4.665   1.610   0.312
 8005TIP3    H123979   4.622   1.649   0.237
 8005TIP3    H223980   4.594   1.585   0.371
 8006TIP3   OH223981   3.291   3.864   3.096
 8006TIP3    H123982   3.328   3.850   3.183
 8006TIP3    H223983   3.211   3.914   3.113
 8007TIP3   OH223984   6.727   6.106   1.355
 8007TIP3    H123985   6.727   6.011   1.354
 8007TIP3    H223986   6.650   6.130   1.407
 8008TIP3   OH223987   3.987   0.735   4.537
 8008TIP3    H123988   3.934   0.724   4.459
 8008TIP3    H223989   3.927   0.721   4.610
 8009TIP3   OH223990   3.569   1.175   1.666
 8009TIP3    H123991   3.646   1.227   1.642
 8009TIP3    H223992   3.546   1.128   1.587
 8010TIP3   OH223993   1.584   4.096   5.880
 8010TIP3    H123994   1.575   4.002   5.862
 8010TIP3    H223995   1.679   4.109   5.890
 8011TIP3   OH223996   3.734   3.606   2.006
 8011TIP3    H123997   3.718   3.690   1.963
 8011TIP3    H223998   3.655   3.554   1.987
 8012TIP3   OH223999   2.291   0.570   0.157
 8012TIP3    H124000   2.288   0.666   0.154
 8012TIP3    H224001   2.348   0.545   0.084
 8013TIP3   OH224002   3.908   4.589   0.941
 8013TIP3    H124003   3.927   4.610   0.850
 8013TIP3    H224004   3.911   4.493   0.945
 8014TIP3   OH224005   6.340   1.355   0.760
 8014TIP3    H124006   6.330   1.447   0.782
 8014TIP3    H224007   6.252   1.319   0.769
 8015TIP3   OH224008   1.509   1.607   2.244
 8015TIP3    H124009   1.584   1.602   2.303
 8015TIP3    H224010   1.494   1.701   2.233
 8016TIP3   OH224011   1.325   6.172   0.300
 8016TIP3    H124012   1.388   6.245   0.293
 8016TIP3    H224013   1.240   6.215   0.299
 8017TIP3   OH224014   7.132   3.600   2.296
 8017TIP3    H124015   7.098   3.520   2.336
 8017TIP3    H224016   7.157   3.573   2.208
 8018TIP3   OH224017   5.027   3.749   1.772
 8018TIP3    H124018   5.008   3.674   1.828
 8018TIP3    H224019   5.015   3.825   1.827
 8019TIP3   OH224020   4.100   6.665   0.193
 8019TIP3    H124021   4.077   6.739   0.136
 8019TIP3    H224022   4.161   6.702   0.256
 8020TIP3   OH224023   0.186   4.185   5.846
 8020TIP3    H124024   0.248   4.120   5.877
 8020TIP3    H224025   0.219   4.211   5.759
 8021TIP3   OH224026   4.286   2.266   0.451
 8021TIP3    H124027   4.316   2.290   0.363
 8021TIP3    H224028   4.195   2.239   0.438
 8022TIP3   OH224029   5.734   1.539   3.988
 8022TIP3    H124030   5.778   1.622   3.968
 8022TIP3    H224031   5.756   1.521   4.079
 8023TIP3   OH224032   3.967   2.842   1.890
 8023TIP3    H124033   3.925   2.767   1.931
 8023TIP3    H224034   3.895   2.903   1.872
 8024TIP3   OH224035   6.952   2.469   2.454
 8024TIP3    H124036   6.875   2.515   2.488
 8024TIP3    H224037   7.000   2.536   2.406
 8025TIP3   OH224038   6.641   4.153   1.424
 8025TIP3    H124039   6.620   4.232   1.475
 8025TIP3    H224040   6.734   4.163   1.403
 8026TIP3   OH224041   3.185   0.943   2.766
 8026TIP3    H124042   3.125   0.918   2.836
 8026TIP3    H224043   3.213   1.032   2.789
 8027TIP3   OH224044   0.550   1.417   4.776
 8027TIP3    H124045   0.464   1.404   4.735
 8027TIP3    H224046   0.608   1.439   4.704
 8028TIP3   OH224047   4.697   5.077   0.570
 8028TIP3    H124048   4.783   5.100   0.535
 8028TIP3    H224049   4.653   5.161   0.582
 8029TIP3   OH224050   4.022   3.722   4.643
 8029TIP3    H124051   3.969   3.680   4.711
 8029TIP3    H224052   4.006   3.671   4.564
 8030TIP3   OH224053   3.235   3.215   0.620
 8030TIP3    H124054   3.203   3.293   0.665
 8030TIP3    H224055   3.185   3.143   0.660
 8031TIP3   OH224056   5.064   1.252   1.387
 8031TIP3    H124057   5.066   1.156   1.381
 8031TIP3    H224058   5.143   1.275   1.435
 8032TIP3   OH224059   6.991   5.518   4.405
 8032TIP3    H124060   7.006   5.580   4.335
 8032TIP3    H224061   6.953   5.441   4.362
 8033TIP3   OH224062   6.613   2.397   1.014
 8033TIP3    H124063   6.618   2.342   1.092
 8033TIP3    H224064   6.687   2.369   0.960
 8034TIP3   OH224065   4.368   6.708   4.811
 8034TIP3    H124066   4.285   6.755   4.811
 8034TIP3    H224067   4.381   6.683   4.902
 8035TIP3   OH224068   2.783   6.457   0.086
 8035TIP3    H124069   2.713   6.478   0.147
 8035TIP3    H224070   2.856   6.431   0.142
 8036TIP3   OH224071   1.312   6.139   4.982
 8036TIP3    H124072   1.325   6.111   4.892
 8036TIP3    H224073   1.238   6.199   4.979
 8037TIP3   OH224074   6.947   5.631   1.312
 8037TIP3    H124075   7.007   5.560   1.338
 8037TIP3    H224076   6.991   5.674   1.238
 8038TIP3   OH224077   6.709   3.883   0.733
 8038TIP3    H124078   6.766   3.853   0.803
 8038TIP3    H224079   6.761   3.874   0.654
 8039TIP3   OH224080   0.832   1.040   0.801
 8039TIP3    H124081   0.922   1.021   0.828
 8039TIP3    H224082   0.838   1.125   0.757
 8040TIP3   OH224083   5.421   5.728   3.410
 8040TIP3    H124084   5.438   5.789   3.481
 8040TIP3    H224085   5.429   5.642   3.450
 8041TIP3   OH224086   1.763   3.468   0.870
 8041TIP3    H124087   1.677   3.461   0.827
 8041TIP3    H224088   1.753   3.420   0.952
 8042TIP3   OH224089   3.812   3.388   2.680
 8042TIP3    H124090   3.821   3.443   2.757
 8042TIP3    H224091   3.760   3.313   2.709
 8043TIP3   OH224092   5.702   4.086   1.602
 8043TIP3    H124093   5.638   4.023   1.568
 8043TIP3    H224094   5.669   4.108   1.689
 8044TIP3   OH224095   1.168   0.559   3.143
 8044TIP3    H124096   1.106   0.609   3.196
 8044TIP3    H224097   1.169   0.604   3.058
 8045TIP3   OH224098   2.267   2.972   2.211
 8045TIP3    H124099   2.282   2.899   2.152
 8045TIP3    H224100   2.172   2.975   2.221
 8046TIP3   OH224101   4.609   2.824   4.499
 8046TIP3    H124102   4.605   2.739   4.542
 8046TIP3    H224103   4.539   2.821   4.433
 8047TIP3   OH224104   6.267   5.084   2.296
 8047TIP3    H124105   6.350   5.056   2.257
 8047TIP3    H224106   6.258   5.031   2.375
 8048TIP3   OH224107   0.412   3.235   5.094
 8048TIP3    H124108   0.328   3.255   5.137
 8048TIP3    H224109   0.468   3.310   5.114
 8049TIP3   OH224110   1.664   1.586   0.811
 8049TIP3    H124111   1.682   1.635   0.730
 8049TIP3    H224112   1.713   1.505   0.801
 8050TIP3   OH224113   5.558   1.013   3.927
 8050TIP3    H124114   5.635   0.966   3.895
 8050TIP3    H224115   5.540   1.078   3.859
 8051TIP3   OH224116   2.082   0.756   4.723
 8051TIP3    H124117   2.168   0.716   4.716
 8051TIP3    H224118   2.063   0.757   4.817
 8052TIP3   OH224119   4.139   3.415   4.752
 8052TIP3    H124120   4.168   3.413   4.661
 8052TIP3    H224121   4.191   3.484   4.793
 8053TIP3   OH224122   4.980   2.235   1.868
 8053TIP3    H124123   5.037   2.230   1.792
 8053TIP3    H224124   5.003   2.318   1.910
 8054TIP3   OH224125   4.542   1.772   3.272
 8054TIP3    H124126   4.614   1.732   3.321
 8054TIP3    H224127   4.483   1.699   3.252
 8055TIP3   OH224128   3.401   5.504   0.524
 8055TIP3    H124129   3.470   5.546   0.473
 8055TIP3    H224130   3.426   5.518   0.615
 8056TIP3   OH224131   1.810   6.045   4.799
 8056TIP3    H124132   1.852   6.115   4.849
 8056TIP3    H224133   1.866   6.034   4.722
 8057TIP3   OH224134   3.742   1.020   5.707
 8057TIP3    H124135   3.787   1.068   5.777
 8057TIP3    H224136   3.799   1.030   5.631
 8058TIP3   OH224137   2.845   3.259   3.787
 8058TIP3    H124138   2.871   3.314   3.862
 8058TIP3    H224139   2.899   3.181   3.795
 8059TIP3   OH224140   6.921   6.137   0.577
 8059TIP3    H124141   6.865   6.144   0.500
 8059TIP3    H224142   6.864   6.105   0.646
 8060TIP3   OH224143   1.737   3.139   2.460
 8060TIP3    H124144   1.786   3.095   2.529
 8060TIP3    H224145   1.804   3.183   2.408
 8061TIP3   OH224146   2.318   1.330   4.013
 8061TIP3    H124147   2.248   1.270   3.988
 8061TIP3    H224148   2.275   1.416   4.016
 8062TIP3   OH224149   1.846   5.345   5.391
 8062TIP3    H124150   1.777   5.358   5.326
 8062TIP3    H224151   1.823   5.405   5.462
 8063TIP3   OH224152   0.080   2.326   3.659
 8063TIP3    H124153   0.053   2.299   3.747
 8063TIP3    H224154   0.000   2.328   3.608
 8064TIP3   OH224155   4.300   4.640   3.465
 8064TIP3    H124156   4.252   4.601   3.392
 8064TIP3    H224157   4.237   4.646   3.536
 8065TIP3   OH224158   1.466   5.246   2.869
 8065TIP3    H124159   1.451   5.221   2.960
 8065TIP3    H224160   1.397   5.309   2.850
 8066TIP3   OH224161   2.548   5.154   5.867
 8066TIP3    H124162   2.578   5.218   5.803
 8066TIP3    H224163   2.458   5.179   5.885
 8067TIP3   OH224164   0.484   5.335   2.660
 8067TIP3    H124165   0.494   5.248   2.622
 8067TIP3    H224166   0.431   5.383   2.597
 8068TIP3   OH224167   1.072   1.251   0.291
 8068TIP3    H124168   0.979   1.242   0.273
 8068TIP3    H224169   1.101   1.320   0.231
 8069TIP3   OH224170   0.285   0.431   1.408
 8069TIP3    H124171   0.214   0.492   1.425
 8069TIP3    H224172   0.272   0.403   1.317
 8070TIP3   OH224173   0.585   5.758   5.020
 8070TIP3    H124174   0.677   5.782   5.008
 8070TIP3    H224175   0.549   5.753   4.931
 8071TIP3   OH224176   1.294   2.487   2.071
 8071TIP3    H124177   1.342   2.404   2.082
 8071TIP3    H224178   1.363   2.554   2.067
 8072TIP3   OH224179   4.201   1.398   3.048
 8072TIP3    H124180   4.252   1.474   3.077
 8072TIP3    H224181   4.237   1.375   2.963
 8073TIP3   OH224182   3.114   4.427   4.080
 8073TIP3    H124183   3.104   4.381   3.997
 8073TIP3    H224184   3.115   4.357   4.146
 8074TIP3   OH224185   1.156   1.603   1.731
 8074TIP3    H124186   1.065   1.613   1.706
 8074TIP3    H224187   1.204   1.595   1.648
 8075TIP3   OH224188   4.985   3.061   3.747
 8075TIP3    H124189   4.946   3.006   3.679
 8075TIP3    H224190   4.910   3.101   3.792
 8076TIP3   OH224191   3.039   4.142   1.444
 8076TIP3    H124192   3.078   4.221   1.481
 8076TIP3    H224193   3.069   4.071   1.502
 8077TIP3   OH224194   2.449   3.022   0.184
 8077TIP3    H124195   2.470   3.045   0.274
 8077TIP3    H224196   2.510   2.951   0.162
 8078TIP3   OH224197   5.703   6.283   3.321
 8078TIP3    H124198   5.700   6.369   3.279
 8078TIP3    H224199   5.788   6.280   3.364
 8079TIP3   OH224200   2.375   2.495   5.565
 8079TIP3    H124201   2.319   2.450   5.502
 8079TIP3    H224202   2.367   2.445   5.646
 8080TIP3   OH224203   1.664   0.724   2.932
 8080TIP3    H124204   1.679   0.642   2.979
 8080TIP3    H224205   1.650   0.789   3.001
 8081TIP3   OH224206   0.644   0.822   2.442
 8081TIP3    H124207   0.716   0.870   2.401
 8081TIP3    H224208   0.582   0.889   2.469
 8082TIP3   OH224209   6.821   2.542   1.500
 8082TIP3    H124210   6.852   2.539   1.591
 8082TIP3    H224211   6.749   2.479   1.497
 8083TIP3   OH224212   1.351   1.915   1.588
 8083TIP3    H124213   1.399   1.873   1.517
 8083TIP3    H224214   1.387   1.875   1.668
 8084TIP3   OH224215   5.675   0.493   0.759
 8084TIP3    H124216   5.754   0.457   0.719
 8084TIP3    H224217   5.692   0.489   0.853
 8085TIP3   OH224218   5.744   1.172   0.237
 8085TIP3    H124219   5.678   1.212   0.181
 8085TIP3    H224220   5.725   1.207   0.325
 8086TIP3   OH224221   6.815   1.083   0.035
 8086TIP3    H124222   6.818   1.142  -0.040
 8086TIP3    H224223   6.840   1.138   0.109
 8087TIP3   OH224224   5.944   3.501   0.026
 8087TIP3    H124225   5.902   3.538   0.104
 8087TIP3    H224226   5.873   3.463  -0.024
 8088TIP3   OH224227   5.080   6.011   1.535
 8088TIP3    H124228   5.096   5.956   1.612
 8088TIP3    H224229   5.045   6.093   1.571
 8089TIP3   OH224230   6.455   4.246   2.658
 8089TIP3    H124231   6.480   4.327   2.702
 8089TIP3    H224232   6.519   4.182   2.688
 8090TIP3   OH224233   0.951   0.812   2.125
 8090TIP3    H124234   0.979   0.734   2.077
 8090TIP3    H224235   0.972   0.794   2.216
 8091TIP3   OH224236   0.831   5.166   0.556
 8091TIP3    H124237   0.891   5.138   0.487
 8091TIP3    H224238   0.811   5.257   0.535
 8092TIP3   OH224239   6.900   6.733   0.097
 8092TIP3    H124240   6.992   6.714   0.080
 8092TIP3    H224241   6.853   6.663   0.052
 8093TIP3   OH224242   3.192   4.520   5.526
 8093TIP3    H124243   3.114   4.558   5.567
 8093TIP3    H224244   3.188   4.547   5.435
 8094TIP3   OH224245   2.353   2.184   1.276
 8094TIP3    H124246   2.275   2.129   1.287
 8094TIP3    H224247   2.402   2.141   1.206
 8095TIP3   OH224248   0.809   6.603   0.328
 8095TIP3    H124249   0.880   6.652   0.288
 8095TIP3    H224250   0.849   6.556   0.401
 8096TIP3   OH224251   5.259   5.782   2.165
 8096TIP3    H124252   5.241   5.748   2.253
 8096TIP3    H224253   5.188   5.844   2.147
 8097TIP3   OH224254   1.272   4.508   2.391
 8097TIP3    H124255   1.272   4.431   2.449
 8097TIP3    H224256   1.221   4.573   2.439
 8098TIP3   OH224257   5.986   6.375   0.799
 8098TIP3    H124258   6.075   6.389   0.767
 8098TIP3    H224259   5.938   6.343   0.722
 8099TIP3   OH224260   0.957   1.412   5.402
 8099TIP3    H124261   1.021   1.398   5.332
 8099TIP3    H224262   1.009   1.422   5.481
 8100TIP3   OH224263   4.051   2.568   2.285
 8100TIP3    H124264   3.977   2.621   2.257
 8100TIP3    H224265   4.104   2.557   2.206
 8101TIP3   OH224266   4.790   2.263   3.196
 8101TIP3    H124267   4.740   2.299   3.123
 8101TIP3    H224268   4.752   2.176   3.210
 8102TIP3   OH224269   3.702   6.049   1.236
 8102TIP3    H124270   3.775   6.081   1.183
 8102TIP3    H224271   3.668   5.974   1.187
 8103TIP3   OH224272   2.822   3.586   3.414
 8103TIP3    H124273   2.853   3.677   3.414
 8103TIP3    H224274   2.757   3.583   3.344
 8104TIP3   OH224275   2.965   4.315   2.753
 8104TIP3    H124276   2.927   4.398   2.780
 8104TIP3    H224277   3.053   4.337   2.723
 8105TIP3   OH224278   0.100   5.890   4.969
 8105TIP3    H124279   0.097   5.799   4.941
 8105TIP3    H224280   0.191   5.906   4.992
 8106TIP3   OH224281   4.944   2.855   3.973
 8106TIP3    H124282   4.954   2.906   3.892
 8106TIP3    H224283   4.978   2.911   4.042
 8107TIP3   OH224284   3.847   5.142   3.668
 8107TIP3    H124285   3.789   5.121   3.595
 8107TIP3    H224286   3.852   5.238   3.668
 8108TIP3   OH224287   5.108   0.204   0.102
 8108TIP3    H124288   5.035   0.164   0.054
 8108TIP3    H224289   5.137   0.136   0.163
 8109TIP3   OH224290   5.560   4.316   2.817
 8109TIP3    H124291   5.648   4.283   2.799
 8109TIP3    H224292   5.503   4.240   2.804
 8110TIP3   OH224293   2.207   2.027   0.438
 8110TIP3    H124294   2.232   1.973   0.363
 8110TIP3    H224295   2.157   2.099   0.399
 8111TIP3   OH224296   5.313   1.871   3.079
 8111TIP3    H124297   5.299   1.896   2.987
 8111TIP3    H224298   5.368   1.941   3.115
 8112TIP3   OH224299   3.252   4.084   5.805
 8112TIP3    H124300   3.182   4.095   5.869
 8112TIP3    H224301   3.242   4.157   5.745
 8113TIP3   OH224302   2.254   6.129   1.985
 8113TIP3    H124303   2.163   6.151   1.967
 8113TIP3    H224304   2.304   6.178   1.919
 8114TIP3   OH224305   3.415   4.839   4.977
 8114TIP3    H124306   3.389   4.879   5.061
 8114TIP3    H224307   3.430   4.747   4.998
 8115TIP3   OH224308   3.652   0.840   4.931
 8115TIP3    H124309   3.744   0.852   4.907
 8115TIP3    H224310   3.652   0.758   4.981
 8116TIP3   OH224311   5.530   3.856   4.911
 8116TIP3    H124312   5.605   3.828   4.858
 8116TIP3    H224313   5.515   3.947   4.885
 8117TIP3   OH224314   5.144   0.194   5.142
 8117TIP3    H124315   5.098   0.114   5.169
 8117TIP3    H224316   5.213   0.163   5.084
 8118TIP3   OH224317   4.204   3.634   2.702
 8118TIP3    H124318   4.116   3.616   2.737
 8118TIP3    H224319   4.242   3.548   2.688
 8119TIP3   OH224320   6.549   4.351   0.376
 8119TIP3    H124321   6.605   4.427   0.356
 8119TIP3    H224322   6.494   4.341   0.299
 8120TIP3   OH224323   6.926   0.726   4.193
 8120TIP3    H124324   6.985   0.798   4.170
 8120TIP3    H224325   6.857   0.729   4.127
 8121TIP3   OH224326   5.926   0.018   1.148
 8121TIP3    H124327   5.971  -0.038   1.085
 8121TIP3    H224328   5.855   0.059   1.098
 8122TIP3   OH224329   1.779   0.943   0.913
 8122TIP3    H124330   1.735   1.021   0.947
 8122TIP3    H224331   1.858   0.935   0.965
 8123TIP3   OH224332   5.598   6.540   4.755
 8123TIP3    H124333   5.571   6.627   4.727
 8123TIP3    H224334   5.579   6.538   4.849
 8124TIP3   OH224335   3.705   1.947   0.684
 8124TIP3    H124336   3.797   1.937   0.658
 8124TIP3    H224337   3.677   1.858   0.706
 8125TIP3   OH224338   4.149   3.371   5.287
 8125TIP3    H124339   4.176   3.322   5.209
 8125TIP3    H224340   4.060   3.341   5.304
 8126TIP3   OH224341   1.246   4.738   4.247
 8126TIP3    H124342   1.164   4.766   4.288
 8126TIP3    H224343   1.220   4.684   4.173
 8127TIP3   OH224344   6.747   4.647   5.263
 8127TIP3    H124345   6.771   4.739   5.273
 8127TIP3    H224346   6.682   4.631   5.331
 8128TIP3   OH224347   2.212   3.372   3.209
 8128TIP3    H124348   2.184   3.415   3.290
 8128TIP3    H224349   2.216   3.443   3.144
 8129TIP3   OH224350   4.934   5.216   1.149
 8129TIP3    H124351   4.890   5.301   1.137
 8129TIP3    H224352   4.872   5.152   1.114
 8130TIP3   OH224353   4.006   5.905   0.081
 8130TIP3    H124354   3.981   5.828   0.030
 8130TIP3    H224355   4.102   5.901   0.086
 8131TIP3   OH224356   1.291   0.107   2.826
 8131TIP3    H124357   1.338   0.189   2.812
 8131TIP3    H224358   1.359   0.046   2.855
 8132TIP3   OH224359   6.912   6.274   1.513
 8132TIP3    H124360   6.873   6.210   1.454
 8132TIP3    H224361   6.927   6.351   1.458
 8133TIP3   OH224362   2.469   3.138   1.857
 8133TIP3    H124363   2.463   3.225   1.896
 8133TIP3    H224364   2.551   3.140   1.808
 8134TIP3   OH224365   3.438   3.228   1.469
 8134TIP3    H124366   3.407   3.293   1.532
 8134TIP3    H224367   3.520   3.264   1.436
 8135TIP3   OH224368   4.197   6.654   1.943
 8135TIP3    H124369   4.224   6.594   1.873
 8135TIP3    H224370   4.109   6.681   1.920
 8136TIP3   OH224371   5.101   0.718   1.473
 8136TIP3    H124372   5.170   0.718   1.539
 8136TIP3    H224373   5.095   0.627   1.445
 8137TIP3   OH224374   2.967   5.656   2.623
 8137TIP3    H124375   2.917   5.614   2.692
 8137TIP3    H224376   2.907   5.658   2.548
 8138TIP3   OH224377   6.814   3.390   0.728
 8138TIP3    H124378   6.735   3.357   0.770
 8138TIP3    H224379   6.885   3.355   0.781
 8139TIP3   OH224380   3.767   4.914   1.931
 8139TIP3    H124381   3.750   4.824   1.904
 8139TIP3    H224382   3.756   4.913   2.026
 8140TIP3   OH224383   5.710   2.492   5.261
 8140TIP3    H124384   5.663   2.539   5.191
 8140TIP3    H224385   5.791   2.541   5.271
 8141TIP3   OH224386   1.390   2.225   3.670
 8141TIP3    H124387   1.468   2.198   3.719
 8141TIP3    H224388   1.421   2.235   3.580
 8142TIP3   OH224389   3.765   1.844   4.611
 8142TIP3    H124390   3.816   1.773   4.573
 8142TIP3    H224391   3.779   1.837   4.706
 8143TIP3   OH224392   5.566   3.230   2.548
 8143TIP3    H124393   5.508   3.241   2.624
 8143TIP3    H224394   5.554   3.139   2.521
 8144TIP3   OH224395   1.787   1.287   1.329
 8144TIP3    H124396   1.705   1.268   1.375
 8144TIP3    H224397   1.761   1.292   1.237
 8145TIP3   OH224398   0.524   0.953   3.940
 8145TIP3    H124399   0.486   0.942   3.852
 8145TIP3    H224400   0.518   1.047   3.957
 8146TIP3   OH224401   6.466   4.371   0.796
 8146TIP3    H124402   6.454   4.298   0.734
 8146TIP3    H224403   6.550   4.353   0.838
 8147TIP3   OH224404   5.165   6.224   2.017
 8147TIP3    H124405   5.090   6.217   1.957
 8147TIP3    H224406   5.141   6.169   2.092
 8148TIP3   OH224407   1.848   1.627   3.944
 8148TIP3    H124408   1.876   1.715   3.968
 8148TIP3    H224409   1.876   1.616   3.853
 8149TIP3   OH224410   3.919   4.735   2.261
 8149TIP3    H124411   3.854   4.665   2.256
 8149TIP3    H224412   3.869   4.815   2.245
 8150TIP3   OH224413   4.505   0.233   5.024
 8150TIP3    H124414   4.504   0.246   4.930
 8150TIP3    H224415   4.514   0.321   5.061
 8151TIP3   OH224416   0.100   0.844   5.267
 8151TIP3    H124417   0.131   0.921   5.314
 8151TIP3    H224418   0.042   0.799   5.329
 8152TIP3   OH224419   2.630   0.606   5.307
 8152TIP3    H124420   2.672   0.535   5.259
 8152TIP3    H224421   2.659   0.596   5.397
 8153TIP3   OH224422   1.284   4.833   5.575
 8153TIP3    H124423   1.362   4.807   5.623
 8153TIP3    H224424   1.317   4.881   5.499
 8154TIP3   OH224425   2.920   1.769   4.599
 8154TIP3    H124426   2.898   1.851   4.554
 8154TIP3    H224427   2.974   1.797   4.673
 8155TIP3   OH224428   4.881   5.093   2.934
 8155TIP3    H124429   4.798   5.052   2.959
 8155TIP3    H224430   4.860   5.185   2.922
 8156TIP3   OH224431   3.641   6.677   3.444
 8156TIP3    H124432   3.584   6.607   3.412
 8156TIP3    H224433   3.584   6.731   3.500
 8157TIP3   OH224434   1.581   5.284   3.182
 8157TIP3    H124435   1.634   5.240   3.116
 8157TIP3    H224436   1.594   5.233   3.262
 8158TIP3   OH224437   3.385   0.396   3.997
 8158TIP3    H124438   3.357   0.475   4.042
 8158TIP3    H224439   3.408   0.425   3.908
 8159TIP3   OH224440   5.084   3.791   2.222
 8159TIP3    H124441   5.172   3.800   2.257
 8159TIP3    H224442   5.027   3.811   2.296
 8160TIP3   OH224443   4.117   4.337   5.468
 8160TIP3    H124444   4.108   4.427   5.435
 8160TIP3    H224445   4.108   4.282   5.390
 8161TIP3   OH224446   5.246   5.035   0.793
 8161TIP3    H124447   5.294   4.991   0.863
 8161TIP3    H224448   5.259   4.980   0.716
 8162TIP3   OH224449   0.758   6.066   4.598
 8162TIP3    H124450   0.705   6.076   4.677
 8162TIP3    H224451   0.781   5.973   4.596
 8163TIP3   OH224452   6.416   3.657   5.733
 8163TIP3    H124453   6.399   3.740   5.688
 8163TIP3    H224454   6.332   3.610   5.728
 8164TIP3   OH224455   3.286   1.986   1.705
 8164TIP3    H124456   3.286   1.910   1.763
 8164TIP3    H224457   3.202   2.029   1.721
 8165TIP3   OH224458   0.713   1.135   1.701
 8165TIP3    H124459   0.709   1.093   1.614
 8165TIP3    H224460   0.629   1.115   1.741
 8166TIP3   OH224461   4.856   1.688   0.990
 8166TIP3    H124462   4.769   1.694   0.951
 8166TIP3    H224463   4.914   1.729   0.927
 8167TIP3   OH224464   1.522   3.946   0.260
 8167TIP3    H124465   1.493   3.994   0.182
 8167TIP3    H224466   1.617   3.946   0.254
 8168TIP3   OH224467   7.252   1.015   3.471
 8168TIP3    H124468   7.214   0.942   3.422
 8168TIP3    H224469   7.258   1.086   3.407
 8169TIP3   OH224470   2.911   0.589   1.970
 8169TIP3    H124471   2.908   0.683   1.954
 8169TIP3    H224472   3.004   0.566   1.965
 8170TIP3   OH224473   4.791   3.273   3.453
 8170TIP3    H124474   4.859   3.250   3.390
 8170TIP3    H224475   4.839   3.311   3.527
 8171TIP3   OH224476   3.874   2.778   2.227
 8171TIP3    H124477   3.916   2.863   2.211
 8171TIP3    H224478   3.839   2.785   2.316
 8172TIP3   OH224479   3.664   0.523   4.372
 8172TIP3    H124480   3.668   0.435   4.333
 8172TIP3    H224481   3.728   0.574   4.323
 8173TIP3   OH224482   1.843   4.220   2.254
 8173TIP3    H124483   1.937   4.204   2.258
 8173TIP3    H224484   1.819   4.248   2.342
 8174TIP3   OH224485   1.743   2.577   0.366
 8174TIP3    H124486   1.669   2.576   0.427
 8174TIP3    H224487   1.765   2.484   0.355
 8175TIP3   OH224488   5.659   4.027   5.458
 8175TIP3    H124489   5.669   3.932   5.453
 8175TIP3    H224490   5.579   4.045   5.409
 8176TIP3   OH224491   4.012   3.529   2.084
 8176TIP3    H124492   4.000   3.511   2.178
 8176TIP3    H224493   3.924   3.526   2.048
 8177TIP3   OH224494   0.423   5.775   4.690
 8177TIP3    H124495   0.328   5.766   4.681
 8177TIP3    H224496   0.458   5.736   4.610
 8178TIP3   OH224497   0.899   5.790   3.463
 8178TIP3    H124498   0.958   5.839   3.406
 8178TIP3    H224499   0.813   5.830   3.448
 8179TIP3   OH224500   0.317   1.598   4.168
 8179TIP3    H124501   0.368   1.600   4.087
 8179TIP3    H224502   0.352   1.670   4.220
 8180TIP3   OH224503   6.723   1.905   4.372
 8180TIP3    H124504   6.672   1.961   4.313
 8180TIP3    H224505   6.713   1.944   4.458
 8181TIP3   OH224506   6.099   4.179   4.030
 8181TIP3    H124507   6.076   4.231   3.954
 8181TIP3    H224508   6.077   4.234   4.105
 8182TIP3   OH224509   5.557   4.872   5.287
 8182TIP3    H124510   5.513   4.909   5.364
 8182TIP3    H224511   5.487   4.862   5.222
 8183TIP3   OH224512   6.649   6.549   4.328
 8183TIP3    H124513   6.688   6.603   4.396
 8183TIP3    H224514   6.715   6.544   4.260
 8184TIP3   OH224515   2.336   0.612   3.272
 8184TIP3    H124516   2.335   0.707   3.259
 8184TIP3    H224517   2.365   0.602   3.363
 8185TIP3   OH224518   0.346   4.963   4.208
 8185TIP3    H124519   0.355   4.977   4.114
 8185TIP3    H224520   0.432   4.984   4.244
 8186TIP3   OH224521   5.764   3.155   1.378
 8186TIP3    H124522   5.712   3.207   1.440
 8186TIP3    H224523   5.701   3.097   1.336
 8187TIP3   OH224524   0.727   5.567   0.783
 8187TIP3    H124525   0.674   5.530   0.712
 8187TIP3    H224526   0.714   5.662   0.777
 8188TIP3   OH224527   0.901   1.695   1.621
 8188TIP3    H124528   0.895   1.788   1.644
 8188TIP3    H224529   0.959   1.694   1.545
 8189TIP3   OH224530   2.283   6.739   5.198
 8189TIP3    H124531   2.218   6.751   5.129
 8189TIP3    H224532   2.298   6.645   5.202
 8190TIP3   OH224533   5.847   2.709   2.256
 8190TIP3    H124534   5.940   2.687   2.247
 8190TIP3    H224535   5.802   2.632   2.222
 8191TIP3   OH224536   3.087   0.489   4.786
 8191TIP3    H124537   3.061   0.397   4.797
 8191TIP3    H224538   3.154   0.486   4.717
 8192TIP3   OH224539   3.588   5.852   4.136
 8192TIP3    H124540   3.605   5.800   4.214
 8192TIP3    H224541   3.535   5.926   4.166
 8193TIP3   OH224542   0.188   2.630   0.582
 8193TIP3    H124543   0.177   2.676   0.665
 8193TIP3    H224544   0.281   2.612   0.576
 8194TIP3   OH224545   5.268   3.199   0.910
 8194TIP3    H124546   5.328   3.134   0.947
 8194TIP3    H224547   5.206   3.147   0.859
 8195TIP3   OH224548   2.463   3.678   5.707
 8195TIP3    H124549   2.537   3.725   5.668
 8195TIP3    H224550   2.386   3.730   5.681
 8196TIP3   OH224551   3.781   5.613   2.056
 8196TIP3    H124552   3.828   5.538   2.020
 8196TIP3    H224553   3.734   5.579   2.132
 8197TIP3   OH224554   3.338   2.215   4.809
 8197TIP3    H124555   3.434   2.207   4.808
 8197TIP3    H224556   3.320   2.292   4.755
 8198TIP3   OH224557   1.530   1.583   4.693
 8198TIP3    H124558   1.492   1.497   4.714
 8198TIP3    H224559   1.455   1.637   4.669
 8199TIP3   OH224560   5.984   5.024   3.701
 8199TIP3    H124561   5.904   5.003   3.751
 8199TIP3    H224562   6.040   5.068   3.765
 8200TIP3   OH224563   6.879   0.601   3.857
 8200TIP3    H124564   6.803   0.635   3.902
 8200TIP3    H224565   6.845   0.529   3.802
 8201TIP3   OH224566   3.982   4.749   3.387
 8201TIP3    H124567   3.984   4.727   3.480
 8201TIP3    H224568   4.037   4.827   3.380
 8202TIP3   OH224569   2.061   3.865   0.593
 8202TIP3    H124570   2.035   3.956   0.603
 8202TIP3    H224571   2.001   3.817   0.651
 8203TIP3   OH224572   2.497   5.155   1.859
 8203TIP3    H124573   2.420   5.111   1.897
 8203TIP3    H224574   2.465   5.241   1.833
 8204TIP3   OH224575   5.672   5.155   1.813
 8204TIP3    H124576   5.610   5.125   1.745
 8204TIP3    H224577   5.687   5.077   1.867
 8205TIP3   OH224578   7.028   6.630   1.065
 8205TIP3    H124579   7.077   6.712   1.076
 8205TIP3    H224580   7.003   6.629   0.973
 8206TIP3   OH224581   2.056   1.220   4.007
 8206TIP3    H124582   1.978   1.260   3.968
 8206TIP3    H224583   2.039   1.222   4.101
 8207TIP3   OH224584   0.169   3.096   1.494
 8207TIP3    H124585   0.238   3.157   1.519
 8207TIP3    H224586   0.215   3.019   1.460
 8208TIP3   OH224587   2.992   2.347   0.445
 8208TIP3    H124588   3.056   2.417   0.459
 8208TIP3    H224589   2.907   2.388   0.461
 8209TIP3   OH224590   7.060   4.355   5.061
 8209TIP3    H124591   7.133   4.416   5.066
 8209TIP3    H224592   7.085   4.282   5.117
 8210TIP3   OH224593   2.855   5.391   4.925
 8210TIP3    H124594   2.943   5.427   4.931
 8210TIP3    H224595   2.814   5.415   5.008
 8211TIP3   OH224596   6.173   0.116   5.300
 8211TIP3    H124597   6.139   0.051   5.238
 8211TIP3    H224598   6.254   0.148   5.259
 8212TIP3   OH224599   3.972   5.570   1.545
 8212TIP3    H124600   4.033   5.509   1.503
 8212TIP3    H224601   3.898   5.576   1.484
 8213TIP3   OH224602   5.825   6.036   3.401
 8213TIP3    H124603   5.739   6.029   3.443
 8213TIP3    H224604   5.864   6.115   3.439
 8214TIP3   OH224605   1.686   0.008   5.821
 8214TIP3    H124606   1.672   0.070   5.892
 8214TIP3    H224607   1.776   0.023   5.792
 8215TIP3   OH224608   4.174   2.908   3.494
 8215TIP3    H124609   4.184   2.993   3.451
 8215TIP3    H224610   4.258   2.891   3.535
 8216TIP3   OH224611   3.633   5.630   3.128
 8216TIP3    H124612   3.584   5.712   3.135
 8216TIP3    H224613   3.704   5.650   3.067
 8217TIP3   OH224614   6.112   2.820   0.106
 8217TIP3    H124615   6.133   2.910   0.132
 8217TIP3    H224616   6.092   2.776   0.189
 8218TIP3   OH224617   2.078   6.768   5.015
 8218TIP3    H124618   2.056   6.861   5.018
 8218TIP3    H224619   2.062   6.743   4.924
 8219TIP3   OH224620   0.202   3.510   2.649
 8219TIP3    H124621   0.119   3.465   2.634
 8219TIP3    H224622   0.267   3.459   2.600
 8220TIP3   OH224623   3.596   1.119   4.657
 8220TIP3    H124624   3.566   1.171   4.583
 8220TIP3    H224625   3.664   1.173   4.698
 8221TIP3   OH224626   4.824   2.857   0.071
 8221TIP3    H124627   4.909   2.902   0.070
 8221TIP3    H224628   4.775   2.900   0.141
 8222TIP3   OH224629   7.105   2.248   1.421
 8222TIP3    H124630   7.151   2.329   1.443
 8222TIP3    H224631   7.034   2.242   1.484
 8223TIP3   OH224632   1.186   6.645   3.180
 8223TIP3    H124633   1.244   6.693   3.121
 8223TIP3    H224634   1.145   6.714   3.233
 8224TIP3   OH224635   4.101   6.244   3.003
 8224TIP3    H124636   4.124   6.235   3.096
 8224TIP3    H224637   4.045   6.168   2.985
 8225TIP3   OH224638   1.294   2.095   5.772
 8225TIP3    H124639   1.223   2.124   5.829
 8225TIP3    H224640   1.321   2.010   5.808
 8226TIP3   OH224641   4.139   5.693   4.178
 8226TIP3    H124642   4.056   5.687   4.129
 8226TIP3    H224643   4.199   5.636   4.130
 8227TIP3   OH224644   2.913   6.558   3.265
 8227TIP3    H124645   3.003   6.566   3.297
 8227TIP3    H224646   2.890   6.647   3.238
 8228TIP3   OH224647   4.509   3.347   4.000
 8228TIP3    H124648   4.455   3.282   4.044
 8228TIP3    H224649   4.599   3.321   4.019
 8229TIP3   OH224650   3.579   0.605   0.910
 8229TIP3    H124651   3.531   0.545   0.854
 8229TIP3    H224652   3.630   0.549   0.968
 8230TIP3   OH224653   0.589   4.289   1.528
 8230TIP3    H124654   0.508   4.238   1.535
 8230TIP3    H224655   0.587   4.348   1.604
 8231TIP3   OH224656   2.454   1.930   3.758
 8231TIP3    H124657   2.491   1.950   3.672
 8231TIP3    H224658   2.530   1.916   3.814
 8232TIP3   OH224659   1.311   6.535   4.804
 8232TIP3    H124660   1.294   6.462   4.745
 8232TIP3    H224661   1.232   6.541   4.858
 8233TIP3   OH224662   3.859   5.163   2.988
 8233TIP3    H124663   3.830   5.226   3.054
 8233TIP3    H224664   3.913   5.100   3.037
 8234TIP3   OH224665   5.842   2.760   1.261
 8234TIP3    H124666   5.853   2.807   1.344
 8234TIP3    H224667   5.752   2.727   1.265
 8235TIP3   OH224668   6.072   1.509   4.106
 8235TIP3    H124669   5.995   1.484   4.157
 8235TIP3    H224670   6.039   1.571   4.041
 8236TIP3   OH224671   3.071   2.147   4.757
 8236TIP3    H124672   3.010   2.195   4.813
 8236TIP3    H224673   3.157   2.169   4.792
 8237TIP3   OH224674   4.868   2.977   4.440
 8237TIP3    H124675   4.789   3.017   4.403
 8237TIP3    H224676   4.845   2.885   4.452
 8238TIP3   OH224677   0.591   5.241   5.689
 8238TIP3    H124678   0.513   5.208   5.735
 8238TIP3    H224679   0.661   5.183   5.717
 8239TIP3   OH224680   5.290   0.487   3.194
 8239TIP3    H124681   5.373   0.441   3.181
 8239TIP3    H224682   5.299   0.529   3.279
 8240TIP3   OH224683   2.434   6.388   4.715
 8240TIP3    H124684   2.526   6.385   4.691
 8240TIP3    H224685   2.414   6.481   4.724
 8241TIP3   OH224686   4.294   5.611   2.344
 8241TIP3    H124687   4.242   5.539   2.379
 8241TIP3    H224688   4.304   5.590   2.251
 8242TIP3   OH224689   0.988   6.063   1.271
 8242TIP3    H124690   0.911   6.083   1.218
 8242TIP3    H224691   1.059   6.112   1.231
 8243TIP3   OH224692   1.833   5.679   2.853
 8243TIP3    H124693   1.742   5.707   2.863
 8243TIP3    H224694   1.879   5.756   2.819
 8244TIP3   OH224695   5.249   0.411   5.714
 8244TIP3    H124696   5.187   0.366   5.772
 8244TIP3    H224697   5.195   0.451   5.646
 8245TIP3   OH224698   5.274   0.743   0.868
 8245TIP3    H124699   5.317   0.827   0.855
 8245TIP3    H224700   5.341   0.688   0.908
 8246TIP3   OH224701   0.294   4.265   5.617
 8246TIP3    H124702   0.378   4.273   5.663
 8246TIP3    H224703   0.310   4.200   5.549
 8247TIP3   OH224704   1.183   4.022   5.519
 8247TIP3    H124705   1.109   4.020   5.579
 8247TIP3    H224706   1.257   4.051   5.572
 8248TIP3   OH224707   2.174   5.459   2.503
 8248TIP3    H124708   2.093   5.499   2.533
 8248TIP3    H224709   2.148   5.373   2.472
 8249TIP3   OH224710   0.683   1.088   4.594
 8249TIP3    H124711   0.702   1.181   4.582
 8249TIP3    H224712   0.634   1.063   4.516
 8250TIP3   OH224713   3.851   4.567   3.221
 8250TIP3    H124714   3.775   4.533   3.269
 8250TIP3    H224715   3.897   4.621   3.285
 8251TIP3   OH224716   0.091   0.028   2.565
 8251TIP3    H124717   0.077   0.033   2.659
 8251TIP3    H224718   0.003   0.029   2.527
 8252TIP3   OH224719   0.222   5.401   0.794
 8252TIP3    H124720   0.296   5.403   0.855
 8252TIP3    H224721   0.218   5.310   0.764
 8253TIP3   OH224722   0.853   6.759   5.354
 8253TIP3    H124723   0.769   6.772   5.310
 8253TIP3    H224724   0.841   6.678   5.404
 8254TIP3   OH224725   3.471   1.899   2.271
 8254TIP3    H124726   3.555   1.936   2.298
 8254TIP3    H224727   3.441   1.850   2.347
 8255TIP3   OH224728   2.869   1.657   1.426
 8255TIP3    H124729   2.828   1.733   1.385
 8255TIP3    H224730   2.804   1.588   1.418
 8256TIP3   OH224731   0.097   2.683   2.793
 8256TIP3    H124732   0.091   2.705   2.700
 8256TIP3    H224733   0.049   2.601   2.802
 8257TIP3   OH224734   3.519   1.310   4.187
 8257TIP3    H124735   3.567   1.393   4.184
 8257TIP3    H224736   3.534   1.277   4.275
 8258TIP3   OH224737   6.980   0.990   3.977
 8258TIP3    H124738   6.954   1.079   4.001
 8258TIP3    H224739   7.004   0.997   3.884
 8259TIP3   OH224740   7.220   5.245   3.070
 8259TIP3    H124741   7.216   5.340   3.081
 8259TIP3    H224742   7.174   5.210   3.146
 8260TIP3   OH224743   1.797   1.290   0.757
 8260TIP3    H124744   1.891   1.276   0.771
 8260TIP3    H224745   1.755   1.237   0.825
 8261TIP3   OH224746   2.266   3.779   5.533
 8261TIP3    H124747   2.198   3.754   5.471
 8261TIP3    H224748   2.287   3.869   5.510
 8262TIP3   OH224749   1.500   5.826   4.181
 8262TIP3    H124750   1.533   5.907   4.143
 8262TIP3    H224751   1.440   5.854   4.250
 8263TIP3   OH224752   3.820   1.157   3.527
 8263TIP3    H124753   3.798   1.064   3.520
 8263TIP3    H224754   3.911   1.163   3.498
 8264TIP3   OH224755   2.643   4.143   1.090
 8264TIP3    H124756   2.729   4.147   1.133
 8264TIP3    H224757   2.608   4.231   1.097
 8265TIP3   OH224758   4.408   1.162   3.230
 8265TIP3    H124759   4.361   1.215   3.166
 8265TIP3    H224760   4.446   1.226   3.290
 8266TIP3   OH224761   4.453   3.483   1.109
 8266TIP3    H124762   4.481   3.550   1.047
 8266TIP3    H224763   4.437   3.531   1.191
 8267TIP3   OH224764   4.934   3.593   5.780
 8267TIP3    H124765   5.029   3.584   5.788
 8267TIP3    H224766   4.910   3.536   5.706
 8268TIP3   OH224767   3.816   2.140   3.869
 8268TIP3    H124768   3.911   2.142   3.851
 8268TIP3    H224769   3.791   2.048   3.858
 8269TIP3   OH224770  -0.008   6.554   2.756
 8269TIP3    H124771  -0.009   6.491   2.829
 8269TIP3    H224772   0.021   6.636   2.796
 8270TIP3   OH224773   3.885   6.465   0.524
 8270TIP3    H124774   3.848   6.470   0.613
 8270TIP3    H224775   3.901   6.556   0.500
 8271TIP3   OH224776   1.881   3.758   2.299
 8271TIP3    H124777   1.845   3.672   2.277
 8271TIP3    H224778   1.832   3.819   2.244
 8272TIP3   OH224779   1.473   1.230   2.043
 8272TIP3    H124780   1.402   1.268   1.991
 8272TIP3    H224781   1.450   1.137   2.050
 8273TIP3   OH224782   1.661   6.733   5.050
 8273TIP3    H124783   1.749   6.745   5.084
 8273TIP3    H224784   1.644   6.639   5.059
 8274TIP3   OH224785   6.279   2.724   0.811
 8274TIP3    H124786   6.354   2.672   0.838
 8274TIP3    H224787   6.203   2.669   0.832
 8275TIP3   OH224788   6.528   5.380   1.373
 8275TIP3    H124789   6.540   5.409   1.283
 8275TIP3    H224790   6.543   5.459   1.426
 8276TIP3   OH224791   0.665   5.562   3.559
 8276TIP3    H124792   0.593   5.506   3.534
 8276TIP3    H224793   0.674   5.625   3.487
 8277TIP3   OH224794   3.659   4.084   5.884
 8277TIP3    H124795   3.750   4.074   5.857
 8277TIP3    H224796   3.659   4.058   5.976
 8278TIP3   OH224797   5.888   3.885   2.517
 8278TIP3    H124798   5.852   3.937   2.446
 8278TIP3    H224799   5.855   3.797   2.502
 8279TIP3   OH224800   5.153   6.613   4.195
 8279TIP3    H124801   5.088   6.622   4.265
 8279TIP3    H224802   5.126   6.676   4.129
 8280TIP3   OH224803   5.338   3.123  -0.024
 8280TIP3    H124804   5.405   3.110  -0.092
 8280TIP3    H224805   5.347   3.047   0.033
 8281TIP3   OH224806   2.085   3.995   0.117
 8281TIP3    H124807   2.140   3.939   0.062
 8281TIP3    H224808   2.104   3.967   0.207
 8282TIP3   OH224809   5.979   4.023   2.999
 8282TIP3    H124810   6.024   4.046   2.918
 8282TIP3    H224811   5.910   4.089   3.008
 8283TIP3   OH224812   1.661   5.410   2.578
 8283TIP3    H124813   1.699   5.428   2.492
 8283TIP3    H224814   1.718   5.344   2.616
 8284TIP3   OH224815   4.153   6.100   5.755
 8284TIP3    H124816   4.136   6.179   5.807
 8284TIP3    H224817   4.087   6.102   5.686
 8285TIP3   OH224818   4.202   4.634   5.593
 8285TIP3    H124819   4.186   4.552   5.639
 8285TIP3    H224820   4.125   4.688   5.613
 8286TIP3   OH224821   5.039   0.678   0.757
 8286TIP3    H124822   5.115   0.706   0.808
 8286TIP3    H224823   5.059   0.588   0.732
 8287TIP3   OH224824   2.944   6.016   1.775
 8287TIP3    H124825   2.886   6.015   1.851
 8287TIP3    H224826   3.032   6.020   1.812
 8288TIP3   OH224827   6.004   3.145   0.263
 8288TIP3    H124828   5.998   3.138   0.167
 8288TIP3    H224829   5.979   3.235   0.282
 8289TIP3   OH224830   3.025   6.654   1.586
 8289TIP3    H124831   2.934   6.681   1.599
 8289TIP3    H224832   3.050   6.691   1.502
 8290TIP3   OH224833   1.590   5.556   0.593
 8290TIP3    H124834   1.565   5.643   0.622
 8290TIP3    H224835   1.684   5.550   0.613
 8291TIP3   OH224836   1.303   5.402   5.783
 8291TIP3    H124837   1.344   5.362   5.706
 8291TIP3    H224838   1.318   5.338   5.853
 8292TIP3   OH224839   1.760   0.662   2.293
 8292TIP3    H124840   1.758   0.748   2.336
 8292TIP3    H224841   1.690   0.667   2.227
 8293TIP3   OH224842   1.735   4.274   2.545
 8293TIP3    H124843   1.732   4.187   2.585
 8293TIP3    H224844   1.816   4.312   2.578
 8294TIP3   OH224845   4.784   4.466   3.454
 8294TIP3    H124846   4.872   4.462   3.417
 8294TIP3    H224847   4.751   4.552   3.430
 8295TIP3   OH224848   5.677   1.916   4.834
 8295TIP3    H124849   5.719   1.996   4.866
 8295TIP3    H224850   5.732   1.845   4.866
 8296TIP3   OH224851   7.088   3.129   5.571
 8296TIP3    H124852   7.081   3.044   5.614
 8296TIP3    H224853   7.075   3.110   5.478
 8297TIP3   OH224854   3.385   4.314   2.786
 8297TIP3    H124855   3.341   4.398   2.775
 8297TIP3    H224856   3.432   4.321   2.869
 8298TIP3   OH224857   2.280   1.304   1.573
 8298TIP3    H124858   2.207   1.277   1.629
 8298TIP3    H224859   2.320   1.222   1.545
 8299TIP3   OH224860   5.413   4.460   0.708
 8299TIP3    H124861   5.462   4.540   0.731
 8299TIP3    H224862   5.400   4.467   0.614
 8300TIP3   OH224863   5.033   1.568   1.601
 8300TIP3    H124864   5.103   1.633   1.608
 8300TIP3    H224865   5.018   1.560   1.507
 8301TIP3   OH224866   2.561   6.441   2.721
 8301TIP3    H124867   2.604   6.458   2.638
 8301TIP3    H224868   2.608   6.367   2.759
 8302TIP3   OH224869   1.051   1.925   1.689
 8302TIP3    H124870   1.075   1.911   1.781
 8302TIP3    H224871   1.134   1.925   1.642
 8303TIP3   OH224872   4.055   2.603   3.335
 8303TIP3    H124873   4.035   2.686   3.291
 8303TIP3    H224874   3.969   2.566   3.355
 8304TIP3   OH224875   5.109   0.621   2.767
 8304TIP3    H124876   5.089   0.715   2.767
 8304TIP3    H224877   5.078   0.590   2.852
 8305TIP3   OH224878   1.858   1.346   2.439
 8305TIP3    H124879   1.953   1.349   2.424
 8305TIP3    H224880   1.825   1.427   2.402
 8306TIP3   OH224881   5.235   2.375   2.211
 8306TIP3    H124882   5.278   2.318   2.148
 8306TIP3    H224883   5.301   2.440   2.234
 8307TIP3   OH224884   1.541   2.616   0.090
 8307TIP3    H124885   1.541   2.534   0.040
 8307TIP3    H224886   1.608   2.602   0.158
 8308TIP3   OH224887   0.921   2.087   0.697
 8308TIP3    H124888   0.967   2.166   0.670
 8308TIP3    H224889   0.832   2.097   0.661
 8309TIP3   OH224890   1.773   6.574   1.094
 8309TIP3    H124891   1.805   6.613   1.175
 8309TIP3    H224892   1.825   6.616   1.025
 8310TIP3   OH224893   4.067   3.692   5.489
 8310TIP3    H124894   4.075   3.743   5.569
 8310TIP3    H224895   4.043   3.604   5.518
 8311TIP3   OH224896   5.327   4.064   5.189
 8311TIP3    H124897   5.282   4.042   5.270
 8311TIP3    H224898   5.284   4.011   5.122
 8312TIP3   OH224899   2.656   4.172   3.743
 8312TIP3    H124900   2.702   4.101   3.698
 8312TIP3    H224901   2.681   4.251   3.695
 8313TIP3   OH224902   4.095   0.330   0.600
 8313TIP3    H124903   4.016   0.277   0.606
 8313TIP3    H224904   4.147   0.304   0.676
 8314TIP3   OH224905   1.388   3.785   2.094
 8314TIP3    H124906   1.427   3.870   2.075
 8314TIP3    H224907   1.428   3.758   2.177
 8315TIP3   OH224908   2.589   4.457   4.880
 8315TIP3    H124909   2.637   4.410   4.948
 8315TIP3    H224910   2.648   4.527   4.852
 8316TIP3   OH224911   5.927   0.296   0.450
 8316TIP3    H124912   5.857   0.241   0.414
 8316TIP3    H224913   5.886   0.341   0.524
 8317TIP3   OH224914   0.253   4.569   0.943
 8317TIP3    H124915   0.338   4.565   0.986
 8317TIP3    H224916   0.191   4.588   1.014
 8318TIP3   OH224917   6.734   0.817   0.349
 8318TIP3    H124918   6.696   0.869   0.420
 8318TIP3    H224919   6.744   0.730   0.385
 8319TIP3   OH224920   5.109   5.059   4.686
 8319TIP3    H124921   5.036   5.102   4.731
 8319TIP3    H224922   5.140   5.125   4.623
 8320TIP3   OH224923   1.291   0.977   1.592
 8320TIP3    H124924   1.207   1.018   1.570
 8320TIP3    H224925   1.306   0.914   1.521
 8321TIP3   OH224926   6.283   4.974   4.109
 8321TIP3    H124927   6.295   5.059   4.152
 8321TIP3    H224928   6.370   4.934   4.110
 8322TIP3   OH224929   6.444   5.471   5.841
 8322TIP3    H124930   6.526   5.421   5.847
 8322TIP3    H224931   6.420   5.466   5.748
 8323TIP3   OH224932   5.320   4.852   2.239
 8323TIP3    H124933   5.349   4.886   2.154
 8323TIP3    H224934   5.357   4.913   2.303
 8324TIP3   OH224935   0.492   1.542   3.213
 8324TIP3    H124936   0.541   1.524   3.132
 8324TIP3    H224937   0.559   1.544   3.281
 8325TIP3   OH224938   6.015   0.346   5.425
 8325TIP3    H124939   6.078   0.302   5.482
 8325TIP3    H224940   5.991   0.426   5.472
 8326TIP3   OH224941   2.591   2.689   4.265
 8326TIP3    H124942   2.670   2.637   4.283
 8326TIP3    H224943   2.523   2.645   4.317
 8327TIP3   OH224944   2.661   6.693   2.103
 8327TIP3    H124945   2.654   6.717   2.195
 8327TIP3    H224946   2.746   6.649   2.096
 8328TIP3   OH224947   6.736   5.526   5.453
 8328TIP3    H124948   6.795   5.601   5.449
 8328TIP3    H224949   6.651   5.561   5.424
 8329TIP3   OH224950   1.470   5.969   2.042
 8329TIP3    H124951   1.400   5.929   2.093
 8329TIP3    H224952   1.433   5.978   1.954
 8330TIP3   OH224953   2.171   3.352   1.600
 8330TIP3    H124954   2.116   3.353   1.678
 8330TIP3    H224955   2.255   3.386   1.629
 8331TIP3   OH224956   0.875   0.542   3.544
 8331TIP3    H124957   0.951   0.498   3.584
 8331TIP3    H224958   0.804   0.478   3.551
 8332TIP3   OH224959   4.396   2.583   0.463
 8332TIP3    H124960   4.399   2.637   0.542
 8332TIP3    H224961   4.419   2.495   0.493
 8333TIP3   OH224962   5.961   3.171   2.217
 8333TIP3    H124963   5.883   3.196   2.267
 8333TIP3    H224964   5.927   3.149   2.130
 8334TIP3   OH224965   1.447   2.624   2.404
 8334TIP3    H124966   1.525   2.584   2.443
 8334TIP3    H224967   1.382   2.554   2.404
 8335TIP3   OH224968   5.257   3.489   5.852
 8335TIP3    H124969   5.247   3.400   5.885
 8335TIP3    H224970   5.310   3.533   5.918
 8336TIP3   OH224971   5.489   0.125   3.664
 8336TIP3    H124972   5.496   0.031   3.679
 8336TIP3    H224973   5.395   0.142   3.658
 8337TIP3   OH224974   2.172   6.604   1.141
 8337TIP3    H124975   2.169   6.599   1.046
 8337TIP3    H224976   2.201   6.693   1.160
 8338TIP3   OH224977   4.965   1.456   1.844
 8338TIP3    H124978   5.004   1.510   1.776
 8338TIP3    H224979   4.871   1.472   1.836
 8339TIP3   OH224980   3.868   2.774   1.176
 8339TIP3    H124981   3.931   2.712   1.213
 8339TIP3    H224982   3.817   2.722   1.114
 8340TIP3   OH224983   0.877   3.265   4.074
 8340TIP3    H124984   0.835   3.344   4.038
 8340TIP3    H224985   0.970   3.287   4.077
 8341TIP3   OH224986   2.661   2.567   1.899
 8341TIP3    H124987   2.621   2.590   1.815
 8341TIP3    H224988   2.745   2.528   1.875
 8342TIP3   OH224989   5.503   5.148   4.879
 8342TIP3    H124990   5.459   5.078   4.831
 8342TIP3    H224991   5.589   5.111   4.902
 8343TIP3   OH224992   5.759   6.541   0.748
 8343TIP3    H124993   5.843   6.510   0.781
 8343TIP3    H224994   5.765   6.636   0.755
 8344TIP3   OH224995   0.353   3.743   5.368
 8344TIP3    H124996   0.323   3.782   5.286
 8344TIP3    H224997   0.273   3.715   5.412
 8345TIP3   OH224998   1.278   1.714   1.096
 8345TIP3    H124999   1.371   1.730   1.077
 8345TIP3    H225000   1.279   1.656   1.171
 8346TIP3   OH225001   2.318   4.112   3.710
 8346TIP3    H125002   2.269   4.060   3.774
 8346TIP3    H225003   2.368   4.174   3.762
 8347TIP3   OH225004   6.378   5.914   2.820
 8347TIP3    H125005   6.416   5.877   2.899
 8347TIP3    H225006   6.327   5.989   2.850
 8348TIP3   OH225007   4.497   6.434   3.895
 8348TIP3    H125008   4.409   6.434   3.932
 8348TIP3    H225009   4.517   6.342   3.881
 8349TIP3   OH225010   0.308   4.872   4.703
 8349TIP3    H125011   0.299   4.850   4.610
 8349TIP3    H225012   0.309   4.788   4.747
 8350TIP3   OH225013   0.322   4.678   4.172
 8350TIP3    H125014   0.288   4.649   4.087
 8350TIP3    H225015   0.320   4.773   4.167
 8351TIP3   OH225016   6.137   0.947   1.199
 8351TIP3    H125017   6.220   0.969   1.242
 8351TIP3    H225018   6.130   0.852   1.207
 8352TIP3   OH225019  -0.026   6.769   3.711
 8352TIP3    H125020  -0.057   6.688   3.752
 8352TIP3    H225021   0.021   6.814   3.781
 8353TIP3   OH225022   5.978   0.936   4.349
 8353TIP3    H125023   5.960   1.022   4.312
 8353TIP3    H225024   6.070   0.940   4.377
 8354TIP3   OH225025   6.088   4.454   1.009
 8354TIP3    H125026   6.060   4.383   0.950
 8354TIP3    H225027   6.110   4.410   1.091
 8355TIP3   OH225028   5.480   2.673   2.406
 8355TIP3    H125029   5.445   2.584   2.399
 8355TIP3    H225030   5.553   2.666   2.467
 8356TIP3   OH225031   3.519   3.205   0.658
 8356TIP3    H125032   3.424   3.207   0.664
 8356TIP3    H225033   3.543   3.116   0.684
 8357TIP3   OH225034   4.636   4.464   1.791
 8357TIP3    H125035   4.618   4.371   1.776
 8357TIP3    H225036   4.550   4.505   1.793
 8358TIP3   OH225037   1.104   4.464   1.461
 8358TIP3    H125038   1.171   4.520   1.422
 8358TIP3    H225039   1.101   4.386   1.404
 8359TIP3   OH225040   5.936   2.117   4.176
 8359TIP3    H125041   5.961   2.177   4.107
 8359TIP3    H225042   5.880   2.053   4.133
 8360TIP3   OH225043   6.121   5.485   4.570
 8360TIP3    H125044   6.039   5.486   4.520
 8360TIP3    H225045   6.146   5.392   4.573
 8361TIP3   OH225046   1.787   3.042   5.220
 8361TIP3    H125047   1.866   3.090   5.194
 8361TIP3    H225048   1.769   3.072   5.309
 8362TIP3   OH225049   1.747   0.504   3.421
 8362TIP3    H125050   1.696   0.432   3.383
 8362TIP3    H225051   1.798   0.538   3.348
 8363TIP3   OH225052   5.644   5.242   1.326
 8363TIP3    H125053   5.661   5.148   1.330
 8363TIP3    H225054   5.645   5.262   1.233
 8364TIP3   OH225055   0.620   0.461   0.963
 8364TIP3    H125056   0.592   0.551   0.947
 8364TIP3    H225057   0.641   0.427   0.876
 8365TIP3   OH225058   6.300   0.860   0.758
 8365TIP3    H125059   6.236   0.894   0.695
 8365TIP3    H225060   6.293   0.765   0.749
 8366TIP3   OH225061   4.116   4.981   3.377
 8366TIP3    H125062   4.169   5.037   3.322
 8366TIP3    H225063   4.130   5.014   3.466
 8367TIP3   OH225064   3.519   3.885   4.538
 8367TIP3    H125065   3.609   3.880   4.572
 8367TIP3    H225066   3.522   3.956   4.474
 8368TIP3   OH225067   5.047   5.699   4.461
 8368TIP3    H125068   5.120   5.709   4.400
 8368TIP3    H225069   5.088   5.703   4.548
 8369TIP3   OH225070   3.104   5.492   5.016
 8369TIP3    H125071   3.184   5.542   4.998
 8369TIP3    H225072   3.074   5.525   5.101
 8370TIP3   OH225073   1.155   5.724   1.391
 8370TIP3    H125074   1.241   5.734   1.351
 8370TIP3    H225075   1.116   5.649   1.346
 8371TIP3   OH225076   3.935   4.044   3.096
 8371TIP3    H125077   3.856   4.088   3.128
 8371TIP3    H225078   3.934   4.059   3.002
 8372TIP3   OH225079   1.577   0.276   3.344
 8372TIP3    H125080   1.498   0.227   3.363
 8372TIP3    H225081   1.546   0.356   3.301
 8373TIP3   OH225082   6.762   3.554   1.683
 8373TIP3    H125083   6.754   3.622   1.750
 8373TIP3    H225084   6.802   3.480   1.729
 8374TIP3   OH225085   6.637   2.597   0.194
 8374TIP3    H125086   6.619   2.672   0.251
 8374TIP3    H225087   6.731   2.581   0.205
 8375TIP3   OH225088   5.818   2.145   4.999
 8375TIP3    H125089   5.770   2.188   5.071
 8375TIP3    H225090   5.904   2.127   5.036
 8376TIP3   OH225091   5.700   0.143   0.323
 8376TIP3    H125092   5.691   0.148   0.418
 8376TIP3    H225093   5.631   0.082   0.295
 8377TIP3   OH225094   1.233   5.913   1.579
 8377TIP3    H125095   1.163   5.978   1.584
 8377TIP3    H225096   1.207   5.853   1.510
 8378TIP3   OH225097   2.807   0.824   2.578
 8378TIP3    H125098   2.804   0.827   2.482
 8378TIP3    H225099   2.743   0.757   2.602
 8379TIP3   OH225100   1.974   2.445   1.336
 8379TIP3    H125101   1.944   2.534   1.356
 8379TIP3    H225102   2.022   2.454   1.254
 8380TIP3   OH225103   3.738   2.075   0.327
 8380TIP3    H125104   3.825   2.106   0.303
 8380TIP3    H225105   3.695   2.055   0.243
 8381TIP3   OH225106   2.827   4.942   3.188
 8381TIP3    H125107   2.811   5.035   3.203
 8381TIP3    H225108   2.772   4.920   3.113
 8382TIP3   OH225109   4.491   3.257   2.256
 8382TIP3    H125110   4.476   3.162   2.249
 8382TIP3    H225111   4.467   3.278   2.346
 8383TIP3   OH225112   3.963   4.386   3.563
 8383TIP3    H125113   4.023   4.355   3.496
 8383TIP3    H225114   3.887   4.328   3.555
 8384TIP3   OH225115   2.888   5.275   5.619
 8384TIP3    H125116   2.965   5.315   5.578
 8384TIP3    H225117   2.883   5.188   5.580
 8385TIP3   OH225118   2.116   4.433   3.648
 8385TIP3    H125119   2.152   4.517   3.618
 8385TIP3    H225120   2.149   4.369   3.585
 8386TIP3   OH225121   4.029   2.451   2.992
 8386TIP3    H125122   4.044   2.437   3.085
 8386TIP3    H225123   4.116   2.443   2.952
 8387TIP3   OH225124   4.021   4.814   1.467
 8387TIP3    H125125   4.079   4.739   1.473
 8387TIP3    H225126   3.948   4.785   1.413
 8388TIP3   OH225127   0.079   1.192   4.561
 8388TIP3    H125128   0.055   1.274   4.602
 8388TIP3    H225129   0.058   1.125   4.626
 8389TIP3   OH225130   1.397   5.337   0.660
 8389TIP3    H125131   1.344   5.328   0.581
 8389TIP3    H225132   1.466   5.399   0.636
 8390TIP3   OH225133   2.762   3.915   2.061
 8390TIP3    H125134   2.746   3.843   2.121
 8390TIP3    H225135   2.740   3.993   2.111
 8391TIP3   OH225136   3.931   2.730   0.064
 8391TIP3    H125137   3.892   2.812   0.034
 8391TIP3    H225138   4.013   2.756   0.106
 8392TIP3   OH225139   6.312   0.324   0.341
 8392TIP3    H125140   6.244   0.330   0.273
 8392TIP3    H225141   6.361   0.406   0.332
 8393TIP3   OH225142   4.528   0.180   2.898
 8393TIP3    H125143   4.483   0.157   2.817
 8393TIP3    H225144   4.495   0.268   2.920
 8394TIP3   OH225145   3.297   5.684   5.775
 8394TIP3    H125146   3.372   5.661   5.830
 8394TIP3    H225147   3.276   5.774   5.801
 8395TIP3   OH225148   4.770   5.507   2.792
 8395TIP3    H125149   4.753   5.413   2.792
 8395TIP3    H225150   4.683   5.548   2.791
 8396TIP3   OH225151   2.680   3.230   3.373
 8396TIP3    H125152   2.620   3.172   3.420
 8396TIP3    H225153   2.627   3.307   3.351
 8397TIP3   OH225154   1.499   2.526   1.756
 8397TIP3    H125155   1.451   2.595   1.710
 8397TIP3    H225156   1.478   2.539   1.849
 8398TIP3   OH225157   6.561   1.535   4.595
 8398TIP3    H125158   6.638   1.479   4.590
 8398TIP3    H225159   6.586   1.606   4.654
 8399TIP3   OH225160   2.121   3.694   5.289
 8399TIP3    H125161   2.124   3.613   5.239
 8399TIP3    H225162   2.028   3.712   5.300
 8400TIP3   OH225163   4.718   3.850   5.095
 8400TIP3    H125164   4.779   3.911   5.054
 8400TIP3    H225165   4.633   3.870   5.055
 8401TIP3   OH225166   4.508   6.532   5.283
 8401TIP3    H125167   4.543   6.476   5.214
 8401TIP3    H225168   4.448   6.591   5.237
 8402TIP3   OH225169   5.525   4.780   4.239
 8402TIP3    H125170   5.610   4.749   4.210
 8402TIP3    H225171   5.467   4.704   4.227
 8403TIP3   OH225172   3.140   5.865   2.711
 8403TIP3    H125173   3.176   5.921   2.642
 8403TIP3    H225174   3.079   5.807   2.667
 8404TIP3   OH225175   5.144   1.228   0.462
 8404TIP3    H125176   5.194   1.300   0.500
 8404TIP3    H225177   5.170   1.225   0.371
 8405TIP3   OH225178   1.494   1.040   2.750
 8405TIP3    H125179   1.453   1.037   2.663
 8405TIP3    H225180   1.422   1.053   2.811
 8406TIP3   OH225181   0.562   6.041   4.795
 8406TIP3    H125182   0.521   5.963   4.757
 8406TIP3    H225183   0.495   6.110   4.787
 8407TIP3   OH225184   5.132   2.597   3.829
 8407TIP3    H125185   5.220   2.608   3.865
 8407TIP3    H225186   5.120   2.673   3.773
 8408TIP3   OH225187   6.854   6.580   4.865
 8408TIP3    H125188   6.863   6.668   4.901
 8408TIP3    H225189   6.860   6.522   4.941
 8409TIP3   OH225190   3.253   1.587   3.039
 8409TIP3    H125191   3.231   1.594   3.132
 8409TIP3    H225192   3.283   1.675   3.015
 8410TIP3   OH225193   0.451   5.921   5.797
 8410TIP3    H125194   0.429   6.013   5.809
 8410TIP3    H225195   0.545   5.915   5.816
 8411TIP3   OH225196   0.291   1.087   3.500
 8411TIP3    H125197   0.274   1.008   3.449
 8411TIP3    H225198   0.215   1.143   3.483
 8412TIP3   OH225199   0.757   3.576   1.972
 8412TIP3    H125200   0.728   3.662   2.000
 8412TIP3    H225201   0.684   3.541   1.921
 8413TIP3   OH225202   2.865   3.381   0.309
 8413TIP3    H125203   2.877   3.343   0.396
 8413TIP3    H225204   2.824   3.312   0.257
 8414TIP3   OH225205   3.573   6.645   1.563
 8414TIP3    H125206   3.571   6.734   1.599
 8414TIP3    H225207   3.564   6.588   1.639
 8415TIP3   OH225208   5.783   4.328   4.393
 8415TIP3    H125209   5.829   4.268   4.453
 8415TIP3    H225210   5.713   4.275   4.356
 8416TIP3   OH225211   3.413   6.194   0.203
 8416TIP3    H125212   3.414   6.261   0.271
 8416TIP3    H225213   3.325   6.197   0.166
 8417TIP3   OH225214   3.852   2.194   5.770
 8417TIP3    H125215   3.789   2.259   5.801
 8417TIP3    H225216   3.928   2.205   5.828
 8418TIP3   OH225217   3.929   5.763   5.841
 8418TIP3    H125218   3.981   5.683   5.842
 8418TIP3    H225219   3.926   5.788   5.748
 8419TIP3   OH225220   4.842   4.490   0.208
 8419TIP3    H125221   4.834   4.475   0.302
 8419TIP3    H225222   4.935   4.506   0.194
 8420TIP3   OH225223   2.103   0.765   3.632
 8420TIP3    H125224   2.046   0.692   3.610
 8420TIP3    H225225   2.081   0.788   3.722
 8421TIP3   OH225226   4.179   3.769   0.281
 8421TIP3    H125227   4.112   3.828   0.316
 8421TIP3    H225228   4.235   3.748   0.357
 8422TIP3   OH225229   6.415   3.053   5.246
 8422TIP3    H125230   6.338   3.036   5.300
 8422TIP3    H225231   6.424   2.975   5.192
 8423TIP3   OH225232   3.023   5.056   4.573
 8423TIP3    H125233   3.020   4.960   4.571
 8423TIP3    H225234   2.947   5.081   4.625
 8424TIP3   OH225235   6.648   2.257   2.966
 8424TIP3    H125236   6.576   2.275   3.026
 8424TIP3    H225237   6.607   2.211   2.893
 8425TIP3   OH225238   6.209   2.078   2.036
 8425TIP3    H125239   6.294   2.122   2.033
 8425TIP3    H225240   6.219   2.011   2.104
 8426TIP3   OH225241   5.830   2.736   1.591
 8426TIP3    H125242   5.821   2.652   1.637
 8426TIP3    H225243   5.923   2.745   1.574
 8427TIP3   OH225244   1.777   5.690   4.704
 8427TIP3    H125245   1.800   5.722   4.791
 8427TIP3    H225246   1.742   5.767   4.659
 8428TIP3   OH225247   4.144   2.057   1.889
 8428TIP3    H125248   4.193   2.113   1.830
 8428TIP3    H225249   4.177   1.968   1.872
 8429TIP3   OH225250   0.369   1.144   0.716
 8429TIP3    H125251   0.294   1.155   0.658
 8429TIP3    H225252   0.364   1.218   0.776
 8430TIP3   OH225253   3.748   2.733   2.465
 8430TIP3    H125254   3.771   2.642   2.485
 8430TIP3    H225255   3.667   2.748   2.514
 8431TIP3   OH225256   5.072   2.805   5.610
 8431TIP3    H125257   5.120   2.789   5.529
 8431TIP3    H225258   5.010   2.731   5.616
 8432TIP3   OH225259   0.101   0.403   5.445
 8432TIP3    H125260   0.127   0.412   5.353
 8432TIP3    H225261   0.181   0.377   5.490
 8433TIP3   OH225262   4.469   6.556   2.297
 8433TIP3    H125263   4.478   6.506   2.216
 8433TIP3    H225264   4.416   6.500   2.354
 8434TIP3   OH225265   4.977   2.014   3.332
 8434TIP3    H125266   4.979   1.942   3.269
 8434TIP3    H225267   5.008   2.090   3.283
 8435TIP3   OH225268   5.784   1.845   1.993
 8435TIP3    H125269   5.791   1.766   2.047
 8435TIP3    H225270   5.860   1.839   1.935
 8436TIP3   OH225271   4.844   6.562   2.487
 8436TIP3    H125272   4.845   6.573   2.392
 8436TIP3    H225273   4.866   6.649   2.521
 8437TIP3   OH225274   3.875   4.376   1.916
 8437TIP3    H125275   3.940   4.307   1.904
 8437TIP3    H225276   3.872   4.422   1.832
 8438TIP3   OH225277   4.390   4.685   1.529
 8438TIP3    H125278   4.316   4.656   1.475
 8438TIP3    H225279   4.467   4.665   1.476
 8439TIP3   OH225280   5.344   4.142   3.063
 8439TIP3    H125281   5.377   4.197   3.134
 8439TIP3    H225282   5.258   4.113   3.094
 8440TIP3   OH225283   5.338   1.985   3.627
 8440TIP3    H125284   5.357   1.971   3.720
 8440TIP3    H225285   5.242   1.986   3.623
 8441TIP3   OH225286   5.905   5.149   0.760
 8441TIP3    H125287   5.884   5.057   0.776
 8441TIP3    H225288   5.991   5.161   0.800
 8442TIP3   OH225289   3.237   4.721   3.653
 8442TIP3    H125290   3.239   4.625   3.649
 8442TIP3    H225291   3.328   4.747   3.664
 8443TIP3   OH225292   3.740   2.740   0.808
 8443TIP3    H125293   3.749   2.702   0.895
 8443TIP3    H225294   3.755   2.666   0.748
 8444TIP3   OH225295   4.085   5.399   3.729
 8444TIP3    H125296   4.158   5.461   3.719
 8444TIP3    H225297   4.092   5.368   3.819
 8445TIP3   OH225298   6.802   6.549   5.127
 8445TIP3    H125299   6.718   6.511   5.154
 8445TIP3    H225300   6.832   6.597   5.204
 8446TIP3   OH225301  -0.012   6.711   5.712
 8446TIP3    H125302   0.035   6.657   5.776
 8446TIP3    H225303   0.004   6.667   5.628
 8447TIP3   OH225304   3.591   0.281   4.213
 8447TIP3    H125305   3.647   0.203   4.209
 8447TIP3    H225306   3.558   0.291   4.124
 8448TIP3   OH225307   3.552   2.727   2.758
 8448TIP3    H125308   3.485   2.790   2.730
 8448TIP3    H225309   3.509   2.642   2.754
 8449TIP3   OH225310   2.842   2.486   4.833
 8449TIP3    H125311   2.911   2.453   4.775
 8449TIP3    H225312   2.887   2.502   4.916
 8450TIP3   OH225313   0.053   3.700   4.447
 8450TIP3    H125314  -0.006   3.627   4.464
 8450TIP3    H225315   0.137   3.673   4.484
 8451TIP3   OH225316   4.527   1.168   1.377
 8451TIP3    H125317   4.622   1.179   1.375
 8451TIP3    H225318   4.496   1.240   1.432
 8452TIP3   OH225319   1.860   6.136   4.072
 8452TIP3    H125320   1.780   6.130   4.125
 8452TIP3    H225321   1.863   6.055   4.022
 8453TIP3   OH225322   1.517   3.953   0.554
 8453TIP3    H125323   1.422   3.966   0.560
 8453TIP3    H225324   1.533   3.941   0.461
 8454TIP3   OH225325   3.755   4.181   3.501
 8454TIP3    H125326   3.726   4.191   3.410
 8454TIP3    H225327   3.836   4.131   3.494
 8455TIP3   OH225328   5.217   5.238   1.241
 8455TIP3    H125329   5.262   5.154   1.244
 8455TIP3    H225330   5.128   5.217   1.216
 8456TIP3   OH225331   5.321   3.295   0.206
 8456TIP3    H125332   5.305   3.242   0.284
 8456TIP3    H225333   5.345   3.232   0.139
 8457TIP3   OH225334   5.482   3.626   5.632
 8457TIP3    H125335   5.565   3.599   5.594
 8457TIP3    H225336   5.467   3.564   5.704
 8458TIP3   OH225337   7.073   3.473   1.781
 8458TIP3    H125338   7.001   3.429   1.825
 8458TIP3    H225339   7.121   3.403   1.737
 8459TIP3   OH225340   4.924   4.538   1.256
 8459TIP3    H125341   4.945   4.487   1.335
 8459TIP3    H225342   5.001   4.594   1.243
 8460TIP3   OH225343   4.624   1.539   1.867
 8460TIP3    H125344   4.622   1.497   1.953
 8460TIP3    H225345   4.559   1.491   1.815
 8461TIP3   OH225346   2.168   0.000   5.618
 8461TIP3    H125347   2.241  -0.040   5.665
 8461TIP3    H225348   2.180   0.094   5.631
 8462TIP3   OH225349   0.891   3.230   1.653
 8462TIP3    H125350   0.927   3.315   1.677
 8462TIP3    H225351   0.957   3.191   1.595
 8463TIP3   OH225352   0.965   1.268   1.048
 8463TIP3    H125353   0.972   1.208   0.974
 8463TIP3    H225354   1.040   1.247   1.103
 8464TIP3   OH225355   6.707   5.559   0.896
 8464TIP3    H125356   6.785   5.504   0.888
 8464TIP3    H225357   6.690   5.589   0.806
 8465TIP3   OH225358   2.377   5.425   5.063
 8465TIP3    H125359   2.402   5.337   5.092
 8465TIP3    H225360   2.392   5.481   5.139
 8466TIP3   OH225361   3.014   5.565   3.580
 8466TIP3    H125362   3.007   5.522   3.665
 8466TIP3    H225363   2.967   5.647   3.591
 8467TIP3   OH225364   0.654   1.777   2.823
 8467TIP3    H125365   0.625   1.853   2.873
 8467TIP3    H225366   0.579   1.755   2.767
 8468TIP3   OH225367   2.676   1.711   0.187
 8468TIP3    H125368   2.665   1.762   0.106
 8468TIP3    H225369   2.724   1.769   0.246
 8469TIP3   OH225370   0.962   1.730   2.401
 8469TIP3    H125371   0.982   1.637   2.389
 8469TIP3    H225372   0.943   1.739   2.494
 8470TIP3   OH225373   0.851   3.300   2.410
 8470TIP3    H125374   0.916   3.369   2.406
 8470TIP3    H225375   0.799   3.320   2.488
 8471TIP3   OH225376   2.830   1.572   2.825
 8471TIP3    H125377   2.806   1.617   2.906
 8471TIP3    H225378   2.853   1.642   2.764
 8472TIP3   OH225379   4.145   6.292   1.977
 8472TIP3    H125380   4.069   6.311   1.923
 8472TIP3    H225381   4.199   6.371   1.971
 8473TIP3   OH225382   1.085   4.385   5.653
 8473TIP3    H125383   1.099   4.339   5.735
 8473TIP3    H225384   1.058   4.473   5.679
 8474TIP3   OH225385   5.766   2.965   0.275
 8474TIP3    H125386   5.830   2.984   0.344
 8474TIP3    H225387   5.803   3.003   0.196
 8475TIP3   OH225388   4.626   2.348   2.965
 8475TIP3    H125389   4.617   2.326   2.872
 8475TIP3    H225390   4.570   2.285   3.010
 8476TIP3   OH225391   2.818   6.377   5.104
 8476TIP3    H125392   2.904   6.407   5.135
 8476TIP3    H225393   2.755   6.434   5.148
 8477TIP3   OH225394   5.306   6.137   5.436
 8477TIP3    H125395   5.312   6.109   5.527
 8477TIP3    H225396   5.304   6.056   5.385
 8478TIP3   OH225397   2.697   0.571   2.314
 8478TIP3    H125398   2.651   0.520   2.381
 8478TIP3    H225399   2.734   0.505   2.255
 8479TIP3   OH225400   5.392   4.614   0.226
 8479TIP3    H125401   5.384   4.709   0.218
 8479TIP3    H225402   5.461   4.591   0.164
 8480TIP3   OH225403   2.366   6.453   4.351
 8480TIP3    H125404   2.428   6.390   4.390
 8480TIP3    H225405   2.311   6.400   4.294
 8481TIP3   OH225406   4.320   3.434   3.471
 8481TIP3    H125407   4.301   3.408   3.561
 8481TIP3    H225408   4.246   3.489   3.445
 8482TIP3   OH225409   6.378   0.416   2.653
 8482TIP3    H125410   6.436   0.370   2.592
 8482TIP3    H225411   6.303   0.357   2.663
 8483TIP3   OH225412   5.973   6.490   2.419
 8483TIP3    H125413   5.881   6.461   2.420
 8483TIP3    H225414   6.024   6.409   2.419
 8484TIP3   OH225415   1.723   6.136   1.848
 8484TIP3    H125416   1.700   6.051   1.811
 8484TIP3    H225417   1.671   6.143   1.928
 8485TIP3   OH225418   0.934   4.789   0.289
 8485TIP3    H125419   0.925   4.782   0.384
 8485TIP3    H225420   0.893   4.873   0.267
 8486TIP3   OH225421   0.030   4.561   1.500
 8486TIP3    H125422   0.115   4.601   1.519
 8486TIP3    H225423   0.048   4.498   1.431
 8487TIP3   OH225424   2.838   4.874   2.886
 8487TIP3    H125425   2.797   4.946   2.838
 8487TIP3    H225426   2.925   4.906   2.909
 8488TIP3   OH225427   3.083   5.608   0.756
 8488TIP3    H125428   3.102   5.637   0.667
 8488TIP3    H225429   3.166   5.572   0.788
 8489TIP3   OH225430   5.267   4.606   5.093
 8489TIP3    H125431   5.320   4.685   5.090
 8489TIP3    H225432   5.179   4.637   5.115
 8490TIP3   OH225433   5.654   6.133   4.057
 8490TIP3    H125434   5.566   6.169   4.063
 8490TIP3    H225435   5.681   6.123   4.149
 8491TIP3   OH225436   0.138   3.293   2.005
 8491TIP3    H125437   0.108   3.248   1.926
 8491TIP3    H225438   0.231   3.311   1.989
 8492TIP3   OH225439   6.426   0.972   4.354
 8492TIP3    H125440   6.521   0.961   4.351
 8492TIP3    H225441   6.409   1.011   4.440
 8493TIP3   OH225442   4.017   1.011   4.318
 8493TIP3    H125443   3.990   0.940   4.260
 8493TIP3    H225444   3.941   1.068   4.323
 8494TIP3   OH225445   6.437   2.386   1.747
 8494TIP3    H125446   6.402   2.385   1.836
 8494TIP3    H225447   6.419   2.298   1.713
 8495TIP3   OH225448   3.072   0.817   3.715
 8495TIP3    H125449   3.131   0.885   3.747
 8495TIP3    H225450   3.129   0.748   3.683
 8496TIP3   OH225451   2.976   4.261   4.475
 8496TIP3    H125452   2.984   4.188   4.536
 8496TIP3    H225453   3.022   4.232   4.396
 8497TIP3   OH225454   3.567   0.343   1.978
 8497TIP3    H125455   3.643   0.331   1.922
 8497TIP3    H225456   3.493   0.347   1.918
 8498TIP3   OH225457   5.173   5.271   2.463
 8498TIP3    H125458   5.260   5.242   2.491
 8498TIP3    H225459   5.162   5.232   2.376
 8499TIP3   OH225460   2.209   6.770   0.636
 8499TIP3    H125461   2.135   6.735   0.586
 8499TIP3    H225462   2.275   6.790   0.570
 8500TIP3   OH225463   4.714   4.228   2.952
 8500TIP3    H125464   4.780   4.208   3.019
 8500TIP3    H225465   4.659   4.149   2.948
 8501TIP3   OH225466   5.672   4.501   3.789
 8501TIP3    H125467   5.596   4.450   3.814
 8501TIP3    H225468   5.746   4.454   3.827
 8502TIP3   OH225469   3.945   2.059   0.981
 8502TIP3    H125470   3.968   2.093   0.895
 8502TIP3    H225471   4.013   2.094   1.039
 8503TIP3   OH225472   4.545   2.645   0.212
 8503TIP3    H125473   4.500   2.626   0.294
 8503TIP3    H225474   4.635   2.666   0.238
 8504TIP3   OH225475   3.528   1.982   4.563
 8504TIP3    H125476   3.457   1.953   4.620
 8504TIP3    H225477   3.591   1.910   4.565
 8505TIP3   OH225478   3.197   3.654   0.050
 8505TIP3    H125479   3.209   3.744   0.022
 8505TIP3    H225480   3.225   3.653   0.142
 8506TIP3   OH225481   3.436   1.813   3.644
 8506TIP3    H125482   3.486   1.817   3.726
 8506TIP3    H225483   3.416   1.904   3.623
 8507TIP3   OH225484   4.027   3.582   3.819
 8507TIP3    H125485   4.044   3.558   3.910
 8507TIP3    H225486   3.959   3.521   3.791
 8508TIP3   OH225487   1.052   1.486   0.656
 8508TIP3    H125488   0.971   1.509   0.610
 8508TIP3    H225489   1.113   1.463   0.586
 8509TIP3   OH225490   3.717   1.409   0.240
 8509TIP3    H125491   3.798   1.416   0.188
 8509TIP3    H225492   3.736   1.343   0.306
 8510TIP3   OH225493   4.828   0.297   1.810
 8510TIP3    H125494   4.859   0.226   1.866
 8510TIP3    H225495   4.874   0.375   1.843
 8511TIP3   OH225496   5.538   5.165   0.374
 8511TIP3    H125497   5.587   5.166   0.456
 8511TIP3    H225498   5.605   5.163   0.306
 8512TIP3   OH225499   0.091   1.957   3.823
 8512TIP3    H125500   0.168   1.955   3.766
 8512TIP3    H225501   0.127   1.955   3.912
 8513TIP3   OH225502   6.454   4.840   3.697
 8513TIP3    H125503   6.528   4.784   3.718
 8513TIP3    H225504   6.488   4.929   3.707
 8514TIP3   OH225505   0.036   2.512   1.416
 8514TIP3    H125506   0.080   2.495   1.332
 8514TIP3    H225507  -0.053   2.538   1.392
 8515TIP3   OH225508   0.249   1.043   1.899
 8515TIP3    H125509   0.261   1.109   1.968
 8515TIP3    H225510   0.214   0.967   1.945
 8516TIP3   OH225511   4.560   4.971   5.573
 8516TIP3    H125512   4.478   4.922   5.584
 8516TIP3    H225513   4.532   5.063   5.570
 8517TIP3   OH225514   0.092   0.042   5.860
 8517TIP3    H125515   0.090  -0.053   5.864
 8517TIP3    H225516   0.111   0.062   5.768
 8518TIP3   OH225517   0.338   2.234   1.296
 8518TIP3    H125518   0.333   2.265   1.206
 8518TIP3    H225519   0.257   2.185   1.309
 8519TIP3   OH225520   4.759   4.333   3.698
 8519TIP3    H125521   4.675   4.290   3.684
 8519TIP3    H225522   4.773   4.384   3.618
 8520TIP3   OH225523   1.498   4.797   5.744
 8520TIP3    H125524   1.498   4.891   5.760
 8520TIP3    H225525   1.585   4.768   5.771
 8521TIP3   OH225526   6.369   5.597   0.799
 8521TIP3    H125527   6.274   5.602   0.783
 8521TIP3    H225528   6.377   5.602   0.894
 8522TIP3   OH225529   2.890   2.620   3.618
 8522TIP3    H125530   2.825   2.600   3.551
 8522TIP3    H225531   2.973   2.588   3.581
 8523TIP3   OH225532   7.079   3.575   5.109
 8523TIP3    H125533   7.021   3.649   5.091
 8523TIP3    H225534   7.020   3.506   5.141
 8524TIP3   OH225535   6.727   6.657   1.033
 8524TIP3    H125536   6.772   6.661   1.118
 8524TIP3    H225537   6.793   6.622   0.973
 8525TIP3   OH225538   3.043   1.842   4.838
 8525TIP3    H125539   3.078   1.929   4.817
 8525TIP3    H225540   3.072   1.826   4.927
 8526TIP3   OH225541   6.904   1.600   3.898
 8526TIP3    H125542   6.818   1.568   3.869
 8526TIP3    H225543   6.915   1.684   3.852
 8527TIP3   OH225544   3.209   1.669   3.598
 8527TIP3    H125545   3.229   1.676   3.505
 8527TIP3    H225546   3.287   1.703   3.642
 8528TIP3   OH225547   0.097   6.544   5.500
 8528TIP3    H125548   0.171   6.484   5.510
 8528TIP3    H225549   0.022   6.488   5.480
 8529TIP3   OH225550   1.425   6.332   3.871
 8529TIP3    H125551   1.336   6.348   3.839
 8529TIP3    H225552   1.481   6.351   3.796
 8530TIP3   OH225553   3.284   6.466   1.132
 8530TIP3    H125554   3.321   6.387   1.093
 8530TIP3    H225555   3.359   6.514   1.166
 8531TIP3   OH225556   1.104   0.555   1.226
 8531TIP3    H125557   1.121   0.593   1.312
 8531TIP3    H225558   1.017   0.516   1.233
 8532TIP3   OH225559   1.331   2.213   2.185
 8532TIP3    H125560   1.307   2.185   2.097
 8532TIP3    H225561   1.253   2.197   2.238
 8533TIP3   OH225562   3.738   5.148   5.205
 8533TIP3    H125563   3.716   5.079   5.267
 8533TIP3    H225564   3.810   5.195   5.247
 8534TIP3   OH225565   1.200   3.580   0.521
 8534TIP3    H125566   1.295   3.591   0.529
 8534TIP3    H225567   1.176   3.524   0.595
 8535TIP3   OH225568   3.182   6.147   0.503
 8535TIP3    H125569   3.144   6.124   0.418
 8535TIP3    H225570   3.106   6.162   0.560
 8536TIP3   OH225571   0.879   2.177   0.984
 8536TIP3    H125572   0.903   2.199   1.074
 8536TIP3    H225573   0.785   2.195   0.980
 8537TIP3   OH225574   6.170   2.702   2.984
 8537TIP3    H125575   6.182   2.615   3.024
 8537TIP3    H225576   6.102   2.689   2.918
 8538TIP3   OH225577   4.672   1.211   0.308
 8538TIP3    H125578   4.597   1.225   0.366
 8538TIP3    H225579   4.714   1.131   0.340
 8539TIP3   OH225580   0.755   5.267   2.401
 8539TIP3    H125581   0.669   5.309   2.398
 8539TIP3    H225582   0.801   5.312   2.471
 8540TIP3   OH225583   0.680   2.266   5.322
 8540TIP3    H125584   0.614   2.208   5.358
 8540TIP3    H225585   0.741   2.281   5.394
 8541TIP3   OH225586   5.886   3.967   1.303
 8541TIP3    H125587   5.837   3.910   1.243
 8541TIP3    H225588   5.970   3.923   1.315
 8542TIP3   OH225589   2.091   5.667   1.310
 8542TIP3    H125590   2.108   5.573   1.324
 8542TIP3    H225591   2.013   5.685   1.363
 8543TIP3   OH225592   3.731   6.105   1.890
 8543TIP3    H125593   3.644   6.064   1.884
 8543TIP3    H225594   3.772   6.062   1.965
 8544TIP3   OH225595   6.303   0.439   4.899
 8544TIP3    H125596   6.264   0.369   4.848
 8544TIP3    H225597   6.236   0.464   4.962
 8545TIP3   OH225598   5.938   2.855   4.851
 8545TIP3    H125599   5.876   2.849   4.924
 8545TIP3    H225600   6.024   2.842   4.891
 8546TIP3   OH225601   1.058   3.952   4.770
 8546TIP3    H125602   1.008   3.908   4.702
 8546TIP3    H225603   1.122   3.887   4.800
 8547TIP3   OH225604   5.726   0.465   2.185
 8547TIP3    H125605   5.786   0.440   2.115
 8547TIP3    H225606   5.715   0.385   2.237
 8548TIP3   OH225607   7.071   5.337   5.511
 8548TIP3    H125608   7.104   5.254   5.547
 8548TIP3    H225609   7.007   5.310   5.445
 8549TIP3   OH225610   5.565   4.168   3.318
 8549TIP3    H125611   5.500   4.235   3.293
 8549TIP3    H225612   5.590   4.192   3.408
 8550TIP3   OH225613   4.889   3.006   5.657
 8550TIP3    H125614   4.880   3.037   5.567
 8550TIP3    H225615   4.977   2.969   5.661
 8551TIP3   OH225616   5.945   2.418   2.546
 8551TIP3    H125617   5.979   2.435   2.458
 8551TIP3    H225618   6.003   2.467   2.604
 8552TIP3   OH225619   1.293   5.380   1.725
 8552TIP3    H125620   1.318   5.424   1.644
 8552TIP3    H225621   1.212   5.423   1.752
 8553TIP3   OH225622   2.088   3.950   4.385
 8553TIP3    H125623   2.133   3.879   4.429
 8553TIP3    H225624   2.148   4.025   4.392
 8554TIP3   OH225625   6.382   1.487   1.734
 8554TIP3    H125626   6.421   1.486   1.647
 8554TIP3    H225627   6.385   1.579   1.760
 8555TIP3   OH225628   5.858   6.363   4.173
 8555TIP3    H125629   5.951   6.347   4.184
 8555TIP3    H225630   5.817   6.278   4.190
 8556TIP3   OH225631   2.312   3.431   4.032
 8556TIP3    H125632   2.278   3.447   4.120
 8556TIP3    H225633   2.402   3.463   4.035
 8557TIP3   OH225634   0.316   6.454   0.261
 8557TIP3    H125635   0.272   6.515   0.320
 8557TIP3    H225636   0.271   6.370   0.275
 8558TIP3   OH225637   4.392   6.533   0.094
 8558TIP3    H125638   4.416   6.557   0.005
 8558TIP3    H225639   4.297   6.521   0.091
 8559TIP3   OH225640   5.672   5.254   4.074
 8559TIP3    H125641   5.672   5.260   4.170
 8559TIP3    H225642   5.591   5.208   4.053
 8560TIP3   OH225643   5.033   3.764   5.513
 8560TIP3    H125644   5.028   3.859   5.527
 8560TIP3    H225645   5.056   3.754   5.421
 8561TIP3   OH225646   4.460   3.827   0.824
 8561TIP3    H125647   4.505   3.869   0.752
 8561TIP3    H225648   4.446   3.897   0.888
 8562TIP3   OH225649   0.886   4.284   0.687
 8562TIP3    H125650   0.853   4.292   0.597
 8562TIP3    H225651   0.865   4.194   0.712
 8563TIP3   OH225652   2.870   0.726   3.902
 8563TIP3    H125653   2.799   0.791   3.902
 8563TIP3    H225654   2.929   0.757   3.833
 8564TIP3   OH225655   2.197   3.954   2.723
 8564TIP3    H125656   2.190   4.049   2.729
 8564TIP3    H225657   2.115   3.927   2.680
 8565TIP3   OH225658   4.493   4.395   4.927
 8565TIP3    H125659   4.509   4.384   5.021
 8565TIP3    H225660   4.571   4.441   4.895
 8566TIP3   OH225661   3.505   3.444   1.670
 8566TIP3    H125662   3.489   3.481   1.757
 8566TIP3    H225663   3.587   3.396   1.678
 8567TIP3   OH225664   6.668   0.096   2.490
 8567TIP3    H125665   6.693   0.023   2.548
 8567TIP3    H225666   6.718   0.081   2.410
 8568TIP3   OH225667   3.233   6.759   5.675
 8568TIP3    H125668   3.138   6.763   5.665
 8568TIP3    H225669   3.256   6.836   5.726
 8569TIP3   OH225670   1.002   2.942   3.785
 8569TIP3    H125671   1.057   2.882   3.735
 8569TIP3    H225672   0.928   2.888   3.815
 8570TIP3   OH225673   3.055   4.992   1.696
 8570TIP3    H125674   3.027   4.997   1.605
 8570TIP3    H225675   3.105   4.911   1.702
 8571TIP3   OH225676   1.055   5.003   1.188
 8571TIP3    H125677   0.965   4.976   1.168
 8571TIP3    H225678   1.060   5.001   1.283
 8572TIP3   OH225679   4.445   1.652   3.721
 8572TIP3    H125680   4.492   1.568   3.727
 8572TIP3    H225681   4.501   1.714   3.768
 8573TIP3   OH225682   0.579   0.989   1.079
 8573TIP3    H125683   0.588   1.081   1.103
 8573TIP3    H225684   0.563   0.990   0.985
 8574TIP3   OH225685   3.374   5.578   1.327
 8574TIP3    H125686   3.292   5.603   1.370
 8574TIP3    H225687   3.430   5.655   1.334
 8575TIP3   OH225688   1.185   2.335   3.812
 8575TIP3    H125689   1.248   2.285   3.760
 8575TIP3    H225690   1.103   2.288   3.801
 8576TIP3   OH225691   1.056   2.790   4.651
 8576TIP3    H125692   1.055   2.881   4.622
 8576TIP3    H225693   1.084   2.740   4.574
 8577TIP3   OH225694   5.011   3.012   1.963
 8577TIP3    H125695   5.065   3.056   1.896
 8577TIP3    H225696   5.070   2.999   2.036
 8578TIP3   OH225697   7.020   5.727   3.174
 8578TIP3    H125698   6.936   5.685   3.191
 8578TIP3    H225699   6.998   5.810   3.131
 8579TIP3   OH225700   0.832   4.427   4.099
 8579TIP3    H125701   0.815   4.399   4.009
 8579TIP3    H225702   0.751   4.473   4.124
 8580TIP3   OH225703   3.457   2.096   3.186
 8580TIP3    H125704   3.386   2.044   3.223
 8580TIP3    H225705   3.436   2.103   3.093
 8581TIP3   OH225706   1.181   1.488   0.128
 8581TIP3    H125707   1.150   1.562   0.181
 8581TIP3    H225708   1.273   1.478   0.153
 8582TIP3   OH225709   0.439   6.357   3.731
 8582TIP3    H125710   0.408   6.426   3.673
 8582TIP3    H225711   0.534   6.356   3.719
 8583TIP3   OH225712   4.324   5.583   4.790
 8583TIP3    H125713   4.269   5.527   4.845
 8583TIP3    H225714   4.336   5.532   4.709
 8584TIP3   OH225715   0.213   4.621   3.097
 8584TIP3    H125716   0.281   4.631   3.164
 8584TIP3    H225717   0.143   4.680   3.125
 8585TIP3   OH225718   3.807   3.723   1.499
 8585TIP3    H125719   3.757   3.783   1.444
 8585TIP3    H225720   3.792   3.637   1.460
 8586TIP3   OH225721   1.234   1.430   5.833
 8586TIP3    H125722   1.283   1.406   5.912
 8586TIP3    H225723   1.203   1.346   5.798
 8587TIP3   OH225724   1.586   2.614   2.964
 8587TIP3    H125725   1.592   2.671   3.040
 8587TIP3    H225726   1.492   2.606   2.948
 8588TIP3   OH225727   1.812   2.824   2.234
 8588TIP3    H125728   1.746   2.858   2.294
 8588TIP3    H225729   1.789   2.861   2.149
 8589TIP3   OH225730   3.457   0.649   4.664
 8589TIP3    H125731   3.403   0.712   4.712
 8589TIP3    H225732   3.455   0.680   4.573
 8590TIP3   OH225733   5.628   3.048   3.663
 8590TIP3    H125734   5.695   2.993   3.706
 8590TIP3    H225735   5.671   3.133   3.653
 8591TIP3   OH225736   3.745   3.743   0.870
 8591TIP3    H125737   3.706   3.810   0.926
 8591TIP3    H225738   3.692   3.665   0.885
 8592TIP3   OH225739   0.357   3.287   1.539
 8592TIP3    H125740   0.364   3.371   1.493
 8592TIP3    H225741   0.447   3.269   1.569
 8593TIP3   OH225742   3.528   2.823   3.999
 8593TIP3    H125743   3.583   2.747   4.016
 8593TIP3    H225744   3.536   2.838   3.905
 8594TIP3   OH225745   0.030   6.216   2.472
 8594TIP3    H125746  -0.054   6.188   2.436
 8594TIP3    H225747   0.096   6.171   2.419
 8595TIP3   OH225748   4.661   5.667   5.765
 8595TIP3    H125749   4.656   5.750   5.717
 8595TIP3    H225750   4.715   5.688   5.842
 8596TIP3   OH225751   2.943   3.494   0.057
 8596TIP3    H125752   3.021   3.543   0.083
 8596TIP3    H225753   2.904   3.465   0.140
 8597TIP3   OH225754   1.635   2.153   5.288
 8597TIP3    H125755   1.666   2.244   5.290
 8597TIP3    H225756   1.573   2.147   5.360
 8598TIP3   OH225757   2.867   6.298   3.249
 8598TIP3    H125758   2.870   6.392   3.230
 8598TIP3    H225759   2.802   6.263   3.188
 8599TIP3   OH225760   2.224   4.614   1.038
 8599TIP3    H125761   2.271   4.624   0.955
 8599TIP3    H225762   2.284   4.563   1.093
 8600TIP3   OH225763   1.014   3.721   4.057
 8600TIP3    H125764   0.939   3.670   4.025
 8600TIP3    H225765   1.069   3.733   3.979
 8601TIP3   OH225766   4.727   2.435   1.381
 8601TIP3    H125767   4.806   2.393   1.413
 8601TIP3    H225768   4.674   2.450   1.459
 8602TIP3   OH225769   5.224   3.058   4.806
 8602TIP3    H125770   5.258   2.980   4.761
 8602TIP3    H225771   5.180   3.107   4.737
 8603TIP3   OH225772   2.422   5.854   5.246
 8603TIP3    H125773   2.462   5.781   5.198
 8603TIP3    H225774   2.493   5.916   5.260
 8604TIP3   OH225775   1.004   0.738   2.394
 8604TIP3    H125776   0.955   0.655   2.394
 8604TIP3    H225777   1.055   0.735   2.476
 8605TIP3   OH225778   2.776   0.603   1.636
 8605TIP3    H125779   2.832   0.668   1.679
 8605TIP3    H225780   2.719   0.571   1.706
 8606TIP3   OH225781   2.941   0.766   2.956
 8606TIP3    H125782   2.942   0.688   3.012
 8606TIP3    H225783   2.949   0.840   3.017
 8607TIP3   OH225784   4.295   6.837   3.338
 8607TIP3    H125785   4.334   6.769   3.283
 8607TIP3    H225786   4.232   6.881   3.280
 8608TIP3   OH225787   1.835   1.168   3.804
 8608TIP3    H125788   1.919   1.211   3.789
 8608TIP3    H225789   1.770   1.231   3.772
 8609TIP3   OH225790   7.232   1.820   1.653
 8609TIP3    H125791   7.242   1.828   1.558
 8609TIP3    H225792   7.297   1.755   1.678
 8610TIP3   OH225793   0.072   5.434   0.538
 8610TIP3    H125794   0.045   5.514   0.493
 8610TIP3    H225795   0.141   5.463   0.598
 8611TIP3   OH225796   6.511   0.026   2.820
 8611TIP3    H125797   6.449   0.098   2.834
 8611TIP3    H225798   6.498   0.001   2.729
 8612TIP3   OH225799   4.193   2.818   0.140
 8612TIP3    H125800   4.220   2.853   0.226
 8612TIP3    H225801   4.202   2.723   0.149
 8613TIP3   OH225802   3.847   1.848   3.911
 8613TIP3    H125803   3.852   1.869   4.004
 8613TIP3    H225804   3.760   1.808   3.901
 8614TIP3   OH225805   6.493   2.556   3.213
 8614TIP3    H125806   6.497   2.636   3.266
 8614TIP3    H225807   6.585   2.531   3.199
 8615TIP3   OH225808   0.594   0.997   1.495
 8615TIP3    H125809   0.504   0.968   1.509
 8615TIP3    H225810   0.596   1.029   1.405
 8616TIP3   OH225811   4.695   2.252   5.729
 8616TIP3    H125812   4.640   2.327   5.705
 8616TIP3    H225813   4.677   2.186   5.663
 8617TIP3   OH225814   4.961   3.350   4.752
 8617TIP3    H125815   5.046   3.372   4.714
 8617TIP3    H225816   4.951   3.412   4.825
 8618TIP3   OH225817   3.495   4.530   2.011
 8618TIP3    H125818   3.409   4.496   1.986
 8618TIP3    H225819   3.527   4.469   2.076
 8619TIP3   OH225820   1.296   6.006   1.117
 8619TIP3    H125821   1.350   6.037   1.045
 8619TIP3    H225822   1.259   6.086   1.155
 8620TIP3   OH225823   6.742   3.145   3.093
 8620TIP3    H125824   6.698   3.099   3.022
 8620TIP3    H225825   6.711   3.235   3.087
 8621TIP3   OH225826   0.832   3.055   1.854
 8621TIP3    H125827   0.827   3.144   1.818
 8621TIP3    H225828   0.821   2.998   1.778
 8622TIP3   OH225829   6.163   3.133   2.592
 8622TIP3    H125830   6.068   3.145   2.593
 8622TIP3    H225831   6.177   3.043   2.619
 8623TIP3   OH225832   0.747   5.826   1.786
 8623TIP3    H125833   0.753   5.883   1.709
 8623TIP3    H225834   0.755   5.886   1.860
 8624TIP3   OH225835   7.127   4.752   3.539
 8624TIP3    H125836   7.134   4.700   3.620
 8624TIP3    H225837   7.091   4.691   3.475
 8625TIP3   OH225838   6.769   3.130   0.864
 8625TIP3    H125839   6.684   3.163   0.893
 8625TIP3    H225840   6.832   3.180   0.915
 8626TIP3   OH225841   2.270   0.699   3.979
 8626TIP3    H125842   2.210   0.762   3.939
 8626TIP3    H225843   2.253   0.705   4.073
 8627TIP3   OH225844   5.750   4.963   3.856
 8627TIP3    H125845   5.697   4.892   3.891
 8627TIP3    H225846   5.785   5.008   3.933
 8628TIP3   OH225847   4.986   1.285   5.562
 8628TIP3    H125848   5.037   1.215   5.602
 8628TIP3    H225849   4.968   1.345   5.634
 8629TIP3   OH225850   5.759   0.968   3.310
 8629TIP3    H125851   5.751   0.994   3.218
 8629TIP3    H225852   5.723   0.879   3.312
 8630TIP3   OH225853   5.902   3.266   5.633
 8630TIP3    H125854   5.966   3.314   5.582
 8630TIP3    H225855   5.942   3.180   5.648
 8631TIP3   OH225856   4.601   2.470   5.562
 8631TIP3    H125857   4.579   2.520   5.484
 8631TIP3    H225858   4.535   2.495   5.627
 8632TIP3   OH225859   3.243   2.393   0.785
 8632TIP3    H125860   3.314   2.446   0.751
 8632TIP3    H225861   3.231   2.425   0.875
 8633TIP3   OH225862   6.154   6.303   0.160
 8633TIP3    H125863   6.147   6.292   0.255
 8633TIP3    H225864   6.225   6.244   0.134
 8634TIP3   OH225865   2.161   4.540   2.503
 8634TIP3    H125866   2.091   4.604   2.491
 8634TIP3    H225867   2.240   4.586   2.474
 8635TIP3   OH225868   4.652   3.414   4.697
 8635TIP3    H125869   4.737   3.454   4.675
 8635TIP3    H225870   4.666   3.320   4.683
 8636TIP3   OH225871   0.564   3.448   5.163
 8636TIP3    H125872   0.530   3.520   5.216
 8636TIP3    H225873   0.600   3.386   5.227
 8637TIP3   OH225874   5.697   4.540   4.557
 8637TIP3    H125875   5.758   4.479   4.515
 8637TIP3    H225876   5.610   4.507   4.534
 8638TIP3   OH225877   1.535   3.642   4.537
 8638TIP3    H125878   1.582   3.677   4.612
 8638TIP3    H225879   1.562   3.696   4.463
 8639TIP3   OH225880   6.972   2.985   1.622
 8639TIP3    H125881   7.001   2.994   1.531
 8639TIP3    H225882   6.988   2.893   1.643
 8640TIP3   OH225883   6.780   2.911   2.506
 8640TIP3    H125884   6.754   2.870   2.588
 8640TIP3    H225885   6.867   2.946   2.522
 8641TIP3   OH225886   5.425   2.338   4.281
 8641TIP3    H125887   5.513   2.308   4.257
 8641TIP3    H225888   5.436   2.382   4.365
 8642TIP3   OH225889   6.565   5.237   2.932
 8642TIP3    H125890   6.510   5.180   2.987
 8642TIP3    H225891   6.505   5.306   2.902
 8643TIP3   OH225892   4.139   3.606   3.397
 8643TIP3    H125893   4.109   3.612   3.306
 8643TIP3    H225894   4.184   3.688   3.414
 8644TIP3   OH225895   1.343   1.412   3.658
 8644TIP3    H125896   1.259   1.451   3.685
 8644TIP3    H225897   1.318   1.341   3.600
 8645TIP3   OH225898   5.705   0.844   1.586
 8645TIP3    H125899   5.611   0.853   1.598
 8645TIP3    H225900   5.718   0.753   1.560
 8646TIP3   OH225901   2.844   2.063   1.624
 8646TIP3    H125902   2.823   1.987   1.679
 8646TIP3    H225903   2.935   2.084   1.647
 8647TIP3   OH225904   3.953   2.488   4.813
 8647TIP3    H125905   3.912   2.449   4.890
 8647TIP3    H225906   3.955   2.581   4.831
 8648TIP3   OH225907   5.131   2.845   0.516
 8648TIP3    H125908   5.153   2.817   0.604
 8648TIP3    H225909   5.100   2.765   0.473
 8649TIP3   OH225910   6.908   0.447   4.835
 8649TIP3    H125911   6.916   0.391   4.911
 8649TIP3    H225912   6.840   0.510   4.858
 8650TIP3   OH225913   4.435   5.951   1.603
 8650TIP3    H125914   4.494   5.915   1.670
 8650TIP3    H225915   4.493   5.999   1.544
 8651TIP3   OH225916   7.160   2.519   1.007
 8651TIP3    H125917   7.075   2.535   1.047
 8651TIP3    H225918   7.223   2.555   1.070
 8652TIP3   OH225919   5.955   4.270   3.605
 8652TIP3    H125920   5.958   4.181   3.569
 8652TIP3    H225921   5.967   4.326   3.528
 8653TIP3   OH225922   3.381   0.123   3.954
 8653TIP3    H125923   3.344   0.205   3.989
 8653TIP3    H225924   3.447   0.152   3.891
 8654TIP3   OH225925   3.951   5.283   5.376
 8654TIP3    H125926   4.026   5.320   5.423
 8654TIP3    H225927   3.940   5.196   5.414
 8655TIP3   OH225928   6.556   0.431   5.261
 8655TIP3    H125929   6.523   0.499   5.202
 8655TIP3    H225930   6.594   0.480   5.334
 8656TIP3   OH225931   7.210   0.316   3.027
 8656TIP3    H125932   7.248   0.403   3.018
 8656TIP3    H225933   7.177   0.314   3.117
 8657TIP3   OH225934   0.799   4.872   2.083
 8657TIP3    H125935   0.838   4.843   2.165
 8657TIP3    H225936   0.758   4.793   2.047
 8658TIP3   OH225937   1.820   4.731   4.265
 8658TIP3    H125938   1.900   4.693   4.229
 8658TIP3    H225939   1.793   4.796   4.201
 8659TIP3   OH225940   0.517   5.656   2.778
 8659TIP3    H125941   0.423   5.636   2.782
 8659TIP3    H225942   0.553   5.616   2.857
 8660TIP3   OH225943   1.084   0.644   4.716
 8660TIP3    H125944   1.137   0.573   4.680
 8660TIP3    H225945   0.994   0.613   4.707
 8661TIP3   OH225946   4.516   0.173   1.842
 8661TIP3    H125947   4.523   0.259   1.884
 8661TIP3    H225948   4.559   0.183   1.758
 8662TIP3   OH225949   4.256   0.451   4.093
 8662TIP3    H125950   4.233   0.418   4.179
 8662TIP3    H225951   4.279   0.373   4.042
 8663TIP3   OH225952   3.804   0.256   1.872
 8663TIP3    H125953   3.795   0.221   1.783
 8663TIP3    H225954   3.896   0.240   1.894
 8664TIP3   OH225955   0.261   3.568   0.964
 8664TIP3    H125956   0.218   3.568   1.049
 8664TIP3    H225957   0.189   3.567   0.901
 8665TIP3   OH225958   0.711   1.441   5.889
 8665TIP3    H125959   0.671   1.522   5.923
 8665TIP3    H225960   0.744   1.466   5.803
 8666TIP3   OH225961   1.630   3.052   5.473
 8666TIP3    H125962   1.571   3.044   5.399
 8666TIP3    H225963   1.608   3.135   5.514
 8667TIP3   OH225964   3.707   6.298   1.615
 8667TIP3    H125965   3.651   6.307   1.692
 8667TIP3    H225966   3.715   6.203   1.602
 8668TIP3   OH225967   0.108   5.530   2.234
 8668TIP3    H125968   0.184   5.473   2.230
 8668TIP3    H225969   0.067   5.522   2.148
 8669TIP3   OH225970   7.064   6.024   5.505
 8669TIP3    H125971   6.984   6.048   5.456
 8669TIP3    H225972   7.132   6.080   5.467
 8670TIP3   OH225973   1.758   3.403   4.308
 8670TIP3    H125974   1.716   3.405   4.394
 8670TIP3    H225975   1.775   3.495   4.287
 8671TIP3   OH225976   1.286   3.977   4.391
 8671TIP3    H125977   1.298   3.916   4.464
 8671TIP3    H225978   1.209   4.027   4.416
 8672TIP3   OH225979   5.393   3.621   0.596
 8672TIP3    H125980   5.378   3.697   0.651
 8672TIP3    H225981   5.366   3.546   0.649
 8673TIP3   OH225982   0.906   3.415   4.378
 8673TIP3    H125983   0.861   3.361   4.313
 8673TIP3    H225984   0.857   3.402   4.459
 8674TIP3   OH225985   0.071   2.667   5.509
 8674TIP3    H125986   0.061   2.572   5.509
 8674TIP3    H225987   0.062   2.692   5.417
 8675TIP3   OH225988   5.454   1.679   5.208
 8675TIP3    H125989   5.453   1.583   5.208
 8675TIP3    H225990   5.398   1.703   5.281
 8676TIP3   OH225991   4.471   2.452   1.901
 8676TIP3    H125992   4.409   2.393   1.944
 8676TIP3    H225993   4.524   2.395   1.846
 8677TIP3   OH225994   3.904   5.676   0.472
 8677TIP3    H125995   3.965   5.705   0.404
 8677TIP3    H225996   3.837   5.627   0.424
 8678TIP3   OH225997   0.781   3.813   0.003
 8678TIP3    H125998   0.861   3.858   0.028
 8678TIP3    H225999   0.780   3.816  -0.092
 8679TIP3   OH226000   6.629   5.558   4.509
 8679TIP3    H126001   6.685   5.600   4.575
 8679TIP3    H226002   6.675   5.572   4.426
 8680TIP3   OH226003   4.732   2.909   1.894
 8680TIP3    H126004   4.740   2.895   1.800
 8680TIP3    H226005   4.796   2.977   1.913
 8681TIP3   OH226006   4.272   0.605   5.628
 8681TIP3    H126007   4.237   0.670   5.567
 8681TIP3    H226008   4.197   0.552   5.653
 8682TIP3   OH226009   1.846   2.549   3.890
 8682TIP3    H126010   1.915   2.610   3.866
 8682TIP3    H226011   1.822   2.574   3.979
 8683TIP3   OH226012   1.667   4.105   4.772
 8683TIP3    H126013   1.733   4.165   4.807
 8683TIP3    H226014   1.613   4.160   4.715
 8684TIP3   OH226015   3.165   5.819   1.703
 8684TIP3    H126016   3.255   5.790   1.690
 8684TIP3    H226017   3.172   5.912   1.725
 8685TIP3   OH226018   4.491   4.406   2.499
 8685TIP3    H126019   4.472   4.351   2.423
 8685TIP3    H226020   4.553   4.355   2.551
 8686TIP3   OH226021   6.529   2.042   1.346
 8686TIP3    H126022   6.572   2.098   1.410
 8686TIP3    H226023   6.551   1.953   1.373
 8687TIP3   OH226024   2.979   2.685   1.621
 8687TIP3    H126025   3.031   2.604   1.616
 8687TIP3    H226026   3.043   2.754   1.634
 8688TIP3   OH226027   3.888   1.959   1.850
 8688TIP3    H126028   3.808   2.002   1.880
 8688TIP3    H226029   3.956   2.025   1.861
 8689TIP3   OH226030   4.643   5.606   5.269
 8689TIP3    H126031   4.729   5.580   5.237
 8689TIP3    H226032   4.661   5.668   5.340
 8690TIP3   OH226033   6.549   6.767   5.509
 8690TIP3    H126034   6.639   6.764   5.541
 8690TIP3    H226035   6.496   6.747   5.586
 8691TIP3   OH226036   1.680   1.110   1.745
 8691TIP3    H126037   1.734   1.130   1.821
 8691TIP3    H226038   1.605   1.168   1.752
 8692TIP3   OH226039   6.026   5.429   1.832
 8692TIP3    H126040   6.022   5.490   1.758
 8692TIP3    H226041   5.938   5.433   1.870
 8693TIP3   OH226042   5.188   5.871   1.743
 8693TIP3    H126043   5.246   5.935   1.785
 8693TIP3    H226044   5.112   5.866   1.801
 8694TIP3   OH226045   0.566   5.547   5.535
 8694TIP3    H126046   0.625   5.485   5.492
 8694TIP3    H226047   0.570   5.626   5.481
 8695TIP3   OH226048   1.954   5.455   2.937
 8695TIP3    H126049   1.889   5.385   2.936
 8695TIP3    H226050   1.908   5.530   2.898
 8696TIP3   OH226051   1.991   2.604   5.696
 8696TIP3    H126052   1.955   2.518   5.718
 8696TIP3    H226053   1.995   2.605   5.601
 8697TIP3   OH226054   2.501   0.250   1.143
 8697TIP3    H126055   2.443   0.211   1.077
 8697TIP3    H226056   2.589   0.233   1.110
 8698TIP3   OH226057   2.506   1.957   3.480
 8698TIP3    H126058   2.412   1.970   3.497
 8698TIP3    H226059   2.539   2.045   3.462
 8699TIP3   OH226060   5.608   3.873   5.200
 8699TIP3    H126061   5.599   3.866   5.105
 8699TIP3    H226062   5.536   3.820   5.235
 8700TIP3   OH226063   3.298   2.485   1.346
 8700TIP3    H126064   3.341   2.570   1.356
 8700TIP3    H226065   3.213   2.506   1.308
 8701TIP3   OH226066   0.327   6.110   3.730
 8701TIP3    H126067   0.245   6.117   3.777
 8701TIP3    H226068   0.380   6.183   3.763
 8702TIP3   OH226069   0.707   4.600   3.837
 8702TIP3    H126070   0.659   4.526   3.873
 8702TIP3    H226071   0.710   4.583   3.742
 8703TIP3   OH226072   3.402   6.738   3.204
 8703TIP3    H126073   3.436   6.668   3.261
 8703TIP3    H226074   3.330   6.776   3.254
 8704TIP3   OH226075   0.230   0.203   4.972
 8704TIP3    H126076   0.248   0.257   4.895
 8704TIP3    H226077   0.174   0.256   5.027
 8705TIP3   OH226078   3.109   6.429   5.178
 8705TIP3    H126079   3.152   6.391   5.255
 8705TIP3    H226080   3.131   6.522   5.182
 8706TIP3   OH226081   3.173   0.861   4.655
 8706TIP3    H126082   3.193   0.816   4.737
 8706TIP3    H226083   3.206   0.950   4.669
 8707TIP3   OH226084   4.122   2.232   1.093
 8707TIP3    H126085   4.216   2.250   1.099
 8707TIP3    H226086   4.092   2.234   1.184
 8708TIP3   OH226087   6.848   1.835   0.512
 8708TIP3    H126088   6.758   1.816   0.488
 8708TIP3    H226089   6.894   1.752   0.501
 8709TIP3   OH226090   2.655   0.138   5.737
 8709TIP3    H126091   2.675   0.049   5.766
 8709TIP3    H226092   2.657   0.133   5.641
 8710TIP3   OH226093   4.137   3.867   4.834
 8710TIP3    H126094   4.214   3.918   4.808
 8710TIP3    H226095   4.102   3.833   4.751
 8711TIP3   OH226096   5.569   2.800   1.982
 8711TIP3    H126097   5.501   2.817   1.916
 8711TIP3    H226098   5.576   2.705   1.985
 8712TIP3   OH226099   3.219   2.008   1.017
 8712TIP3    H126100   3.172   2.052   1.088
 8712TIP3    H226101   3.192   1.917   1.022
 8713TIP3   OH226102   4.654   1.574   5.506
 8713TIP3    H126103   4.643   1.661   5.466
 8713TIP3    H226104   4.698   1.523   5.439
 8714TIP3   OH226105   4.651   6.040   4.547
 8714TIP3    H126106   4.698   6.123   4.552
 8714TIP3    H226107   4.627   6.032   4.454
 8715TIP3   OH226108   5.018   4.180   1.175
 8715TIP3    H126109   5.034   4.109   1.237
 8715TIP3    H226110   4.963   4.242   1.224
 8716TIP3   OH226111   4.110   2.052   2.992
 8716TIP3    H126112   4.034   2.109   3.004
 8716TIP3    H226113   4.082   1.989   2.924
 8717TIP3   OH226114   4.232   2.185   5.164
 8717TIP3    H126115   4.176   2.121   5.120
 8717TIP3    H226116   4.185   2.206   5.245
 8718TIP3   OH226117   1.032   5.903   1.810
 8718TIP3    H126118   0.969   5.844   1.769
 8718TIP3    H226119   1.006   5.905   1.902
 8719TIP3   OH226120   4.773   0.631   0.042
 8719TIP3    H126121   4.745   0.617   0.132
 8719TIP3    H226122   4.850   0.689   0.050
 8720TIP3   OH226123   3.873   3.099   3.438
 8720TIP3    H126124   3.883   3.077   3.531
 8720TIP3    H226125   3.924   3.178   3.426
 8721TIP3   OH226126   4.281   2.428   5.576
 8721TIP3    H126127   4.316   2.513   5.550
 8721TIP3    H226128   4.348   2.391   5.633
 8722TIP3   OH226129   5.716   5.958   3.700
 8722TIP3    H126130   5.744   5.952   3.791
 8722TIP3    H226131   5.632   5.912   3.697
 8723TIP3   OH226132   6.659   0.187   0.549
 8723TIP3    H126133   6.650   0.142   0.632
 8723TIP3    H226134   6.746   0.163   0.517
 8724TIP3   OH226135   5.496   1.841   4.449
 8724TIP3    H126136   5.562   1.899   4.487
 8724TIP3    H226137   5.415   1.891   4.454
 8725TIP3   OH226138   1.303   1.909   4.363
 8725TIP3    H126139   1.269   1.998   4.363
 8725TIP3    H226140   1.388   1.916   4.319
 8726TIP3   OH226141   6.266   2.211   4.249
 8726TIP3    H126142   6.235   2.228   4.160
 8726TIP3    H226143   6.206   2.261   4.305
 8727TIP3   OH226144   1.074   4.486   3.105
 8727TIP3    H126145   1.134   4.507   3.176
 8727TIP3    H226146   1.030   4.569   3.086
 8728TIP3   OH226147   2.222   6.225   4.980
 8728TIP3    H126148   2.131   6.252   4.994
 8728TIP3    H226149   2.242   6.254   4.891
 8729TIP3   OH226150   6.487   0.602   1.208
 8729TIP3    H126151   6.494   0.536   1.139
 8729TIP3    H226152   6.494   0.552   1.289
 8730TIP3   OH226153   5.813   3.706   5.644
 8730TIP3    H126154   5.809   3.775   5.577
 8730TIP3    H226155   5.816   3.625   5.594
 8731TIP3   OH226156   1.717   4.871   1.575
 8731TIP3    H126157   1.683   4.911   1.655
 8731TIP3    H226158   1.789   4.816   1.604
 8732TIP3   OH226159   2.883   5.254   4.438
 8732TIP3    H126160   2.789   5.245   4.453
 8732TIP3    H226161   2.923   5.188   4.494
 8733TIP3   OH226162   4.960   6.217   5.665
 8733TIP3    H126163   4.981   6.310   5.667
 8733TIP3    H226164   4.895   6.205   5.735
 8734TIP3   OH226165   4.631   6.679   4.793
 8734TIP3    H126166   4.629   6.767   4.830
 8734TIP3    H226167   4.542   6.663   4.763
 8735TIP3   OH226168   7.080   2.681   4.116
 8735TIP3    H126169   7.151   2.720   4.166
 8735TIP3    H226170   7.106   2.591   4.102
 8736TIP3   OH226171   3.791   0.177   0.380
 8736TIP3    H126172   3.880   0.208   0.364
 8736TIP3    H226173   3.744   0.253   0.412
 8737TIP3   OH226174   2.686   3.075   0.377
 8737TIP3    H126175   2.699   3.130   0.300
 8737TIP3    H226176   2.755   3.102   0.438
 8738TIP3   OH226177   4.083   0.349   0.100
 8738TIP3    H126178   3.996   0.343   0.137
 8738TIP3    H226179   4.070   0.338   0.005
 8739TIP3   OH226180   4.677   3.746   0.098
 8739TIP3    H126181   4.686   3.732   0.192
 8739TIP3    H226182   4.749   3.696   0.059
 8740TIP3   OH226183   1.822   3.548   5.028
 8740TIP3    H126184   1.734   3.514   5.044
 8740TIP3    H226185   1.879   3.472   5.033
 8741TIP3   OH226186   3.465   3.600   1.355
 8741TIP3    H126187   3.448   3.659   1.428
 8741TIP3    H226188   3.379   3.584   1.316
 8742TIP3   OH226189   1.012   3.513   2.336
 8742TIP3    H126190   1.005   3.592   2.389
 8742TIP3    H226191   1.033   3.544   2.248
 8743TIP3   OH226192   1.626   2.170   3.813
 8743TIP3    H126193   1.667   2.253   3.790
 8743TIP3    H226194   1.699   2.109   3.825
 8744TIP3   OH226195   0.224   0.674   1.066
 8744TIP3    H126196   0.188   0.759   1.095
 8744TIP3    H226197   0.228   0.681   0.971
 8745TIP3   OH226198   2.431   2.899   3.785
 8745TIP3    H126199   2.514   2.948   3.782
 8745TIP3    H226200   2.400   2.899   3.695
 8746TIP3   OH226201   6.302   0.928   5.792
 8746TIP3    H126202   6.390   0.903   5.765
 8746TIP3    H226203   6.252   0.930   5.710
 8747TIP3   OH226204   2.992   1.117   3.773
 8747TIP3    H126205   3.000   1.084   3.863
 8747TIP3    H226206   3.075   1.095   3.732
 8748TIP3   OH226207   4.228   3.169   2.892
 8748TIP3    H126208   4.238   3.074   2.898
 8748TIP3    H226209   4.301   3.198   2.838
 8749TIP3   OH226210   6.174   1.251   2.089
 8749TIP3    H126211   6.251   1.279   2.039
 8749TIP3    H226212   6.181   1.299   2.172
 8750TIP3   OH226213   5.130   0.449   1.435
 8750TIP3    H126214   5.214   0.465   1.478
 8750TIP3    H226215   5.103   0.363   1.466
 8751TIP3   OH226216   1.298   4.585   2.793
 8751TIP3    H126217   1.370   4.585   2.856
 8751TIP3    H226218   1.325   4.523   2.726
 8752TIP3   OH226219   1.763   2.321   5.029
 8752TIP3    H126220   1.738   2.295   4.941
 8752TIP3    H226221   1.811   2.246   5.064
 8753TIP3   OH226222   6.600   6.011   3.692
 8753TIP3    H126223   6.576   5.998   3.784
 8753TIP3    H226224   6.516   6.016   3.646
 8754TIP3   OH226225   0.295   3.243   4.854
 8754TIP3    H126226   0.327   3.242   4.945
 8754TIP3    H226227   0.214   3.192   4.857
 8755TIP3   OH226228   4.612   0.230   0.980
 8755TIP3    H126229   4.545   0.298   0.991
 8755TIP3    H226230   4.692   0.278   0.961
 8756TIP3   OH226231   2.372   0.597   2.981
 8756TIP3    H126232   2.420   0.680   2.972
 8756TIP3    H226233   2.348   0.594   3.073
 8757TIP3   OH226234   6.018   0.381   2.693
 8757TIP3    H126235   6.044   0.396   2.602
 8757TIP3    H226236   5.925   0.404   2.696
 8758TIP3   OH226237   3.490   6.007   2.757
 8758TIP3    H126238   3.513   6.091   2.797
 8758TIP3    H226239   3.422   6.029   2.693
 8759TIP3   OH226240   4.417   3.422   5.702
 8759TIP3    H126241   4.394   3.351   5.763
 8759TIP3    H226242   4.493   3.388   5.654
 8760TIP3   OH226243   4.208   0.681   2.386
 8760TIP3    H126244   4.224   0.645   2.473
 8760TIP3    H226245   4.294   0.712   2.357
 8761TIP3   OH226246   3.228   3.934   5.530
 8761TIP3    H126247   3.132   3.927   5.529
 8761TIP3    H226248   3.245   4.011   5.584
 8762TIP3   OH226249   5.188   5.133   5.024
 8762TIP3    H126250   5.145   5.128   4.939
 8762TIP3    H226251   5.116   5.153   5.085
 8763TIP3   OH226252   1.463   0.724   1.054
 8763TIP3    H126253   1.429   0.781   0.985
 8763TIP3    H226254   1.555   0.749   1.063
 8764TIP3   OH226255   0.848   2.016   5.430
 8764TIP3    H126256   0.811   1.928   5.424
 8764TIP3    H226257   0.937   2.006   5.396
 8765TIP3   OH226258   0.753   0.747   3.954
 8765TIP3    H126259   0.700   0.690   3.899
 8765TIP3    H226260   0.721   0.835   3.935
 8766TIP3   OH226261   4.323   5.641   1.554
 8766TIP3    H126262   4.316   5.705   1.484
 8766TIP3    H226263   4.414   5.611   1.551
 8767TIP3   OH226264   3.700   0.927   3.249
 8767TIP3    H126265   3.665   0.856   3.303
 8767TIP3    H226266   3.795   0.918   3.256
 8768TIP3   OH226267   0.545   2.521   5.667
 8768TIP3    H126268   0.489   2.444   5.666
 8768TIP3    H226269   0.634   2.486   5.657
 8769TIP3   OH226270   0.490   2.910   2.581
 8769TIP3    H126271   0.553   2.920   2.510
 8769TIP3    H226272   0.480   2.815   2.590
 8770TIP3   OH226273   3.489   5.929   1.829
 8770TIP3    H126274   3.464   5.959   1.741
 8770TIP3    H226275   3.560   5.867   1.814
 8771TIP3   OH226276   4.608   1.564   4.653
 8771TIP3    H126277   4.606   1.526   4.741
 8771TIP3    H226278   4.599   1.489   4.595
 8772TIP3   OH226279   1.835   6.298   5.583
 8772TIP3    H126280   1.915   6.331   5.624
 8772TIP3    H226281   1.851   6.205   5.571
 8773TIP3   OH226282   0.085   5.247   4.674
 8773TIP3    H126283   0.105   5.197   4.595
 8773TIP3    H226284  -0.010   5.257   4.673
 8774TIP3   OH226285   3.101   4.628   1.303
 8774TIP3    H126286   3.030   4.639   1.366
 8774TIP3    H226287   3.057   4.605   1.221
 8775TIP3   OH226288   0.088   1.884   1.411
 8775TIP3    H126289   0.051   1.856   1.328
 8775TIP3    H226290   0.181   1.863   1.405
 8776TIP3   OH226291   1.284   3.421   1.109
 8776TIP3    H126292   1.372   3.418   1.147
 8776TIP3    H226293   1.226   3.396   1.181
 8777TIP3   OH226294   0.434   3.790   1.050
 8777TIP3    H126295   0.340   3.774   1.046
 8777TIP3    H226296   0.451   3.849   0.977
 8778TIP3   OH226297   5.808   4.601   4.788
 8778TIP3    H126298   5.896   4.623   4.759
 8778TIP3    H226299   5.762   4.577   4.708
 8779TIP3   OH226300   1.913   2.940   4.959
 8779TIP3    H126301   1.874   2.876   4.899
 8779TIP3    H226302   1.846   2.952   5.026
 8780TIP3   OH226303   1.808   6.668   4.409
 8780TIP3    H126304   1.808   6.735   4.478
 8780TIP3    H226305   1.838   6.588   4.454
 8781TIP3   OH226306   2.801   5.916   2.482
 8781TIP3    H126307   2.817   6.010   2.490
 8781TIP3    H226308   2.749   5.894   2.559
 8782TIP3   OH226309   4.466   1.359   3.734
 8782TIP3    H126310   4.518   1.295   3.782
 8782TIP3    H226311   4.375   1.332   3.749
 8783TIP3   OH226312   6.156   2.872   5.012
 8783TIP3    H126313   6.180   2.781   5.028
 8783TIP3    H226314   6.103   2.897   5.087
 8784TIP3   OH226315   5.786   5.258   5.327
 8784TIP3    H126316   5.881   5.262   5.320
 8784TIP3    H226317   5.758   5.349   5.334
 8785TIP3   OH226318   1.957   3.885   3.741
 8785TIP3    H126319   1.974   3.892   3.647
 8785TIP3    H226320   1.988   3.798   3.766
 8786TIP3   OH226321   3.134   2.335   2.647
 8786TIP3    H126322   3.167   2.298   2.729
 8786TIP3    H226323   3.051   2.289   2.632
 8787TIP3   OH226324   1.922   3.223   2.833
 8787TIP3    H126325   1.875   3.140   2.827
 8787TIP3    H226326   1.882   3.269   2.907
 8788TIP3   OH226327   0.867   5.550   1.037
 8788TIP3    H126328   0.825   5.495   1.103
 8788TIP3    H226329   0.813   5.539   0.959
 8789TIP3   OH226330   2.106   5.518   3.793
 8789TIP3    H126331   2.068   5.558   3.715
 8789TIP3    H226332   2.191   5.560   3.803
 8790TIP3   OH226333   1.758   3.193   3.323
 8790TIP3    H126334   1.833   3.193   3.383
 8790TIP3    H226335   1.762   3.277   3.279
 8791TIP3   OH226336   1.015   4.011   4.238
 8791TIP3    H126337   0.923   4.027   4.257
 8791TIP3    H226338   1.022   4.018   4.142
 8792TIP3   OH226339   4.457   6.204   2.744
 8792TIP3    H126340   4.452   6.110   2.728
 8792TIP3    H226341   4.368   6.236   2.729
 8793TIP3   OH226342   5.103   0.562   4.667
 8793TIP3    H126343   5.175   0.520   4.620
 8793TIP3    H226344   5.108   0.525   4.755
 8794TIP3   OH226345   4.165   2.856   3.095
 8794TIP3    H126346   4.100   2.862   3.025
 8794TIP3    H226347   4.230   2.794   3.064
 8795TIP3   OH226348   1.995   0.034   4.918
 8795TIP3    H126349   1.990   0.037   5.013
 8795TIP3    H226350   1.994   0.125   4.890
 8796TIP3   OH226351   3.978   5.684   4.646
 8796TIP3    H126352   4.015   5.736   4.574
 8796TIP3    H226353   3.987   5.594   4.617
 8797TIP3   OH226354   5.027   1.124   0.886
 8797TIP3    H126355   5.114   1.152   0.856
 8797TIP3    H226356   4.981   1.205   0.906
 8798TIP3   OH226357   4.695   2.310   1.774
 8798TIP3    H126358   4.770   2.332   1.828
 8798TIP3    H226359   4.684   2.215   1.785
 8799TIP3   OH226360   2.470   6.767   1.235
 8799TIP3    H126361   2.392   6.822   1.227
 8799TIP3    H226362   2.464   6.707   1.161
 8800TIP3   OH226363   3.463   6.370   3.139
 8800TIP3    H126364   3.407   6.315   3.194
 8800TIP3    H226365   3.550   6.331   3.146
 8801TIP3   OH226366   5.846   4.731   3.345
 8801TIP3    H126367   5.861   4.731   3.440
 8801TIP3    H226368   5.775   4.668   3.332
 8802TIP3   OH226369   1.514   5.111   4.447
 8802TIP3    H126370   1.580   5.041   4.444
 8802TIP3    H226371   1.458   5.088   4.521
 8803TIP3   OH226372   7.176   3.180   3.602
 8803TIP3    H126373   7.251   3.212   3.653
 8803TIP3    H226374   7.206   3.097   3.565
 8804TIP3   OH226375   6.735   6.328   0.980
 8804TIP3    H126376   6.661   6.290   1.027
 8804TIP3    H226377   6.710   6.322   0.888
 8805TIP3   OH226378   3.567   3.808   1.646
 8805TIP3    H126379   3.646   3.768   1.611
 8805TIP3    H226380   3.571   3.899   1.616
 8806TIP3   OH226381   4.385   0.425   3.021
 8806TIP3    H126382   4.293   0.400   3.012
 8806TIP3    H226383   4.408   0.397   3.110
 8807TIP3   OH226384   7.210   1.774   1.147
 8807TIP3    H126385   7.156   1.703   1.181
 8807TIP3    H226386   7.277   1.730   1.094
 8808TIP3   OH226387   2.666   6.668   4.407
 8808TIP3    H126388   2.576   6.701   4.405
 8808TIP3    H226389   2.680   6.631   4.320
 8809TIP3   OH226390   3.590   6.321   1.365
 8809TIP3    H126391   3.613   6.329   1.458
 8809TIP3    H226392   3.630   6.398   1.324
 8810TIP3   OH226393   5.016   0.641   1.921
 8810TIP3    H126394   5.030   0.614   1.830
 8810TIP3    H226395   5.104   0.655   1.956
 8811TIP3   OH226396   0.943   5.903   4.761
 8811TIP3    H126397   0.960   5.868   4.848
 8811TIP3    H226398   0.879   5.843   4.723
 8812TIP3   OH226399   2.617   3.621   4.954
 8812TIP3    H126400   2.672   3.550   4.921
 8812TIP3    H226401   2.559   3.578   5.018
 8813TIP3   OH226402   5.938   2.482   1.140
 8813TIP3    H126403   6.025   2.465   1.176
 8813TIP3    H226404   5.947   2.563   1.091
 8814TIP3   OH226405   3.225   0.252   0.603
 8814TIP3    H126406   3.283   0.177   0.612
 8814TIP3    H226407   3.197   0.250   0.511
 8815TIP3   OH226408   3.701   5.918   0.191
 8815TIP3    H126409   3.748   5.874   0.261
 8815TIP3    H226410   3.615   5.875   0.189
 8816TIP3   OH226411   5.969   2.597   0.715
 8816TIP3    H126412   5.880   2.622   0.688
 8816TIP3    H226413   5.955   2.524   0.775
 8817TIP3   OH226414   3.757   0.057   0.620
 8817TIP3    H126415   3.791   0.138   0.659
 8817TIP3    H226416   3.743   0.080   0.528
 8818TIP3   OH226417   0.110   5.256   1.499
 8818TIP3    H126418   0.181   5.242   1.436
 8818TIP3    H226419   0.154   5.291   1.577
 8819TIP3   OH226420   0.766   3.772   3.714
 8819TIP3    H126421   0.684   3.743   3.675
 8819TIP3    H226422   0.831   3.707   3.686
 8820TIP3   OH226423   6.301   1.367   0.172
 8820TIP3    H126424   6.376   1.425   0.158
 8820TIP3    H226425   6.330   1.283   0.135
 8821TIP3   OH226426   1.497   6.075   0.057
 8821TIP3    H126427   1.575   6.129   0.042
 8821TIP3    H226428   1.454   6.115   0.133
 8822TIP3   OH226429   2.789   2.540   4.384
 8822TIP3    H126430   2.839   2.464   4.413
 8822TIP3    H226431   2.750   2.576   4.464
 8823TIP3   OH226432   5.451   3.712   4.659
 8823TIP3    H126433   5.449   3.669   4.745
 8823TIP3    H226434   5.544   3.722   4.640
 8824TIP3   OH226435   2.562   5.244   4.431
 8824TIP3    H126436   2.503   5.187   4.480
 8824TIP3    H226437   2.506   5.315   4.398
 8825TIP3   OH226438   1.607   3.288   5.604
 8825TIP3    H126439   1.584   3.380   5.590
 8825TIP3    H226440   1.606   3.278   5.700
 8826TIP3   OH226441   2.577   5.707   5.096
 8826TIP3    H126442   2.553   5.664   5.014
 8826TIP3    H226443   2.641   5.774   5.071
 8827TIP3   OH226444   5.809   6.438   5.105
 8827TIP3    H126445   5.858   6.395   5.035
 8827TIP3    H226446   5.856   6.520   5.121
 8828TIP3   OH226447   3.594   0.372   2.423
 8828TIP3    H126448   3.607   0.342   2.513
 8828TIP3    H226449   3.624   0.463   2.423
 8829TIP3   OH226450   6.027   2.287   0.887
 8829TIP3    H126451   5.989   2.328   0.965
 8829TIP3    H226452   5.957   2.288   0.823
 8830TIP3   OH226453   3.978   3.625   2.875
 8830TIP3    H126454   3.917   3.693   2.846
 8830TIP3    H226455   3.921   3.555   2.907
 8831TIP3   OH226456   2.268   6.257   1.518
 8831TIP3    H126457   2.182   6.218   1.499
 8831TIP3    H226458   2.326   6.220   1.451
 8832TIP3   OH226459   2.299   4.599   4.791
 8832TIP3    H126460   2.374   4.576   4.735
 8832TIP3    H226461   2.243   4.522   4.789
 8833TIP3   OH226462   2.551   5.702   5.594
 8833TIP3    H126463   2.622   5.640   5.614
 8833TIP3    H226464   2.472   5.648   5.596
 8834TIP3   OH226465   6.964   3.207   4.886
 8834TIP3    H126466   6.927   3.119   4.879
 8834TIP3    H226467   6.888   3.265   4.887
 8835TIP3   OH226468   4.777   2.774   1.629
 8835TIP3    H126469   4.825   2.691   1.619
 8835TIP3    H226470   4.838   2.841   1.598
 8836TIP3   OH226471   6.489   3.374   1.866
 8836TIP3    H126472   6.562   3.329   1.908
 8836TIP3    H226473   6.491   3.462   1.903
 8837TIP3   OH226474   4.984   2.604   4.900
 8837TIP3    H126475   5.017   2.683   4.857
 8837TIP3    H226476   5.001   2.618   4.993
 8838TIP3   OH226477   3.439   6.036   5.261
 8838TIP3    H126478   3.416   6.023   5.353
 8838TIP3    H226479   3.463   6.128   5.255
 8839TIP3   OH226480   2.932   3.301   2.384
 8839TIP3    H126481   2.847   3.257   2.374
 8839TIP3    H226482   2.919   3.388   2.346
 8840TIP3   OH226483   5.557   1.475   1.144
 8840TIP3    H126484   5.527   1.492   1.055
 8840TIP3    H226485   5.499   1.407   1.177
 8841TIP3   OH226486   3.468   3.828   5.634
 8841TIP3    H126487   3.378   3.852   5.610
 8841TIP3    H226488   3.466   3.814   5.728
 8842TIP3   OH226489   5.305   0.025   2.736
 8842TIP3    H126490   5.240   0.093   2.756
 8842TIP3    H226491   5.283  -0.047   2.794
 8843TIP3   OH226492   5.366   4.811   3.318
 8843TIP3    H126493   5.423   4.854   3.382
 8843TIP3    H226494   5.426   4.754   3.269
 8844TIP3   OH226495   2.353   0.054   1.962
 8844TIP3    H126496   2.359   0.061   2.058
 8844TIP3    H226497   2.259   0.051   1.944
 8845TIP3   OH226498   2.490   0.313   4.248
 8845TIP3    H126499   2.549   0.359   4.189
 8845TIP3    H226500   2.524   0.224   4.251
 8846TIP3   OH226501   1.120   2.798   2.232
 8846TIP3    H126502   1.178   2.858   2.280
 8846TIP3    H226503   1.055   2.855   2.191
 8847TIP3   OH226504   3.164   5.991   1.916
 8847TIP3    H126505   3.148   5.908   1.961
 8847TIP3    H226506   3.249   6.021   1.950
 8848TIP3   OH226507   2.309   4.278   2.416
 8848TIP3    H126508   2.310   4.369   2.448
 8848TIP3    H226509   2.371   4.232   2.474
 8849TIP3   OH226510   5.301   5.022   5.848
 8849TIP3    H126511   5.394   5.010   5.867
 8849TIP3    H226512   5.256   4.971   5.915
 8850TIP3   OH226513   6.440   2.940   4.446
 8850TIP3    H126514   6.370   2.991   4.404
 8850TIP3    H226515   6.401   2.908   4.527
 8851TIP3   OH226516   5.181   6.068   4.706
 8851TIP3    H126517   5.247   6.015   4.751
 8851TIP3    H226518   5.159   6.137   4.768
 8852TIP3   OH226519   1.756   3.421   3.180
 8852TIP3    H126520   1.681   3.449   3.232
 8852TIP3    H226521   1.723   3.417   3.090
 8853TIP3   OH226522   6.995   0.253   0.343
 8853TIP3    H126523   7.080   0.210   0.345
 8853TIP3    H226524   7.011   0.336   0.299
 8854TIP3   OH226525   2.961   4.183   0.172
 8854TIP3    H126526   2.911   4.108   0.205
 8854TIP3    H226527   3.053   4.157   0.183
 8855TIP3   OH226528   0.840   3.478   3.702
 8855TIP3    H126529   0.840   3.382   3.704
 8855TIP3    H226530   0.798   3.500   3.619
 8856TIP3   OH226531   5.786   4.175   4.870
 8856TIP3    H126532   5.712   4.192   4.812
 8856TIP3    H226533   5.749   4.178   4.958
 8857TIP3   OH226534   2.520   5.400   0.066
 8857TIP3    H126535   2.462   5.330   0.035
 8857TIP3    H226536   2.499   5.408   0.159
 8858TIP3   OH226537   2.662   0.102   4.876
 8858TIP3    H126538   2.730   0.055   4.828
 8858TIP3    H226539   2.607   0.141   4.808
 8859TIP3   OH226540   4.720   2.923   4.738
 8859TIP3    H126541   4.681   2.837   4.754
 8859TIP3    H226542   4.735   2.926   4.643
 8860TIP3   OH226543   6.040   6.627   4.626
 8860TIP3    H126544   5.997   6.707   4.597
 8860TIP3    H226545   5.970   6.562   4.631
 8861TIP3   OH226546   2.356   5.275   4.170
 8861TIP3    H126547   2.294   5.287   4.242
 8861TIP3    H226548   2.302   5.265   4.092
 8862TIP3   OH226549   5.210   2.459   5.727
 8862TIP3    H126550   5.272   2.473   5.655
 8862TIP3    H226551   5.157   2.384   5.699
 8863TIP3   OH226552   4.658   0.237   3.642
 8863TIP3    H126553   4.579   0.207   3.687
 8863TIP3    H226554   4.641   0.329   3.622
 8864TIP3   OH226555   7.167   2.277   0.059
 8864TIP3    H126556   7.122   2.257   0.141
 8864TIP3    H226557   7.212   2.360   0.076
 8865TIP3   OH226558   3.982   6.511   5.284
 8865TIP3    H126559   3.947   6.533   5.370
 8865TIP3    H226560   4.060   6.458   5.303
 8866TIP3   OH226561   2.224   5.969   1.445
 8866TIP3    H126562   2.246   6.004   1.359
 8866TIP3    H226563   2.308   5.941   1.481
 8867TIP3   OH226564   4.768   2.410   2.378
 8867TIP3    H126565   4.847   2.373   2.338
 8867TIP3    H226566   4.709   2.427   2.305
 8868TIP3   OH226567   0.872   5.832   0.412
 8868TIP3    H126568   0.860   5.871   0.499
 8868TIP3    H226569   0.913   5.902   0.360
 8869TIP3   OH226570   6.503   0.746   0.556
 8869TIP3    H126571   6.436   0.785   0.613
 8869TIP3    H226572   6.454   0.694   0.493
 8870TIP3   OH226573   4.914   5.135   0.445
 8870TIP3    H126574   4.910   5.186   0.363
 8870TIP3    H226575   4.944   5.049   0.418
 8871TIP3   OH226576   2.349   0.977   3.552
 8871TIP3    H126577   2.420   0.938   3.604
 8871TIP3    H226578   2.347   0.926   3.471
 8872TIP3   OH226579   3.213   3.364   5.007
 8872TIP3    H126580   3.291   3.384   4.956
 8872TIP3    H226581   3.222   3.272   5.031
 8873TIP3   OH226582   0.824   2.513   5.607
 8873TIP3    H126583   0.909   2.557   5.615
 8873TIP3    H226584   0.846   2.420   5.596
 8874TIP3   OH226585   1.103   5.466   3.536
 8874TIP3    H126586   1.153   5.527   3.482
 8874TIP3    H226587   1.131   5.484   3.626
 8875TIP3   OH226588   2.724   1.102   2.331
 8875TIP3    H126589   2.771   1.150   2.263
 8875TIP3    H226590   2.740   1.010   2.311
 8876TIP3   OH226591   7.058   4.461   2.266
 8876TIP3    H126592   7.035   4.448   2.174
 8876TIP3    H226593   7.044   4.375   2.306
 8877TIP3   OH226594   1.640   3.235   1.324
 8877TIP3    H126595   1.673   3.205   1.240
 8877TIP3    H226596   1.701   3.199   1.388
 8878TIP3   OH226597   2.162   6.507   2.228
 8878TIP3    H126598   2.176   6.413   2.218
 8878TIP3    H226599   2.242   6.538   2.271
 8879TIP3   OH226600   6.535   2.537   0.685
 8879TIP3    H126601   6.497   2.479   0.751
 8879TIP3    H226602   6.617   2.567   0.724
 8880TIP3   OH226603   4.718   0.941   4.306
 8880TIP3    H126604   4.761   1.027   4.313
 8880TIP3    H226605   4.629   0.957   4.337
 8881TIP3   OH226606   1.504   5.715   0.186
 8881TIP3    H126607   1.525   5.786   0.246
 8881TIP3    H226608   1.473   5.758   0.107
 8882TIP3   OH226609   4.339   2.348   4.957
 8882TIP3    H126610   4.361   2.261   4.924
 8882TIP3    H226611   4.420   2.382   4.993
 8883TIP3   OH226612   6.729   5.422   2.256
 8883TIP3    H126613   6.794   5.408   2.324
 8883TIP3    H226614   6.646   5.396   2.296
 8884TIP3   OH226615   1.827   3.511   3.638
 8884TIP3    H126616   1.860   3.556   3.560
 8884TIP3    H226617   1.843   3.418   3.620
 8885TIP3   OH226618   5.562   2.116   0.277
 8885TIP3    H126619   5.642   2.119   0.330
 8885TIP3    H226620   5.584   2.057   0.205
 8886TIP3   OH226621   6.610   0.565   2.160
 8886TIP3    H126622   6.655   0.495   2.113
 8886TIP3    H226623   6.631   0.550   2.252
 8887TIP3   OH226624   0.943   1.686   4.005
 8887TIP3    H126625   0.984   1.599   3.996
 8887TIP3    H226626   0.998   1.731   4.069
 8888TIP3   OH226627   1.746   1.712   5.241
 8888TIP3    H126628   1.828   1.759   5.254
 8888TIP3    H226629   1.692   1.772   5.191
 8889TIP3   OH226630   3.470   5.368   4.925
 8889TIP3    H126631   3.566   5.369   4.926
 8889TIP3    H226632   3.447   5.325   4.843
 8890TIP3   OH226633   6.062   3.022   4.136
 8890TIP3    H126634   5.982   2.975   4.161
 8890TIP3    H226635   6.031   3.105   4.100
 8891TIP3   OH226636   3.699   2.384   1.173
 8891TIP3    H126637   3.665   2.312   1.227
 8891TIP3    H226638   3.758   2.432   1.232
 8892TIP3   OH226639   3.687   6.568   4.890
 8892TIP3    H126640   3.628   6.512   4.839
 8892TIP3    H226641   3.697   6.647   4.836
 8893TIP3   OH226642   5.730   5.502   0.835
 8893TIP3    H126643   5.708   5.429   0.893
 8893TIP3    H226644   5.717   5.468   0.747
 8894TIP3   OH226645   1.284   5.729   1.792
 8894TIP3    H126646   1.261   5.799   1.731
 8894TIP3    H226647   1.200   5.686   1.811
 8895TIP3   OH226648   3.778   4.415   5.074
 8895TIP3    H126649   3.869   4.387   5.067
 8895TIP3    H226650   3.728   4.338   5.047
 8896TIP3   OH226651   1.307   3.887   1.571
 8896TIP3    H126652   1.352   3.949   1.628
 8896TIP3    H226653   1.378   3.836   1.531
 8897TIP3   OH226654   5.685   0.859   2.466
 8897TIP3    H126655   5.710   0.915   2.393
 8897TIP3    H226656   5.745   0.784   2.460
 8898TIP3   OH226657   2.911   4.174   2.319
 8898TIP3    H126658   2.986   4.121   2.292
 8898TIP3    H226659   2.907   4.245   2.255
 8899TIP3   OH226660   3.842   3.781   2.192
 8899TIP3    H126661   3.807   3.717   2.130
 8899TIP3    H226662   3.765   3.830   2.220
 8900TIP3   OH226663   0.719   1.398   4.558
 8900TIP3    H126664   0.684   1.449   4.485
 8900TIP3    H226665   0.811   1.424   4.564
 8901TIP3   OH226666   2.865   0.825   5.354
 8901TIP3    H126667   2.847   0.915   5.383
 8901TIP3    H226668   2.852   0.772   5.432
 8902TIP3   OH226669   6.082   3.805   3.489
 8902TIP3    H126670   6.170   3.832   3.512
 8902TIP3    H226671   6.067   3.843   3.402
 8903TIP3   OH226672   2.575   0.402   3.681
 8903TIP3    H126673   2.532   0.390   3.596
 8903TIP3    H226674   2.502   0.410   3.743
 8904TIP3   OH226675   5.808   1.265   4.794
 8904TIP3    H126676   5.773   1.353   4.782
 8904TIP3    H226677   5.890   1.264   4.746
 8905TIP3   OH226678   7.235   0.592   2.126
 8905TIP3    H126679   7.143   0.586   2.099
 8905TIP3    H226680   7.231   0.619   2.218
 8906TIP3   OH226681   5.132   1.202   4.404
 8906TIP3    H126682   5.182   1.283   4.390
 8906TIP3    H226683   5.196   1.139   4.437
 8907TIP3   OH226684   0.026   6.232   0.072
 8907TIP3    H126685  -0.055   6.273   0.040
 8907TIP3    H226686   0.092   6.255   0.007
 8908TIP3   OH226687   4.632   1.766   0.836
 8908TIP3    H126688   4.589   1.729   0.913
 8908TIP3    H226689   4.563   1.816   0.793
 8909TIP3   OH226690   0.296   3.645   4.563
 8909TIP3    H126691   0.311   3.573   4.625
 8909TIP3    H226692   0.331   3.722   4.607
 8910TIP3   OH226693   5.813   2.916   2.873
 8910TIP3    H126694   5.871   2.963   2.933
 8910TIP3    H226695   5.797   2.832   2.916
 8911TIP3   OH226696   6.002   0.771   1.662
 8911TIP3    H126697   5.918   0.816   1.649
 8911TIP3    H226698   6.064   0.821   1.608
 8912TIP3   OH226699   4.762   1.204   2.489
 8912TIP3    H126700   4.774   1.271   2.556
 8912TIP3    H226701   4.747   1.123   2.538
 8913TIP3   OH226702   1.684   2.742   4.289
 8913TIP3    H126703   1.728   2.775   4.367
 8913TIP3    H226704   1.748   2.684   4.248
 8914TIP3   OH226705   1.525   3.373   0.356
 8914TIP3    H126706   1.482   3.407   0.278
 8914TIP3    H226707   1.526   3.447   0.417
 8915TIP3   OH226708   2.955   0.001   3.882
 8915TIP3    H126709   2.959   0.096   3.867
 8915TIP3    H226710   2.878  -0.028   3.834
 8916TIP3   OH226711   2.174   6.436   0.128
 8916TIP3    H126712   2.129   6.470   0.050
 8916TIP3    H226713   2.108   6.441   0.197
 8917TIP3   OH226714   2.672   0.485   4.124
 8917TIP3    H126715   2.738   0.472   4.192
 8917TIP3    H226716   2.698   0.567   4.080
 8918TIP3   OH226717   1.032   3.305   3.117
 8918TIP3    H126718   1.079   3.378   3.156
 8918TIP3    H226719   0.945   3.340   3.095
 8919TIP3   OH226720   5.860   6.402   5.712
 8919TIP3    H126721   5.795   6.392   5.781
 8919TIP3    H226722   5.846   6.490   5.678
 8920TIP3   OH226723   4.900   2.290   0.704
 8920TIP3    H126724   4.990   2.322   0.715
 8920TIP3    H226725   4.891   2.278   0.609
 8921TIP3   OH226726   5.214   3.058   0.358
 8921TIP3    H126727   5.307   3.070   0.378
 8921TIP3    H226728   5.193   2.973   0.395
 8922TIP3   OH226729   2.121   3.151   5.254
 8922TIP3    H126730   2.187   3.159   5.186
 8922TIP3    H226731   2.111   3.240   5.290
 8923TIP3   OH226732   5.884   3.050   3.521
 8923TIP3    H126733   5.870   3.119   3.585
 8923TIP3    H226734   5.961   3.078   3.472
 8924TIP3   OH226735   5.941   1.306   0.104
 8924TIP3    H126736   5.876   1.255   0.152
 8924TIP3    H226737   6.010   1.244   0.082
 8925TIP3   OH226738   4.993   1.345   3.949
 8925TIP3    H126739   4.966   1.292   4.023
 8925TIP3    H226740   4.923   1.409   3.938
 8926TIP3   OH226741   7.058   0.976   1.783
 8926TIP3    H126742   7.099   1.029   1.852
 8926TIP3    H226743   7.011   0.908   1.830
 8927TIP3   OH226744   4.823   1.192   1.170
 8927TIP3    H126745   4.742   1.164   1.128
 8927TIP3    H226746   4.865   1.249   1.106
 8928TIP3   OH226747   3.262   0.800   3.139
 8928TIP3    H126748   3.258   0.895   3.127
 8928TIP3    H226749   3.252   0.765   3.050
 8929TIP3   OH226750   0.515   5.002   3.133
 8929TIP3    H126751   0.598   5.008   3.181
 8929TIP3    H226752   0.461   5.072   3.169
 8930TIP3   OH226753   3.955   2.826   4.733
 8930TIP3    H126754   4.023   2.886   4.766
 8930TIP3    H226755   3.902   2.807   4.810
 8931TIP3   OH226756   6.896   2.528   1.071
 8931TIP3    H126757   6.862   2.555   0.986
 8931TIP3    H226758   6.849   2.448   1.091
 8932TIP3   OH226759   5.265   6.018   3.433
 8932TIP3    H126760   5.342   6.036   3.380
 8932TIP3    H226761   5.201   5.982   3.372
 8933TIP3   OH226762   4.387   3.582   4.141
 8933TIP3    H126763   4.325   3.509   4.151
 8933TIP3    H226764   4.473   3.542   4.153
 8934TIP3   OH226765   3.578   4.508   0.861
 8934TIP3    H126766   3.517   4.446   0.821
 8934TIP3    H226767   3.632   4.455   0.919
 8935TIP3   OH226768   0.328   2.760   3.797
 8935TIP3    H126769   0.394   2.715   3.744
 8935TIP3    H226770   0.355   2.852   3.795
 8936TIP3   OH226771   2.156   1.254   4.954
 8936TIP3    H126772   2.064   1.256   4.929
 8936TIP3    H226773   2.194   1.183   4.903
 8937TIP3   OH226774   0.966   5.334   2.193
 8937TIP3    H126775   0.963   5.413   2.140
 8937TIP3    H226776   0.875   5.315   2.214
 8938TIP3   OH226777   4.321   3.619   5.876
 8938TIP3    H126778   4.364   3.579   5.801
 8938TIP3    H226779   4.385   3.681   5.911
 8939TIP3   OH226780   4.493   5.983   2.591
 8939TIP3    H126781   4.413   5.951   2.550
 8939TIP3    H226782   4.547   5.905   2.603
 8940TIP3   OH226783   5.862   1.747   0.200
 8940TIP3    H126784   5.814   1.682   0.150
 8940TIP3    H226785   5.839   1.729   0.291
 8941TIP3   OH226786   4.023   1.318   2.792
 8941TIP3    H126787   3.957   1.352   2.852
 8941TIP3    H226788   4.088   1.387   2.786
 8942TIP3   OH226789   2.750   4.608   3.416
 8942TIP3    H126790   2.660   4.641   3.423
 8942TIP3    H226791   2.753   4.534   3.476
 8943TIP3   OH226792   1.735   5.629   4.170
 8943TIP3    H126793   1.694   5.559   4.120
 8943TIP3    H226794   1.663   5.689   4.191
 8944TIP3   OH226795   6.417   3.508   4.766
 8944TIP3    H126796   6.432   3.596   4.732
 8944TIP3    H226797   6.322   3.500   4.770
 8945TIP3   OH226798   0.114   5.591   4.952
 8945TIP3    H126799   0.159   5.509   4.972
 8945TIP3    H226800   0.023   5.565   4.937
 8946TIP3   OH226801   0.843   2.920   4.892
 8946TIP3    H126802   0.899   2.841   4.892
 8946TIP3    H226803   0.784   2.907   4.817
 8947TIP3   OH226804   3.508   1.275   3.074
 8947TIP3    H126805   3.478   1.301   3.162
 8947TIP3    H226806   3.545   1.355   3.036
 8948TIP3   OH226807   6.220   6.339   1.291
 8948TIP3    H126808   6.170   6.356   1.211
 8948TIP3    H226809   6.288   6.407   1.292
 8949TIP3   OH226810   0.309   6.693   5.791
 8949TIP3    H126811   0.294   6.615   5.737
 8949TIP3    H226812   0.392   6.676   5.835
 8950TIP3   OH226813   2.308   1.336   1.139
 8950TIP3    H126814   2.235   1.393   1.162
 8950TIP3    H226815   2.384   1.394   1.137
 8951TIP3   OH226816   6.955   1.221   1.587
 8951TIP3    H126817   6.872   1.220   1.540
 8951TIP3    H226818   6.955   1.141   1.639
 8952TIP3   OH226819   5.760   2.315   4.376
 8952TIP3    H126820   5.802   2.230   4.386
 8952TIP3    H226821   5.699   2.320   4.450
 8953TIP3   OH226822   4.892   3.564   0.053
 8953TIP3    H126823   4.813   3.517   0.026
 8953TIP3    H226824   4.959   3.537  -0.010
 8954TIP3   OH226825   5.412   3.408   0.819
 8954TIP3    H126826   5.503   3.384   0.799
 8954TIP3    H226827   5.378   3.333   0.868
 8955TIP3   OH226828   1.701   0.564   4.354
 8955TIP3    H126829   1.714   0.658   4.370
 8955TIP3    H226830   1.607   0.550   4.366
 8956TIP3   OH226831   5.034   1.095   5.065
 8956TIP3    H126832   5.106   1.119   5.123
 8956TIP3    H226833   5.072   1.097   4.977
 8957TIP3   OH226834   6.485   2.438   4.472
 8957TIP3    H126835   6.551   2.420   4.540
 8957TIP3    H226836   6.405   2.455   4.521
 8958TIP3   OH226837   5.043   5.156   5.312
 8958TIP3    H126838   4.976   5.131   5.376
 8958TIP3    H226839   5.110   5.200   5.365
 8959TIP3   OH226840   3.176   1.423   1.844
 8959TIP3    H126841   3.174   1.518   1.853
 8959TIP3    H226842   3.269   1.400   1.847
 8960TIP3   OH226843   2.171   3.344   4.503
 8960TIP3    H126844   2.180   3.404   4.577
 8960TIP3    H226845   2.138   3.398   4.431
 8961TIP3   OH226846   3.803   0.144   2.316
 8961TIP3    H126847   3.725   0.198   2.302
 8961TIP3    H226848   3.771   0.069   2.366
 8962TIP3   OH226849   0.499   2.249   5.672
 8962TIP3    H126850   0.528   2.164   5.706
 8962TIP3    H226851   0.445   2.227   5.596
 8963TIP3   OH226852   0.850   4.557   2.426
 8963TIP3    H126853   0.890   4.478   2.465
 8963TIP3    H226854   0.923   4.617   2.414
 8964TIP3   OH226855   3.552   6.377   1.999
 8964TIP3    H126856   3.526   6.421   2.080
 8964TIP3    H226857   3.553   6.284   2.020
 8965TIP3   OH226858   6.421   5.431   3.564
 8965TIP3    H126859   6.438   5.492   3.636
 8965TIP3    H226860   6.503   5.429   3.515
 8966TIP3   OH226861   6.705   0.890   2.767
 8966TIP3    H126862   6.724   0.802   2.733
 8966TIP3    H226863   6.624   0.915   2.723
 8967TIP3   OH226864   1.134   6.106   2.166
 8967TIP3    H126865   1.155   6.131   2.076
 8967TIP3    H226866   1.167   6.017   2.174
 8968TIP3   OH226867   1.032   3.277   5.151
 8968TIP3    H126868   0.983   3.329   5.215
 8968TIP3    H226869   1.096   3.339   5.115
 8969TIP3   OH226870   6.655   5.584   0.250
 8969TIP3    H126871   6.587   5.562   0.313
 8969TIP3    H226872   6.732   5.536   0.280
 8970TIP3   OH226873   3.559   3.407   1.968
 8970TIP3    H126874   3.469   3.383   1.946
 8970TIP3    H226875   3.606   3.323   1.971
 8971TIP3   OH226876   0.104   4.384   1.233
 8971TIP3    H126877   0.058   4.456   1.190
 8971TIP3    H226878   0.190   4.383   1.192
 8972TIP3   OH226879   1.902   0.871   2.533
 8972TIP3    H126880   1.847   0.945   2.558
 8972TIP3    H226881   1.900   0.813   2.609
 8973TIP3   OH226882   0.231   3.850   5.168
 8973TIP3    H126883   0.188   3.914   5.111
 8973TIP3    H226884   0.255   3.778   5.110
 8974TIP3   OH226885   3.113   3.231   2.582
 8974TIP3    H126886   3.077   3.280   2.508
 8974TIP3    H226887   3.085   3.281   2.659
 8975TIP3   OH226888   3.264   5.805   4.175
 8975TIP3    H126889   3.219   5.758   4.244
 8975TIP3    H226890   3.336   5.747   4.148
 8976TIP3   OH226891   0.499   0.362   3.707
 8976TIP3    H126892   0.506   0.344   3.801
 8976TIP3    H226893   0.405   0.358   3.690
 8977TIP3   OH226894   0.578   6.090   0.310
 8977TIP3    H126895   0.513   6.020   0.322
 8977TIP3    H226896   0.611   6.106   0.398
 8978TIP3   OH226897   4.029   2.346   3.912
 8978TIP3    H126898   3.956   2.347   3.974
 8978TIP3    H226899   4.101   2.388   3.960
 8979TIP3   OH226900   4.597   6.764   2.743
 8979TIP3    H126901   4.522   6.748   2.801
 8979TIP3    H226902   4.595   6.691   2.681
 8980TIP3   OH226903   6.221   6.474   3.870
 8980TIP3    H126904   6.217   6.539   3.940
 8980TIP3    H226905   6.315   6.458   3.858
 8981TIP3   OH226906   5.669   5.874   4.844
 8981TIP3    H126907   5.641   5.782   4.846
 8981TIP3    H226908   5.731   5.882   4.916
 8982TIP3   OH226909   2.054   2.820   0.823
 8982TIP3    H126910   2.113   2.844   0.894
 8982TIP3    H226911   2.049   2.898   0.768
 8983TIP3   OH226912   0.543   6.346   3.147
 8983TIP3    H126913   0.620   6.310   3.102
 8983TIP3    H226914   0.471   6.333   3.084
 8984TIP3   OH226915   5.714   6.314   1.848
 8984TIP3    H126916   5.664   6.284   1.924
 8984TIP3    H226917   5.789   6.360   1.885
 8985TIP3   OH226918   4.430   0.355   5.313
 8985TIP3    H126919   4.446   0.404   5.233
 8985TIP3    H226920   4.339   0.374   5.336
 8986TIP3   OH226921   6.277   1.988   4.801
 8986TIP3    H126922   6.318   2.004   4.716
 8986TIP3    H226923   6.262   1.893   4.803
 8987TIP3   OH226924   4.393   5.918   2.250
 8987TIP3    H126925   4.403   5.836   2.202
 8987TIP3    H226926   4.309   5.910   2.295
 8988TIP3   OH226927   4.487   0.293   5.707
 8988TIP3    H126928   4.397   0.271   5.733
 8988TIP3    H226929   4.502   0.379   5.747
 8989TIP3   OH226930   6.064   5.626   4.132
 8989TIP3    H126931   6.113   5.677   4.067
 8989TIP3    H226932   6.020   5.558   4.080
 8990TIP3   OH226933   0.008   6.420   4.077
 8990TIP3    H126934   0.078   6.369   4.119
 8990TIP3    H226935  -0.035   6.358   4.019
 8991TIP3   OH226936   1.119   2.760   1.020
 8991TIP3    H126937   1.120   2.669   1.047
 8991TIP3    H226938   1.080   2.807   1.094
 8992TIP3   OH226939   5.309   4.284   4.327
 8992TIP3    H126940   5.400   4.265   4.304
 8992TIP3    H226941   5.277   4.338   4.255
 8993TIP3   OH226942   2.587   5.343   2.956
 8993TIP3    H126943   2.624   5.386   3.033
 8993TIP3    H226944   2.561   5.415   2.899
 8994TIP3   OH226945   6.202   1.613   5.333
 8994TIP3    H126946   6.150   1.675   5.384
 8994TIP3    H226947   6.263   1.668   5.283
 8995TIP3   OH226948   1.830   5.730   2.052
 8995TIP3    H126949   1.744   5.687   2.055
 8995TIP3    H226950   1.883   5.674   1.995
 8996TIP3   OH226951   6.037   1.358   4.511
 8996TIP3    H126952   6.123   1.396   4.494
 8996TIP3    H226953   6.050   1.303   4.589
 8997TIP3   OH226954   2.310   6.411   1.266
 8997TIP3    H126955   2.272   6.471   1.202
 8997TIP3    H226956   2.278   6.441   1.350
 8998TIP3   OH226957   2.875   3.498   1.535
 8998TIP3    H126958   2.926   3.451   1.469
 8998TIP3    H226959   2.912   3.586   1.535
 8999TIP3   OH226960   2.762   6.316   2.217
 8999TIP3    H126961   2.673   6.310   2.185
 8999TIP3    H226962   2.813   6.257   2.161
 9000TIP3   OH226963   3.758   1.426   0.731
 9000TIP3    H126964   3.838   1.386   0.698
 9000TIP3    H226965   3.769   1.519   0.716
 9001TIP3   OH226966   6.709   4.425   1.540
 9001TIP3    H126967   6.701   4.513   1.577
 9001TIP3    H226968   6.794   4.425   1.497
 9002TIP3   OH226969   2.189   0.330   1.552
 9002TIP3    H126970   2.223   0.359   1.467
 9002TIP3    H226971   2.231   0.389   1.616
 9003TIP3   OH226972   1.575   3.096   2.163
 9003TIP3    H126973   1.576   3.028   2.231
 9003TIP3    H226974   1.513   3.064   2.098
 9004TIP3   OH226975   2.688   3.195   5.520
 9004TIP3    H126976   2.715   3.138   5.592
 9004TIP3    H226977   2.670   3.279   5.562
 9005TIP3   OH226978   5.106   3.584   3.649
 9005TIP3    H126979   5.188   3.545   3.678
 9005TIP3    H226980   5.061   3.513   3.603
 9006TIP3   OH226981   1.536   3.386   1.522
 9006TIP3    H126982   1.576   3.334   1.593
 9006TIP3    H226983   1.554   3.335   1.443
 9007TIP3   OH226984   0.839   3.728   2.969
 9007TIP3    H126985   0.822   3.822   2.961
 9007TIP3    H226986   0.934   3.721   2.969
 9008TIP3   OH226987   3.653   3.139   5.547
 9008TIP3    H126988   3.566   3.172   5.527
 9008TIP3    H226989   3.637   3.057   5.595
 9009TIP3   OH226990   6.963   4.718   2.072
 9009TIP3    H126991   6.897   4.649   2.060
 9009TIP3    H226992   6.947   4.779   2.001
 9010TIP3   OH226993   3.479   5.164   0.981
 9010TIP3    H126994   3.501   5.091   0.923
 9010TIP3    H226995   3.451   5.122   1.063
 9011TIP3   OH226996   4.744   1.484   3.928
 9011TIP3    H126997   4.764   1.554   3.990
 9011TIP3    H226998   4.649   1.480   3.925
 9012TIP3   OH226999   4.549   1.078   3.556
 9012TIP3    H127000   4.523   1.024   3.631
 9012TIP3    H227001   4.559   1.016   3.484
 9013TIP3   OH227002   0.280   1.525   1.966
 9013TIP3    H127003   0.323   1.457   1.916
 9013TIP3    H227004   0.258   1.593   1.902
 9014TIP3   OH227005   6.576   4.214   5.003
 9014TIP3    H127006   6.603   4.305   5.008
 9014TIP3    H227007   6.620   4.180   4.924
 9015TIP3   OH227008   0.060   6.567   3.363
 9015TIP3    H127009   0.040   6.589   3.272
 9015TIP3    H227010  -0.014   6.515   3.393
 9016TIP3   OH227011   0.629   1.490   5.605
 9016TIP3    H127012   0.715   1.528   5.619
 9016TIP3    H227013   0.641   1.428   5.533
 9017TIP3   OH227014   5.780   4.377   3.222
 9017TIP3    H127015   5.862   4.369   3.172
 9017TIP3    H227016   5.729   4.301   3.195
 9018TIP3   OH227017   0.735   6.312   3.438
 9018TIP3    H127018   0.827   6.298   3.462
 9018TIP3    H227019   0.729   6.405   3.421
 9019TIP3   OH227020   6.571   3.376   5.391
 9019TIP3    H127021   6.557   3.402   5.481
 9019TIP3    H227022   6.571   3.458   5.341
 9020TIP3   OH227023   6.545   1.022   4.631
 9020TIP3    H127024   6.606   0.949   4.624
 9020TIP3    H227025   6.544   1.044   4.724
 9021TIP3   OH227026   1.906   0.069   2.408
 9021TIP3    H127027   1.850  -0.004   2.434
 9021TIP3    H227028   1.995   0.039   2.426
 9022TIP3   OH227029   0.613   3.309   1.589
 9022TIP3    H127030   0.695   3.269   1.619
 9022TIP3    H227031   0.640   3.386   1.538
 9023TIP3   OH227032   2.790   2.556   2.804
 9023TIP3    H127033   2.702   2.585   2.830
 9023TIP3    H227034   2.833   2.636   2.772
 9024TIP3   OH227035   6.205   2.887   3.637
 9024TIP3    H127036   6.236   2.974   3.661
 9024TIP3    H227037   6.204   2.888   3.541
 9025TIP3   OH227038   4.864   3.189   0.148
 9025TIP3    H127039   4.851   3.265   0.204
 9025TIP3    H227040   4.816   3.118   0.192
 9026TIP3   OH227041   4.947   6.036   5.452
 9026TIP3    H127042   4.955   6.075   5.539
 9026TIP3    H227043   4.908   6.105   5.398
 9027TIP3   OH227044   1.195   4.307   0.165
 9027TIP3    H127045   1.187   4.272   0.253
 9027TIP3    H227046   1.186   4.402   0.176
 9028TIP3   OH227047   4.624   6.621   4.113
 9028TIP3    H127048   4.610   6.559   4.041
 9028TIP3    H227049   4.710   6.659   4.095
 9029TIP3   OH227050   1.792   4.322   5.806
 9029TIP3    H127051   1.804   4.355   5.717
 9029TIP3    H227052   1.841   4.383   5.861
 9030TIP3   OH227053   0.949   0.261   0.966
 9030TIP3    H127054   0.989   0.207   0.897
 9030TIP3    H227055   1.022   0.311   1.003
 9031TIP3   OH227056   3.766   0.630   5.099
 9031TIP3    H127057   3.814   0.585   5.169
 9031TIP3    H227058   3.770   0.570   5.025
 9032TIP3   OH227059   2.861   4.619   4.924
 9032TIP3    H127060   2.956   4.617   4.937
 9032TIP3    H227061   2.847   4.576   4.840
 9033TIP3   OH227062   6.334   5.859   0.549
 9033TIP3    H127063   6.303   5.927   0.489
 9033TIP3    H227064   6.258   5.837   0.603
 9034TIP3   OH227065   5.905   5.102   4.686
 9034TIP3    H127066   5.983   5.095   4.740
 9034TIP3    H227067   5.937   5.098   4.596
 9035TIP3   OH227068   4.078   0.183   0.344
 9035TIP3    H127069   4.135   0.119   0.304
 9035TIP3    H227070   4.113   0.268   0.316
 9036TIP3   OH227071   6.073   5.525   0.721
 9036TIP3    H127072   6.136   5.478   0.667
 9036TIP3    H227073   5.993   5.471   0.717
 9037TIP3   OH227074   6.775   6.011   0.192
 9037TIP3    H127075   6.774   6.089   0.247
 9037TIP3    H227076   6.707   5.955   0.229
 9038TIP3   OH227077   0.676   3.968   1.358
 9038TIP3    H127078   0.647   4.030   1.291
 9038TIP3    H227079   0.699   4.022   1.433
 9039TIP3   OH227080   4.796   1.159   1.445
 9039TIP3    H127081   4.813   1.162   1.351
 9039TIP3    H227082   4.839   1.237   1.480
 9040TIP3   OH227083   3.916   3.942   5.105
 9040TIP3    H127084   3.892   4.001   5.177
 9040TIP3    H227085   3.905   3.854   5.141
 9041TIP3   OH227086   6.393   3.035   4.749
 9041TIP3    H127087   6.441   2.952   4.752
 9041TIP3    H227088   6.361   3.047   4.838
 9042TIP3   OH227089   0.974   5.033   3.093
 9042TIP3    H127090   1.067   5.013   3.095
 9042TIP3    H227091   0.931   4.954   3.127
 9043TIP3   OH227092   1.945   1.823   5.476
 9043TIP3    H127093   1.924   1.916   5.466
 9043TIP3    H227094   1.874   1.788   5.529
 9044TIP3   OH227095   5.088   2.336   2.628
 9044TIP3    H127096   5.065   2.325   2.721
 9044TIP3    H227097   5.042   2.415   2.601
 9045TIP3   OH227098   0.153   2.586   4.064
 9045TIP3    H127099   0.183   2.676   4.049
 9045TIP3    H227100   0.193   2.535   3.993
 9046TIP3   OH227101   1.470   4.496   1.632
 9046TIP3    H127102   1.507   4.456   1.711
 9046TIP3    H227103   1.536   4.481   1.565
 9047TIP3   OH227104   0.544   1.137   0.102
 9047TIP3    H127105   0.487   1.189   0.159
 9047TIP3    H227106   0.576   1.066   0.158
 9048TIP3   OH227107   3.175   2.177   0.282
 9048TIP3    H127108   3.108   2.226   0.330
 9048TIP3    H227109   3.249   2.238   0.275
 9049TIP3   OH227110   0.543   3.982   2.294
 9049TIP3    H127111   0.520   4.039   2.367
 9049TIP3    H227112   0.531   3.893   2.328
 9050TIP3   OH227113   3.662   0.640   2.376
 9050TIP3    H127114   3.744   0.672   2.414
 9050TIP3    H227115   3.597   0.707   2.399
 9051TIP3   OH227116   2.596   0.810   4.596
 9051TIP3    H127117   2.638   0.729   4.567
 9051TIP3    H227118   2.639   0.831   4.679
 9052TIP3   OH227119   1.966   6.684   0.502
 9052TIP3    H127120   1.899   6.711   0.564
 9052TIP3    H227121   1.988   6.764   0.454
 9053TIP3   OH227122   0.298   1.207   4.408
 9053TIP3    H127123   0.218   1.202   4.460
 9053TIP3    H227124   0.343   1.285   4.440
 9054TIP3   OH227125   2.374   1.480   2.264
 9054TIP3    H127126   2.444   1.429   2.305
 9054TIP3    H227127   2.420   1.544   2.210
 9055TIP3   OH227128   3.907   2.284   0.039
 9055TIP3    H127129   3.947   2.200   0.016
 9055TIP3    H227130   3.835   2.294  -0.023
 9056TIP3   OH227131   5.027   5.725   3.124
 9056TIP3    H127132   5.071   5.809   3.136
 9056TIP3    H227133   4.971   5.738   3.048
 9057TIP3   OH227134   2.729   0.671   0.492
 9057TIP3    H127135   2.818   0.645   0.518
 9057TIP3    H227136   2.743   0.741   0.428
 9058TIP3   OH227137   2.701   1.067   5.386
 9058TIP3    H127138   2.670   1.037   5.471
 9058TIP3    H227139   2.622   1.089   5.337
 9059TIP3   OH227140   3.980   2.814   0.477
 9059TIP3    H127141   3.899   2.774   0.446
 9059TIP3    H227142   3.969   2.908   0.458
 9060TIP3   OH227143   7.237   2.229   3.909
 9060TIP3    H127144   7.236   2.134   3.899
 9060TIP3    H227145   7.173   2.247   3.978
 9061TIP3   OH227146   4.264   4.831   4.152
 9061TIP3    H127147   4.186   4.856   4.203
 9061TIP3    H227148   4.248   4.740   4.127
 9062TIP3   OH227149   1.001   0.259   0.619
 9062TIP3    H127150   1.076   0.260   0.679
 9062TIP3    H227151   0.972   0.350   0.616
 9063TIP3   OH227152   6.779   1.842   5.815
 9063TIP3    H127153   6.686   1.830   5.832
 9063TIP3    H227154   6.816   1.866   5.900
 9064TIP3   OH227155   5.443   1.749   1.248
 9064TIP3    H127156   5.480   1.670   1.208
 9064TIP3    H227157   5.408   1.799   1.174
 9065TIP3   OH227158   6.685   3.728   4.715
 9065TIP3    H127159   6.763   3.683   4.682
 9065TIP3    H227160   6.717   3.815   4.739
 9066TIP3   OH227161   1.201   3.055   3.983
 9066TIP3    H127162   1.163   3.138   3.953
 9066TIP3    H227163   1.143   2.988   3.947
 9067TIP3   OH227164   3.312   1.851   2.984
 9067TIP3    H127165   3.346   1.931   2.944
 9067TIP3    H227166   3.224   1.874   3.013
 9068TIP3   OH227167   1.372   5.675   5.531
 9068TIP3    H127168   1.437   5.744   5.543
 9068TIP3    H227169   1.290   5.721   5.513
 9069TIP3   OH227170   5.558   0.368   3.541
 9069TIP3    H127171   5.646   0.404   3.551
 9069TIP3    H227172   5.532   0.341   3.629
 9070TIP3   OH227173   1.102   3.226   1.033
 9070TIP3    H127174   1.159   3.299   1.057
 9070TIP3    H227175   1.148   3.183   0.961
 9071TIP3   OH227176   0.101   4.543   5.758
 9071TIP3    H127177   0.120   4.544   5.851
 9071TIP3    H227178   0.180   4.578   5.716
 9072TIP3   OH227179   5.147   3.220   1.755
 9072TIP3    H127180   5.144   3.273   1.675
 9072TIP3    H227181   5.144   3.284   1.826
 9073TIP3   OH227182   3.117   3.896   4.092
 9073TIP3    H127183   3.057   3.881   4.166
 9073TIP3    H227184   3.065   3.945   4.029
 9074TIP3   OH227185   4.210   2.582   3.568
 9074TIP3    H127186   4.289   2.636   3.556
 9074TIP3    H227187   4.157   2.602   3.491
 9075TIP3   OH227188   6.923   5.293   4.202
 9075TIP3    H127189   6.886   5.210   4.233
 9075TIP3    H227190   6.980   5.268   4.130
 9076TIP3   OH227191   0.668   4.267   3.733
 9076TIP3    H127192   0.730   4.340   3.736
 9076TIP3    H227193   0.722   4.189   3.739
 9077TIP3   OH227194   0.297   5.677   3.532
 9077TIP3    H127195   0.326   5.726   3.609
 9077TIP3    H227196   0.201   5.683   3.534
 9078TIP3   OH227197   6.264   6.363   4.389
 9078TIP3    H127198   6.240   6.357   4.482
 9078TIP3    H227199   6.290   6.454   4.377
 9079TIP3   OH227200   0.053   4.518   5.097
 9079TIP3    H127201   0.119   4.474   5.150
 9079TIP3    H227202   0.099   4.590   5.055
 9080TIP3   OH227203   4.801   4.208   5.030
 9080TIP3    H127204   4.835   4.160   5.106
 9080TIP3    H227205   4.738   4.270   5.067
 9081TIP3   OH227206   5.627   6.692   5.510
 9081TIP3    H127207   5.623   6.753   5.583
 9081TIP3    H227208   5.548   6.709   5.460
 9082TIP3   OH227209   0.048   2.841   3.782
 9082TIP3    H127210   0.137   2.841   3.818
 9082TIP3    H227211   0.011   2.926   3.808
 9083TIP3   OH227212   0.387   5.895   0.208
 9083TIP3    H127213   0.347   5.814   0.176
 9083TIP3    H227214   0.349   5.964   0.154
 9084TIP3   OH227215   0.370   5.132   4.782
 9084TIP3    H127216   0.286   5.178   4.770
 9084TIP3    H227217   0.358   5.049   4.737
 9085TIP3   OH227218   1.088   3.700   1.155
 9085TIP3    H127219   1.168   3.669   1.195
 9085TIP3    H227220   1.104   3.793   1.138
 9086TIP3   OH227221   0.777   4.747   5.430
 9086TIP3    H127222   0.840   4.766   5.361
 9086TIP3    H227223   0.825   4.692   5.492
 9087TIP3   OH227224   6.463   4.581   3.019
 9087TIP3    H127225   6.434   4.639   3.090
 9087TIP3    H227226   6.388   4.580   2.959
 9088TIP3   OH227227   2.932   2.761   2.650
 9088TIP3    H127228   3.003   2.704   2.622
 9088TIP3    H227229   2.925   2.826   2.581
 9089TIP3   OH227230   6.062   6.431   1.503
 9089TIP3    H127231   6.071   6.442   1.409
 9089TIP3    H227232   6.019   6.346   1.513
 9090TIP3   OH227233   2.207   1.595   4.961
 9090TIP3    H127234   2.178   1.504   4.969
 9090TIP3    H227235   2.295   1.589   4.925
 9091TIP3   OH227236   1.291   6.856   0.101
 9091TIP3    H127237   1.348   6.780   0.101
 9091TIP3    H227238   1.307   6.899   0.185
 9092TIP3   OH227239   4.687   6.313   4.183
 9092TIP3    H127240   4.757   6.334   4.122
 9092TIP3    H227241   4.658   6.226   4.158
 9093TIP3   OH227242   0.610   2.170   1.972
 9093TIP3    H127243   0.675   2.103   1.950
 9093TIP3    H227244   0.598   2.219   1.891
 9094TIP3   OH227245   6.714   6.569   0.450
 9094TIP3    H127246   6.705   6.625   0.373
 9094TIP3    H227247   6.797   6.596   0.490
 9095TIP3   OH227248   7.119   0.651   4.781
 9095TIP3    H127249   7.038   0.680   4.824
 9095TIP3    H227250   7.186   0.660   4.848
 9096TIP3   OH227251   6.421   3.595   2.524
 9096TIP3    H127252   6.370   3.518   2.549
 9096TIP3    H227253   6.365   3.641   2.462
 9097TIP3   OH227254   3.250   2.464   5.611
 9097TIP3    H127255   3.326   2.522   5.608
 9097TIP3    H227256   3.282   2.381   5.574
 9098TIP3   OH227257   0.675   1.646   4.032
 9098TIP3    H127258   0.605   1.675   3.973
 9098TIP3    H227259   0.756   1.666   3.985
 9099TIP3   OH227260   3.395   5.736   5.245
 9099TIP3    H127261   3.352   5.697   5.321
 9099TIP3    H227262   3.355   5.822   5.236
 9100TIP3   OH227263   3.924   5.855   0.668
 9100TIP3    H127264   3.915   5.781   0.608
 9100TIP3    H227265   3.935   5.815   0.754
 9101TIP3   OH227266   6.268   5.321   1.754
 9101TIP3    H127267   6.177   5.343   1.772
 9101TIP3    H227268   6.290   5.252   1.816
 9102TIP3   OH227269   6.763   3.127   1.513
 9102TIP3    H127270   6.802   3.214   1.524
 9102TIP3    H227271   6.819   3.069   1.564
 9103TIP3   OH227272   1.001   2.169   2.043
 9103TIP3    H127273   0.926   2.129   1.999
 9103TIP3    H227274   1.078   2.127   2.004
 9104TIP3   OH227275   5.360   4.146   5.512
 9104TIP3    H127276   5.364   4.217   5.576
 9104TIP3    H227277   5.344   4.189   5.428
 9105TIP3   OH227278   3.047   0.916   1.149
 9105TIP3    H127279   3.116   0.975   1.179
 9105TIP3    H227280   3.086   0.866   1.077
 9106TIP3   OH227281   5.166   6.300   1.081
 9106TIP3    H127282   5.228   6.371   1.062
 9106TIP3    H227283   5.082   6.334   1.051
 9107TIP3   OH227284   1.330   6.384   1.051
 9107TIP3    H127285   1.421   6.383   1.022
 9107TIP3    H227286   1.279   6.392   0.971
 9108TIP3   OH227287   6.490   6.524   1.556
 9108TIP3    H127288   6.469   6.494   1.467
 9108TIP3    H227289   6.407   6.560   1.588
 9109TIP3   OH227290   4.627   2.949   3.099
 9109TIP3    H127291   4.576   2.883   3.146
 9109TIP3    H227292   4.668   3.001   3.168
 9110TIP3   OH227293   5.252   5.748   1.104
 9110TIP3    H127294   5.343   5.720   1.110
 9110TIP3    H227295   5.237   5.796   1.186
 9111TIP3   OH227296   1.014   2.001   5.177
 9111TIP3    H127297   1.064   2.064   5.229
 9111TIP3    H227298   0.924   2.031   5.184
 9112TIP3   OH227299   0.243   1.152   5.066
 9112TIP3    H127300   0.329   1.178   5.032
 9112TIP3    H227301   0.204   1.101   4.995
 9113TIP3   OH227302   4.473   1.557   0.468
 9113TIP3    H127303   4.479   1.505   0.548
 9113TIP3    H227304   4.399   1.615   0.482
 9114TIP3   OH227305   4.647   0.263   5.477
 9114TIP3    H127306   4.581   0.313   5.427
 9114TIP3    H227307   4.655   0.310   5.559
 9115TIP3   OH227308   1.386   4.890   0.891
 9115TIP3    H127309   1.391   4.933   0.806
 9115TIP3    H227310   1.311   4.930   0.934
 9116TIP3   OH227311   0.602   3.230   5.345
 9116TIP3    H127312   0.541   3.177   5.293
 9116TIP3    H227313   0.563   3.231   5.433
 9117TIP3   OH227314   3.466   3.207   5.274
 9117TIP3    H127315   3.394   3.181   5.331
 9117TIP3    H227316   3.437   3.290   5.235
 9118TIP3   OH227317   5.444   0.500   4.843
 9118TIP3    H127318   5.529   0.542   4.854
 9118TIP3    H227319   5.448   0.423   4.901
 9119TIP3   OH227320   1.789   3.726   1.531
 9119TIP3    H127321   1.825   3.813   1.548
 9119TIP3    H227322   1.854   3.666   1.568
 9120TIP3   OH227323   1.767   3.192   1.570
 9120TIP3    H127324   1.833   3.239   1.519
 9120TIP3    H227325   1.813   3.115   1.604
 9121TIP3   OH227326   7.182   4.755   0.229
 9121TIP3    H127327   7.149   4.696   0.161
 9121TIP3    H227328   7.182   4.702   0.308
 9122TIP3   OH227329   1.077   6.235   3.943
 9122TIP3    H127330   1.100   6.143   3.935
 9122TIP3    H227331   1.094   6.272   3.856
 9123TIP3   OH227332   6.348   3.836   2.790
 9123TIP3    H127333   6.264   3.791   2.782
 9123TIP3    H227334   6.352   3.863   2.882
 9124TIP3   OH227335   1.907   4.691   2.472
 9124TIP3    H127336   1.908   4.655   2.383
 9124TIP3    H227337   1.847   4.635   2.520
 9125TIP3   OH227338   3.581   3.532   4.604
 9125TIP3    H127339   3.547   3.443   4.612
 9125TIP3    H227340   3.506   3.583   4.575
 9126TIP3   OH227341   5.055   1.168   0.087
 9126TIP3    H127342   5.090   1.098   0.143
 9126TIP3    H227343   5.133   1.211   0.052
 9127TIP3   OH227344   2.483   1.954   5.838
 9127TIP3    H127345   2.420   2.023   5.815
 9127TIP3    H227346   2.468   1.886   5.773
 9128TIP3   OH227347   2.775   0.917   1.049
 9128TIP3    H127348   2.818   0.970   0.982
 9128TIP3    H227349   2.844   0.897   1.113
 9129TIP3   OH227350   2.791   4.182   0.704
 9129TIP3    H127351   2.876   4.171   0.662
 9129TIP3    H227352   2.731   4.202   0.632
 9130TIP3   OH227353   1.496   6.535   0.615
 9130TIP3    H127354   1.509   6.626   0.640
 9130TIP3    H227355   1.403   6.529   0.593
 9131TIP3   OH227356   2.552   4.369   0.783
 9131TIP3    H127357   2.625   4.359   0.722
 9131TIP3    H227358   2.577   4.318   0.860
 9132TIP3   OH227359   7.063   2.709   1.671
 9132TIP3    H127360   7.152   2.741   1.683
 9132TIP3    H227361   7.034   2.684   1.759
 9133TIP3   OH227362   2.345   2.605   3.559
 9133TIP3    H127363   2.257   2.574   3.582
 9133TIP3    H227364   2.398   2.525   3.555
 9134TIP3   OH227365   1.828   5.509   0.997
 9134TIP3    H127366   1.735   5.488   1.003
 9134TIP3    H227367   1.840   5.542   0.908
 9135TIP3   OH227368   0.777   5.605   5.846
 9135TIP3    H127369   0.808   5.515   5.853
 9135TIP3    H227370   0.694   5.606   5.894
 9136TIP3   OH227371   3.960   6.677   1.769
 9136TIP3    H127372   3.964   6.751   1.708
 9136TIP3    H227373   3.878   6.633   1.748
 9137TIP3   OH227374   3.584   0.410   3.057
 9137TIP3    H127375   3.512   0.399   2.995
 9137TIP3    H227376   3.564   0.493   3.102
 9138TIP3   OH227377   6.261   6.206   5.617
 9138TIP3    H127378   6.230   6.202   5.527
 9138TIP3    H227379   6.252   6.117   5.650
 9139TIP3   OH227380   5.646   3.477   4.273
 9139TIP3    H127381   5.703   3.517   4.340
 9139TIP3    H227382   5.609   3.400   4.316
 9140TIP3   OH227383   2.898   4.726   3.660
 9140TIP3    H127384   2.987   4.760   3.664
 9140TIP3    H227385   2.880   4.718   3.566
 9141TIP3   OH227386   3.983   4.050   3.474
 9141TIP3    H127387   3.976   3.967   3.427
 9141TIP3    H227388   4.065   4.043   3.523
 9142TIP3   OH227389   6.611   0.282   5.916
 9142TIP3    H127390   6.518   0.273   5.935
 9142TIP3    H227391   6.615   0.355   5.854
 9143TIP3   OH227392   5.183   2.113   2.445
 9143TIP3    H127393   5.155   2.192   2.491
 9143TIP3    H227394   5.275   2.130   2.422
 9144TIP3   OH227395   6.173   0.443   1.297
 9144TIP3    H127396   6.175   0.352   1.269
 9144TIP3    H227397   6.107   0.445   1.367
 9145TIP3   OH227398   6.245   3.365   0.310
 9145TIP3    H127399   6.203   3.325   0.386
 9145TIP3    H227400   6.338   3.362   0.330
 9146TIP3   OH227401   4.871   2.725   0.731
 9146TIP3    H127402   4.966   2.735   0.722
 9146TIP3    H227403   4.861   2.677   0.814
 9147TIP3   OH227404   0.081   3.001   1.930
 9147TIP3    H127405  -0.002   2.959   1.907
 9147TIP3    H227406   0.070   3.026   2.022
 9148TIP3   OH227407   4.745   4.486   2.880
 9148TIP3    H127408   4.749   4.392   2.864
 9148TIP3    H227409   4.719   4.524   2.796
 9149TIP3   OH227410   4.461   2.615   1.018
 9149TIP3    H127411   4.420   2.540   1.062
 9149TIP3    H227412   4.492   2.579   0.935
 9150TIP3   OH227413   6.448   3.732   4.571
 9150TIP3    H127414   6.541   3.741   4.591
 9150TIP3    H227415   6.445   3.672   4.497
 9151TIP3   OH227416   6.882   3.407   5.223
 9151TIP3    H127417   6.839   3.420   5.139
 9151TIP3    H227418   6.852   3.320   5.251
 9152TIP3   OH227419   2.495   0.950   2.396
 9152TIP3    H127420   2.520   1.040   2.379
 9152TIP3    H227421   2.527   0.932   2.485
 9153TIP3   OH227422   2.891   4.747   5.184
 9153TIP3    H127423   2.857   4.749   5.095
 9153TIP3    H227424   2.907   4.839   5.206
 9154TIP3   OH227425   7.036   2.207   2.115
 9154TIP3    H127426   7.032   2.154   2.195
 9154TIP3    H227427   7.097   2.277   2.136
 9155TIP3   OH227428   1.024   2.137   5.780
 9155TIP3    H127429   0.939   2.105   5.812
 9155TIP3    H227430   1.035   2.095   5.695
 9156TIP3   OH227431   5.419   5.667   1.738
 9156TIP3    H127432   5.360   5.605   1.782
 9156TIP3    H227433   5.376   5.752   1.748
 9157TIP3   OH227434   4.945   5.959   2.465
 9157TIP3    H127435   4.928   5.866   2.448
 9157TIP3    H227436   4.887   5.981   2.538
 9158TIP3   OH227437   3.565   3.367   3.127
 9158TIP3    H127438   3.527   3.451   3.153
 9158TIP3    H227439   3.652   3.366   3.168
 9159TIP3   OH227440   1.025   2.884   0.397
 9159TIP3    H127441   0.929   2.887   0.391
 9159TIP3    H227442   1.054   2.871   0.306
 9160TIP3   OH227443   0.848   4.248   1.444
 9160TIP3    H127444   0.768   4.283   1.483
 9160TIP3    H227445   0.846   4.278   1.354
 9161TIP3   OH227446   5.425   1.881   5.013
 9161TIP3    H127447   5.436   1.805   5.070
 9161TIP3    H227448   5.514   1.906   4.989
 9162TIP3   OH227449   2.824   1.624   2.471
 9162TIP3    H127450   2.733   1.654   2.477
 9162TIP3    H227451   2.824   1.539   2.515
 9163TIP3   OH227452   5.239   0.414   4.345
 9163TIP3    H127453   5.325   0.396   4.382
 9163TIP3    H227454   5.224   0.507   4.362
 9164TIP3   OH227455   2.478   0.314   0.263
 9164TIP3    H127456   2.485   0.393   0.211
 9164TIP3    H227457   2.568   0.281   0.269
 9165TIP3   OH227458   2.071   6.204   2.838
 9165TIP3    H127459   2.162   6.182   2.820
 9165TIP3    H227460   2.026   6.193   2.754
 9166TIP3   OH227461   3.049   1.695   1.863
 9166TIP3    H127462   2.998   1.688   1.943
 9166TIP3    H227463   2.993   1.743   1.802
 9167TIP3   OH227464   5.262   6.187   3.798
 9167TIP3    H127465   5.247   6.094   3.776
 9167TIP3    H227466   5.283   6.187   3.891
 9168TIP3   OH227467   0.525   2.897   3.444
 9168TIP3    H127468   0.602   2.914   3.389
 9168TIP3    H227469   0.559   2.898   3.534
 9169TIP3   OH227470   4.296   5.410   2.773
 9169TIP3    H127471   4.262   5.427   2.686
 9169TIP3    H227472   4.229   5.443   2.833
 9170TIP3   OH227473   2.001   1.708   2.911
 9170TIP3    H127474   2.090   1.683   2.888
 9170TIP3    H227475   1.949   1.690   2.833
 9171TIP3   OH227476   5.543   1.482   0.094
 9171TIP3    H127477   5.631   1.512   0.114
 9171TIP3    H227478   5.535   1.397   0.136
 9172TIP3   OH227479   6.366   2.327   4.926
 9172TIP3    H127480   6.365   2.415   4.888
 9172TIP3    H227481   6.276   2.297   4.919
 9173TIP3   OH227482   5.965   4.853   0.833
 9173TIP3    H127483   5.900   4.794   0.869
 9173TIP3    H227484   6.049   4.809   0.848
 9174TIP3   OH227485   2.100   2.038   1.305
 9174TIP3    H127486   2.030   2.081   1.256
 9174TIP3    H227487   2.063   1.955   1.333
 9175TIP3   OH227488   2.459   2.381   4.141
 9175TIP3    H127489   2.457   2.393   4.236
 9175TIP3    H227490   2.528   2.440   4.110
 9176TIP3   OH227491   1.996   0.472   3.956
 9176TIP3    H127492   2.045   0.499   4.034
 9176TIP3    H227493   1.988   0.551   3.903
 9177TIP3   OH227494   2.140   5.381   1.372
 9177TIP3    H127495   2.136   5.330   1.453
 9177TIP3    H227496   2.062   5.354   1.323
 9178TIP3   OH227497   2.101   4.315   3.083
 9178TIP3    H127498   2.060   4.388   3.037
 9178TIP3    H227499   2.084   4.333   3.176
 9179TIP3   OH227500   2.274   5.626   0.308
 9179TIP3    H127501   2.179   5.633   0.296
 9179TIP3    H227502   2.309   5.704   0.265
 9180TIP3   OH227503   3.329   1.112   5.055
 9180TIP3    H127504   3.275   1.129   5.132
 9180TIP3    H227505   3.313   1.187   4.997
 9181TIP3   OH227506   6.179   1.766   3.350
 9181TIP3    H127507   6.122   1.840   3.329
 9181TIP3    H227508   6.220   1.743   3.266
 9182TIP3   OH227509   6.678   5.935   1.583
 9182TIP3    H127510   6.743   6.005   1.581
 9182TIP3    H227511   6.704   5.875   1.513
 9183TIP3   OH227512   3.801   6.873   0.954
 9183TIP3    H127513   3.721   6.819   0.953
 9183TIP3    H227514   3.872   6.811   0.937
 9184TIP3   OH227515   1.582   4.317   3.170
 9184TIP3    H127516   1.650   4.252   3.152
 9184TIP3    H227517   1.542   4.333   3.084
 9185TIP3   OH227518   6.288   5.350   4.358
 9185TIP3    H127519   6.343   5.361   4.435
 9185TIP3    H227520   6.350   5.353   4.284
 9186TIP3   OH227521   2.660   2.986   2.318
 9186TIP3    H127522   2.748   2.959   2.342
 9186TIP3    H227523   2.631   2.922   2.253
 9187TIP3   OH227524   3.479   2.943   4.250
 9187TIP3    H127525   3.388   2.913   4.247
 9187TIP3    H227526   3.516   2.919   4.165
 9188TIP3   OH227527   3.846   0.718   5.771
 9188TIP3    H127528   3.925   0.737   5.720
 9188TIP3    H227529   3.825   0.801   5.813
 9189TIP3   OH227530   6.707   5.493   2.641
 9189TIP3    H127531   6.736   5.407   2.612
 9189TIP3    H227532   6.725   5.551   2.567
 9190TIP3   OH227533   2.727   5.962   4.117
 9190TIP3    H127534   2.745   6.017   4.041
 9190TIP3    H227535   2.793   5.988   4.182
 9191TIP3   OH227536   0.064   0.059   0.287
 9191TIP3    H127537   0.021   0.101   0.213
 9191TIP3    H227538   0.122   0.126   0.323
 9192TIP3   OH227539   5.852   4.512   2.756
 9192TIP3    H127540   5.923   4.508   2.692
 9192TIP3    H227541   5.798   4.436   2.737
 9193TIP3   OH227542   4.124   1.464   2.541
 9193TIP3    H127543   4.035   1.498   2.551
 9193TIP3    H227544   4.159   1.510   2.465
 9194TIP3   OH227545   0.233   1.305   4.151
 9194TIP3    H127546   0.285   1.385   4.159
 9194TIP3    H227547   0.251   1.257   4.232
 9195TIP3   OH227548   6.166   1.334   3.551
 9195TIP3    H127549   6.138   1.385   3.475
 9195TIP3    H227550   6.250   1.372   3.575
 9196TIP3   OH227551   6.115   0.134   1.339
 9196TIP3    H127552   6.026   0.107   1.316
 9196TIP3    H227553   6.144   0.068   1.402
 9197TIP3   OH227554   4.817   1.691   4.120
 9197TIP3    H127555   4.829   1.687   4.215
 9197TIP3    H227556   4.841   1.781   4.097
 9198TIP3   OH227557   1.420   4.748   2.461
 9198TIP3    H127558   1.477   4.679   2.495
 9198TIP3    H227559   1.477   4.803   2.408
 9199TIP3   OH227560   4.149   4.060   4.143
 9199TIP3    H127561   4.165   3.969   4.171
 9199TIP3    H227562   4.179   4.062   4.052
 9200TIP3   OH227563   0.816   2.368   3.319
 9200TIP3    H127564   0.907   2.375   3.288
 9200TIP3    H227565   0.763   2.377   3.240
 9201TIP3   OH227566   5.122   1.667   1.214
 9201TIP3    H127567   5.119   1.755   1.250
 9201TIP3    H227568   5.035   1.631   1.228
 9202TIP3   OH227569   5.193   4.926   5.627
 9202TIP3    H127570   5.124   4.865   5.650
 9202TIP3    H227571   5.207   4.978   5.706
 9203TIP3   OH227572   4.774   3.484   0.972
 9203TIP3    H127573   4.771   3.517   1.062
 9203TIP3    H227574   4.811   3.396   0.981
 9204TIP3   OH227575   5.468   1.976   5.467
 9204TIP3    H127576   5.374   1.954   5.468
 9204TIP3    H227577   5.474   2.052   5.409
 9205TIP3   OH227578   2.863   6.657   2.957
 9205TIP3    H127579   2.854   6.710   3.036
 9205TIP3    H227580   2.943   6.606   2.970
 9206TIP3   OH227581   2.793   6.668   1.086
 9206TIP3    H127582   2.803   6.611   1.010
 9206TIP3    H227583   2.701   6.659   1.111
 9207TIP3   OH227584   2.015   2.997   4.025
 9207TIP3    H127585   2.092   3.029   3.978
 9207TIP3    H227586   2.045   2.985   4.116
 9208TIP3   OH227587   1.120   6.487   5.897
 9208TIP3    H127588   1.059   6.413   5.894
 9208TIP3    H227589   1.182   6.470   5.827
 9209TIP3   OH227590   0.731   1.828   4.434
 9209TIP3    H127591   0.747   1.745   4.390
 9209TIP3    H227592   0.813   1.848   4.478
 9210TIP3   OH227593   0.676   1.025   4.911
 9210TIP3    H127594   0.612   1.058   4.974
 9210TIP3    H227595   0.664   1.081   4.835
 9211TIP3   OH227596   4.813   0.161   2.963
 9211TIP3    H127597   4.718   0.167   2.956
 9211TIP3    H227598   4.831   0.178   3.056
 9212TIP3   OH227599   1.832   1.183   0.141
 9212TIP3    H127600   1.749   1.190   0.189
 9212TIP3    H227601   1.841   1.090   0.122
 9213TIP3   OH227602   2.664   2.753   0.336
 9213TIP3    H127603   2.729   2.683   0.337
 9213TIP3    H227604   2.676   2.796   0.251
 9214TIP3   OH227605   1.390   0.566   5.667
 9214TIP3    H127606   1.449   0.495   5.694
 9214TIP3    H227607   1.407   0.577   5.573
 9215TIP3   OH227608   4.388   0.347   0.516
 9215TIP3    H127609   4.318   0.295   0.558
 9215TIP3    H227610   4.409   0.415   0.581
 9216TIP3   OH227611   4.773   6.117   1.300
 9216TIP3    H127612   4.841   6.125   1.233
 9216TIP3    H227613   4.785   6.029   1.335
 9217TIP3   OH227614   3.468   6.425   0.901
 9217TIP3    H127615   3.394   6.368   0.882
 9217TIP3    H227616   3.533   6.369   0.942
 9218TIP3   OH227617   0.309   4.614   5.591
 9218TIP3    H127618   0.354   4.695   5.566
 9218TIP3    H227619   0.378   4.556   5.623
 9219TIP3   OH227620   3.043   1.872   2.947
 9219TIP3    H127621   2.957   1.842   2.975
 9219TIP3    H227622   3.028   1.961   2.915
 9220TIP3   OH227623   4.736   2.524   4.801
 9220TIP3    H127624   4.818   2.558   4.837
 9220TIP3    H227625   4.762   2.470   4.726
 9221TIP3   OH227626   6.218   5.913   5.476
 9221TIP3    H127627   6.215   5.906   5.572
 9221TIP3    H227628   6.145   5.970   5.454
 9222TIP3   OH227629   5.557   3.912   0.482
 9222TIP3    H127630   5.539   3.888   0.391
 9222TIP3    H227631   5.471   3.926   0.520
 9223TIP3   OH227632   3.219   3.156   3.201
 9223TIP3    H127633   3.262   3.193   3.124
 9223TIP3    H227634   3.245   3.214   3.273
 9224TIP3   OH227635   3.000   0.485   0.231
 9224TIP3    H127636   3.085   0.466   0.192
 9224TIP3    H227637   2.998   0.581   0.239
 9225TIP3   OH227638   6.237   0.311   4.595
 9225TIP3    H127639   6.170   0.242   4.590
 9225TIP3    H227640   6.319   0.263   4.607
 9226TIP3   OH227641   1.511   6.716   0.271
 9226TIP3    H127642   1.509   6.807   0.302
 9226TIP3    H227643   1.575   6.717   0.199
 9227TIP3   OH227644   6.807   0.513   1.239
 9227TIP3    H127645   6.869   0.560   1.295
 9227TIP3    H227646   6.731   0.497   1.294
 9228TIP3   OH227647   6.320   1.055   0.944
 9228TIP3    H127648   6.228   1.074   0.961
 9228TIP3    H227649   6.318   0.977   0.888
 9229TIP3   OH227650   6.037   5.247   3.555
 9229TIP3    H127651   5.988   5.169   3.583
 9229TIP3    H227652   6.052   5.233   3.461
 9230TIP3   OH227653   6.175   1.662   5.048
 9230TIP3    H127654   6.193   1.587   5.106
 9230TIP3    H227655   6.224   1.734   5.086
 9231TIP3   OH227656   5.880   4.389   5.718
 9231TIP3    H127657   5.969   4.413   5.741
 9231TIP3    H227658   5.887   4.356   5.628
 9232TIP3   OH227659   5.329   5.643   5.263
 9232TIP3    H127660   5.389   5.572   5.282
 9232TIP3    H227661   5.276   5.612   5.190
 9233TIP3   OH227662   1.498   1.748   2.577
 9233TIP3    H127663   1.505   1.840   2.603
 9233TIP3    H227664   1.406   1.736   2.554
 9234TIP3   OH227665   6.048   5.963   2.991
 9234TIP3    H127666   5.977   5.962   2.927
 9234TIP3    H227667   6.026   6.035   3.050
 9235TIP3   OH227668   6.864   2.451   2.751
 9235TIP3    H127669   6.848   2.359   2.771
 9235TIP3    H227670   6.788   2.479   2.701
 9236TIP3   OH227671   0.003   6.718   1.552
 9236TIP3    H127672   0.018   6.744   1.461
 9236TIP3    H227673  -0.092   6.720   1.562
 9237TIP3   OH227674   0.343   0.650   4.883
 9237TIP3    H127675   0.285   0.716   4.921
 9237TIP3    H227676   0.382   0.692   4.807
 9238TIP3   OH227677   1.382   0.574   1.574
 9238TIP3    H127678   1.478   0.575   1.568
 9238TIP3    H227679   1.359   0.481   1.574
 9239TIP3   OH227680   5.054   1.772   4.844
 9239TIP3    H127681   5.113   1.832   4.889
 9239TIP3    H227682   5.025   1.711   4.912
 9240TIP3   OH227683   4.431   1.557   1.384
 9240TIP3    H127684   4.410   1.468   1.413
 9240TIP3    H227685   4.448   1.605   1.465
 9241TIP3   OH227686   3.206   0.607   2.504
 9241TIP3    H127687   3.164   0.625   2.589
 9241TIP3    H227688   3.235   0.516   2.510
 9242TIP3   OH227689   6.866   3.601   2.639
 9242TIP3    H127690   6.897   3.690   2.656
 9242TIP3    H227691   6.788   3.612   2.585
 9243TIP3   OH227692   3.090   3.646   2.114
 9243TIP3    H127693   3.127   3.634   2.202
 9243TIP3    H227694   3.018   3.582   2.110
 9244TIP3   OH227695   2.836   0.454   5.061
 9244TIP3    H127696   2.921   0.497   5.072
 9244TIP3    H227697   2.803   0.487   4.977
 9245TIP3   OH227698   2.596   2.374   4.918
 9245TIP3    H127699   2.672   2.354   4.862
 9245TIP3    H227700   2.520   2.350   4.865
 9246TIP3   OH227701   4.500   4.459   3.011
 9246TIP3    H127702   4.445   4.498   2.943
 9246TIP3    H227703   4.588   4.457   2.973
 9247TIP3   OH227704   6.835   0.572   0.472
 9247TIP3    H127705   6.879   0.645   0.516
 9247TIP3    H227706   6.859   0.495   0.523
 9248TIP3   OH227707   5.401   5.433   1.323
 9248TIP3    H127708   5.327   5.376   1.302
 9248TIP3    H227709   5.361   5.512   1.360
 9249TIP3   OH227710   2.999   0.983   4.000
 9249TIP3    H127711   2.906   0.972   3.981
 9249TIP3    H227712   3.001   1.009   4.092
 9250TIP3   OH227713   6.011   2.766   2.746
 9250TIP3    H127714   5.924   2.763   2.706
 9250TIP3    H227715   6.071   2.760   2.672
 9251TIP3   OH227716   6.382   6.262   0.378
 9251TIP3    H127717   6.391   6.355   0.359
 9251TIP3    H227718   6.290   6.252   0.402
 9252TIP3   OH227719   2.719   5.508   5.663
 9252TIP3    H127720   2.801   5.459   5.651
 9252TIP3    H227721   2.650   5.444   5.644
 9253TIP3   OH227722   7.214   3.361   2.541
 9253TIP3    H127723   7.142   3.388   2.597
 9253TIP3    H227724   7.236   3.273   2.569
 9254TIP3   OH227725   6.356   3.871   3.526
 9254TIP3    H127726   6.399   3.923   3.594
 9254TIP3    H227727   6.369   3.920   3.445
 9255TIP3   OH227728   5.099   1.141   2.769
 9255TIP3    H127729   5.083   1.136   2.864
 9255TIP3    H227730   5.159   1.214   2.759
 9256TIP3   OH227731   1.040   5.570   2.085
 9256TIP3    H127732   0.982   5.645   2.080
 9256TIP3    H227733   1.107   5.595   2.149
 9257TIP3   OH227734   0.085   2.820   2.221
 9257TIP3    H127735   0.099   2.913   2.208
 9257TIP3    H227736   0.117   2.779   2.141
 9258TIP3   OH227737   3.807   2.499   0.670
 9258TIP3    H127738   3.741   2.447   0.715
 9258TIP3    H227739   3.888   2.448   0.679
 9259TIP3   OH227740   3.845   4.451   0.213
 9259TIP3    H127741   3.860   4.362   0.183
 9259TIP3    H227742   3.882   4.453   0.301
 9260TIP3   OH227743   2.773   4.576   2.275
 9260TIP3    H127744   2.800   4.526   2.352
 9260TIP3    H227745   2.786   4.668   2.300
 9261TIP3   OH227746   2.870   2.577   0.051
 9261TIP3    H127747   2.904   2.599   0.138
 9261TIP3    H227748   2.924   2.504   0.023
 9262TIP3   OH227749   6.396   4.371   0.115
 9262TIP3    H127750   6.412   4.465   0.130
 9262TIP3    H227751   6.464   4.345   0.053
 9263TIP3   OH227752   3.667   5.744   1.822
 9263TIP3    H127753   3.722   5.729   1.898
 9263TIP3    H227754   3.661   5.659   1.779
 9264TIP3   OH227755   6.333   6.593   5.406
 9264TIP3    H127756   6.267   6.613   5.472
 9264TIP3    H227757   6.380   6.675   5.394
 9265TIP3   OH227758   2.139   5.329   2.165
 9265TIP3    H127759   2.119   5.406   2.111
 9265TIP3    H227760   2.054   5.295   2.192
 9266TIP3   OH227761   2.585   2.492   3.888
 9266TIP3    H127762   2.597   2.435   3.812
 9266TIP3    H227763   2.517   2.450   3.940
 9267TIP3   OH227764   4.445   1.353   0.679
 9267TIP3    H127765   4.388   1.400   0.740
 9267TIP3    H227766   4.468   1.273   0.725
 9268TIP3   OH227767   1.281   0.369   1.814
 9268TIP3    H127768   1.357   0.343   1.760
 9268TIP3    H227769   1.207   0.363   1.754
 9269TIP3   OH227770   6.811   2.200   3.271
 9269TIP3    H127771   6.879   2.207   3.204
 9269TIP3    H227772   6.815   2.284   3.317
 9270TIP3   OH227773   2.380   1.564   5.577
 9270TIP3    H127774   2.300   1.512   5.572
 9270TIP3    H227775   2.417   1.560   5.489
 9271TIP3   OH227776   2.704   4.394   3.597
 9271TIP3    H127777   2.646   4.365   3.527
 9271TIP3    H227778   2.659   4.469   3.637
 9272TIP3   OH227779   2.065   4.656   5.726
 9272TIP3    H127780   2.047   4.750   5.735
 9272TIP3    H227781   2.157   4.651   5.701
 9273TIP3   OH227782   2.751   3.405   5.169
 9273TIP3    H127783   2.664   3.442   5.185
 9273TIP3    H227784   2.755   3.396   5.074
 9274TIP3   OH227785   2.040   5.585   5.169
 9274TIP3    H127786   2.120   5.550   5.208
 9274TIP3    H227787   2.070   5.629   5.090
 9275TIP3   OH227788   4.482   0.903   0.362
 9275TIP3    H127789   4.556   0.863   0.408
 9275TIP3    H227790   4.512   0.912   0.271
 9276TIP3   OH227791   5.373   5.785   4.741
 9276TIP3    H127792   5.432   5.718   4.776
 9276TIP3    H227793   5.292   5.738   4.720
 9277TIP3   OH227794   0.339   3.994   0.060
 9277TIP3    H127795   0.419   3.984   0.113
 9277TIP3    H227796   0.370   4.031  -0.023
 9278TIP3   OH227797   6.147   2.750   2.494
 9278TIP3    H127798   6.239   2.727   2.507
 9278TIP3    H227799   6.149   2.836   2.454
 9279TIP3   OH227800   3.885   0.158   2.698
 9279TIP3    H127801   3.857   0.083   2.751
 9279TIP3    H227802   3.980   0.161   2.708
 9280TIP3   OH227803   5.111   5.496   5.087
 9280TIP3    H127804   5.036   5.506   5.146
 9280TIP3    H227805   5.074   5.505   4.999
 9281TIP3   OH227806   2.084   6.201   4.460
 9281TIP3    H127807   2.175   6.172   4.470
 9281TIP3    H227808   2.031   6.126   4.490
 9282TIP3   OH227809   6.230   1.904   3.854
 9282TIP3    H127810   6.237   1.947   3.939
 9282TIP3    H227811   6.278   1.962   3.794
 9283TIP3   OH227812   3.732   6.528   1.822
 9283TIP3    H127813   3.666   6.459   1.830
 9283TIP3    H227814   3.710   6.589   1.892
 9284TIP3   OH227815   5.795   3.562   3.751
 9284TIP3    H127816   5.880   3.553   3.708
 9284TIP3    H227817   5.776   3.656   3.750
 9285TIP3   OH227818   6.270   6.408   2.279
 9285TIP3    H127819   6.175   6.392   2.283
 9285TIP3    H227820   6.293   6.389   2.188
 9286TIP3   OH227821   6.691   0.874   4.322
 9286TIP3    H127822   6.747   0.951   4.316
 9286TIP3    H227823   6.748   0.801   4.297
 9287TIP3   OH227824   4.912   5.742   2.896
 9287TIP3    H127825   4.914   5.661   2.845
 9287TIP3    H227826   4.982   5.796   2.859
 9288TIP3   OH227827   7.006   2.979   0.599
 9288TIP3    H127828   6.944   3.030   0.546
 9288TIP3    H227829   6.970   2.890   0.599
 9289TIP3   OH227830   5.915   0.700   2.542
 9289TIP3    H127831   5.863   0.640   2.596
 9289TIP3    H227832   5.999   0.706   2.587
 9290TIP3   OH227833   1.927   1.573   3.667
 9290TIP3    H127834   1.959   1.627   3.595
 9290TIP3    H227835   1.984   1.497   3.666
 9291TIP3   OH227836   2.213   1.724   3.734
 9291TIP3    H127837   2.160   1.755   3.807
 9291TIP3    H227838   2.266   1.800   3.708
 9292TIP3   OH227839   6.327   1.830   5.220
 9292TIP3    H127840   6.402   1.824   5.280
 9292TIP3    H227841   6.324   1.922   5.195
 9293TIP3   OH227842   3.633   4.318   1.125
 9293TIP3    H127843   3.542   4.335   1.149
 9293TIP3    H227844   3.641   4.223   1.127
 9294TIP3   OH227845   1.453   0.549   5.404
 9294TIP3    H127846   1.389   0.550   5.333
 9294TIP3    H227847   1.531   0.590   5.366
 9295TIP3   OH227848   4.358   1.479   0.190
 9295TIP3    H127849   4.413   1.539   0.139
 9295TIP3    H227850   4.382   1.495   0.281
 9296TIP3   OH227851   1.698   6.686   5.370
 9296TIP3    H127852   1.638   6.719   5.302
 9296TIP3    H227853   1.785   6.703   5.335
 9297TIP3   OH227854   2.548   3.964   5.088
 9297TIP3    H127855   2.629   3.986   5.042
 9297TIP3    H227856   2.490   3.929   5.020
 9298TIP3   OH227857   0.428   1.736   3.931
 9298TIP3    H127858   0.406   1.802   3.865
 9298TIP3    H227859   0.458   1.786   4.007
 9299TIP3   OH227860   4.436   4.872   3.360
 9299TIP3    H127861   4.389   4.809   3.415
 9299TIP3    H227862   4.417   4.844   3.270
 9300TIP3   OH227863   1.374   0.070   3.733
 9300TIP3    H127864   1.373  -0.016   3.690
 9300TIP3    H227865   1.423   0.055   3.814
 9301TIP3   OH227866   0.091   1.464   2.655
 9301TIP3    H127867   0.000   1.481   2.631
 9301TIP3    H227868   0.134   1.550   2.647
 9302TIP3   OH227869   3.082   6.481   3.033
 9302TIP3    H127870   3.060   6.403   2.981
 9302TIP3    H227871   3.120   6.446   3.113
 9303TIP3   OH227872   3.337   6.595   0.189
 9303TIP3    H127873   3.305   6.572   0.102
 9303TIP3    H227874   3.402   6.663   0.173
 9304TIP3   OH227875   6.262   2.307   0.456
 9304TIP3    H127876   6.201   2.255   0.404
 9304TIP3    H227877   6.256   2.270   0.544
 9305TIP3   OH227878   2.696   0.877   1.864
 9305TIP3    H127879   2.682   0.946   1.799
 9305TIP3    H227880   2.760   0.818   1.824
 9306TIP3   OH227881   5.212   3.944   3.967
 9306TIP3    H127882   5.299   3.914   3.994
 9306TIP3    H227883   5.205   3.919   3.875
 9307TIP3   OH227884   1.525   1.564   0.471
 9307TIP3    H127885   1.598   1.505   0.493
 9307TIP3    H227886   1.448   1.507   0.468
 9308TIP3   OH227887   4.825   3.278   2.676
 9308TIP3    H127888   4.892   3.228   2.631
 9308TIP3    H227889   4.762   3.213   2.707
 9309TIP3   OH227890   0.020   1.671   2.039
 9309TIP3    H127891   0.112   1.648   2.054
 9309TIP3    H227892  -0.005   1.621   1.961
 9310TIP3   OH227893   2.884   3.458   1.987
 9310TIP3    H127894   2.862   3.392   2.053
 9310TIP3    H227895   2.814   3.523   1.993
 9311TIP3   OH227896   4.665   6.398   1.070
 9311TIP3    H127897   4.586   6.397   1.016
 9311TIP3    H227898   4.640   6.445   1.149
 9312TIP3   OH227899   6.099   2.997   5.923
 9312TIP3    H127900   6.033   2.980   5.990
 9312TIP3    H227901   6.051   2.999   5.841
 9313TIP3   OH227902   6.046   0.622   4.807
 9313TIP3    H127903   6.046   0.716   4.790
 9313TIP3    H227904   6.125   0.590   4.762
 9314TIP3   OH227905   6.814   0.318   5.622
 9314TIP3    H127906   6.785   0.378   5.554
 9314TIP3    H227907   6.909   0.331   5.628
 9315TIP3   OH227908   5.428   3.677   5.343
 9315TIP3    H127909   5.393   3.760   5.373
 9315TIP3    H227910   5.451   3.630   5.424
 9316TIP3   OH227911   2.744   6.311   1.903
 9316TIP3    H127912   2.752   6.344   1.814
 9316TIP3    H227913   2.680   6.368   1.945
 9317TIP3   OH227914   6.480   4.023   0.777
 9317TIP3    H127915   6.562   3.978   0.756
 9317TIP3    H227916   6.456   4.069   0.696
 9318TIP3   OH227917   2.879   1.632   5.294
 9318TIP3    H127918   2.929   1.552   5.309
 9318TIP3    H227919   2.916   1.696   5.355
 9319TIP3   OH227920   2.977   5.766   0.058
 9319TIP3    H127921   2.959   5.791  -0.032
 9319TIP3    H227922   2.997   5.848   0.103
 9320TIP3   OH227923   3.787   3.384   0.081
 9320TIP3    H127924   3.809   3.477   0.093
 9320TIP3    H227925   3.829   3.340   0.155
 9321TIP3   OH227926   2.887   5.636   1.209
 9321TIP3    H127927   2.880   5.543   1.192
 9321TIP3    H227928   2.875   5.677   1.123
 9322TIP3   OH227929   4.472   4.604   3.669
 9322TIP3    H127930   4.561   4.637   3.669
 9322TIP3    H227931   4.438   4.627   3.582
 9323TIP3   OH227932   4.234   3.648   1.039
 9323TIP3    H127933   4.241   3.552   1.039
 9323TIP3    H227934   4.317   3.677   1.079
 9324TIP3   OH227935   4.922   5.134   4.862
 9324TIP3    H127936   4.898   5.201   4.925
 9324TIP3    H227937   4.840   5.088   4.843
 9325TIP3   OH227938   4.169   3.814   5.722
 9325TIP3    H127939   4.253   3.827   5.767
 9325TIP3    H227940   4.113   3.774   5.788
 9326TIP3   OH227941   3.780   4.715   0.144
 9326TIP3    H127942   3.795   4.621   0.156
 9326TIP3    H227943   3.723   4.740   0.217
 9327TIP3   OH227944   1.551   0.951   4.776
 9327TIP3    H127945   1.643   0.975   4.779
 9327TIP3    H227946   1.515   0.983   4.859
 9328TIP3   OH227947   1.964   6.350   2.389
 9328TIP3    H127948   1.970   6.277   2.451
 9328TIP3    H227949   2.043   6.341   2.335
 9329TIP3   OH227950   4.449   2.485   5.331
 9329TIP3    H127951   4.461   2.485   5.236
 9329TIP3    H227952   4.458   2.393   5.356
 9330TIP3   OH227953   3.193   6.541   2.766
 9330TIP3    H127954   3.220   6.612   2.825
 9330TIP3    H227955   3.215   6.461   2.814
 9331TIP3   OH227956   6.358   0.071   2.365
 9331TIP3    H127957   6.403   0.022   2.297
 9331TIP3    H227958   6.378   0.163   2.345
 9332TIP3   OH227959   1.995   3.462   4.078
 9332TIP3    H127960   1.957   3.375   4.093
 9332TIP3    H227961   1.928   3.509   4.029
 9333TIP3   OH227962   5.221   0.175   3.863
 9333TIP3    H127963   5.262   0.133   3.938
 9333TIP3    H227964   5.133   0.137   3.859
 9334TIP3   OH227965   1.853   3.800   2.872
 9334TIP3    H127966   1.932   3.756   2.903
 9334TIP3    H227967   1.885   3.866   2.810
 9335TIP3   OH227968   1.654   4.505   4.322
 9335TIP3    H127969   1.677   4.495   4.414
 9335TIP3    H227970   1.713   4.573   4.289
 9336TIP3   OH227971   0.778   4.578   0.180
 9336TIP3    H127972   0.710   4.640   0.155
 9336TIP3    H227973   0.853   4.632   0.204
 9337TIP3   OH227974   2.274   2.696   5.112
 9337TIP3    H127975   2.187   2.660   5.099
 9337TIP3    H227976   2.327   2.660   5.040
 9338TIP3   OH227977   6.124   0.224   2.897
 9338TIP3    H127978   6.122   0.266   2.811
 9338TIP3    H227979   6.161   0.138   2.881
 9339TIP3   OH227980   5.756   5.868   5.637
 9339TIP3    H127981   5.718   5.788   5.602
 9339TIP3    H227982   5.681   5.925   5.654
 9340TIP3   OH227983   0.821   3.743   1.352
 9340TIP3    H127984   0.908   3.782   1.354
 9340TIP3    H227985   0.761   3.817   1.359
 9341TIP3   OH227986   2.147   6.399   4.740
 9341TIP3    H127987   2.199   6.372   4.665
 9341TIP3    H227988   2.138   6.494   4.731
 9342TIP3   OH227989   6.327   0.012   4.175
 9342TIP3    H127990   6.400   0.047   4.228
 9342TIP3    H227991   6.291  -0.059   4.228
 9343TIP3   OH227992   7.096   0.719   4.439
 9343TIP3    H127993   7.025   0.731   4.376
 9343TIP3    H227994   7.118   0.807   4.468
 9344TIP3   OH227995   6.768   0.222   4.409
 9344TIP3    H127996   6.815   0.231   4.326
 9344TIP3    H227997   6.835   0.231   4.476
 9345TIP3   OH227998   4.315   3.126   1.605
 9345TIP3    H127999   4.382   3.193   1.611
 9345TIP3    H228000   4.306   3.092   1.694
 9346TIP3   OH228001   1.638   3.850   2.483
 9346TIP3    H128002   1.549   3.822   2.464
 9346TIP3    H228003   1.680   3.858   2.397
 9347TIP3   OH228004   1.062   6.575   4.960
 9347TIP3    H128005   1.050   6.632   5.036
 9347TIP3    H228006   1.018   6.620   4.888
 9348TIP3   OH228007   2.052   4.585   4.215
 9348TIP3    H128008   2.086   4.496   4.222
 9348TIP3    H228009   2.128   4.639   4.193
 9349TIP3   OH228010   1.022   3.310   5.565
 9349TIP3    H128011   0.947   3.293   5.507
 9349TIP3    H228012   1.083   3.238   5.548
 9350TIP3   OH228013   1.251   0.018   1.739
 9350TIP3    H128014   1.209   0.103   1.752
 9350TIP3    H228015   1.195  -0.044   1.785
 9351TIP3   OH228016   6.856   3.115   5.791
 9351TIP3    H128017   6.926   3.125   5.727
 9351TIP3    H228018   6.790   3.061   5.747
 9352TIP3   OH228019   1.353   0.944   3.548
 9352TIP3    H128020   1.416   0.977   3.611
 9352TIP3    H228021   1.291   1.015   3.536
 9353TIP3   OH228022   4.963   2.372   3.370
 9353TIP3    H128023   4.934   2.315   3.442
 9353TIP3    H228024   4.905   2.349   3.297
 9354TIP3   OH228025   0.448   0.837   0.559
 9354TIP3    H128026   0.540   0.854   0.537
 9354TIP3    H228027   0.438   0.871   0.647
 9355TIP3   OH228028   1.377   6.537   3.602
 9355TIP3    H128029   1.450   6.599   3.609
 9355TIP3    H228030   1.384   6.502   3.514
 9356TIP3   OH228031   3.559   6.042   4.465
 9356TIP3    H128032   3.626   6.094   4.421
 9356TIP3    H228033   3.491   6.029   4.399
 9357TIP3   OH228034   0.403   5.170   4.476
 9357TIP3    H128035   0.318   5.145   4.441
 9357TIP3    H228036   0.460   5.096   4.455
 9358TIP3   OH228037   1.174   1.330   5.264
 9358TIP3    H128038   1.179   1.301   5.172
 9358TIP3    H228039   1.264   1.357   5.285
 9359TIP3   OH228040   6.004   2.459   4.703
 9359TIP3    H128041   5.987   2.540   4.653
 9359TIP3    H228042   5.966   2.476   4.789
 9360TIP3   OH228043   1.759   1.624   2.413
 9360TIP3    H128044   1.827   1.676   2.369
 9360TIP3    H228045   1.768   1.646   2.505
 9361TIP3   OH228046   5.423   0.756   1.285
 9361TIP3    H128047   5.501   0.761   1.340
 9361TIP3    H228048   5.374   0.836   1.305
 9362TIP3   OH228049   1.003   3.105   0.667
 9362TIP3    H128050   1.010   3.023   0.716
 9362TIP3    H228051   1.063   3.092   0.593
 9363TIP3   OH228052   5.543   5.675   4.504
 9363TIP3    H128053   5.473   5.695   4.566
 9363TIP3    H228054   5.508   5.603   4.451
 9364TIP3   OH228055   6.048   4.839   2.362
 9364TIP3    H128056   6.135   4.806   2.382
 9364TIP3    H228057   6.044   4.845   2.267
 9365TIP3   OH228058   2.578   6.518   0.264
 9365TIP3    H128059   2.516   6.536   0.194
 9365TIP3    H228060   2.524   6.512   0.343
 9366TIP3   OH228061   4.975   0.214   1.438
 9366TIP3    H128062   5.001   0.151   1.371
 9366TIP3    H228063   5.008   0.176   1.520
 9367TIP3   OH228064   4.275   1.182   1.735
 9367TIP3    H128065   4.199   1.123   1.740
 9367TIP3    H228066   4.291   1.192   1.641
 9368TIP3   OH228067   6.418   5.764   1.069
 9368TIP3    H128068   6.401   5.790   1.160
 9368TIP3    H228069   6.511   5.780   1.057
 9369TIP3   OH228070   3.844   6.468   1.137
 9369TIP3    H128071   3.902   6.486   1.211
 9369TIP3    H228072   3.757   6.490   1.169
 9370TIP3   OH228073   0.051   1.593   0.744
 9370TIP3    H128074   0.005   1.545   0.676
 9370TIP3    H228075   0.076   1.527   0.808
 9371TIP3   OH228076   1.198   1.681   3.758
 9371TIP3    H128077   1.262   1.718   3.819
 9371TIP3    H228078   1.219   1.721   3.674
 9372TIP3   OH228079   4.557   6.358   0.760
 9372TIP3    H128080   4.475   6.352   0.809
 9372TIP3    H228081   4.564   6.275   0.715
 9373TIP3   OH228082   3.592   2.464   4.782
 9373TIP3    H128083   3.613   2.477   4.875
 9373TIP3    H228084   3.498   2.480   4.776
 9374TIP3   OH228085   4.053   6.551   2.800
 9374TIP3    H128086   4.122   6.612   2.825
 9374TIP3    H228087   3.978   6.576   2.853
 9375TIP3   OH228088   5.559   0.907   0.247
 9375TIP3    H128089   5.475   0.938   0.213
 9375TIP3    H228090   5.619   0.917   0.173
 9376TIP3   OH228091   3.667   6.694   5.137
 9376TIP3    H128092   3.646   6.651   5.054
 9376TIP3    H228093   3.674   6.623   5.200
 9377TIP3   OH228094   1.170   1.024   5.852
 9377TIP3    H128095   1.193   1.081   5.779
 9377TIP3    H228096   1.214   0.941   5.833
 9378TIP3   OH228097   1.195   0.368   1.524
 9378TIP3    H128098   1.199   0.282   1.481
 9378TIP3    H228099   1.107   0.400   1.505
 9379TIP3   OH228100   1.213   0.788   2.617
 9379TIP3    H128101   1.306   0.809   2.606
 9379TIP3    H228102   1.177   0.863   2.664
 9380TIP3   OH228103   6.520   4.422   2.439
 9380TIP3    H128104   6.445   4.431   2.382
 9380TIP3    H228105   6.508   4.337   2.482
 9381TIP3   OH228106   4.011   3.261   3.947
 9381TIP3    H128107   3.961   3.207   3.885
 9381TIP3    H228108   3.958   3.261   4.026
 9382TIP3   OH228109   3.731   1.740   5.274
 9382TIP3    H128110   3.793   1.813   5.268
 9382TIP3    H228111   3.782   1.663   5.252
 9383TIP3   OH228112   5.810   1.892   2.760
 9383TIP3    H128113   5.779   1.888   2.670
 9383TIP3    H228114   5.730   1.896   2.813
 9384TIP3   OH228115   2.524   6.579   4.959
 9384TIP3    H128116   2.538   6.643   5.029
 9384TIP3    H228117   2.612   6.564   4.923
 9385TIP3   OH228118   2.741   3.845   4.033
 9385TIP3    H128119   2.796   3.922   4.017
 9385TIP3    H228120   2.657   3.867   3.992
 9386TIP3   OH228121   2.445   0.939   3.958
 9386TIP3    H128122   2.361   0.893   3.957
 9386TIP3    H228123   2.427   1.023   3.915
 9387TIP3   OH228124   3.375   5.981   3.826
 9387TIP3    H128125   3.358   5.887   3.835
 9387TIP3    H228126   3.323   6.021   3.896
 9388TIP3   OH228127   6.012   6.647   1.257
 9388TIP3    H128128   6.072   6.719   1.237
 9388TIP3    H228129   5.949   6.685   1.319
 9389TIP3   OH228130   3.862   3.086   3.775
 9389TIP3    H128131   3.897   3.005   3.738
 9389TIP3    H228132   3.768   3.083   3.756
 9390TIP3   OH228133   5.722   3.465   2.650
 9390TIP3    H128134   5.720   3.465   2.745
 9390TIP3    H228135   5.684   3.381   2.624
 9391TIP3   OH228136   2.921   2.164   2.629
 9391TIP3    H128137   2.922   2.135   2.721
 9391TIP3    H228138   2.837   2.210   2.620
 9392TIP3   OH228139   0.495   3.756   3.625
 9392TIP3    H128140   0.470   3.685   3.566
 9392TIP3    H228141   0.504   3.833   3.568
 9393TIP3   OH228142   6.999   4.940   2.258
 9393TIP3    H128143   7.086   4.977   2.268
 9393TIP3    H228144   7.008   4.875   2.188
 9394TIP3   OH228145   0.930   3.361   2.761
 9394TIP3    H128146   0.931   3.453   2.735
 9394TIP3    H228147   1.015   3.327   2.736
 9395TIP3   OH228148   1.080   6.096   3.232
 9395TIP3    H128149   1.049   6.159   3.297
 9395TIP3    H228150   1.066   6.010   3.273
 9396TIP3   OH228151   6.186   6.459   4.830
 9396TIP3    H128152   6.226   6.392   4.775
 9396TIP3    H228153   6.138   6.515   4.769
 9397TIP3   OH228154   0.571   0.249   3.366
 9397TIP3    H128155   0.530   0.322   3.318
 9397TIP3    H228156   0.573   0.177   3.303
 9398TIP3   OH228157   3.696   0.867   5.283
 9398TIP3    H128158   3.723   0.813   5.209
 9398TIP3    H228159   3.613   0.906   5.255
 9399TIP3   OH228160   1.487  -0.004   5.201
 9399TIP3    H128161   1.462   0.077   5.246
 9399TIP3    H228162   1.574   0.014   5.166
 9400TIP3   OH228163   6.250   6.074   4.374
 9400TIP3    H128164   6.219   6.053   4.287
 9400TIP3    H228165   6.286   6.163   4.366
 9401TIP3   OH228166   3.420   5.978   1.573
 9401TIP3    H128167   3.391   6.063   1.541
 9401TIP3    H228168   3.371   5.915   1.520
 9402TIP3   OH228169   1.588   1.283   4.696
 9402TIP3    H128170   1.553   1.217   4.637
 9402TIP3    H228171   1.674   1.305   4.660
 9403TIP3   OH228172   3.494   1.686   0.697
 9403TIP3    H128173   3.398   1.685   0.701
 9403TIP3    H228174   3.522   1.634   0.772
 9404TIP3   OH228175   7.198   4.683   2.801
 9404TIP3    H128176   7.252   4.696   2.722
 9404TIP3    H228177   7.109   4.702   2.772
 9405TIP3   OH228178   3.098   2.668   2.967
 9405TIP3    H128179   3.008   2.692   2.947
 9405TIP3    H228180   3.140   2.751   2.991
 9406TIP3   OH228181   3.702   1.496   4.451
 9406TIP3    H128182   3.665   1.533   4.371
 9406TIP3    H228183   3.787   1.538   4.460
 9407TIP3   OH228184   2.933   0.975   3.491
 9407TIP3    H128185   2.950   0.917   3.417
 9407TIP3    H228186   2.972   0.930   3.566
 9408TIP3   OH228187   3.313   0.441   5.541
 9408TIP3    H128188   3.261   0.495   5.600
 9408TIP3    H228189   3.325   0.358   5.588
 9409TIP3   OH228190   0.985   6.088   0.917
 9409TIP3    H128191   1.057   6.130   0.869
 9409TIP3    H228192   1.026   6.011   0.957
 9410TIP3   OH228193   1.557   3.523   1.196
 9410TIP3    H128194   1.611   3.578   1.139
 9410TIP3    H228195   1.619   3.464   1.238
 9411TIP3   OH228196   2.043   5.220   2.478
 9411TIP3    H128197   2.065   5.127   2.469
 9411TIP3    H228198   1.973   5.234   2.415
 9412TIP3   OH228199   2.299   2.323   5.047
 9412TIP3    H128200   2.257   2.248   5.088
 9412TIP3    H228201   2.389   2.294   5.031
 9413TIP3   OH228202   1.412   2.401   3.990
 9413TIP3    H128203   1.482   2.401   4.056
 9413TIP3    H228204   1.442   2.461   3.922
 9414TIP3   OH228205   6.855   5.218   0.942
 9414TIP3    H128206   6.823   5.234   1.031
 9414TIP3    H228207   6.883   5.126   0.942
 9415TIP3   OH228208   3.290   0.604   3.649
 9415TIP3    H128209   3.286   0.514   3.680
 9415TIP3    H228210   3.288   0.597   3.554
 9416TIP3   OH228211   1.536   2.225   0.741
 9416TIP3    H128212   1.447   2.248   0.765
 9416TIP3    H228213   1.577   2.197   0.823
 9417TIP3   OH228214   1.719   4.998   2.098
 9417TIP3    H128215   1.649   5.054   2.132
 9417TIP3    H228216   1.791   5.059   2.080
 9418TIP3   OH228217   1.113   4.270   3.444
 9418TIP3    H128218   1.110   4.359   3.478
 9418TIP3    H228219   1.206   4.245   3.450
 9419TIP3   OH228220   1.967   3.861   4.138
 9419TIP3    H128221   2.003   3.897   4.219
 9419TIP3    H228222   1.898   3.801   4.167
 9420TIP3   OH228223   0.145   2.611   5.243
 9420TIP3    H128224   0.224   2.656   5.274
 9420TIP3    H228225   0.174   2.521   5.226
 9421TIP3   OH228226   6.977   2.158   4.382
 9421TIP3    H128227   6.894   2.155   4.429
 9421TIP3    H228228   7.042   2.129   4.446
 9422TIP3   OH228229   2.019   3.910   3.476
 9422TIP3    H128230   2.037   3.816   3.482
 9422TIP3    H228231   2.104   3.949   3.453
 9423TIP3   OH228232   4.131   5.470   2.534
 9423TIP3    H128233   4.130   5.535   2.604
 9423TIP3    H228234   4.041   5.469   2.502
 9424TIP3   OH228235   4.555   5.166   2.597
 9424TIP3    H128236   4.495   5.237   2.572
 9424TIP3    H228237   4.598   5.140   2.515
 9425TIP3   OH228238   4.813   1.655   0.548
 9425TIP3    H128239   4.756   1.618   0.481
 9425TIP3    H228240   4.796   1.602   0.626
 9426TIP3   OH228241   3.873   4.298   0.983
 9426TIP3    H128242   3.806   4.297   1.052
 9426TIP3    H228243   3.935   4.230   1.008
 9427TIP3   OH228244   2.164   0.271   0.475
 9427TIP3    H128245   2.099   0.312   0.532
 9427TIP3    H228246   2.114   0.242   0.399
 9428TIP3   OH228247   3.314   4.262   1.096
 9428TIP3    H128248   3.274   4.177   1.113
 9428TIP3    H228249   3.365   4.249   1.016
 9429TIP3   OH228250   0.789   3.783   3.299
 9429TIP3    H128251   0.764   3.831   3.220
 9429TIP3    H228252   0.738   3.825   3.369
 9430TIP3   OH228253   4.343   5.059   3.999
 9430TIP3    H128254   4.312   4.998   4.066
 9430TIP3    H228255   4.408   5.009   3.949
 9431TIP3   OH228256   1.269   0.667   4.475
 9431TIP3    H128257   1.268   0.705   4.387
 9431TIP3    H228258   1.189   0.614   4.478
 9432TIP3   OH228259   4.934   3.295   2.916
 9432TIP3    H128260   4.892   3.265   2.835
 9432TIP3    H228261   5.007   3.349   2.886
 9433TIP3   OH228262   1.409   6.407   2.689
 9433TIP3    H128263   1.405   6.477   2.754
 9433TIP3    H228264   1.331   6.353   2.706
 9434TIP3   OH228265   5.437   5.068   3.912
 9434TIP3    H128266   5.444   5.123   3.834
 9434TIP3    H228267   5.437   4.978   3.879
 9435TIP3   OH228268   1.480   0.890   5.517
 9435TIP3    H128269   1.552   0.899   5.454
 9435TIP3    H228270   1.414   0.839   5.470
 9436TIP3   OH228271   3.505   1.340   0.677
 9436TIP3    H128272   3.513   1.404   0.606
 9436TIP3    H228273   3.574   1.363   0.739
 9437TIP3   OH228274   4.384   4.780   3.076
 9437TIP3    H128275   4.305   4.768   3.023
 9437TIP3    H228276   4.427   4.857   3.038
 9438TIP3   OH228277   5.268   1.373   2.766
 9438TIP3    H128278   5.349   1.418   2.743
 9438TIP3    H228279   5.207   1.398   2.697
 9439TIP3   OH228280   6.778   0.527   2.431
 9439TIP3    H128281   6.851   0.481   2.389
 9439TIP3    H228282   6.783   0.616   2.397
 9440TIP3   OH228283   1.723   2.411   3.697
 9440TIP3    H128284   1.758   2.469   3.765
 9440TIP3    H228285   1.774   2.432   3.619
 9441TIP3   OH228286   5.617   5.641   1.558
 9441TIP3    H128287   5.659   5.726   1.572
 9441TIP3    H228288   5.548   5.637   1.624
 9442TIP3   OH228289   3.251   3.552   5.553
 9442TIP3    H128290   3.212   3.628   5.598
 9442TIP3    H228291   3.288   3.588   5.473
 9443TIP3   OH228292   2.447   4.959   2.082
 9443TIP3    H128293   2.480   5.000   2.162
 9443TIP3    H228294   2.504   4.884   2.068
 9444TIP3   OH228295   4.544   6.096   0.337
 9444TIP3    H128296   4.557   6.002   0.339
 9444TIP3    H228297   4.567   6.126   0.425
 9445TIP3   OH228298   1.714   0.486   0.286
 9445TIP3    H128299   1.715   0.582   0.282
 9445TIP3    H228300   1.685   0.458   0.200
 9446TIP3   OH228301   6.108   2.855   1.677
 9446TIP3    H128302   6.061   2.906   1.610
 9446TIP3    H228303   6.076   2.891   1.760
 9447TIP3   OH228304   2.424   0.160   0.490
 9447TIP3    H128305   2.329   0.156   0.486
 9447TIP3    H228306   2.449   0.224   0.423
 9448TIP3   OH228307   0.114   1.683   0.251
 9448TIP3    H128308   0.173   1.611   0.272
 9448TIP3    H228309   0.115   1.688   0.155
 9449TIP3   OH228310   6.338   3.873   5.599
 9449TIP3    H128311   6.256   3.921   5.605
 9449TIP3    H228312   6.405   3.941   5.595
 9450TIP3   OH228313   1.465   2.699   5.801
 9450TIP3    H128314   1.490   2.661   5.885
 9450TIP3    H228315   1.376   2.666   5.785
 9451TIP3   OH228316   6.236   6.146   2.825
 9451TIP3    H128317   6.166   6.193   2.781
 9451TIP3    H228318   6.220   6.159   2.919
 9452TIP3   OH228319   4.578   3.874   5.345
 9452TIP3    H128320   4.622   3.845   5.264
 9452TIP3    H228321   4.485   3.861   5.328
 9453TIP3   OH228322   6.417   2.691   2.099
 9453TIP3    H128323   6.447   2.638   2.173
 9453TIP3    H228324   6.400   2.778   2.137
 9454TIP3   OH228325   1.750   5.177   4.207
 9454TIP3    H128326   1.796   5.156   4.288
 9454TIP3    H228327   1.714   5.093   4.177
 9455TIP3   OH228328   1.717   5.045   0.813
 9455TIP3    H128329   1.631   5.029   0.774
 9455TIP3    H228330   1.739   5.134   0.786
 9456TIP3   OH228331   6.173   5.899   5.095
 9456TIP3    H128332   6.170   5.914   5.000
 9456TIP3    H228333   6.156   5.985   5.134
 9457TIP3   OH228334   5.763   0.500   2.701
 9457TIP3    H128335   5.695   0.563   2.726
 9457TIP3    H228336   5.724   0.415   2.720
 9458TIP3   OH228337   6.272   0.510   5.763
 9458TIP3    H128338   6.327   0.460   5.824
 9458TIP3    H228339   6.234   0.579   5.817
 9459TIP3   OH228340   5.545   5.544   4.205
 9459TIP3    H128341   5.592   5.588   4.134
 9459TIP3    H228342   5.607   5.481   4.240
 9460TIP3   OH228343   2.991   3.234   4.702
 9460TIP3    H128344   3.082   3.209   4.713
 9460TIP3    H228345   2.943   3.151   4.698
 9461TIP3   OH228346   1.140   0.647   1.490
 9461TIP3    H128347   1.149   0.726   1.542
 9461TIP3    H228348   1.224   0.602   1.498
 9462TIP3   OH228349   3.519   6.279   2.370
 9462TIP3    H128350   3.452   6.313   2.430
 9462TIP3    H228351   3.600   6.323   2.396
 9463TIP3   OH228352   1.795   2.877   4.508
 9463TIP3    H128353   1.886   2.898   4.529
 9463TIP3    H228354   1.772   2.807   4.570
 9464TIP3   OH228355   1.896   0.906   5.620
 9464TIP3    H128356   1.967   0.879   5.677
 9464TIP3    H228357   1.818   0.863   5.655
 9465TIP3   OH228358   5.551   1.838   2.795
 9465TIP3    H128359   5.565   1.811   2.704
 9465TIP3    H228360   5.465   1.880   2.794
 9466TIP3   OH228361   5.715   0.527   3.897
 9466TIP3    H128362   5.779   0.527   3.825
 9466TIP3    H228363   5.767   0.508   3.975
 9467TIP3   OH228364   1.798   3.198   3.790
 9467TIP3    H128365   1.741   3.271   3.767
 9467TIP3    H228366   1.808   3.205   3.885
 9468TIP3   OH228367   3.584   0.732   3.419
 9468TIP3    H128368   3.551   0.790   3.487
 9468TIP3    H228369   3.635   0.666   3.467
 9469TIP3   OH228370   6.792   4.330   2.315
 9469TIP3    H128371   6.710   4.378   2.325
 9469TIP3    H228372   6.825   4.358   2.229
 9470TIP3   OH228373   4.375   3.799   2.833
 9470TIP3    H128374   4.358   3.799   2.928
 9470TIP3    H228375   4.301   3.753   2.796
 9471TIP3   OH228376   2.441   6.346   2.203
 9471TIP3    H128377   2.427   6.412   2.271
 9471TIP3    H228378   2.370   6.283   2.216
 9472TIP3   OH228379   1.252   4.420   5.415
 9472TIP3    H128380   1.264   4.490   5.479
 9472TIP3    H228381   1.229   4.343   5.468
 9473TIP3   OH228382   1.588   1.676   3.887
 9473TIP3    H128383   1.589   1.661   3.792
 9473TIP3    H228384   1.661   1.623   3.920
 9474TIP3   OH228385   4.761   3.853   1.313
 9474TIP3    H128386   4.671   3.863   1.342
 9474TIP3    H228387   4.792   3.943   1.302
 9475TIP3   OH228388   4.059   2.457   0.933
 9475TIP3    H128389   4.090   2.383   0.985
 9475TIP3    H228390   4.086   2.436   0.844
 9476TIP3   OH228391   0.852   1.691   5.196
 9476TIP3    H128392   0.943   1.720   5.188
 9476TIP3    H228393   0.854   1.600   5.165
 9477TIP3   OH228394   5.260   4.369   2.054
 9477TIP3    H128395   5.315   4.435   2.096
 9477TIP3    H228396   5.279   4.289   2.102
 9478TIP3   OH228397   2.907   4.147   5.346
 9478TIP3    H128398   2.994   4.186   5.339
 9478TIP3    H228399   2.885   4.152   5.439
 9479TIP3   OH228400   3.536   5.096   1.669
 9479TIP3    H128401   3.460   5.144   1.703
 9479TIP3    H228402   3.611   5.135   1.715
 9480TIP3   OH228403   1.079   4.631   0.586
 9480TIP3    H128404   1.002   4.670   0.546
 9480TIP3    H228405   1.081   4.668   0.675
 9481TIP3   OH228406   0.468   4.825   3.351
 9481TIP3    H128407   0.475   4.885   3.277
 9481TIP3    H228408   0.375   4.827   3.374
 9482TIP3   OH228409   6.562   5.462   1.106
 9482TIP3    H128410   6.474   5.496   1.097
 9482TIP3    H228411   6.612   5.504   1.037
 9483TIP3   OH228412   5.764   0.408   5.617
 9483TIP3    H128413   5.800   0.456   5.543
 9483TIP3    H228414   5.840   0.382   5.669
 9484TIP3   OH228415   4.509   1.706   0.106
 9484TIP3    H128416   4.443   1.767   0.136
 9484TIP3    H228417   4.526   1.731   0.015
 9485TIP3   OH228418   1.468   2.009   3.350
 9485TIP3    H128419   1.403   1.951   3.312
 9485TIP3    H228420   1.490   1.971   3.435
 9486TIP3   OH228421   5.766   0.496   1.058
 9486TIP3    H128422   5.743   0.582   1.093
 9486TIP3    H228423   5.764   0.437   1.134
 9487TIP3   OH228424   1.617   6.670   3.559
 9487TIP3    H128425   1.707   6.642   3.575
 9487TIP3    H228426   1.609   6.673   3.464
 9488TIP3   OH228427   2.338   3.030   0.746
 9488TIP3    H128428   2.247   3.036   0.717
 9488TIP3    H228429   2.377   2.963   0.689
 9489TIP3   OH228430   3.036   4.563   1.039
 9489TIP3    H128431   2.999   4.512   0.968
 9489TIP3    H228432   3.123   4.587   1.009
 9490TIP3   OH228433   0.448   3.871   2.583
 9490TIP3    H128434   0.431   3.959   2.551
 9490TIP3    H228435   0.378   3.818   2.547
 9491TIP3   OH228436   0.742   6.560   5.491
 9491TIP3    H128437   0.664   6.568   5.436
 9491TIP3    H228438   0.781   6.477   5.465
 9492TIP3   OH228439   4.578   1.273   4.074
 9492TIP3    H128440   4.609   1.267   4.165
 9492TIP3    H228441   4.512   1.343   4.076
 9493TIP3   OH228442   0.414   0.219   0.949
 9493TIP3    H128443   0.503   0.193   0.928
 9493TIP3    H228444   0.369   0.138   0.970
 9494TIP3   OH228445   1.895   1.798   1.963
 9494TIP3    H128446   1.983   1.827   1.940
 9494TIP3    H228447   1.855   1.874   2.006
 9495TIP3   OH228448   5.727   0.802   0.613
 9495TIP3    H128449   5.802   0.748   0.638
 9495TIP3    H228450   5.661   0.739   0.583
 9496TIP3   OH228451   0.669   5.943   3.468
 9496TIP3    H128452   0.608   5.934   3.541
 9496TIP3    H228453   0.617   5.982   3.398
 9497TIP3   OH228454   1.312   3.552   1.923
 9497TIP3    H128455   1.245   3.597   1.872
 9497TIP3    H228456   1.336   3.613   1.992
 9498TIP3   OH228457   3.405   0.349   5.286
 9498TIP3    H128458   3.330   0.309   5.242
 9498TIP3    H228459   3.368   0.389   5.364
 9499TIP3   OH228460   2.827   3.805   2.673
 9499TIP3    H128461   2.859   3.874   2.614
 9499TIP3    H228462   2.899   3.741   2.676
 9500TIP3   OH228463   2.224   6.773   1.603
 9500TIP3    H128464   2.262   6.861   1.603
 9500TIP3    H228465   2.137   6.785   1.566
 9501TIP3   OH228466   3.011   5.496   0.079
 9501TIP3    H128467   2.917   5.480   0.075
 9501TIP3    H228468   3.020   5.591   0.084
 9502TIP3   OH228469   1.931   3.967   1.561
 9502TIP3    H128470   1.946   4.054   1.598
 9502TIP3    H228471   1.986   3.964   1.483
 9503TIP3   OH228472   2.982   2.141   2.956
 9503TIP3    H128473   3.018   2.219   2.998
 9503TIP3    H228474   2.888   2.147   2.971
 9504TIP3   OH228475   1.421   2.871   0.140
 9504TIP3    H128476   1.493   2.810   0.123
 9504TIP3    H228477   1.463   2.946   0.181
 9505TIP3   OH228478   0.751   5.181   3.006
 9505TIP3    H128479   0.806   5.125   3.060
 9505TIP3    H228480   0.779   5.165   2.916
 9506TIP3   OH228481   0.086   0.972   5.527
 9506TIP3    H128482   0.142   1.009   5.595
 9506TIP3    H228483   0.040   0.901   5.571
 9507TIP3   OH228484   4.198   0.130   0.769
 9507TIP3    H128485   4.149   0.118   0.850
 9507TIP3    H228486   4.290   0.133   0.797
 9508TIP3   OH228487   6.042   5.347   2.510
 9508TIP3    H128488   6.035   5.253   2.493
 9508TIP3    H228489   5.953   5.380   2.497
 9509TIP3   OH228490   2.820   1.511   0.849
 9509TIP3    H128491   2.757   1.547   0.787
 9509TIP3    H228492   2.899   1.496   0.798
 9510TIP3   OH228493   2.581   0.665   3.829
 9510TIP3    H128494   2.509   0.700   3.881
 9510TIP3    H228495   2.585   0.573   3.854
 9511TIP3   OH228496   4.643   0.075   3.317
 9511TIP3    H128497   4.734   0.103   3.315
 9511TIP3    H228498   4.593   0.153   3.294
 9512TIP3   OH228499   2.971   4.250   1.890
 9512TIP3    H128500   2.983   4.340   1.860
 9512TIP3    H228501   2.921   4.207   1.821
 9513TIP3   OH228502   6.858   5.059   4.755
 9513TIP3    H128503   6.770   5.093   4.744
 9513TIP3    H228504   6.895   5.060   4.666
 9514TIP3   OH228505   0.789   3.344   4.635
 9514TIP3    H128506   0.800   3.322   4.727
 9514TIP3    H228507   0.727   3.279   4.601
 9515TIP3   OH228508   3.647   2.382   1.636
 9515TIP3    H128509   3.677   2.354   1.549
 9515TIP3    H228510   3.722   2.428   1.674
 9516TIP3   OH228511   3.214   0.757   0.987
 9516TIP3    H128512   3.273   0.777   0.915
 9516TIP3    H228513   3.221   0.662   0.999
 9517TIP3   OH228514   2.238   5.166   1.945
 9517TIP3    H128515   2.171   5.109   1.909
 9517TIP3    H228516   2.189   5.232   1.995
 9518TIP3   OH228517   2.676   0.256   3.981
 9518TIP3    H128518   2.757   0.234   3.934
 9518TIP3    H228519   2.694   0.343   4.017
 9519TIP3   OH228520   3.967   0.350   1.166
 9519TIP3    H128521   3.967   0.326   1.259
 9519TIP3    H228522   3.887   0.401   1.155
 9520TIP3   OH228523   4.038   6.466   4.109
 9520TIP3    H128524   3.997   6.421   4.182
 9520TIP3    H228525   4.092   6.400   4.066
 9521TIP3   OH228526   0.278   0.528   3.473
 9521TIP3    H128527   0.279   0.481   3.557
 9521TIP3    H228528   0.200   0.583   3.478
 9522TIP3   OH228529   1.205   1.836   4.788
 9522TIP3    H128530   1.182   1.924   4.818
 9522TIP3    H228531   1.272   1.851   4.721
 9523TIP3   OH228532   3.964   0.201   1.622
 9523TIP3    H128533   3.914   0.205   1.541
 9523TIP3    H228534   4.016   0.121   1.614
 9524TIP3   OH228535   3.786   6.512   0.802
 9524TIP3    H128536   3.713   6.574   0.806
 9524TIP3    H228537   3.835   6.527   0.883
 9525TIP3   OH228538   0.145   0.896   0.635
 9525TIP3    H128539   0.096   0.961   0.583
 9525TIP3    H228540   0.169   0.943   0.715
 9526TIP3   OH228541   3.172   6.477   4.386
 9526TIP3    H128542   3.083   6.444   4.395
 9526TIP3    H228543   3.171   6.529   4.305
 9527TIP3   OH228544   3.967   2.860   3.664
 9527TIP3    H128545   3.910   2.791   3.628
 9527TIP3    H228546   4.033   2.874   3.596
 9528TIP3   OH228547   5.406   5.501   5.683
 9528TIP3    H128548   5.339   5.480   5.748
 9528TIP3    H228549   5.372   5.578   5.636
 9529TIP3   OH228550   0.818   0.566   1.178
 9529TIP3    H128551   0.755   0.525   1.237
 9529TIP3    H228552   0.809   0.518   1.096
 9530TIP3   OH228553   2.428   0.037   3.451
 9530TIP3    H128554   2.420   0.046   3.546
 9530TIP3    H228555   2.442  -0.056   3.436
 9531TIP3   OH228556   2.650   6.201   2.808
 9531TIP3    H128557   2.726   6.149   2.781
 9531TIP3    H228558   2.575   6.144   2.793
 9532TIP3   OH228559   1.434   1.605   5.532
 9532TIP3    H128560   1.445   1.685   5.584
 9532TIP3    H228561   1.489   1.540   5.575
 9533TIP3   OH228562   0.980   6.229   5.796
 9533TIP3    H128563   0.931   6.174   5.735
 9533TIP3    H228564   0.986   6.176   5.876
 9534TIP3   OH228565   1.337   4.871   1.188
 9534TIP3    H128566   1.367   4.941   1.129
 9534TIP3    H228567   1.247   4.853   1.159
 9535TIP3   OH228568   3.036   3.774   4.728
 9535TIP3    H128569   2.965   3.762   4.791
 9535TIP3    H228570   3.098   3.704   4.748
 9536TIP3   OH228571   5.846   3.866   0.811
 9536TIP3    H128572   5.765   3.912   0.792
 9536TIP3    H228573   5.845   3.790   0.753
 9537TIP3   OH228574   4.711   0.485   2.053
 9537TIP3    H128575   4.751   0.548   1.993
 9537TIP3    H228576   4.631   0.457   2.009
 9538TIP3   OH228577   4.989   0.546   2.542
 9538TIP3    H128578   5.043   0.582   2.612
 9538TIP3    H228579   5.028   0.580   2.461
 9539TIP3   OH228580   1.740   1.721   5.751
 9539TIP3    H128581   1.711   1.809   5.725
 9539TIP3    H228582   1.719   1.715   5.844
 9540TIP3   OH228583   0.704   4.574   2.770
 9540TIP3    H128584   0.615   4.587   2.739
 9540TIP3    H228585   0.757   4.570   2.691
 9541TIP3   OH228586   3.614   0.907   0.903
 9541TIP3    H128587   3.697   0.891   0.859
 9541TIP3    H228588   3.574   0.821   0.912
 9542TIP3   OH228589   4.685   3.504   4.277
 9542TIP3    H128590   4.773   3.468   4.263
 9542TIP3    H228591   4.699   3.598   4.284
 9543TIP3   OH228592   1.189   3.828   3.839
 9543TIP3    H128593   1.147   3.854   3.757
 9543TIP3    H228594   1.213   3.736   3.825
 9544TIP3   OH228595   4.688   3.768   5.589
 9544TIP3    H128596   4.750   3.701   5.563
 9544TIP3    H228597   4.649   3.798   5.507
 9545TIP3   OH228598   0.182   0.583   4.204
 9545TIP3    H128599   0.237   0.526   4.151
 9545TIP3    H228600   0.200   0.671   4.172
 9546TIP3   OH228601   2.092   6.700   4.457
 9546TIP3    H128602   2.063   6.721   4.368
 9546TIP3    H228603   2.074   6.607   4.467
 9547TIP3   OH228604   6.508   1.621   2.661
 9547TIP3    H128605   6.593   1.658   2.685
 9547TIP3    H228606   6.521   1.526   2.662
 9548TIP3   OH228607   6.566   4.316   4.211
 9548TIP3    H128608   6.649   4.287   4.174
 9548TIP3    H228609   6.500   4.293   4.146
 9549TIP3   OH228610   6.030   4.504   1.490
 9549TIP3    H128611   5.948   4.457   1.505
 9549TIP3    H228612   6.033   4.516   1.395
 9550TIP3   OH228613   0.317   6.161   2.200
 9550TIP3    H128614   0.250   6.096   2.220
 9550TIP3    H228615   0.270   6.231   2.155
 9551TIP3   OH228616   5.967   1.478   5.219
 9551TIP3    H128617   6.040   1.493   5.279
 9551TIP3    H228618   5.897   1.535   5.251
 9552TIP3   OH228619   1.737   0.227   5.487
 9552TIP3    H128620   1.652   0.254   5.452
 9552TIP3    H228621   1.738   0.132   5.477
 9553TIP3   OH228622   1.063   3.426   0.792
 9553TIP3    H128623   1.025   3.356   0.739
 9553TIP3    H228624   1.021   3.416   0.878
 9554TIP3   OH228625   4.359   0.159   4.203
 9554TIP3    H128626   4.373   0.067   4.224
 9554TIP3    H228627   4.388   0.206   4.282
 9555TIP3   OH228628   6.392   5.122   4.935
 9555TIP3    H128629   6.431   5.084   5.014
 9555TIP3    H228630   6.464   5.169   4.893
 9556TIP3   OH228631   4.399   1.795   4.483
 9556TIP3    H128632   4.463   1.737   4.524
 9556TIP3    H228633   4.347   1.737   4.427
 9557TIP3   OH228634   2.896   0.251   3.829
 9557TIP3    H128635   2.944   0.328   3.860
 9557TIP3    H228636   2.853   0.280   3.749
 9558TIP3   OH228637   3.843   5.017   1.221
 9558TIP3    H128638   3.771   4.967   1.258
 9558TIP3    H228639   3.888   4.955   1.162
 9559TIP3   OH228640   2.573   5.814   2.354
 9559TIP3    H128641   2.610   5.728   2.337
 9559TIP3    H228642   2.648   5.867   2.381
 9560TIP3   OH228643   0.511   0.103   1.398
 9560TIP3    H128644   0.419   0.123   1.381
 9560TIP3    H228645   0.559   0.175   1.357
 9561TIP3   OH228646   0.255   4.710   2.813
 9561TIP3    H128647   0.274   4.779   2.876
 9561TIP3    H228648   0.193   4.652   2.857
 9562TIP3   OH228649   5.728   1.653   5.230
 9562TIP3    H128650   5.640   1.690   5.224
 9562TIP3    H228651   5.713   1.559   5.243
 9563TIP3   OH228652   1.225   5.628   3.764
 9563TIP3    H128653   1.183   5.552   3.803
 9563TIP3    H228654   1.301   5.645   3.818
 9564TIP3   OH228655   2.596   3.223   4.688
 9564TIP3    H128656   2.679   3.191   4.723
 9564TIP3    H228657   2.529   3.174   4.736
 9565TIP3   OH228658   3.785   2.935   4.562
 9565TIP3    H128659   3.839   2.913   4.638
 9565TIP3    H228660   3.720   2.864   4.557
 9566TIP3   OH228661   1.868   2.144   4.522
 9566TIP3    H128662   1.882   2.079   4.591
 9566TIP3    H228663   1.826   2.094   4.452
 9567TIP3   OH228664   3.424   6.096   5.523
 9567TIP3    H128665   3.476   6.015   5.530
 9567TIP3    H228666   3.411   6.124   5.613
 9568TIP3   OH228667   1.732   0.100   5.115
 9568TIP3    H128668   1.805   0.137   5.165
 9568TIP3    H228669   1.707   0.171   5.055
 9569TIP3   OH228670   1.045   3.170   0.171
 9569TIP3    H128671   0.950   3.167   0.172
 9569TIP3    H228672   1.071   3.104   0.107
 9570TIP3   OH228673   6.690   3.317   2.064
 9570TIP3    H128674   6.636   3.332   2.142
 9570TIP3    H228675   6.770   3.276   2.098
 9571TIP3   OH228676   6.504   3.436   1.606
 9571TIP3    H128677   6.592   3.472   1.607
 9571TIP3    H228678   6.499   3.383   1.686
 9572TIP3   OH228679   2.638   6.367   0.653
 9572TIP3    H128680   2.695   6.420   0.597
 9572TIP3    H228681   2.557   6.358   0.602
 9573TIP3   OH228682   1.618   2.562   5.644
 9573TIP3    H128683   1.651   2.493   5.701
 9573TIP3    H228684   1.594   2.633   5.705
 9574TIP3   OH228685   6.714   3.474   4.022
 9574TIP3    H128686   6.724   3.539   3.952
 9574TIP3    H228687   6.736   3.390   3.981
 9575TIP3   OH228688   0.263   1.016   5.745
 9575TIP3    H128689   0.305   0.977   5.822
 9575TIP3    H228690   0.300   1.104   5.740
 9576TIP3   OH228691   4.755   4.142   1.274
 9576TIP3    H128692   4.670   4.183   1.292
 9576TIP3    H228693   4.759   4.136   1.179
 9577TIP3   OH228694   3.381   4.893   0.113
 9577TIP3    H128695   3.335   4.819   0.074
 9577TIP3    H228696   3.458   4.905   0.058
 9578TIP3   OH228697   3.602   5.073   1.384
 9578TIP3    H128698   3.599   5.063   1.479
 9578TIP3    H228699   3.563   5.159   1.367
 9579TIP3   OH228700   6.818   6.341   2.761
 9579TIP3    H128701   6.812   6.288   2.840
 9579TIP3    H228702   6.728   6.348   2.730
 9580TIP3   OH228703   2.851   3.557   2.310
 9580TIP3    H128704   2.813   3.573   2.224
 9580TIP3    H228705   2.895   3.639   2.332
 9581TIP3   OH228706   3.154   3.608   3.401
 9581TIP3    H128707   3.133   3.570   3.487
 9581TIP3    H228708   3.232   3.661   3.417
 9582TIP3   OH228709   6.772   4.770   4.567
 9582TIP3    H128710   6.719   4.790   4.490
 9582TIP3    H228711   6.732   4.822   4.637
 9583TIP3   OH228712   1.944   2.511   5.443
 9583TIP3    H128713   1.926   2.588   5.389
 9583TIP3    H228714   2.016   2.467   5.398
 9584TIP3   OH228715   1.454   0.463   4.371
 9584TIP3    H128716   1.391   0.533   4.387
 9584TIP3    H228717   1.419   0.387   4.418
 9585TIP3   OH228718   4.202   4.178   0.918
 9585TIP3    H128719   4.126   4.137   0.959
 9585TIP3    H228720   4.168   4.260   0.882
 9586TIP3   OH228721   4.704   3.934   2.681
 9586TIP3    H128722   4.666   3.977   2.604
 9586TIP3    H228723   4.637   3.943   2.749
 9587TIP3   OH228724   4.724   0.504   0.707
 9587TIP3    H128725   4.755   0.484   0.795
 9587TIP3    H228726   4.747   0.426   0.656
 9588TIP3   OH228727   5.239   6.449   3.301
 9588TIP3    H128728   5.175   6.424   3.367
 9588TIP3    H228729   5.317   6.472   3.351
 9589TIP3   OH228730   2.484   2.380   2.305
 9589TIP3    H128731   2.413   2.318   2.323
 9589TIP3    H228732   2.498   2.425   2.388
 9590TIP3   OH228733   1.889   4.310   0.152
 9590TIP3    H128734   1.841   4.262   0.084
 9590TIP3    H228735   1.979   4.279   0.145
 9591TIP3   OH228736   3.189   4.503   2.803
 9591TIP3    H128737   3.181   4.537   2.892
 9591TIP3    H228738   3.165   4.577   2.747
 9592TIP3   OH228739   5.633   1.580   1.402
 9592TIP3    H128740   5.689   1.608   1.475
 9592TIP3    H228741   5.556   1.637   1.408
 9593TIP3   OH228742   4.644   5.912   4.283
 9593TIP3    H128743   4.570   5.973   4.284
 9593TIP3    H228744   4.712   5.958   4.234
 9594TIP3   OH228745   5.768   1.948   4.047
 9594TIP3    H128746   5.749   1.856   4.065
 9594TIP3    H228747   5.688   1.981   4.005
 9595TIP3   OH228748   1.907   2.068   1.720
 9595TIP3    H128749   1.953   2.098   1.798
 9595TIP3    H228750   1.941   2.124   1.650
 9596TIP3   OH228751   4.691   6.641   0.132
 9596TIP3    H128752   4.678   6.735   0.146
 9596TIP3    H228753   4.611   6.612   0.089
 9597TIP3   OH228754   4.405   3.997   1.292
 9597TIP3    H128755   4.460   4.010   1.369
 9597TIP3    H228756   4.316   3.995   1.327
 9598TIP3   OH228757   5.119   3.331   2.056
 9598TIP3    H128758   5.095   3.293   2.141
 9598TIP3    H228759   5.054   3.400   2.042
 9599TIP3   OH228760   0.551   5.358   2.204
 9599TIP3    H128761   0.607   5.393   2.134
 9599TIP3    H228762   0.499   5.434   2.232
 9600TIP3   OH228763   6.223   1.589   5.909
 9600TIP3    H128764   6.168   1.602   5.831
 9600TIP3    H228765   6.185   1.513   5.952
 9601TIP3   OH228766   3.835   2.641   3.584
 9601TIP3    H128767   3.821   2.592   3.503
 9601TIP3    H228768   3.792   2.588   3.651
 9602TIP3   OH228769   3.075   5.093   2.797
 9602TIP3    H128770   3.075   5.038   2.876
 9602TIP3    H228771   3.154   5.068   2.750
 9603TIP3   OH228772   0.013   4.913   5.780
 9603TIP3    H128773   0.065   4.842   5.744
 9603TIP3    H228774  -0.016   4.882   5.865
 9604TIP3   OH228775   4.951   2.609   3.003
 9604TIP3    H128776   4.977   2.519   2.986
 9604TIP3    H228777   5.013   2.662   2.953
 9605TIP3   OH228778   3.688   0.207   4.777
 9605TIP3    H128779   3.631   0.259   4.720
 9605TIP3    H228780   3.628   0.171   4.843
 9606TIP3   OH228781   6.907   2.433   3.852
 9606TIP3    H128782   6.940   2.393   3.933
 9606TIP3    H228783   6.967   2.507   3.836
 9607TIP3   OH228784   6.919  -0.015   0.548
 9607TIP3    H128785   6.859  -0.045   0.616
 9607TIP3    H228786   6.996  -0.070   0.558
 9608TIP3   OH228787   1.084   5.135   4.819
 9608TIP3    H128788   1.053   5.188   4.892
 9608TIP3    H228789   1.127   5.061   4.860
 9609TIP3   OH228790   1.730   3.922   5.186
 9609TIP3    H128791   1.778   3.852   5.230
 9609TIP3    H228792   1.693   3.881   5.108
 9610TIP3   OH228793   2.613   1.366   2.368
 9610TIP3    H128794   2.652   1.278   2.363
 9610TIP3    H228795   2.680   1.419   2.411
 9611TIP3   OH228796   1.303   6.007   5.838
 9611TIP3    H128797   1.279   6.082   5.891
 9611TIP3    H228798   1.398   5.999   5.848
 9612TIP3   OH228799   7.082   1.256   4.755
 9612TIP3    H128800   7.119   1.181   4.801
 9612TIP3    H228801   7.104   1.331   4.810
 9613TIP3   OH228802   2.591   1.301   0.945
 9613TIP3    H128803   2.520   1.364   0.937
 9613TIP3    H228804   2.671   1.353   0.938
 9614TIP3   OH228805   5.281   5.046   0.404
 9614TIP3    H128806   5.358   5.104   0.408
 9614TIP3    H228807   5.289   4.991   0.482
 9615TIP3   OH228808   5.694   5.456   2.608
 9615TIP3    H128809   5.688   5.371   2.565
 9615TIP3    H228810   5.726   5.516   2.540
 9616TIP3   OH228811   5.865   6.039   2.125
 9616TIP3    H128812   5.930   5.982   2.165
 9616TIP3    H228813   5.801   6.055   2.195
 9617TIP3   OH228814   2.328   5.102   4.471
 9617TIP3    H128815   2.272   5.125   4.397
 9617TIP3    H228816   2.316   5.008   4.482
 9618TIP3   OH228817   7.118   6.532   4.491
 9618TIP3    H128818   7.085   6.498   4.574
 9618TIP3    H228819   7.183   6.598   4.516
 9619TIP3   OH228820   1.606   1.840   1.383
 9619TIP3    H128821   1.597   1.921   1.332
 9619TIP3    H228822   1.679   1.857   1.443
 9620TIP3   OH228823   6.245   5.955   5.750
 9620TIP3    H128824   6.295   5.972   5.829
 9620TIP3    H228825   6.154   5.973   5.775
 9621TIP3   OH228826   5.046   2.372   0.988
 9621TIP3    H128827   5.098   2.331   1.056
 9621TIP3    H228828   5.013   2.299   0.936
 9622TIP3   OH228829   7.187   0.467   4.306
 9622TIP3    H128830   7.153   0.548   4.344
 9622TIP3    H228831   7.262   0.494   4.254
 9623TIP3   OH228832   6.340   5.637   4.782
 9623TIP3    H128833   6.396   5.709   4.751
 9623TIP3    H228834   6.253   5.659   4.749
 9624TIP3   OH228835   3.196   3.361   4.387
 9624TIP3    H128836   3.136   3.409   4.444
 9624TIP3    H228837   3.158   3.274   4.379
 9625TIP3   OH228838   0.668   6.350   4.539
 9625TIP3    H128839   0.707   6.371   4.454
 9625TIP3    H228840   0.720   6.278   4.573
 9626TIP3   OH228841   6.642   4.145   4.727
 9626TIP3    H128842   6.734   4.130   4.747
 9626TIP3    H228843   6.636   4.132   4.632
 9627TIP3   OH228844   0.295   6.537   2.852
 9627TIP3    H128845   0.337   6.621   2.869
 9627TIP3    H228846   0.333   6.507   2.770
 9628TIP3   OH228847   1.432   4.572   3.047
 9628TIP3    H128848   1.367   4.556   3.116
 9628TIP3    H228849   1.505   4.614   3.093
 9629TIP3   OH228850   1.498   1.184   5.551
 9629TIP3    H128851   1.591   1.197   5.571
 9629TIP3    H228852   1.492   1.095   5.518
 9630TIP3   OH228853   5.741   5.185   5.606
 9630TIP3    H128854   5.764   5.183   5.513
 9630TIP3    H228855   5.809   5.239   5.646
 9631TIP3   OH228856   0.726   6.647   3.559
 9631TIP3    H128857   0.700   6.734   3.528
 9631TIP3    H228858   0.741   6.597   3.479
 9632TIP3   OH228859   6.874   0.687   1.444
 9632TIP3    H128860   6.964   0.716   1.455
 9632TIP3    H228861   6.822   0.751   1.492
 9633TIP3   OH228862   1.719   3.214   0.260
 9633TIP3    H128863   1.643   3.266   0.284
 9633TIP3    H228864   1.687   3.123   0.262
 9634TIP3   OH228865   3.023   1.362   0.673
 9634TIP3    H128866   3.114   1.335   0.686
 9634TIP3    H228867   3.019   1.386   0.580
 9635TIP3   OH228868   4.413   1.531   2.288
 9635TIP3    H128869   4.388   1.440   2.304
 9635TIP3    H228870   4.488   1.525   2.229
 9636TIP3   OH228871   2.819   6.003   0.143
 9636TIP3    H128872   2.780   5.956   0.069
 9636TIP3    H228873   2.863   6.078   0.104
 9637TIP3   OH228874   1.181   0.906   3.972
 9637TIP3    H128875   1.150   0.984   3.926
 9637TIP3    H228876   1.258   0.878   3.923
 9638TIP3   OH228877   4.285   2.732   5.749
 9638TIP3    H128878   4.323   2.818   5.763
 9638TIP3    H228879   4.229   2.743   5.671
 9639TIP3   OH228880   3.064   3.469   3.686
 9639TIP3    H128881   3.016   3.552   3.690
 9639TIP3    H228882   3.100   3.457   3.774
 9640TIP3   OH228883   0.960   1.362   4.882
 9640TIP3    H128884   1.047   1.396   4.865
 9640TIP3    H228885   0.901   1.435   4.863
 9641TIP3   OH228886   5.598   2.570   3.495
 9641TIP3    H128887   5.684   2.588   3.458
 9641TIP3    H228888   5.606   2.593   3.588
 9642TIP3   OH228889   6.019   4.339   4.839
 9642TIP3    H128890   5.966   4.419   4.831
 9642TIP3    H228891   5.955   4.268   4.846
 9643TIP3   OH228892   5.116   5.384   0.418
 9643TIP3    H128893   5.097   5.351   0.506
 9643TIP3    H228894   5.149   5.308   0.371
 9644TIP3   OH228895   0.615   3.428   4.903
 9644TIP3    H128896   0.615   3.443   4.997
 9644TIP3    H228897   0.667   3.349   4.891
 9645TIP3   OH228898   4.476   5.218   1.679
 9645TIP3    H128899   4.450   5.139   1.633
 9645TIP3    H228900   4.554   5.192   1.729
 9646TIP3   OH228901   2.601   5.021   5.348
 9646TIP3    H128902   2.642   4.989   5.428
 9646TIP3    H228903   2.564   4.944   5.306
 9647TIP3   OH228904   5.180   1.847   2.491
 9647TIP3    H128905   5.180   1.942   2.503
 9647TIP3    H228906   5.196   1.835   2.397
 9648TIP3   OH228907   0.355   2.917   3.010
 9648TIP3    H128908   0.438   2.918   3.058
 9648TIP3    H228909   0.364   2.844   2.948
 9649TIP3   OH228910   3.397   2.686   4.442
 9649TIP3    H128911   3.330   2.635   4.397
 9649TIP3    H228912   3.356   2.770   4.460
 9650TIP3   OH228913   0.015   4.142   1.571
 9650TIP3    H128914   0.044   4.052   1.585
 9650TIP3    H228915   0.005   4.179   1.659
 9651TIP3   OH228916   3.165   4.223   3.533
 9651TIP3    H128917   3.195   4.249   3.446
 9651TIP3    H228918   3.185   4.298   3.588
 9652TIP3   OH228919   5.480   3.882   3.306
 9652TIP3    H128920   5.470   3.887   3.211
 9652TIP3    H228921   5.483   3.974   3.334
 9653TIP3   OH228922   3.209   5.234   1.183
 9653TIP3    H128923   3.218   5.329   1.178
 9653TIP3    H228924   3.190   5.217   1.275
 9654TIP3   OH228925   4.587   2.435   3.492
 9654TIP3    H128926   4.498   2.444   3.455
 9654TIP3    H228927   4.607   2.342   3.484
 9655TIP3   OH228928   2.646   3.665   2.089
 9655TIP3    H128929   2.604   3.711   2.016
 9655TIP3    H228930   2.580   3.666   2.159
 9656TIP3   OH228931   6.498   6.666   3.971
 9656TIP3    H128932   6.439   6.740   3.987
 9656TIP3    H228933   6.573   6.705   3.927
 9657TIP3   OH228934   3.523   6.236   3.838
 9657TIP3    H128935   3.584   6.162   3.835
 9657TIP3    H228936   3.438   6.197   3.816
 9658TIP3   OH228937   5.326   4.869   5.144
 9658TIP3    H128938   5.258   4.861   5.212
 9658TIP3    H228939   5.293   4.936   5.085
 9659TIP3   OH228940   2.794   1.571   4.315
 9659TIP3    H128941   2.729   1.561   4.246
 9659TIP3    H228942   2.861   1.628   4.277
 9660TIP3   OH228943   0.304   1.384   1.573
 9660TIP3    H128944   0.316   1.339   1.490
 9660TIP3    H228945   0.375   1.352   1.629
 9661TIP3   OH228946   6.864   1.689   4.560
 9661TIP3    H128947   6.913   1.762   4.597
 9661TIP3    H228948   6.781   1.690   4.607
 9662TIP3   OH228949   4.822   2.807   5.272
 9662TIP3    H128950   4.760   2.784   5.342
 9662TIP3    H228951   4.766   2.819   5.195
 9663TIP3   OH228952   0.377   1.642   0.744
 9663TIP3    H128953   0.308   1.690   0.698
 9663TIP3    H228954   0.405   1.575   0.681
 9664TIP3   OH228955   7.070   6.451   5.234
 9664TIP3    H128956   7.095   6.541   5.211
 9664TIP3    H228957   7.014   6.422   5.161
 9665TIP3   OH228958   2.587   0.593   0.245
 9665TIP3    H128959   2.628   0.581   0.330
 9665TIP3    H228960   2.656   0.571   0.181
 9666TIP3   OH228961   6.827   3.456   3.246
 9666TIP3    H128962   6.863   3.536   3.207
 9666TIP3    H228963   6.784   3.411   3.173
 9667TIP3   OH228964   4.073   3.575   0.131
 9667TIP3    H128965   4.027   3.546   0.210
 9667TIP3    H228966   4.132   3.644   0.162
 9668TIP3   OH228967   2.573   4.435   1.854
 9668TIP3    H128968   2.529   4.480   1.926
 9668TIP3    H228969   2.555   4.342   1.870
 9669TIP3   OH228970   1.669   5.391   5.654
 9669TIP3    H128971   1.743   5.339   5.686
 9669TIP3    H228972   1.678   5.475   5.699
 9670TIP3   OH228973   1.138   5.846   3.613
 9670TIP3    H128974   1.192   5.786   3.664
 9670TIP3    H228975   1.079   5.789   3.563
 9671TIP3   OH228976   1.170   0.005   2.345
 9671TIP3    H128977   1.175  -0.067   2.407
 9671TIP3    H228978   1.098   0.060   2.377
 9672TIP3   OH228979   3.405   3.366   3.400
 9672TIP3    H128980   3.426   3.451   3.361
 9672TIP3    H228981   3.442   3.370   3.488
 9673TIP3   OH228982   5.857   5.347   2.836
 9673TIP3    H128983   5.816   5.414   2.782
 9673TIP3    H228984   5.787   5.315   2.893
 9674TIP3   OH228985   1.273   0.536   5.196
 9674TIP3    H128986   1.267   0.592   5.119
 9674TIP3    H228987   1.194   0.482   5.193
 9675TIP3   OH228988   5.777   0.158   0.877
 9675TIP3    H128989   5.745   0.070   0.897
 9675TIP3    H228990   5.720   0.216   0.928
 9676TIP3   OH228991   2.061   4.521   0.737
 9676TIP3    H128992   2.116   4.450   0.704
 9676TIP3    H228993   2.116   4.568   0.800
 9677TIP3   OH228994   6.338   1.038   0.473
 9677TIP3    H128995   6.267   0.992   0.518
 9677TIP3    H228996   6.382   0.971   0.421
 9678TIP3   OH228997   6.810   3.749   5.516
 9678TIP3    H128998   6.766   3.821   5.469
 9678TIP3    H228999   6.791   3.765   5.608
 9679TIP3   OH229000   6.146   4.871   4.675
 9679TIP3    H129001   6.229   4.875   4.628
 9679TIP3    H229002   6.081   4.897   4.610
 9680TIP3   OH229003   0.210   1.509   3.231
 9680TIP3    H129004   0.175   1.547   3.311
 9680TIP3    H229005   0.305   1.518   3.239
 9681TIP3   OH229006   3.459   2.808   3.734
 9681TIP3    H129007   3.501   2.729   3.698
 9681TIP3    H229008   3.380   2.820   3.681
 9682TIP3   OH229009   4.149   1.087   1.139
 9682TIP3    H129010   4.143   1.142   1.217
 9682TIP3    H229011   4.098   1.009   1.160
 9683TIP3   OH229012   5.370   5.992   0.095
 9683TIP3    H129013   5.324   5.950   0.167
 9683TIP3    H229014   5.305   5.996   0.024
 9684TIP3   OH229015   1.950   5.355   1.188
 9684TIP3    H129016   1.884   5.293   1.160
 9684TIP3    H229017   1.917   5.440   1.159
 9685TIP3   OH229018   4.996   2.705   4.466
 9685TIP3    H129019   4.940   2.716   4.389
 9685TIP3    H229020   5.084   2.693   4.430
 9686TIP3   OH229021   5.247   2.550   0.999
 9686TIP3    H129022   5.162   2.513   1.020
 9686TIP3    H229023   5.310   2.493   1.044
 9687TIP3   OH229024   4.728   2.175   4.746
 9687TIP3    H129025   4.689   2.088   4.743
 9687TIP3    H229026   4.788   2.172   4.821
 9688TIP3   OH229027   2.899   3.654   5.265
 9688TIP3    H129028   2.966   3.661   5.198
 9688TIP3    H229029   2.859   3.741   5.270
 9689TIP3   OH229030   1.535   1.151   1.460
 9689TIP3    H129031   1.454   1.166   1.509
 9689TIP3    H229032   1.578   1.079   1.506
 9690TIP3   OH229033   0.973   5.671   1.611
 9690TIP3    H129034   1.005   5.645   1.697
 9690TIP3    H229035   1.052   5.685   1.558
 9691TIP3   OH229036   5.472   4.265   4.571
 9691TIP3    H129037   5.379   4.275   4.590
 9691TIP3    H229038   5.476   4.253   4.476
 9692TIP3   OH229039   2.789   1.398   2.616
 9692TIP3    H129040   2.810   1.447   2.696
 9692TIP3    H229041   2.832   1.313   2.629
 9693TIP3   OH229042   4.339   1.984   5.505
 9693TIP3    H129043   4.297   2.034   5.574
 9693TIP3    H229044   4.432   2.003   5.515
 9694TIP3   OH229045   4.886   2.262   3.649
 9694TIP3    H129046   4.799   2.223   3.662
 9694TIP3    H229047   4.915   2.286   3.737
 9695TIP3   OH229048   4.183   3.487   0.547
 9695TIP3    H129049   4.136   3.472   0.629
 9695TIP3    H229050   4.208   3.579   0.549
 9696TIP3   OH229051   4.167   5.589   0.637
 9696TIP3    H129052   4.118   5.620   0.561
 9696TIP3    H229053   4.136   5.500   0.652
 9697TIP3   OH229054   2.440   5.793   1.776
 9697TIP3    H129055   2.482   5.877   1.755
 9697TIP3    H229056   2.452   5.783   1.870
 9698TIP3   OH229057   0.919   2.142   0.325
 9698TIP3    H129058   0.869   2.214   0.287
 9698TIP3    H229059   0.855   2.071   0.333
 9699TIP3   OH229060   0.313   2.399   2.150
 9699TIP3    H129061   0.305   2.305   2.166
 9699TIP3    H229062   0.386   2.427   2.205
 9700TIP3   OH229063   1.592   5.803   2.871
 9700TIP3    H129064   1.615   5.881   2.922
 9700TIP3    H229065   1.539   5.750   2.930
 9701TIP3   OH229066   0.014   1.246   3.975
 9701TIP3    H129067   0.078   1.245   3.904
 9701TIP3    H229068   0.066   1.259   4.055
 9702TIP3   OH229069   3.822   3.938   4.275
 9702TIP3    H129070   3.836   3.922   4.368
 9702TIP3    H229071   3.755   4.007   4.272
 9703TIP3   OH229072   1.465   0.694   4.676
 9703TIP3    H129073   1.496   0.772   4.722
 9703TIP3    H229074   1.403   0.727   4.611
 9704TIP3   OH229075   5.822   2.874   5.518
 9704TIP3    H129076   5.827   2.924   5.436
 9704TIP3    H229077   5.746   2.910   5.564
 9705TIP3   OH229078   2.837   1.731   2.052
 9705TIP3    H129079   2.897   1.706   2.123
 9705TIP3    H229080   2.775   1.790   2.094
 9706TIP3   OH229081   4.105   4.114   5.326
 9706TIP3    H129082   4.144   4.072   5.402
 9706TIP3    H229083   4.011   4.097   5.334
 9707TIP3   OH229084   0.614   4.598   1.330
 9707TIP3    H129085   0.699   4.566   1.360
 9707TIP3    H229086   0.550   4.551   1.384
 9708TIP3   OH229087   3.364   6.230   1.481
 9708TIP3    H129088   3.426   6.281   1.428
 9708TIP3    H229089   3.302   6.295   1.515
 9709TIP3   OH229090   4.680   3.648   2.939
 9709TIP3    H129091   4.708   3.618   3.025
 9709TIP3    H229092   4.648   3.737   2.954
 9710TIP3   OH229093   6.521   5.988   3.964
 9710TIP3    H129094   6.459   6.061   3.968
 9710TIP3    H229095   6.576   5.999   4.041
 9711TIP3   OH229096   0.310   3.956   4.454
 9711TIP3    H129097   0.388   4.009   4.471
 9711TIP3    H229098   0.341   3.884   4.399
 9712TIP3   OH229099   6.931   1.796   5.108
 9712TIP3    H129100   6.924   1.704   5.133
 9712TIP3    H229101   6.841   1.829   5.111
 9713TIP3   OH229102   4.150   3.083   4.163
 9713TIP3    H129103   4.107   3.012   4.116
 9713TIP3    H229104   4.105   3.087   4.247
 9714TIP3   OH229105   1.558   0.398   0.062
 9714TIP3    H129106   1.471   0.383   0.099
 9714TIP3    H229107   1.559   0.490   0.037
 9715TIP3   OH229108   4.006   6.661   0.923
 9715TIP3    H129109   4.041   6.582   0.883
 9715TIP3    H229110   4.037   6.659   1.013
 9716TIP3   OH229111   4.221   4.405   4.807
 9716TIP3    H129112   4.227   4.405   4.711
 9716TIP3    H229113   4.312   4.393   4.836
 9717TIP3   OH229114   0.718   1.268   2.813
 9717TIP3    H129115   0.732   1.217   2.733
 9717TIP3    H229116   0.806   1.297   2.838
 9718TIP3   OH229117   1.094   3.353   4.582
 9718TIP3    H129118   1.022   3.342   4.645
 9718TIP3    H229119   1.096   3.447   4.564
 9719TIP3   OH229120   3.452   5.784   0.383
 9719TIP3    H129121   3.357   5.771   0.391
 9719TIP3    H229122   3.466   5.875   0.408
 9720TIP3   OH229123   4.364   1.211   1.023
 9720TIP3    H129124   4.285   1.170   1.058
 9720TIP3    H229125   4.336   1.298   0.994
 9721TIP3   OH229126   2.162   0.370   2.602
 9721TIP3    H129127   2.162   0.426   2.680
 9721TIP3    H229128   2.174   0.281   2.637
 9722TIP3   OH229129   6.974   4.195   5.538
 9722TIP3    H129130   6.929   4.278   5.520
 9722TIP3    H229131   7.053   4.221   5.586
 9723TIP3   OH229132   7.076   1.271   0.324
 9723TIP3    H129133   6.996   1.295   0.277
 9723TIP3    H229134   7.060   1.183   0.357
 9724TIP3   OH229135   4.957   2.001   1.670
 9724TIP3    H129136   5.024   2.068   1.685
 9724TIP3    H229137   4.876   2.040   1.703
 9725TIP3   OH229138   2.356   3.175   5.093
 9725TIP3    H129139   2.418   3.220   5.151
 9725TIP3    H229140   2.339   3.091   5.137
 9726TIP3   OH229141   4.059   1.760   4.137
 9726TIP3    H129142   4.064   1.828   4.204
 9726TIP3    H229143   4.119   1.789   4.069
 9727TIP3   OH229144   2.570   2.858   5.451
 9727TIP3    H129145   2.643   2.916   5.473
 9727TIP3    H229146   2.605   2.801   5.382
 9728TIP3   OH229147   2.454   1.639   4.499
 9728TIP3    H129148   2.545   1.661   4.518
 9728TIP3    H229149   2.454   1.608   4.409
 9729TIP3   OH229150   3.117   4.083   1.178
 9729TIP3    H129151   3.053   4.031   1.128
 9729TIP3    H229152   3.097   4.063   1.270
 9730TIP3   OH229153   2.910   1.385   3.682
 9730TIP3    H129154   2.943   1.297   3.699
 9730TIP3    H229155   2.839   1.397   3.745
 9731TIP3   OH229156   0.584   0.069   0.018
 9731TIP3    H129157   0.592   0.138   0.083
 9731TIP3    H229158   0.506   0.021   0.044
 9732TIP3   OH229159   7.101   5.427   2.844
 9732TIP3    H129160   7.145   5.409   2.927
 9732TIP3    H229161   7.029   5.364   2.841
 9733TIP3   OH229162   6.132   1.768   0.073
 9733TIP3    H129163   6.046   1.753   0.112
 9733TIP3    H229164   6.188   1.792   0.146
 9734TIP3   OH229165   0.133   5.090   4.409
 9734TIP3    H129166   0.053   5.138   4.387
 9734TIP3    H229167   0.133   5.015   4.349
 9735TIP3   OH229168   2.765   2.422   4.129
 9735TIP3    H129169   2.779   2.461   4.216
 9735TIP3    H229170   2.734   2.334   4.148
 9736TIP3   OH229171   3.744   1.677   1.466
 9736TIP3    H129172   3.747   1.650   1.375
 9736TIP3    H229173   3.652   1.699   1.481
 9737TIP3   OH229174   5.541   0.500   2.892
 9737TIP3    H129175   5.542   0.552   2.973
 9737TIP3    H229176   5.505   0.416   2.919
 9738TIP3   OH229177   2.986   5.960   1.510
 9738TIP3    H129178   2.955   5.994   1.594
 9738TIP3    H229179   3.049   5.891   1.534
 9739TIP3   OH229180   3.070   3.364   5.495
 9739TIP3    H129181   3.035   3.389   5.410
 9739TIP3    H229182   3.121   3.440   5.523
 9740TIP3   OH229183   0.680   6.334   2.920
 9740TIP3    H129184   0.743   6.270   2.954
 9740TIP3    H229185   0.722   6.370   2.842
 9741TIP3   OH229186   0.866   2.707   5.328
 9741TIP3    H129187   0.950   2.752   5.337
 9741TIP3    H229188   0.815   2.765   5.271
 9742TIP3   OH229189   3.763   1.703   0.838
 9742TIP3    H129190   3.811   1.649   0.900
 9742TIP3    H229191   3.701   1.753   0.891
 9743TIP3   OH229192   0.432   1.214   3.979
 9743TIP3    H129193   0.507   1.273   3.986
 9743TIP3    H229194   0.375   1.240   4.051
 9744TIP3   OH229195   4.964   0.503   4.155
 9744TIP3    H129196   4.996   0.517   4.245
 9744TIP3    H229197   4.874   0.473   4.166
 9745TIP3   OH229198   0.477   2.843   0.156
 9745TIP3    H129199   0.451   2.879   0.241
 9745TIP3    H229200   0.481   2.920   0.099
 9746TIP3   OH229201   5.387   4.881   0.193
 9746TIP3    H129202   5.465   4.935   0.182
 9746TIP3    H229203   5.335   4.926   0.259
 9747TIP3   OH229204   6.123   5.089   4.864
 9747TIP3    H129205   6.153   5.006   4.828
 9747TIP3    H229206   6.204   5.134   4.890
 9748TIP3   OH229207   2.428   2.428   1.198
 9748TIP3    H129208   2.452   2.406   1.108
 9748TIP3    H229209   2.378   2.352   1.229
 9749TIP3   OH229210   5.166   1.812   1.628
 9749TIP3    H129211   5.196   1.800   1.719
 9749TIP3    H229212   5.091   1.870   1.634
   7.22119   6.80821   5.89607   0.00000   0.00000  -2.40707   0.00000  -2.40707  -3.40410
